<?xml version="1.0" encoding="ISO-8859-1"?>
<modeling>
 <generator>
  <i name="program" type="string">vasp </i>
  <i name="version" type="string">6.3.2  </i>
  <i name="subversion" type="string">27Jun22 (build Aug 12 2022 00:53:59) complex                          parallel </i>
  <i name="platform" type="string">tv2STD </i>
  <i name="date" type="string">2024 12 03 </i>
  <i name="time" type="string">02:20:13 </i>
 </generator>
 <incar>
  <i type="string" name="SYSTEM">Pt-fcc</i>
  <i type="int" name="ISTART">     0</i>
  <i type="string" name="PREC">accurate      normal | accurate</i>
  <i type="string" name="ALGO">Normal     Normal, Fast, Very_Fast</i>
  <i type="logical" name="ADDGRID"> F  </i>
  <i type="int" name="ICHARG">     2</i>
  <i type="int" name="INIWAV">     1</i>
  <i type="int" name="NELM">   100</i>
  <i type="int" name="IBRION">     2</i>
  <i name="EDIFF">      0.00000100</i>
  <i name="EDIFFG">     -0.02000000</i>
  <i type="int" name="NSW">   100</i>
  <i type="int" name="ISIF">     2</i>
  <i type="int" name="ISYM">     1</i>
  <i name="ENCUT">    425.00000000</i>
  <i type="logical" name="LREAL"> F  </i>
  <i type="int" name="ISMEAR">     0</i>
  <i name="SIGMA">      0.05000000</i>
  <i type="int" name="NWRITE">     2</i>
  <i type="logical" name="LWAVE"> T  </i>
  <i type="logical" name="LCHARG"> T  </i>
  <i type="int" name="LORBIT">    11</i>
 </incar>
 <primitive_cell>
  <structure name="primitive_cell" >
   <crystal>
    <varray name="basis" >
     <v>       0.00000000       2.01842560       2.01842560 </v>
     <v>       2.01842560       0.00000000       2.01842560 </v>
     <v>       2.01842560       2.01842560       0.00000000 </v>
    </varray>
    <i name="volume">     16.44630099 </i>
    <varray name="rec_basis" >
     <v>      -0.24771782       0.24771782       0.24771782 </v>
     <v>       0.24771782      -0.24771782       0.24771782 </v>
     <v>       0.24771782       0.24771782      -0.24771782 </v>
    </varray>
   </crystal>
   <varray name="positions" >
    <v>       0.00000000       0.00000000       0.00000000 </v>
   </varray>
  </structure>
  <varray name="primitive_index" >
   <v type="int" >        1 </v>
  </varray>
 </primitive_cell>
 <kpoints>
  <generation param="Monkhorst-Pack">
   <v type="int" name="divisions">      10       10       10 </v>
   <v name="usershift">      0.00000000       0.00000000       0.00000000 </v>
   <v name="genvec1">      0.10000000       0.00000000       0.00000000 </v>
   <v name="genvec2">      0.00000000       0.10000000       0.00000000 </v>
   <v name="genvec3">      0.00000000       0.00000000       0.10000000 </v>
   <v name="shift">      0.50000000       0.50000000       0.50000000 </v>
  </generation>
  <varray name="kpointlist" >
   <v>       0.05000000       0.05000000       0.05000000 </v>
   <v>       0.15000000       0.05000000       0.05000000 </v>
   <v>       0.25000000       0.05000000       0.05000000 </v>
   <v>       0.35000000       0.05000000       0.05000000 </v>
   <v>       0.45000000       0.05000000       0.05000000 </v>
   <v>      -0.45000000       0.05000000       0.05000000 </v>
   <v>      -0.35000000       0.05000000       0.05000000 </v>
   <v>      -0.25000000       0.05000000       0.05000000 </v>
   <v>      -0.15000000       0.05000000       0.05000000 </v>
   <v>      -0.05000000       0.05000000       0.05000000 </v>
   <v>       0.15000000       0.15000000       0.05000000 </v>
   <v>       0.25000000       0.15000000       0.05000000 </v>
   <v>       0.35000000       0.15000000       0.05000000 </v>
   <v>       0.45000000       0.15000000       0.05000000 </v>
   <v>      -0.45000000       0.15000000       0.05000000 </v>
   <v>      -0.35000000       0.15000000       0.05000000 </v>
   <v>      -0.25000000       0.15000000       0.05000000 </v>
   <v>      -0.15000000       0.15000000       0.05000000 </v>
   <v>      -0.05000000       0.15000000       0.05000000 </v>
   <v>       0.25000000       0.25000000       0.05000000 </v>
   <v>       0.35000000       0.25000000       0.05000000 </v>
   <v>       0.45000000       0.25000000       0.05000000 </v>
   <v>      -0.45000000       0.25000000       0.05000000 </v>
   <v>      -0.35000000       0.25000000       0.05000000 </v>
   <v>      -0.25000000       0.25000000       0.05000000 </v>
   <v>      -0.15000000       0.25000000       0.05000000 </v>
   <v>      -0.05000000       0.25000000       0.05000000 </v>
   <v>       0.35000000       0.35000000       0.05000000 </v>
   <v>       0.45000000       0.35000000       0.05000000 </v>
   <v>      -0.45000000       0.35000000       0.05000000 </v>
   <v>      -0.35000000       0.35000000       0.05000000 </v>
   <v>      -0.25000000       0.35000000       0.05000000 </v>
   <v>      -0.15000000       0.35000000       0.05000000 </v>
   <v>      -0.05000000       0.35000000       0.05000000 </v>
   <v>       0.45000000       0.45000000       0.05000000 </v>
   <v>      -0.45000000       0.45000000       0.05000000 </v>
   <v>      -0.35000000       0.45000000       0.05000000 </v>
   <v>      -0.25000000       0.45000000       0.05000000 </v>
   <v>      -0.15000000       0.45000000       0.05000000 </v>
   <v>      -0.05000000       0.45000000       0.05000000 </v>
   <v>      -0.45000000      -0.45000000       0.05000000 </v>
   <v>      -0.35000000      -0.45000000       0.05000000 </v>
   <v>      -0.25000000      -0.45000000       0.05000000 </v>
   <v>      -0.15000000      -0.45000000       0.05000000 </v>
   <v>      -0.35000000      -0.35000000       0.05000000 </v>
   <v>      -0.25000000      -0.35000000       0.05000000 </v>
   <v>      -0.15000000      -0.35000000       0.05000000 </v>
   <v>      -0.25000000      -0.25000000       0.05000000 </v>
   <v>      -0.15000000      -0.25000000       0.05000000 </v>
   <v>      -0.15000000      -0.15000000       0.05000000 </v>
   <v>       0.15000000       0.15000000       0.15000000 </v>
   <v>       0.25000000       0.15000000       0.15000000 </v>
   <v>       0.35000000       0.15000000       0.15000000 </v>
   <v>       0.45000000       0.15000000       0.15000000 </v>
   <v>      -0.45000000       0.15000000       0.15000000 </v>
   <v>      -0.35000000       0.15000000       0.15000000 </v>
   <v>      -0.25000000       0.15000000       0.15000000 </v>
   <v>      -0.15000000       0.15000000       0.15000000 </v>
   <v>       0.25000000       0.25000000       0.15000000 </v>
   <v>       0.35000000       0.25000000       0.15000000 </v>
   <v>       0.45000000       0.25000000       0.15000000 </v>
   <v>      -0.45000000       0.25000000       0.15000000 </v>
   <v>      -0.35000000       0.25000000       0.15000000 </v>
   <v>      -0.25000000       0.25000000       0.15000000 </v>
   <v>      -0.15000000       0.25000000       0.15000000 </v>
   <v>       0.35000000       0.35000000       0.15000000 </v>
   <v>       0.45000000       0.35000000       0.15000000 </v>
   <v>      -0.45000000       0.35000000       0.15000000 </v>
   <v>      -0.35000000       0.35000000       0.15000000 </v>
   <v>      -0.25000000       0.35000000       0.15000000 </v>
   <v>      -0.15000000       0.35000000       0.15000000 </v>
   <v>       0.45000000       0.45000000       0.15000000 </v>
   <v>      -0.45000000       0.45000000       0.15000000 </v>
   <v>      -0.35000000       0.45000000       0.15000000 </v>
   <v>      -0.25000000       0.45000000       0.15000000 </v>
   <v>      -0.15000000       0.45000000       0.15000000 </v>
   <v>      -0.45000000      -0.45000000       0.15000000 </v>
   <v>      -0.35000000      -0.45000000       0.15000000 </v>
   <v>      -0.25000000      -0.45000000       0.15000000 </v>
   <v>      -0.35000000      -0.35000000       0.15000000 </v>
   <v>      -0.25000000      -0.35000000       0.15000000 </v>
   <v>      -0.25000000      -0.25000000       0.15000000 </v>
   <v>       0.25000000       0.25000000       0.25000000 </v>
   <v>       0.35000000       0.25000000       0.25000000 </v>
   <v>       0.45000000       0.25000000       0.25000000 </v>
   <v>      -0.45000000       0.25000000       0.25000000 </v>
   <v>      -0.35000000       0.25000000       0.25000000 </v>
   <v>      -0.25000000       0.25000000       0.25000000 </v>
   <v>       0.35000000       0.35000000       0.25000000 </v>
   <v>       0.45000000       0.35000000       0.25000000 </v>
   <v>      -0.45000000       0.35000000       0.25000000 </v>
   <v>      -0.35000000       0.35000000       0.25000000 </v>
   <v>      -0.25000000       0.35000000       0.25000000 </v>
   <v>       0.45000000       0.45000000       0.25000000 </v>
   <v>      -0.45000000       0.45000000       0.25000000 </v>
   <v>      -0.35000000       0.45000000       0.25000000 </v>
   <v>      -0.25000000       0.45000000       0.25000000 </v>
   <v>      -0.45000000      -0.45000000       0.25000000 </v>
   <v>      -0.35000000      -0.45000000       0.25000000 </v>
   <v>      -0.35000000      -0.35000000       0.25000000 </v>
   <v>       0.35000000       0.35000000       0.35000000 </v>
   <v>       0.45000000       0.35000000       0.35000000 </v>
   <v>      -0.45000000       0.35000000       0.35000000 </v>
   <v>      -0.35000000       0.35000000       0.35000000 </v>
   <v>       0.45000000       0.45000000       0.35000000 </v>
   <v>      -0.45000000       0.45000000       0.35000000 </v>
   <v>      -0.35000000       0.45000000       0.35000000 </v>
   <v>      -0.45000000      -0.45000000       0.35000000 </v>
   <v>       0.45000000       0.45000000       0.45000000 </v>
   <v>      -0.45000000       0.45000000       0.45000000 </v>
  </varray>
  <varray name="weights" >
   <v>       0.00200000 </v>
   <v>       0.00600000 </v>
   <v>       0.00600000 </v>
   <v>       0.00600000 </v>
   <v>       0.00600000 </v>
   <v>       0.00600000 </v>
   <v>       0.00600000 </v>
   <v>       0.00600000 </v>
   <v>       0.00600000 </v>
   <v>       0.00600000 </v>
   <v>       0.00600000 </v>
   <v>       0.01200000 </v>
   <v>       0.01200000 </v>
   <v>       0.01200000 </v>
   <v>       0.01200000 </v>
   <v>       0.01200000 </v>
   <v>       0.01200000 </v>
   <v>       0.01200000 </v>
   <v>       0.01200000 </v>
   <v>       0.00600000 </v>
   <v>       0.01200000 </v>
   <v>       0.01200000 </v>
   <v>       0.01200000 </v>
   <v>       0.01200000 </v>
   <v>       0.01200000 </v>
   <v>       0.01200000 </v>
   <v>       0.01200000 </v>
   <v>       0.00600000 </v>
   <v>       0.01200000 </v>
   <v>       0.01200000 </v>
   <v>       0.01200000 </v>
   <v>       0.01200000 </v>
   <v>       0.01200000 </v>
   <v>       0.01200000 </v>
   <v>       0.00600000 </v>
   <v>       0.01200000 </v>
   <v>       0.01200000 </v>
   <v>       0.01200000 </v>
   <v>       0.01200000 </v>
   <v>       0.01200000 </v>
   <v>       0.00600000 </v>
   <v>       0.01200000 </v>
   <v>       0.01200000 </v>
   <v>       0.01200000 </v>
   <v>       0.00600000 </v>
   <v>       0.01200000 </v>
   <v>       0.01200000 </v>
   <v>       0.00600000 </v>
   <v>       0.01200000 </v>
   <v>       0.00600000 </v>
   <v>       0.00200000 </v>
   <v>       0.00600000 </v>
   <v>       0.00600000 </v>
   <v>       0.00600000 </v>
   <v>       0.00600000 </v>
   <v>       0.00600000 </v>
   <v>       0.00600000 </v>
   <v>       0.00600000 </v>
   <v>       0.00600000 </v>
   <v>       0.01200000 </v>
   <v>       0.01200000 </v>
   <v>       0.01200000 </v>
   <v>       0.01200000 </v>
   <v>       0.01200000 </v>
   <v>       0.01200000 </v>
   <v>       0.00600000 </v>
   <v>       0.01200000 </v>
   <v>       0.01200000 </v>
   <v>       0.01200000 </v>
   <v>       0.01200000 </v>
   <v>       0.01200000 </v>
   <v>       0.00600000 </v>
   <v>       0.01200000 </v>
   <v>       0.01200000 </v>
   <v>       0.01200000 </v>
   <v>       0.01200000 </v>
   <v>       0.00600000 </v>
   <v>       0.01200000 </v>
   <v>       0.01200000 </v>
   <v>       0.00600000 </v>
   <v>       0.01200000 </v>
   <v>       0.00600000 </v>
   <v>       0.00200000 </v>
   <v>       0.00600000 </v>
   <v>       0.00600000 </v>
   <v>       0.00600000 </v>
   <v>       0.00600000 </v>
   <v>       0.00600000 </v>
   <v>       0.00600000 </v>
   <v>       0.01200000 </v>
   <v>       0.01200000 </v>
   <v>       0.01200000 </v>
   <v>       0.01200000 </v>
   <v>       0.00600000 </v>
   <v>       0.01200000 </v>
   <v>       0.01200000 </v>
   <v>       0.01200000 </v>
   <v>       0.00600000 </v>
   <v>       0.01200000 </v>
   <v>       0.00600000 </v>
   <v>       0.00200000 </v>
   <v>       0.00600000 </v>
   <v>       0.00600000 </v>
   <v>       0.00600000 </v>
   <v>       0.00600000 </v>
   <v>       0.01200000 </v>
   <v>       0.01200000 </v>
   <v>       0.00600000 </v>
   <v>       0.00200000 </v>
   <v>       0.00600000 </v>
  </varray>
 </kpoints>
 <parameters>
  <separator name="general" >
   <i type="string" name="SYSTEM">Pt-fcc</i>
   <i type="logical" name="LCOMPAT"> F  </i>
  </separator>
  <separator name="electronic" >
   <i type="string" name="PREC">accura</i>
   <i name="ENMAX">    425.00000000</i>
   <i name="ENAUG">    527.01400000</i>
   <i name="EDIFF">      0.00000100</i>
   <i type="int" name="IALGO">    38</i>
   <i type="int" name="IWAVPR">    11</i>
   <i type="int" name="NBANDS">    24</i>
   <i type="int" name="NBANDSLOW">    -1</i>
   <i type="int" name="NBANDSHIGH">    -1</i>
   <i name="NELECT">     16.00000000</i>
   <i type="int" name="TURBO">     0</i>
   <i type="int" name="IRESTART">     0</i>
   <i type="int" name="NREBOOT">     0</i>
   <i type="int" name="NMIN">     0</i>
   <i name="EREF">      0.00000000</i>
   <separator name="electronic smearing" >
    <i type="int" name="ISMEAR">     0</i>
    <i name="SIGMA">      0.05000000</i>
    <i name="KSPACING">      0.50000000</i>
    <i type="logical" name="KGAMMA"> T  </i>
    <i type="logical" name="KBLOWUP"> T  </i>
   </separator>
   <separator name="electronic projectors" >
    <i type="logical" name="LREAL"> F  </i>
    <v name="ROPT">      0.00000000</v>
    <i type="int" name="LMAXPAW">  -100</i>
    <i type="int" name="LMAXMIX">     2</i>
    <i type="logical" name="NLSPLINE"> F  </i>
   </separator>
   <separator name="electronic startup" >
    <i type="int" name="ISTART">     0</i>
    <i type="int" name="ICHARG">     2</i>
    <i type="int" name="INIWAV">     1</i>
   </separator>
   <separator name="electronic spin" >
    <i type="int" name="ISPIN">     1</i>
    <i type="logical" name="LNONCOLLINEAR"> F  </i>
    <v name="MAGMOM">      1.00000000</v>
    <i name="NUPDOWN">     -1.00000000</i>
    <i type="logical" name="LSORBIT"> F  </i>
    <v name="SAXIS">      0.00000000      0.00000000      1.00000000</v>
    <i type="logical" name="LSPIRAL"> F  </i>
    <v name="QSPIRAL">      0.00000000      0.00000000      0.00000000</v>
    <i type="logical" name="LZEROZ"> F  </i>
   </separator>
   <separator name="electronic exchange-correlation" >
    <i type="logical" name="LASPH"> F  </i>
    <i type="logical" name="LMETAGGA"> F  </i>
   </separator>
   <separator name="electronic convergence" >
    <i type="int" name="NELM">   100</i>
    <i type="int" name="NELMDL">    -5</i>
    <i type="int" name="NELMIN">     2</i>
    <i name="ENINI">    425.00000000</i>
    <separator name="electronic convergence detail" >
     <i type="logical" name="LDIAG"> T  </i>
     <i type="logical" name="LSUBROT"> F  </i>
     <i name="WEIMIN">      0.00100000</i>
     <i name="EBREAK">      0.00000001</i>
     <i name="DEPER">      0.30000000</i>
     <i type="int" name="NRMM">     4</i>
     <i name="TIME">      0.40000000</i>
    </separator>
   </separator>
   <separator name="electronic mixer" >
    <i name="AMIX">      0.40000000</i>
    <i name="BMIX">      1.00000000</i>
    <i name="AMIN">      0.10000000</i>
    <i name="AMIX_MAG">      1.60000000</i>
    <i name="BMIX_MAG">      1.00000000</i>
    <separator name="electronic mixer details" >
     <i type="int" name="IMIX">     4</i>
     <i type="logical" name="MIXFIRST"> F  </i>
     <i type="int" name="MAXMIX">   -45</i>
     <i name="WC">    100.00000000</i>
     <i type="int" name="INIMIX">     1</i>
     <i type="int" name="MIXPRE">     1</i>
     <i type="int" name="MREMOVE">     5</i>
    </separator>
   </separator>
   <separator name="electronic dipolcorrection" >
    <i type="logical" name="LDIPOL"> F  </i>
    <i type="logical" name="LMONO"> F  </i>
    <i type="int" name="IDIPOL">     0</i>
    <i name="EPSILON">      1.00000000</i>
    <v name="DIPOL">   -100.00000000   -100.00000000   -100.00000000</v>
    <i name="EFIELD">      0.00000000</i>
   </separator>
  </separator>
  <separator name="grids" >
   <i type="int" name="NGX">    20</i>
   <i type="int" name="NGY">    20</i>
   <i type="int" name="NGZ">    20</i>
   <i type="int" name="NGXF">    40</i>
   <i type="int" name="NGYF">    40</i>
   <i type="int" name="NGZF">    40</i>
   <i type="logical" name="ADDGRID"> F  </i>
  </separator>
  <separator name="ionic" >
   <i type="int" name="NSW">   100</i>
   <i type="int" name="IBRION">     2</i>
   <i type="int" name="MDALGO">     0</i>
   <i type="int" name="ISIF">     2</i>
   <i name="PSTRESS">      0.00000000</i>
   <i name="EDIFFG">     -0.02000000</i>
   <i type="int" name="NFREE">     1</i>
   <i name="POTIM">      0.50000000</i>
   <i name="SMASS">     -3.00000000</i>
   <i name="SCALEE">      1.00000000</i>
  </separator>
  <separator name="ionic md" >
   <i name="TEBEG">      0.00010000</i>
   <i name="TEEND">      0.00010000</i>
   <i type="int" name="NBLOCK">     1</i>
   <i type="int" name="KBLOCK">   100</i>
   <i type="int" name="NPACO">   256</i>
   <i name="APACO">     10.00000000</i>
  </separator>
  <separator name="symmetry" >
   <i type="int" name="ISYM">     1</i>
   <i name="SYMPREC">      0.00001000</i>
  </separator>
  <separator name="dos" >
   <i type="int" name="LORBIT">    11</i>
   <v name="RWIGS">     -1.00000000</v>
   <i type="int" name="NEDOS">   301</i>
   <i name="EMIN">     10.00000000</i>
   <i name="EMAX">    -10.00000000</i>
   <i name="EFERMI">      0.00000000</i>
  </separator>
  <separator name="writing" >
   <i type="int" name="NWRITE">     2</i>
   <i type="logical" name="LWAVE"> T  </i>
   <i type="logical" name="LDOWNSAMPLE"> F  </i>
   <i type="logical" name="LCHARG"> T  </i>
   <i type="logical" name="LPARD"> F  </i>
   <i type="logical" name="LVTOT"> F  </i>
   <i type="logical" name="LVHAR"> F  </i>
   <i type="logical" name="LELF"> F  </i>
   <i type="logical" name="LOPTICS"> F  </i>
   <v name="STM">      0.00000000      0.00000000      0.00000000      0.00000000      0.00000000      0.00000000      0.00000000</v>
  </separator>
  <separator name="performance" >
   <i type="int" name="NPAR">    24</i>
   <i type="int" name="NSIM">     4</i>
   <i type="int" name="NBLK">    -1</i>
   <i type="logical" name="LPLANE"> T  </i>
   <i type="logical" name="LSCALAPACK"> T  </i>
   <i type="logical" name="LSCAAWARE"> T  </i>
   <i type="logical" name="LSCALU"> F  </i>
   <i type="logical" name="LASYNC"> F  </i>
   <i type="logical" name="LORBITALREAL"> F  </i>
  </separator>
  <separator name="miscellaneous" >
   <i type="int" name="IDIOT">     3</i>
   <i type="int" name="PHON_NSTRUCT">    -1</i>
   <i type="logical" name="LMUSIC"> F  </i>
   <v name="POMASS">    195.08000000</v>
   <v name="DARWINR">      0.00000000</v>
   <v name="DARWINV">      1.00000000</v>
   <i type="logical" name="LCORR"> T  </i>
  </separator>
  <i type="logical" name="GGA_COMPAT"> T  </i>
  <i type="logical" name="LBERRY"> F  </i>
  <i type="int" name="ICORELEVEL">     0</i>
  <i type="logical" name="LDAU"> F  </i>
  <i type="int" name="I_CONSTRAINED_M">     0</i>
  <separator name="electronic exchange-correlation" >
   <i type="string" name="GGA">--</i>
   <i type="int" name="VOSKOWN">     0</i>
   <i type="logical" name="LHFCALC"> F  </i>
   <i type="string" name="PRECFOCK"></i>
   <i type="logical" name="LSYMGRAD"> F  </i>
   <i type="logical" name="LHFONE"> F  </i>
   <i type="logical" name="LRHFCALC"> F  </i>
   <i type="logical" name="LTHOMAS"> F  </i>
   <i type="logical" name="LMODELHF"> F  </i>
   <i type="logical" name="LFOCKACE"> F  </i>
   <i name="ENCUT4O">     -1.00000000</i>
   <i type="int" name="EXXOEP">     0</i>
   <i type="int" name="FOURORBIT">     0</i>
   <i name="AEXX">      0.00000000</i>
   <i name="HFALPHA">      0.00000000</i>
   <i name="MCALPHA">      0.00000000</i>
   <i name="ALDAX">      1.00000000</i>
   <i name="AGGAX">      1.00000000</i>
   <i name="ALDAC">      1.00000000</i>
   <i name="AGGAC">      1.00000000</i>
   <i type="int" name="NKREDX">     1</i>
   <i type="int" name="NKREDY">     1</i>
   <i type="int" name="NKREDZ">     1</i>
   <i type="logical" name="SHIFTRED"> F  </i>
   <i type="logical" name="ODDONLY"> F  </i>
   <i type="logical" name="EVENONLY"> F  </i>
   <i type="int" name="LMAXFOCK">     0</i>
   <i type="int" name="NMAXFOCKAE">     0</i>
   <i type="logical" name="LFOCKAEDFT"> F  </i>
   <i name="HFSCREEN">      0.00000000</i>
   <i name="HFSCREENC">      0.00000000</i>
   <i type="int" name="NBANDSGWLOW">     0</i>
  </separator>
  <separator name="vdW DFT" >
   <i type="logical" name="LUSE_VDW"> F  </i>
   <i name="Zab_VDW">     -0.84910000</i>
   <i name="PARAM1">      0.12340000</i>
   <i name="PARAM2">      1.00000000</i>
   <i name="PARAM3">      0.00000000</i>
  </separator>
  <separator name="model GW" >
   <i type="int" name="MODEL_GW">     0</i>
   <i name="MODEL_EPS0">      9.86778060</i>
   <i name="MODEL_ALPHA">      1.00000000</i>
  </separator>
  <separator name="linear response parameters" >
   <i type="logical" name="LEPSILON"> F  </i>
   <i type="logical" name="LRPA"> F  </i>
   <i type="logical" name="LNABLA"> F  </i>
   <i type="logical" name="LVEL"> F  </i>
   <i name="CSHIFT">      0.10000000</i>
   <i name="OMEGAMAX">     -1.00000000</i>
   <i name="DEG_THRESHOLD">      0.00200000</i>
   <i name="RTIME">     -0.10000000</i>
   <i name="WPLASMAI">      0.00000000</i>
   <v name="DFIELD">      0.00000000      0.00000000      0.00000000</v>
   <v name="WPLASMA">      0.00000000      0.00000000      0.00000000      0.00000000      0.00000000      0.00000000      0.00000000      0.00000000      0.00000000</v>
  </separator>
  <separator name="orbital magnetization" >
   <i type="logical" name="NUCIND"> F  </i>
   <v name="MAGPOS">      0.00000000      0.00000000      0.00000000</v>
   <i type="logical" name="LNICSALL"> T  </i>
   <i type="logical" name="ORBITALMAG"> F  </i>
   <i type="logical" name="LMAGBLOCH"> F  </i>
   <i type="logical" name="LCHIMAG"> F  </i>
   <i type="logical" name="LGAUGE"> T  </i>
   <i type="int" name="MAGATOM">     0</i>
   <v name="MAGDIPOL">      0.00000000      0.00000000      0.00000000</v>
   <v name="AVECCONST">      0.00000000      0.00000000      0.00000000</v>
  </separator>
  <separator name="response functions" >
   <i type="logical" name="LFINITE_TEMPERATURE"> F  </i>
   <i type="logical" name="LADDER"> F  </i>
   <i type="logical" name="LRPAFORCE"> F  </i>
   <i type="logical" name="LFXC"> F  </i>
   <i type="logical" name="LHARTREE"> T  </i>
   <i type="int" name="IBSE">     0</i>
   <v type="int" name="KPOINT">    -1     0     0     0</v>
   <i type="logical" name="LTCTC"> F  </i>
   <i type="logical" name="LTCTE"> F  </i>
   <i type="logical" name="LTETE"> F  </i>
   <i type="logical" name="LTRIPLET"> F  </i>
   <i type="logical" name="LFXCEPS"> F  </i>
   <i type="logical" name="LFXHEG"> F  </i>
   <i type="int" name="NATURALO">     2</i>
   <i type="logical" name="LHOLEGF"> F  </i>
   <i type="logical" name="L2ORDER"> F  </i>
   <i type="logical" name="LDMP1"> F  </i>
   <i type="logical" name="LMP2LT"> F  </i>
   <i type="logical" name="LSMP2LT"> F  </i>
   <i type="logical" name="LGWLF"> F  </i>
   <i name="ENCUTGW">     -2.00000000</i>
   <i name="ENCUTGWSOFT">     -2.00000000</i>
   <i name="ENCUTLF">     -1.00000000</i>
   <i type="logical" name="LESF_SPLINES"> F  </i>
   <i type="int" name="LMAXMP2">    -1</i>
   <i name="SCISSOR">      0.00000000</i>
   <i type="int" name="NOMEGA">     0</i>
   <i type="int" name="NOMEGAR">     0</i>
   <i type="int" name="NBANDSGW">    -1</i>
   <i type="int" name="NBANDSO">    -1</i>
   <i type="int" name="NBANDSV">    -1</i>
   <i type="int" name="NELMGW">     1</i>
   <i type="int" name="NELMHF">     1</i>
   <i type="int" name="DIM">     3</i>
   <i type="int" name="IESPILON">     4</i>
   <i type="int" name="ANTIRES">     0</i>
   <i name="OMEGAMAX">    -30.00000000</i>
   <i name="OMEGAMIN">    -30.00000000</i>
   <i name="OMEGATL">   -200.00000000</i>
   <i type="int" name="OMEGAGRID">     0</i>
   <i name="CSHIFT">     -0.10000000</i>
   <i type="logical" name="LSELFENERGY"> F  </i>
   <i type="logical" name="LSPECTRAL"> F  </i>
   <i type="logical" name="LSPECTRALGW"> F  </i>
   <i type="logical" name="LSINGLES"> F  </i>
   <i type="logical" name="LFERMIGW"> F  </i>
   <i type="logical" name="ODDONLYGW"> F  </i>
   <i type="logical" name="EVENONLYGW"> F  </i>
   <i type="int" name="NKREDLFX">     1</i>
   <i type="int" name="NKREDLFY">     1</i>
   <i type="int" name="NKREDLFZ">     1</i>
   <i type="int" name="MAXMEM">  2800</i>
   <i type="int" name="TELESCOPE">     0</i>
   <i type="int" name="NTAUPAR">    -1</i>
   <i type="int" name="NOMEGAPAR">    -1</i>
   <i name="DAMP_NEWTON">      0.80000001</i>
   <i name="LAMBDA">      1.00000000</i>
  </separator>
  <separator name="External order field" >
   <i name="OFIELD_KAPPA">      0.00000000</i>
   <v name="OFIELD_K">      0.00000000      0.00000000      0.00000000</v>
   <i name="OFIELD_Q6_NEAR">      0.00000000</i>
   <i name="OFIELD_Q6_FAR">      0.00000000</i>
   <i name="OFIELD_A">      0.00000000</i>
  </separator>
  <separator name="optional k-points parameters" >
   <i type="int" name="KPOINTS_OPT_MODE">     1</i>
   <i type="logical" name="LKPOINTS_OPT"> F  </i>
  </separator>
 </parameters>
 <atominfo>
  <atoms>       1 </atoms>
  <types>       1 </types>
  <array name="atoms" >
   <dimension dim="1">ion</dimension>
   <field type="string">element</field>
   <field type="int">atomtype</field>
   <set>
    <rc><c>Pt</c><c>   1</c></rc>
   </set>
  </array>
  <array name="atomtypes" >
   <dimension dim="1">type</dimension>
   <field type="int">atomspertype</field>
   <field type="string">element</field>
   <field>mass</field>
   <field>valence</field>
   <field type="string">pseudopotential</field>
   <set>
    <rc><c>   1</c><c>Pt</c><c>    195.08000000</c><c>     16.00000000</c><c>  PAW_PBE Pt_pv 12Dec2005               </c></rc>
   </set>
  </array>
 </atominfo>
 <structure name="initialpos" >
  <crystal>
   <varray name="basis" >
    <v>       0.00000000       2.01842560       2.01842560 </v>
    <v>       2.01842560       0.00000000       2.01842560 </v>
    <v>       2.01842560       2.01842560       0.00000000 </v>
   </varray>
   <i name="volume">     16.44630099 </i>
   <varray name="rec_basis" >
    <v>      -0.24771782       0.24771782       0.24771782 </v>
    <v>       0.24771782      -0.24771782       0.24771782 </v>
    <v>       0.24771782       0.24771782      -0.24771782 </v>
   </varray>
  </crystal>
  <varray name="positions" >
   <v>       0.00000000       0.00000000       0.00000000 </v>
  </varray>
 </structure>
 <calculation>
  <scstep>
   <time name="dav">    0.49    0.50</time>
   <time name="total">    0.50    0.50</time>
   <energy>
    <i name="alphaZ">    145.88803652 </i>
    <i name="ewald">  -2093.38725727 </i>
    <i name="hartreedc">   -422.07670795 </i>
    <i name="XCdc">     63.46467179 </i>
    <i name="pawpsdc">   2065.75261637 </i>
    <i name="pawaedc">  -2030.83594803 </i>
    <i name="eentropy">     -0.00129333 </i>
    <i name="bandstr">   -138.56809958 </i>
    <i name="atom">   2428.19501064 </i>
    <i name="e_fr_energy">     18.43102918 </i>
    <i name="e_wo_entrp">     18.43232251 </i>
    <i name="e_0_energy">     18.43167585 </i>
   </energy>
  </scstep>
  <scstep>
   <time name="dav">    0.67    0.67</time>
   <time name="total">    0.67    0.67</time>
   <energy>
    <i name="e_fr_energy">     -6.37711525 </i>
    <i name="e_wo_entrp">     -6.37512078 </i>
    <i name="e_0_energy">     -6.37611802 </i>
   </energy>
  </scstep>
  <scstep>
   <time name="dav">    0.69    0.69</time>
   <time name="total">    0.69    0.69</time>
   <energy>
    <i name="e_fr_energy">     -6.41743720 </i>
    <i name="e_wo_entrp">     -6.41539257 </i>
    <i name="e_0_energy">     -6.41641489 </i>
   </energy>
  </scstep>
  <scstep>
   <time name="dav">    0.96    0.97</time>
   <time name="total">    0.96    0.97</time>
   <energy>
    <i name="e_fr_energy">     -6.41746980 </i>
    <i name="e_wo_entrp">     -6.41542517 </i>
    <i name="e_0_energy">     -6.41644748 </i>
   </energy>
  </scstep>
  <scstep>
   <time name="dav">    0.70    0.70</time>
   <time name="total">    0.72    0.72</time>
   <energy>
    <i name="e_fr_energy">     -6.41746980 </i>
    <i name="e_wo_entrp">     -6.41542517 </i>
    <i name="e_0_energy">     -6.41644749 </i>
   </energy>
  </scstep>
  <scstep>
   <time name="dav">    0.50    0.50</time>
   <time name="total">    0.52    0.53</time>
   <energy>
    <i name="e_fr_energy">     -6.07017133 </i>
    <i name="e_wo_entrp">     -6.06745916 </i>
    <i name="e_0_energy">     -6.06881525 </i>
   </energy>
  </scstep>
  <scstep>
   <time name="dav">    0.82    0.83</time>
   <time name="total">    0.84    0.85</time>
   <energy>
    <i name="e_fr_energy">     -6.05601198 </i>
    <i name="e_wo_entrp">     -6.05321298 </i>
    <i name="e_0_energy">     -6.05461248 </i>
   </energy>
  </scstep>
  <scstep>
   <time name="dav">    0.56    0.57</time>
   <time name="total">    0.59    0.59</time>
   <energy>
    <i name="e_fr_energy">     -6.05467428 </i>
    <i name="e_wo_entrp">     -6.05184546 </i>
    <i name="e_0_energy">     -6.05325987 </i>
   </energy>
  </scstep>
  <scstep>
   <time name="dav">    0.81    0.82</time>
   <time name="total">    0.84    0.84</time>
   <energy>
    <i name="e_fr_energy">     -6.05463337 </i>
    <i name="e_wo_entrp">     -6.05180840 </i>
    <i name="e_0_energy">     -6.05322089 </i>
   </energy>
  </scstep>
  <scstep>
   <time name="dav">    0.72    0.72</time>
   <time name="total">    0.74    0.75</time>
   <energy>
    <i name="e_fr_energy">     -6.05464015 </i>
    <i name="e_wo_entrp">     -6.05181646 </i>
    <i name="e_0_energy">     -6.05322831 </i>
   </energy>
  </scstep>
  <scstep>
   <time name="dav">    0.36    0.36</time>
   <time name="total">    0.37    0.37</time>
   <energy>
    <i name="alphaZ">    145.88803652 </i>
    <i name="ewald">  -2093.38725727 </i>
    <i name="hartreedc">   -402.49130992 </i>
    <i name="XCdc">     62.60420507 </i>
    <i name="pawpsdc">   2257.25570418 </i>
    <i name="pawaedc">  -2224.64885263 </i>
    <i name="eentropy">     -0.00282368 </i>
    <i name="bandstr">   -179.46735299 </i>
    <i name="atom">   2428.19501064 </i>
    <i name="e_fr_energy">     -6.05464007 </i>
    <i name="e_wo_entrp">     -6.05181639 </i>
    <i name="e_0_energy">     -6.05322823 </i>
   </energy>
  </scstep>
  <structure>
   <crystal>
    <varray name="basis" >
     <v>       0.00000000       2.01842560       2.01842560 </v>
     <v>       2.01842560       0.00000000       2.01842560 </v>
     <v>       2.01842560       2.01842560       0.00000000 </v>
    </varray>
    <i name="volume">     16.44630099 </i>
    <varray name="rec_basis" >
     <v>      -0.24771782       0.24771782       0.24771782 </v>
     <v>       0.24771782      -0.24771782       0.24771782 </v>
     <v>       0.24771782       0.24771782      -0.24771782 </v>
    </varray>
   </crystal>
   <varray name="positions" >
    <v>       0.00000000       0.00000000       0.00000000 </v>
   </varray>
  </structure>
  <varray name="forces" >
   <v>      -0.00000000      -0.00000000      -0.00000000 </v>
  </varray>
  <varray name="stress" >
   <v>    -131.39154890       0.00000000      -0.00000000 </v>
   <v>      -0.00000000    -131.39154890      -0.00000000 </v>
   <v>       0.00000000      -0.00000000    -131.39154890 </v>
  </varray>
  <energy>
   <i name="e_fr_energy">     -6.05464007 </i>
   <i name="e_wo_entrp">     -6.05181639 </i>
   <i name="e_0_energy">     -6.05322823 </i>
  </energy>
  <time name="totalsc">    7.70    7.77</time>
  <eigenvalues>
   <array>
    <dimension dim="1">band</dimension>
    <dimension dim="2">kpoint</dimension>
    <dimension dim="3">spin</dimension>
    <field>eigene</field>
    <field>occ</field>
    <set>
     <set comment="spin 1">
      <set comment="kpoint 1">
       <r>  -41.8603    1.0000 </r>
       <r>  -41.8531    1.0000 </r>
       <r>  -41.8531    1.0000 </r>
       <r>    1.2029    1.0000 </r>
       <r>    7.0869    1.0000 </r>
       <r>    7.1616    1.0000 </r>
       <r>    7.1616    1.0000 </r>
       <r>    8.9861    1.0000 </r>
       <r>    8.9861    1.0000 </r>
       <r>   25.3581    0.0000 </r>
       <r>   29.1591    0.0000 </r>
       <r>   29.8406    0.0000 </r>
       <r>   29.8406    0.0000 </r>
       <r>   35.3245    0.0000 </r>
       <r>   39.2554    0.0000 </r>
       <r>   39.9622    0.0000 </r>
       <r>   39.9622    0.0000 </r>
       <r>   42.7573    0.0000 </r>
       <r>   42.7573    0.0000 </r>
       <r>   43.6353    0.0000 </r>
       <r>   49.6338    0.0000 </r>
       <r>   49.6338    0.0000 </r>
       <r>   51.3966    0.0000 </r>
       <r>   55.6544    0.0000 </r>
      </set>
      <set comment="kpoint 2">
       <r>  -41.8996    1.0000 </r>
       <r>  -41.8649    1.0000 </r>
       <r>  -41.8565    1.0000 </r>
       <r>    1.6851    1.0000 </r>
       <r>    6.8879    1.0000 </r>
       <r>    7.3222    1.0000 </r>
       <r>    7.3567    1.0000 </r>
       <r>    8.7955    1.0000 </r>
       <r>    9.0389    1.0000 </r>
       <r>   25.9877    0.0000 </r>
       <r>   27.4476    0.0000 </r>
       <r>   29.8383    0.0000 </r>
       <r>   30.8647    0.0000 </r>
       <r>   35.3476    0.0000 </r>
       <r>   37.6644    0.0000 </r>
       <r>   38.4499    0.0000 </r>
       <r>   39.0893    0.0000 </r>
       <r>   41.2872    0.0000 </r>
       <r>   44.1509    0.0000 </r>
       <r>   46.2637    0.0000 </r>
       <r>   48.6497    0.0000 </r>
       <r>   50.8005    0.0000 </r>
       <r>   51.4054    0.0000 </r>
       <r>   57.7258    0.0000 </r>
      </set>
      <set comment="kpoint 3">
       <r>  -41.9879    1.0000 </r>
       <r>  -41.8806    1.0000 </r>
       <r>  -41.8680    1.0000 </r>
       <r>    2.7302    1.0000 </r>
       <r>    6.6953    1.0000 </r>
       <r>    7.4921    1.0000 </r>
       <r>    7.5261    1.0000 </r>
       <r>    8.7882    1.0000 </r>
       <r>    9.2756    1.0000 </r>
       <r>   24.3784    0.0000 </r>
       <r>   26.7772    0.0000 </r>
       <r>   30.6222    0.0000 </r>
       <r>   32.5131    0.0000 </r>
       <r>   32.7009    0.0000 </r>
       <r>   35.4851    0.0000 </r>
       <r>   35.8027    0.0000 </r>
       <r>   41.7987    0.0000 </r>
       <r>   42.1678    0.0000 </r>
       <r>   44.8828    0.0000 </r>
       <r>   46.9953    0.0000 </r>
       <r>   49.5896    0.0000 </r>
       <r>   51.4181    0.0000 </r>
       <r>   51.5481    0.0000 </r>
       <r>   58.1379    0.0000 </r>
      </set>
      <set comment="kpoint 4">
       <r>  -42.0903    1.0000 </r>
       <r>  -41.8964    1.0000 </r>
       <r>  -41.8833    1.0000 </r>
       <r>    3.7076    1.0000 </r>
       <r>    7.1968    1.0000 </r>
       <r>    7.3669    1.0000 </r>
       <r>    7.3901    1.0000 </r>
       <r>    9.3657    1.0000 </r>
       <r>    9.9287    1.0000 </r>
       <r>   20.7650    0.0000 </r>
       <r>   26.0636    0.0000 </r>
       <r>   29.8509    0.0000 </r>
       <r>   32.0026    0.0000 </r>
       <r>   33.5454    0.0000 </r>
       <r>   35.1203    0.0000 </r>
       <r>   35.8607    0.0000 </r>
       <r>   42.3241    0.0000 </r>
       <r>   44.3021    0.0000 </r>
       <r>   46.5441    0.0000 </r>
       <r>   48.1884    0.0000 </r>
       <r>   50.5304    0.0000 </r>
       <r>   51.4226    0.0000 </r>
       <r>   52.3003    0.0000 </r>
       <r>   57.0267    0.0000 </r>
      </set>
      <set comment="kpoint 5">
       <r>  -42.1655    1.0000 </r>
       <r>  -41.9064    1.0000 </r>
       <r>  -41.8975    1.0000 </r>
       <r>    3.9954    1.0000 </r>
       <r>    7.1045    1.0000 </r>
       <r>    7.1912    1.0000 </r>
       <r>    8.8377    1.0000 </r>
       <r>   10.0979    1.0000 </r>
       <r>   10.7301    0.0000 </r>
       <r>   17.1748    0.0000 </r>
       <r>   25.1472    0.0000 </r>
       <r>   28.6039    0.0000 </r>
       <r>   29.6197    0.0000 </r>
       <r>   36.0825    0.0000 </r>
       <r>   36.8914    0.0000 </r>
       <r>   37.6540    0.0000 </r>
       <r>   43.1352    0.0000 </r>
       <r>   44.3100    0.0000 </r>
       <r>   45.8259    0.0000 </r>
       <r>   50.2867    0.0000 </r>
       <r>   51.4193    0.0000 </r>
       <r>   52.9972    0.0000 </r>
       <r>   53.2480    0.0000 </r>
       <r>   54.1812    0.0000 </r>
      </set>
      <set comment="kpoint 6">
       <r>  -42.1869    1.0000 </r>
       <r>  -41.9072    1.0000 </r>
       <r>  -41.9038    1.0000 </r>
       <r>    4.0107    1.0000 </r>
       <r>    7.0253    1.0000 </r>
       <r>    7.1445    1.0000 </r>
       <r>    9.4915    1.0000 </r>
       <r>   10.4544    0.3156 </r>
       <r>   11.2183    0.0000 </r>
       <r>   15.6714    0.0000 </r>
       <r>   24.8976    0.0000 </r>
       <r>   28.5482    0.0000 </r>
       <r>   28.6172    0.0000 </r>
       <r>   37.0999    0.0000 </r>
       <r>   37.2787    0.0000 </r>
       <r>   38.7179    0.0000 </r>
       <r>   43.4638    0.0000 </r>
       <r>   44.4236    0.0000 </r>
       <r>   44.6807    0.0000 </r>
       <r>   51.4018    0.0000 </r>
       <r>   51.4129    0.0000 </r>
       <r>   52.0458    0.0000 </r>
       <r>   53.4557    0.0000 </r>
       <r>   54.4699    0.0000 </r>
      </set>
      <set comment="kpoint 7">
       <r>  -42.1455    1.0000 </r>
       <r>  -41.9000    1.0000 </r>
       <r>  -41.8973    1.0000 </r>
       <r>    3.9551    1.0000 </r>
       <r>    7.1410    1.0000 </r>
       <r>    7.2746    1.0000 </r>
       <r>    8.2255    1.0000 </r>
       <r>   10.1743    1.0000 </r>
       <r>   10.2025    1.0000 </r>
       <r>   18.2876    0.0000 </r>
       <r>   25.3982    0.0000 </r>
       <r>   29.1596    0.0000 </r>
       <r>   29.9626    0.0000 </r>
       <r>   35.8998    0.0000 </r>
       <r>   36.0394    0.0000 </r>
       <r>   36.8447    0.0000 </r>
       <r>   42.3162    0.0000 </r>
       <r>   45.2549    0.0000 </r>
       <r>   45.9919    0.0000 </r>
       <r>   50.1138    0.0000 </r>
       <r>   51.4214    0.0000 </r>
       <r>   51.5420    0.0000 </r>
       <r>   53.1033    0.0000 </r>
       <r>   54.7525    0.0000 </r>
      </set>
      <set comment="kpoint 8">
       <r>  -42.0573    1.0000 </r>
       <r>  -41.8879    1.0000 </r>
       <r>  -41.8817    1.0000 </r>
       <r>    3.4494    1.0000 </r>
       <r>    6.8936    1.0000 </r>
       <r>    7.3931    1.0000 </r>
       <r>    7.4786    1.0000 </r>
       <r>    9.2355    1.0000 </r>
       <r>    9.5892    1.0000 </r>
       <r>   22.0161    0.0000 </r>
       <r>   26.4425    0.0000 </r>
       <r>   30.4960    0.0000 </r>
       <r>   32.0369    0.0000 </r>
       <r>   33.5635    0.0000 </r>
       <r>   34.6907    0.0000 </r>
       <r>   35.2163    0.0000 </r>
       <r>   41.8064    0.0000 </r>
       <r>   45.1586    0.0000 </r>
       <r>   45.3107    0.0000 </r>
       <r>   47.8015    0.0000 </r>
       <r>   49.3507    0.0000 </r>
       <r>   51.4221    0.0000 </r>
       <r>   52.5157    0.0000 </r>
       <r>   57.8013    0.0000 </r>
      </set>
      <set comment="kpoint 9">
       <r>  -41.9545    1.0000 </r>
       <r>  -41.8723    1.0000 </r>
       <r>  -41.8666    1.0000 </r>
       <r>    2.3449    1.0000 </r>
       <r>    6.7086    1.0000 </r>
       <r>    7.4855    1.0000 </r>
       <r>    7.5036    1.0000 </r>
       <r>    8.7370    1.0000 </r>
       <r>    9.1387    1.0000 </r>
       <r>   25.4681    0.0000 </r>
       <r>   26.6896    0.0000 </r>
       <r>   30.5055    0.0000 </r>
       <r>   31.5524    0.0000 </r>
       <r>   33.7049    0.0000 </r>
       <r>   35.7604    0.0000 </r>
       <r>   36.9079    0.0000 </r>
       <r>   40.7975    0.0000 </r>
       <r>   41.6617    0.0000 </r>
       <r>   45.1555    0.0000 </r>
       <r>   46.6971    0.0000 </r>
       <r>   48.7029    0.0000 </r>
       <r>   51.4160    0.0000 </r>
       <r>   51.5655    0.0000 </r>
       <r>   58.0938    0.0000 </r>
      </set>
      <set comment="kpoint 10">
       <r>  -41.8782    1.0000 </r>
       <r>  -41.8593    1.0000 </r>
       <r>  -41.8572    1.0000 </r>
       <r>    1.4482    1.0000 </r>
       <r>    6.9514    1.0000 </r>
       <r>    7.2705    1.0000 </r>
       <r>    7.2772    1.0000 </r>
       <r>    8.8273    1.0000 </r>
       <r>    9.0537    1.0000 </r>
       <r>   25.7028    0.0000 </r>
       <r>   28.3942    0.0000 </r>
       <r>   29.8114    0.0000 </r>
       <r>   30.0807    0.0000 </r>
       <r>   36.3119    0.0000 </r>
       <r>   38.0278    0.0000 </r>
       <r>   38.1806    0.0000 </r>
       <r>   39.9608    0.0000 </r>
       <r>   40.9780    0.0000 </r>
       <r>   44.6590    0.0000 </r>
       <r>   45.0868    0.0000 </r>
       <r>   48.5560    0.0000 </r>
       <r>   50.5663    0.0000 </r>
       <r>   51.4002    0.0000 </r>
       <r>   56.8719    0.0000 </r>
      </set>
      <set comment="kpoint 11">
       <r>  -41.9081    1.0000 </r>
       <r>  -41.8709    1.0000 </r>
       <r>  -41.8685    1.0000 </r>
       <r>    1.9241    1.0000 </r>
       <r>    6.6854    1.0000 </r>
       <r>    7.5005    1.0000 </r>
       <r>    7.5060    1.0000 </r>
       <r>    8.5481    1.0000 </r>
       <r>    9.1843    1.0000 </r>
       <r>   26.3453    0.0000 </r>
       <r>   27.6616    0.0000 </r>
       <r>   29.5762    0.0000 </r>
       <r>   29.9900    0.0000 </r>
       <r>   35.7676    0.0000 </r>
       <r>   36.7239    0.0000 </r>
       <r>   38.0046    0.0000 </r>
       <r>   39.1268    0.0000 </r>
       <r>   40.6885    0.0000 </r>
       <r>   46.2359    0.0000 </r>
       <r>   46.6856    0.0000 </r>
       <r>   47.2394    0.0000 </r>
       <r>   51.2381    0.0000 </r>
       <r>   51.4156    0.0000 </r>
       <r>   58.4278    0.0000 </r>
      </set>
      <set comment="kpoint 12">
       <r>  -41.9699    1.0000 </r>
       <r>  -41.8931    1.0000 </r>
       <r>  -41.8773    1.0000 </r>
       <r>    2.7903    1.0000 </r>
       <r>    6.3762    1.0000 </r>
       <r>    7.6077    1.0000 </r>
       <r>    7.8292    1.0000 </r>
       <r>    8.4555    1.0000 </r>
       <r>    9.4362    1.0000 </r>
       <r>   25.7422    0.0000 </r>
       <r>   27.0908    0.0000 </r>
       <r>   29.0926    0.0000 </r>
       <r>   30.3442    0.0000 </r>
       <r>   33.6895    0.0000 </r>
       <r>   35.9606    0.0000 </r>
       <r>   36.7825    0.0000 </r>
       <r>   40.2405    0.0000 </r>
       <r>   42.3712    0.0000 </r>
       <r>   45.6053    0.0000 </r>
       <r>   46.3713    0.0000 </r>
       <r>   49.4550    0.0000 </r>
       <r>   51.4190    0.0000 </r>
       <r>   52.5780    0.0000 </r>
       <r>   58.2856    0.0000 </r>
      </set>
      <set comment="kpoint 13">
       <r>  -42.0598    1.0000 </r>
       <r>  -41.9138    1.0000 </r>
       <r>  -41.8926    1.0000 </r>
       <r>    3.8833    1.0000 </r>
       <r>    6.4047    1.0000 </r>
       <r>    7.2403    1.0000 </r>
       <r>    7.8406    1.0000 </r>
       <r>    9.2031    1.0000 </r>
       <r>   10.0793    1.0000 </r>
       <r>   22.2435    0.0000 </r>
       <r>   26.7094    0.0000 </r>
       <r>   28.2657    0.0000 </r>
       <r>   30.4978    0.0000 </r>
       <r>   34.1982    0.0000 </r>
       <r>   35.3029    0.0000 </r>
       <r>   37.2045    0.0000 </r>
       <r>   39.6568    0.0000 </r>
       <r>   45.3100    0.0000 </r>
       <r>   46.2983    0.0000 </r>
       <r>   47.3669    0.0000 </r>
       <r>   49.8880    0.0000 </r>
       <r>   51.4142    0.0000 </r>
       <r>   54.2565    0.0000 </r>
       <r>   56.2842    0.0000 </r>
      </set>
      <set comment="kpoint 14">
       <r>  -42.1365    1.0000 </r>
       <r>  -41.9287    1.0000 </r>
       <r>  -41.9081    1.0000 </r>
       <r>    4.3723    1.0000 </r>
       <r>    6.8734    1.0000 </r>
       <r>    7.3549    1.0000 </r>
       <r>    7.6560    1.0000 </r>
       <r>   10.1461    1.0000 </r>
       <r>   11.1917    0.0000 </r>
       <r>   18.4083    0.0000 </r>
       <r>   25.8200    0.0000 </r>
       <r>   27.2547    0.0000 </r>
       <r>   29.3682    0.0000 </r>
       <r>   35.4310    0.0000 </r>
       <r>   37.2706    0.0000 </r>
       <r>   38.3559    0.0000 </r>
       <r>   39.8997    0.0000 </r>
       <r>   46.2076    0.0000 </r>
       <r>   46.9598    0.0000 </r>
       <r>   47.9757    0.0000 </r>
       <r>   51.4192    0.0000 </r>
       <r>   52.0230    0.0000 </r>
       <r>   53.2665    0.0000 </r>
       <r>   54.8645    0.0000 </r>
      </set>
      <set comment="kpoint 15">
       <r>  -42.1718    1.0000 </r>
       <r>  -41.9383    1.0000 </r>
       <r>  -41.9129    1.0000 </r>
       <r>    4.4215    1.0000 </r>
       <r>    6.7240    1.0000 </r>
       <r>    7.4894    1.0000 </r>
       <r>    8.3255    1.0000 </r>
       <r>   10.3915    0.9030 </r>
       <r>   12.7988    0.0000 </r>
       <r>   15.5751    0.0000 </r>
       <r>   25.3389    0.0000 </r>
       <r>   26.9453    0.0000 </r>
       <r>   28.2679    0.0000 </r>
       <r>   36.6401    0.0000 </r>
       <r>   37.4478    0.0000 </r>
       <r>   39.9451    0.0000 </r>
       <r>   42.1228    0.0000 </r>
       <r>   44.4396    0.0000 </r>
       <r>   45.9162    0.0000 </r>
       <r>   49.3018    0.0000 </r>
       <r>   50.6226    0.0000 </r>
       <r>   51.4228    0.0000 </r>
       <r>   54.0497    0.0000 </r>
       <r>   55.7597    0.0000 </r>
      </set>
      <set comment="kpoint 16">
       <r>  -42.1530    1.0000 </r>
       <r>  -41.9397    1.0000 </r>
       <r>  -41.9049    1.0000 </r>
       <r>    4.4273    1.0000 </r>
       <r>    6.8235    1.0000 </r>
       <r>    7.5152    1.0000 </r>
       <r>    7.9122    1.0000 </r>
       <r>    9.9828    1.0000 </r>
       <r>   11.8866    0.0000 </r>
       <r>   17.3261    0.0000 </r>
       <r>   25.4274    0.0000 </r>
       <r>   26.8748    0.0000 </r>
       <r>   29.4347    0.0000 </r>
       <r>   35.3034    0.0000 </r>
       <r>   37.3349    0.0000 </r>
       <r>   39.4279    0.0000 </r>
       <r>   41.5433    0.0000 </r>
       <r>   45.0345    0.0000 </r>
       <r>   46.5485    0.0000 </r>
       <r>   47.8135    0.0000 </r>
       <r>   51.4180    0.0000 </r>
       <r>   52.1336    0.0000 </r>
       <r>   54.1730    0.0000 </r>
       <r>   54.9669    0.0000 </r>
      </set>
      <set comment="kpoint 17">
       <r>  -42.0869    1.0000 </r>
       <r>  -41.9287    1.0000 </r>
       <r>  -41.8885    1.0000 </r>
       <r>    4.1658    1.0000 </r>
       <r>    6.7040    1.0000 </r>
       <r>    7.1476    1.0000 </r>
       <r>    7.7379    1.0000 </r>
       <r>    9.1322    1.0000 </r>
       <r>   10.6548    0.0000 </r>
       <r>   20.9756    0.0000 </r>
       <r>   26.0073    0.0000 </r>
       <r>   27.8065    0.0000 </r>
       <r>   31.4015    0.0000 </r>
       <r>   33.2655    0.0000 </r>
       <r>   36.3192    0.0000 </r>
       <r>   38.2922    0.0000 </r>
       <r>   39.7289    0.0000 </r>
       <r>   44.5509    0.0000 </r>
       <r>   45.7668    0.0000 </r>
       <r>   49.1877    0.0000 </r>
       <r>   50.9155    0.0000 </r>
       <r>   51.4204    0.0000 </r>
       <r>   54.0966    0.0000 </r>
       <r>   55.3614    0.0000 </r>
      </set>
      <set comment="kpoint 18">
       <r>  -42.0011    1.0000 </r>
       <r>  -41.9062    1.0000 </r>
       <r>  -41.8727    1.0000 </r>
       <r>    3.1682    1.0000 </r>
       <r>    6.4133    1.0000 </r>
       <r>    7.4737    1.0000 </r>
       <r>    7.8590    1.0000 </r>
       <r>    8.4597    1.0000 </r>
       <r>    9.7202    1.0000 </r>
       <r>   24.5012    0.0000 </r>
       <r>   26.6701    0.0000 </r>
       <r>   29.3814    0.0000 </r>
       <r>   30.3878    0.0000 </r>
       <r>   33.9898    0.0000 </r>
       <r>   35.8856    0.0000 </r>
       <r>   37.3995    0.0000 </r>
       <r>   39.3116    0.0000 </r>
       <r>   43.1767    0.0000 </r>
       <r>   44.6327    0.0000 </r>
       <r>   46.8674    0.0000 </r>
       <r>   51.1927    0.0000 </r>
       <r>   51.4155    0.0000 </r>
       <r>   53.0262    0.0000 </r>
       <r>   57.2104    0.0000 </r>
      </set>
      <set comment="kpoint 19">
       <r>  -41.9311    1.0000 </r>
       <r>  -41.8767    1.0000 </r>
       <r>  -41.8630    1.0000 </r>
       <r>    2.1443    1.0000 </r>
       <r>    6.6814    1.0000 </r>
       <r>    7.5011    1.0000 </r>
       <r>    7.5177    1.0000 </r>
       <r>    8.5965    1.0000 </r>
       <r>    9.1872    1.0000 </r>
       <r>   26.3818    0.0000 </r>
       <r>   26.6783    0.0000 </r>
       <r>   29.6176    0.0000 </r>
       <r>   31.2321    0.0000 </r>
       <r>   34.0434    0.0000 </r>
       <r>   36.7789    0.0000 </r>
       <r>   38.1778    0.0000 </r>
       <r>   40.0159    0.0000 </r>
       <r>   40.2840    0.0000 </r>
       <r>   45.0758    0.0000 </r>
       <r>   47.1193    0.0000 </r>
       <r>   48.2750    0.0000 </r>
       <r>   51.4129    0.0000 </r>
       <r>   51.7285    0.0000 </r>
       <r>   58.0777    0.0000 </r>
      </set>
      <set comment="kpoint 20">
       <r>  -41.9952    1.0000 </r>
       <r>  -41.9055    1.0000 </r>
       <r>  -41.9052    1.0000 </r>
       <r>    3.3709    1.0000 </r>
       <r>    5.9580    1.0000 </r>
       <r>    7.7502    1.0000 </r>
       <r>    8.2726    1.0000 </r>
       <r>    8.4771    1.0000 </r>
       <r>    9.5922    1.0000 </r>
       <r>   26.3613    0.0000 </r>
       <r>   27.5987    0.0000 </r>
       <r>   27.9802    0.0000 </r>
       <r>   28.7349    0.0000 </r>
       <r>   31.5093    0.0000 </r>
       <r>   36.3430    0.0000 </r>
       <r>   36.4962    0.0000 </r>
       <r>   41.7483    0.0000 </r>
       <r>   43.4390    0.0000 </r>
       <r>   44.4203    0.0000 </r>
       <r>   48.8994    0.0000 </r>
       <r>   49.5229    0.0000 </r>
       <r>   51.3852    0.0000 </r>
       <r>   51.4428    0.0000 </r>
       <r>   60.6399    0.0000 </r>
      </set>
      <set comment="kpoint 21">
       <r>  -42.0551    1.0000 </r>
       <r>  -41.9338    1.0000 </r>
       <r>  -41.9188    1.0000 </r>
       <r>    4.2427    1.0000 </r>
       <r>    5.6848    1.0000 </r>
       <r>    7.4028    1.0000 </r>
       <r>    8.6791    1.0000 </r>
       <r>    9.2191    1.0000 </r>
       <r>   10.1142    1.0000 </r>
       <r>   23.8590    0.0000 </r>
       <r>   25.7868    0.0000 </r>
       <r>   27.1237    0.0000 </r>
       <r>   29.6472    0.0000 </r>
       <r>   31.2854    0.0000 </r>
       <r>   36.5815    0.0000 </r>
       <r>   37.7706    0.0000 </r>
       <r>   41.8310    0.0000 </r>
       <r>   42.7810    0.0000 </r>
       <r>   46.5488    0.0000 </r>
       <r>   49.2414    0.0000 </r>
       <r>   50.9613    0.0000 </r>
       <r>   51.4179    0.0000 </r>
       <r>   52.1375    0.0000 </r>
       <r>   58.8602    0.0000 </r>
      </set>
      <set comment="kpoint 22">
       <r>  -42.1123    1.0000 </r>
       <r>  -41.9616    1.0000 </r>
       <r>  -41.9324    1.0000 </r>
       <r>    4.8363    1.0000 </r>
       <r>    5.9276    1.0000 </r>
       <r>    7.0805    1.0000 </r>
       <r>    8.5229    1.0000 </r>
       <r>   10.2610    1.0000 </r>
       <r>   11.4681    0.0000 </r>
       <r>   19.8580    0.0000 </r>
       <r>   25.1089    0.0000 </r>
       <r>   25.5259    0.0000 </r>
       <r>   29.2657    0.0000 </r>
       <r>   34.1334    0.0000 </r>
       <r>   36.9242    0.0000 </r>
       <r>   38.7005    0.0000 </r>
       <r>   41.4530    0.0000 </r>
       <r>   44.2016    0.0000 </r>
       <r>   46.9224    0.0000 </r>
       <r>   49.1318    0.0000 </r>
       <r>   51.4193    0.0000 </r>
       <r>   52.5224    0.0000 </r>
       <r>   53.0280    0.0000 </r>
       <r>   56.7137    0.0000 </r>
      </set>
      <set comment="kpoint 23">
       <r>  -42.1407    1.0000 </r>
       <r>  -41.9895    1.0000 </r>
       <r>  -41.9345    1.0000 </r>
       <r>    5.0113    1.0000 </r>
       <r>    6.2441    1.0000 </r>
       <r>    7.2822    1.0000 </r>
       <r>    8.2874    1.0000 </r>
       <r>   10.4306    0.5767 </r>
       <r>   13.8930    0.0000 </r>
       <r>   16.3290    0.0000 </r>
       <r>   23.9400    0.0000 </r>
       <r>   25.5649    0.0000 </r>
       <r>   28.5408    0.0000 </r>
       <r>   36.2077    0.0000 </r>
       <r>   37.9729    0.0000 </r>
       <r>   38.6558    0.0000 </r>
       <r>   42.0161    0.0000 </r>
       <r>   45.4027    0.0000 </r>
       <r>   46.8026    0.0000 </r>
       <r>   48.2737    0.0000 </r>
       <r>   51.4245    0.0000 </r>
       <r>   51.5405    0.0000 </r>
       <r>   53.8496    0.0000 </r>
       <r>   56.4294    0.0000 </r>
      </set>
      <set comment="kpoint 24">
       <r>  -42.1327    1.0000 </r>
       <r>  -42.0057    1.0000 </r>
       <r>  -41.9233    1.0000 </r>
       <r>    5.1985    1.0000 </r>
       <r>    6.3345    1.0000 </r>
       <r>    7.2855    1.0000 </r>
       <r>    8.1671    1.0000 </r>
       <r>    9.9304    1.0000 </r>
       <r>   13.6960    0.0000 </r>
       <r>   17.0144    0.0000 </r>
       <r>   22.8804    0.0000 </r>
       <r>   26.6440    0.0000 </r>
       <r>   28.7243    0.0000 </r>
       <r>   35.3002    0.0000 </r>
       <r>   37.3853    0.0000 </r>
       <r>   40.1413    0.0000 </r>
       <r>   43.1639    0.0000 </r>
       <r>   44.9077    0.0000 </r>
       <r>   46.4467    0.0000 </r>
       <r>   48.2912    0.0000 </r>
       <r>   50.1126    0.0000 </r>
       <r>   51.4239    0.0000 </r>
       <r>   53.6421    0.0000 </r>
       <r>   55.7297    0.0000 </r>
      </set>
      <set comment="kpoint 25">
       <r>  -42.0999    1.0000 </r>
       <r>  -41.9923    1.0000 </r>
       <r>  -41.9046    1.0000 </r>
       <r>    5.2141    1.0000 </r>
       <r>    6.4230    1.0000 </r>
       <r>    6.6919    1.0000 </r>
       <r>    8.2565    1.0000 </r>
       <r>    9.0903    1.0000 </r>
       <r>   12.0937    0.0000 </r>
       <r>   20.2270    0.0000 </r>
       <r>   22.9395    0.0000 </r>
       <r>   27.3923    0.0000 </r>
       <r>   30.7243    0.0000 </r>
       <r>   32.7661    0.0000 </r>
       <r>   37.4067    0.0000 </r>
       <r>   40.1886    0.0000 </r>
       <r>   41.6003    0.0000 </r>
       <r>   43.6482    0.0000 </r>
       <r>   45.3473    0.0000 </r>
       <r>   49.5276    0.0000 </r>
       <r>   51.4227    0.0000 </r>
       <r>   52.8528    0.0000 </r>
       <r>   53.7100    0.0000 </r>
       <r>   54.2665    0.0000 </r>
      </set>
      <set comment="kpoint 26">
       <r>  -42.0634    1.0000 </r>
       <r>  -41.9457    1.0000 </r>
       <r>  -41.8867    1.0000 </r>
       <r>    4.3020    1.0000 </r>
       <r>    6.2962    1.0000 </r>
       <r>    7.1246    1.0000 </r>
       <r>    8.1218    1.0000 </r>
       <r>    8.6128    1.0000 </r>
       <r>   10.7634    0.0000 </r>
       <r>   22.2798    0.0000 </r>
       <r>   25.1019    0.0000 </r>
       <r>   28.1312    0.0000 </r>
       <r>   30.9260    0.0000 </r>
       <r>   33.2028    0.0000 </r>
       <r>   36.8796    0.0000 </r>
       <r>   38.1993    0.0000 </r>
       <r>   39.8159    0.0000 </r>
       <r>   43.4998    0.0000 </r>
       <r>   44.7235    0.0000 </r>
       <r>   49.4080    0.0000 </r>
       <r>   51.4168    0.0000 </r>
       <r>   52.4344    0.0000 </r>
       <r>   54.1283    0.0000 </r>
       <r>   55.2546    0.0000 </r>
      </set>
      <set comment="kpoint 27">
       <r>  -42.0246    1.0000 </r>
       <r>  -41.8952    1.0000 </r>
       <r>  -41.8761    1.0000 </r>
       <r>    3.2649    1.0000 </r>
       <r>    6.5849    1.0000 </r>
       <r>    7.4473    1.0000 </r>
       <r>    7.6369    1.0000 </r>
       <r>    8.8402    1.0000 </r>
       <r>    9.6390    1.0000 </r>
       <r>   23.3236    0.0000 </r>
       <r>   26.8123    0.0000 </r>
       <r>   29.7276    0.0000 </r>
       <r>   31.4379    0.0000 </r>
       <r>   33.9787    0.0000 </r>
       <r>   34.6574    0.0000 </r>
       <r>   36.4044    0.0000 </r>
       <r>   40.4889    0.0000 </r>
       <r>   43.9768    0.0000 </r>
       <r>   45.7624    0.0000 </r>
       <r>   46.8286    0.0000 </r>
       <r>   49.7136    0.0000 </r>
       <r>   51.4197    0.0000 </r>
       <r>   53.0583    0.0000 </r>
       <r>   57.6213    0.0000 </r>
      </set>
      <set comment="kpoint 28">
       <r>  -42.0893    1.0000 </r>
       <r>  -41.9465    1.0000 </r>
       <r>  -41.9443    1.0000 </r>
       <r>    4.4448    1.0000 </r>
       <r>    5.2498    1.0000 </r>
       <r>    8.2358    1.0000 </r>
       <r>    9.3187    1.0000 </r>
       <r>    9.7009    1.0000 </r>
       <r>   10.0879    1.0000 </r>
       <r>   23.7788    0.0000 </r>
       <r>   24.5892    0.0000 </r>
       <r>   25.2188    0.0000 </r>
       <r>   28.8663    0.0000 </r>
       <r>   30.5758    0.0000 </r>
       <r>   38.5141    0.0000 </r>
       <r>   38.8747    0.0000 </r>
       <r>   40.9317    0.0000 </r>
       <r>   43.7117    0.0000 </r>
       <r>   46.4977    0.0000 </r>
       <r>   51.2820    0.0000 </r>
       <r>   51.4078    0.0000 </r>
       <r>   51.4279    0.0000 </r>
       <r>   52.4339    0.0000 </r>
       <r>   57.4708    0.0000 </r>
      </set>
      <set comment="kpoint 29">
       <r>  -42.1259    1.0000 </r>
       <r>  -41.9726    1.0000 </r>
       <r>  -41.9580    1.0000 </r>
       <r>    4.6498    1.0000 </r>
       <r>    5.1184    1.0000 </r>
       <r>    8.3583    1.0000 </r>
       <r>    9.6675    1.0000 </r>
       <r>   10.2758    1.0000 </r>
       <r>   11.4353    0.0000 </r>
       <r>   20.9914    0.0000 </r>
       <r>   23.0379    0.0000 </r>
       <r>   23.7077    0.0000 </r>
       <r>   29.9087    0.0000 </r>
       <r>   31.7312    0.0000 </r>
       <r>   38.1259    0.0000 </r>
       <r>   40.5763    0.0000 </r>
       <r>   41.9951    0.0000 </r>
       <r>   44.6651    0.0000 </r>
       <r>   45.8204    0.0000 </r>
       <r>   50.0462    0.0000 </r>
       <r>   51.4161    0.0000 </r>
       <r>   52.3763    0.0000 </r>
       <r>   54.2279    0.0000 </r>
       <r>   55.1413    0.0000 </r>
      </set>
      <set comment="kpoint 30">
       <r>  -42.1334    1.0000 </r>
       <r>  -42.0138    1.0000 </r>
       <r>  -41.9594    1.0000 </r>
       <r>    4.8776    1.0000 </r>
       <r>    5.4502    1.0000 </r>
       <r>    7.9835    1.0000 </r>
       <r>    9.3140    1.0000 </r>
       <r>   10.5480    0.0009 </r>
       <r>   14.0937    0.0000 </r>
       <r>   17.6820    0.0000 </r>
       <r>   21.6816    0.0000 </r>
       <r>   23.6338    0.0000 </r>
       <r>   30.0139    0.0000 </r>
       <r>   34.2854    0.0000 </r>
       <r>   37.2883    0.0000 </r>
       <r>   40.0844    0.0000 </r>
       <r>   44.0005    0.0000 </r>
       <r>   45.2677    0.0000 </r>
       <r>   46.1007    0.0000 </r>
       <r>   49.5327    0.0000 </r>
       <r>   51.1419    0.0000 </r>
       <r>   51.4222    0.0000 </r>
       <r>   53.6743    0.0000 </r>
       <r>   54.9085    0.0000 </r>
      </set>
      <set comment="kpoint 31">
       <r>  -42.1034    1.0000 </r>
       <r>  -42.0624    1.0000 </r>
       <r>  -41.9469    1.0000 </r>
       <r>    5.2269    1.0000 </r>
       <r>    5.9981    1.0000 </r>
       <r>    7.3825    1.0000 </r>
       <r>    8.9180    1.0000 </r>
       <r>   10.1396    1.0000 </r>
       <r>   15.1315    0.0000 </r>
       <r>   17.4181    0.0000 </r>
       <r>   20.0336    0.0000 </r>
       <r>   25.0986    0.0000 </r>
       <r>   29.4839    0.0000 </r>
       <r>   36.1891    0.0000 </r>
       <r>   37.4379    0.0000 </r>
       <r>   38.1695    0.0000 </r>
       <r>   44.1133    0.0000 </r>
       <r>   45.6512    0.0000 </r>
       <r>   48.1370    0.0000 </r>
       <r>   49.4275    0.0000 </r>
       <r>   49.6947    0.0000 </r>
       <r>   51.4203    0.0000 </r>
       <r>   52.6358    0.0000 </r>
       <r>   55.3052    0.0000 </r>
      </set>
      <set comment="kpoint 32">
       <r>  -42.1049    1.0000 </r>
       <r>  -42.0401    1.0000 </r>
       <r>  -41.9257    1.0000 </r>
       <r>    5.5287    1.0000 </r>
       <r>    6.3300    1.0000 </r>
       <r>    6.8086    1.0000 </r>
       <r>    8.4885    1.0000 </r>
       <r>    9.6341    1.0000 </r>
       <r>   13.5496    0.0000 </r>
       <r>   18.8260    0.0000 </r>
       <r>   20.9322    0.0000 </r>
       <r>   26.8097    0.0000 </r>
       <r>   29.1858    0.0000 </r>
       <r>   34.6174    0.0000 </r>
       <r>   37.3415    0.0000 </r>
       <r>   40.0176    0.0000 </r>
       <r>   42.9265    0.0000 </r>
       <r>   46.1265    0.0000 </r>
       <r>   46.9148    0.0000 </r>
       <r>   47.7039    0.0000 </r>
       <r>   50.6734    0.0000 </r>
       <r>   51.4205    0.0000 </r>
       <r>   52.0592    0.0000 </r>
       <r>   55.8258    0.0000 </r>
      </set>
      <set comment="kpoint 33">
       <r>  -42.1246    1.0000 </r>
       <r>  -41.9677    1.0000 </r>
       <r>  -41.9048    1.0000 </r>
       <r>    4.8128    1.0000 </r>
       <r>    6.6943    1.0000 </r>
       <r>    7.0975    1.0000 </r>
       <r>    7.8931    1.0000 </r>
       <r>    9.5265    1.0000 </r>
       <r>   12.0367    0.0000 </r>
       <r>   18.7570    0.0000 </r>
       <r>   24.4335    0.0000 </r>
       <r>   26.9454    0.0000 </r>
       <r>   30.1053    0.0000 </r>
       <r>   33.8903    0.0000 </r>
       <r>   37.3647    0.0000 </r>
       <r>   40.3664    0.0000 </r>
       <r>   40.7891    0.0000 </r>
       <r>   44.6530    0.0000 </r>
       <r>   46.0715    0.0000 </r>
       <r>   48.1701    0.0000 </r>
       <r>   51.4209    0.0000 </r>
       <r>   52.4557    0.0000 </r>
       <r>   53.8611    0.0000 </r>
       <r>   55.3721    0.0000 </r>
      </set>
      <set comment="kpoint 34">
       <r>  -42.1177    1.0000 </r>
       <r>  -41.9103    1.0000 </r>
       <r>  -41.8927    1.0000 </r>
       <r>    4.0225    1.0000 </r>
       <r>    7.1367    1.0000 </r>
       <r>    7.3874    1.0000 </r>
       <r>    7.4835    1.0000 </r>
       <r>    9.6687    1.0000 </r>
       <r>   10.4476    0.3865 </r>
       <r>   19.5680    0.0000 </r>
       <r>   25.8665    0.0000 </r>
       <r>   28.5278    0.0000 </r>
       <r>   30.7876    0.0000 </r>
       <r>   34.4542    0.0000 </r>
       <r>   36.1483    0.0000 </r>
       <r>   37.1412    0.0000 </r>
       <r>   41.0648    0.0000 </r>
       <r>   45.1075    0.0000 </r>
       <r>   47.1774    0.0000 </r>
       <r>   48.5352    0.0000 </r>
       <r>   50.6861    0.0000 </r>
       <r>   51.4192    0.0000 </r>
       <r>   53.7024    0.0000 </r>
       <r>   55.0525    0.0000 </r>
      </set>
      <set comment="kpoint 35">
       <r>  -42.1547    1.0000 </r>
       <r>  -41.9766    1.0000 </r>
       <r>  -41.9723    1.0000 </r>
       <r>    4.3715    1.0000 </r>
       <r>    4.7906    1.0000 </r>
       <r>    9.9715    1.0000 </r>
       <r>   10.1864    1.0000 </r>
       <r>   10.5862    0.0000 </r>
       <r>   11.5969    0.0000 </r>
       <r>   19.9946    0.0000 </r>
       <r>   22.0676    0.0000 </r>
       <r>   22.2784    0.0000 </r>
       <r>   29.4294    0.0000 </r>
       <r>   32.0214    0.0000 </r>
       <r>   38.6056    0.0000 </r>
       <r>   42.4386    0.0000 </r>
       <r>   42.9915    0.0000 </r>
       <r>   44.7005    0.0000 </r>
       <r>   46.4466    0.0000 </r>
       <r>   51.3978    0.0000 </r>
       <r>   51.4301    0.0000 </r>
       <r>   51.4595    0.0000 </r>
       <r>   52.0994    0.0000 </r>
       <r>   52.4823    0.0000 </r>
      </set>
      <set comment="kpoint 36">
       <r>  -42.1606    1.0000 </r>
       <r>  -41.9939    1.0000 </r>
       <r>  -41.9773    1.0000 </r>
       <r>    4.4618    1.0000 </r>
       <r>    4.8452    1.0000 </r>
       <r>    9.5142    1.0000 </r>
       <r>   10.1181    1.0000 </r>
       <r>   10.7643    0.0000 </r>
       <r>   13.6392    0.0000 </r>
       <r>   18.1039    0.0000 </r>
       <r>   21.1350    0.0000 </r>
       <r>   21.9653    0.0000 </r>
       <r>   30.4006    0.0000 </r>
       <r>   32.4691    0.0000 </r>
       <r>   37.9400    0.0000 </r>
       <r>   42.4105    0.0000 </r>
       <r>   44.9836    0.0000 </r>
       <r>   45.1301    0.0000 </r>
       <r>   46.9608    0.0000 </r>
       <r>   49.8017    0.0000 </r>
       <r>   50.6665    0.0000 </r>
       <r>   51.1632    0.0000 </r>
       <r>   51.4182    0.0000 </r>
       <r>   52.0371    0.0000 </r>
      </set>
      <set comment="kpoint 37">
       <r>  -42.1353    1.0000 </r>
       <r>  -42.0281    1.0000 </r>
       <r>  -41.9650    1.0000 </r>
       <r>    4.8198    1.0000 </r>
       <r>    5.3494    1.0000 </r>
       <r>    8.3320    1.0000 </r>
       <r>    9.5295    1.0000 </r>
       <r>   10.5376    0.0023 </r>
       <r>   15.4257    0.0000 </r>
       <r>   16.8894    0.0000 </r>
       <r>   20.3445    0.0000 </r>
       <r>   23.2664    0.0000 </r>
       <r>   30.3556    0.0000 </r>
       <r>   34.3703    0.0000 </r>
       <r>   37.1866    0.0000 </r>
       <r>   40.1772    0.0000 </r>
       <r>   44.8476    0.0000 </r>
       <r>   45.4842    0.0000 </r>
       <r>   47.4670    0.0000 </r>
       <r>   48.5842    0.0000 </r>
       <r>   51.0367    0.0000 </r>
       <r>   51.4232    0.0000 </r>
       <r>   52.3553    0.0000 </r>
       <r>   54.6278    0.0000 </r>
      </set>
      <set comment="kpoint 38">
       <r>  -42.1259    1.0000 </r>
       <r>  -42.0273    1.0000 </r>
       <r>  -41.9427    1.0000 </r>
       <r>    5.1791    1.0000 </r>
       <r>    6.0614    1.0000 </r>
       <r>    7.3265    1.0000 </r>
       <r>    8.6513    1.0000 </r>
       <r>   10.2980    1.0000 </r>
       <r>   15.4812    0.0000 </r>
       <r>   15.7177    0.0000 </r>
       <r>   21.9615    0.0000 </r>
       <r>   25.2517    0.0000 </r>
       <r>   29.0564    0.0000 </r>
       <r>   36.1941    0.0000 </r>
       <r>   37.7166    0.0000 </r>
       <r>   38.4238    0.0000 </r>
       <r>   43.6615    0.0000 </r>
       <r>   44.8905    0.0000 </r>
       <r>   47.3873    0.0000 </r>
       <r>   48.9224    0.0000 </r>
       <r>   50.7997    0.0000 </r>
       <r>   51.4247    0.0000 </r>
       <r>   53.4438    0.0000 </r>
       <r>   55.9074    0.0000 </r>
      </set>
      <set comment="kpoint 39">
       <r>  -42.1570    1.0000 </r>
       <r>  -41.9693    1.0000 </r>
       <r>  -41.9194    1.0000 </r>
       <r>    4.7853    1.0000 </r>
       <r>    6.4975    1.0000 </r>
       <r>    7.7958    1.0000 </r>
       <r>    7.8195    1.0000 </r>
       <r>   10.2297    1.0000 </r>
       <r>   13.6969    0.0000 </r>
       <r>   15.6601    0.0000 </r>
       <r>   24.6406    0.0000 </r>
       <r>   26.4333    0.0000 </r>
       <r>   28.2881    0.0000 </r>
       <r>   36.1498    0.0000 </r>
       <r>   37.4241    0.0000 </r>
       <r>   40.2972    0.0000 </r>
       <r>   43.1024    0.0000 </r>
       <r>   43.6966    0.0000 </r>
       <r>   46.3351    0.0000 </r>
       <r>   49.0442    0.0000 </r>
       <r>   49.7498    0.0000 </r>
       <r>   51.4222    0.0000 </r>
       <r>   54.4235    0.0000 </r>
       <r>   55.7437    0.0000 </r>
      </set>
      <set comment="kpoint 40">
       <r>  -42.1750    1.0000 </r>
       <r>  -41.9176    1.0000 </r>
       <r>  -41.9047    1.0000 </r>
       <r>    4.1521    1.0000 </r>
       <r>    6.9446    1.0000 </r>
       <r>    7.2791    1.0000 </r>
       <r>    8.7495    1.0000 </r>
       <r>   10.3307    0.9987 </r>
       <r>   11.5882    0.0000 </r>
       <r>   16.2432    0.0000 </r>
       <r>   25.1803    0.0000 </r>
       <r>   27.8633    0.0000 </r>
       <r>   28.8844    0.0000 </r>
       <r>   36.5169    0.0000 </r>
       <r>   37.3238    0.0000 </r>
       <r>   38.8239    0.0000 </r>
       <r>   42.4610    0.0000 </r>
       <r>   45.0019    0.0000 </r>
       <r>   45.3335    0.0000 </r>
       <r>   49.7114    0.0000 </r>
       <r>   51.4177    0.0000 </r>
       <r>   52.0577    0.0000 </r>
       <r>   53.8599    0.0000 </r>
       <r>   54.6658    0.0000 </r>
      </set>
      <set comment="kpoint 41">
       <r>  -42.1694    1.0000 </r>
       <r>  -41.9834    1.0000 </r>
       <r>  -41.9789    1.0000 </r>
       <r>    4.2926    1.0000 </r>
       <r>    4.6935    1.0000 </r>
       <r>   10.3416    0.9966 </r>
       <r>   10.4046    0.8232 </r>
       <r>   10.7808    0.0000 </r>
       <r>   12.6158    0.0000 </r>
       <r>   18.5020    0.0000 </r>
       <r>   21.4532    0.0000 </r>
       <r>   21.7364    0.0000 </r>
       <r>   29.6615    0.0000 </r>
       <r>   32.3358    0.0000 </r>
       <r>   38.3072    0.0000 </r>
       <r>   43.4137    0.0000 </r>
       <r>   44.9061    0.0000 </r>
       <r>   44.9848    0.0000 </r>
       <r>   47.3406    0.0000 </r>
       <r>   49.1611    0.0000 </r>
       <r>   49.6579    0.0000 </r>
       <r>   51.4130    0.0000 </r>
       <r>   51.7715    0.0000 </r>
       <r>   52.5578    0.0000 </r>
      </set>
      <set comment="kpoint 42">
       <r>  -42.1486    1.0000 </r>
       <r>  -41.9863    1.0000 </r>
       <r>  -41.9706    1.0000 </r>
       <r>    4.5440    1.0000 </r>
       <r>    4.9381    1.0000 </r>
       <r>    9.0539    1.0000 </r>
       <r>   10.0121    1.0000 </r>
       <r>   10.5716    0.0001 </r>
       <r>   12.5755    0.0000 </r>
       <r>   19.4107    0.0000 </r>
       <r>   21.8393    0.0000 </r>
       <r>   22.5282    0.0000 </r>
       <r>   30.1841    0.0000 </r>
       <r>   32.2116    0.0000 </r>
       <r>   38.0917    0.0000 </r>
       <r>   41.8778    0.0000 </r>
       <r>   43.1997    0.0000 </r>
       <r>   45.1334    0.0000 </r>
       <r>   46.3027    0.0000 </r>
       <r>   50.0654    0.0000 </r>
       <r>   51.3895    0.0000 </r>
       <r>   51.4192    0.0000 </r>
       <r>   52.5900    0.0000 </r>
       <r>   53.2441    0.0000 </r>
      </set>
      <set comment="kpoint 43">
       <r>  -42.1271    1.0000 </r>
       <r>  -41.9895    1.0000 </r>
       <r>  -41.9482    1.0000 </r>
       <r>    4.9276    1.0000 </r>
       <r>    5.6531    1.0000 </r>
       <r>    7.4818    1.0000 </r>
       <r>    8.9411    1.0000 </r>
       <r>   10.4884    0.0744 </r>
       <r>   12.6798    0.0000 </r>
       <r>   18.6876    0.0000 </r>
       <r>   23.4862    0.0000 </r>
       <r>   24.3676    0.0000 </r>
       <r>   29.5418    0.0000 </r>
       <r>   34.1870    0.0000 </r>
       <r>   37.2711    0.0000 </r>
       <r>   39.5706    0.0000 </r>
       <r>   42.7484    0.0000 </r>
       <r>   44.6911    0.0000 </r>
       <r>   46.0930    0.0000 </r>
       <r>   49.2377    0.0000 </r>
       <r>   51.4183    0.0000 </r>
       <r>   52.0924    0.0000 </r>
       <r>   54.2296    0.0000 </r>
       <r>   56.5102    0.0000 </r>
      </set>
      <set comment="kpoint 44">
       <r>  -42.1446    1.0000 </r>
       <r>  -41.9552    1.0000 </r>
       <r>  -41.9230    1.0000 </r>
       <r>    4.7208    1.0000 </r>
       <r>    6.5415    1.0000 </r>
       <r>    7.2955    1.0000 </r>
       <r>    7.9357    1.0000 </r>
       <r>   10.4087    0.7914 </r>
       <r>   12.3733    0.0000 </r>
       <r>   17.3067    0.0000 </r>
       <r>   25.4936    0.0000 </r>
       <r>   26.0938    0.0000 </r>
       <r>   28.4799    0.0000 </r>
       <r>   36.0265    0.0000 </r>
       <r>   38.0835    0.0000 </r>
       <r>   38.5808    0.0000 </r>
       <r>   40.3945    0.0000 </r>
       <r>   46.4362    0.0000 </r>
       <r>   46.6652    0.0000 </r>
       <r>   47.5514    0.0000 </r>
       <r>   51.4214    0.0000 </r>
       <r>   52.1689    0.0000 </r>
       <r>   53.4801    0.0000 </r>
       <r>   56.2327    0.0000 </r>
      </set>
      <set comment="kpoint 45">
       <r>  -42.1274    1.0000 </r>
       <r>  -41.9639    1.0000 </r>
       <r>  -41.9606    1.0000 </r>
       <r>    4.4719    1.0000 </r>
       <r>    4.9796    1.0000 </r>
       <r>    9.1400    1.0000 </r>
       <r>    9.8266    1.0000 </r>
       <r>   10.3338    0.9983 </r>
       <r>   10.5270    0.0056 </r>
       <r>   21.9881    0.0000 </r>
       <r>   23.2722    0.0000 </r>
       <r>   23.2952    0.0000 </r>
       <r>   29.0887    0.0000 </r>
       <r>   31.4151    0.0000 </r>
       <r>   39.0273    0.0000 </r>
       <r>   40.6048    0.0000 </r>
       <r>   41.2194    0.0000 </r>
       <r>   45.0233    0.0000 </r>
       <r>   45.5663    0.0000 </r>
       <r>   51.4143    0.0000 </r>
       <r>   51.6463    0.0000 </r>
       <r>   51.8406    0.0000 </r>
       <r>   54.2567    0.0000 </r>
       <r>   54.6438    0.0000 </r>
      </set>
      <set comment="kpoint 46">
       <r>  -42.0940    1.0000 </r>
       <r>  -41.9547    1.0000 </r>
       <r>  -41.9400    1.0000 </r>
       <r>    4.6235    1.0000 </r>
       <r>    5.3734    1.0000 </r>
       <r>    7.6961    1.0000 </r>
       <r>    9.1814    1.0000 </r>
       <r>    9.8225    1.0000 </r>
       <r>   10.6091    0.0000 </r>
       <r>   22.5035    0.0000 </r>
       <r>   24.3869    0.0000 </r>
       <r>   25.4249    0.0000 </r>
       <r>   29.7924    0.0000 </r>
       <r>   31.1736    0.0000 </r>
       <r>   37.5735    0.0000 </r>
       <r>   39.0653    0.0000 </r>
       <r>   41.9194    0.0000 </r>
       <r>   43.1465    0.0000 </r>
       <r>   46.5059    0.0000 </r>
       <r>   50.2921    0.0000 </r>
       <r>   51.4140    0.0000 </r>
       <r>   52.2688    0.0000 </r>
       <r>   52.5536    0.0000 </r>
       <r>   57.1829    0.0000 </r>
      </set>
      <set comment="kpoint 47">
       <r>  -42.0897    1.0000 </r>
       <r>  -41.9355    1.0000 </r>
       <r>  -41.9129    1.0000 </r>
       <r>    4.4662    1.0000 </r>
       <r>    6.1904    1.0000 </r>
       <r>    7.0209    1.0000 </r>
       <r>    8.1418    1.0000 </r>
       <r>    9.7854    1.0000 </r>
       <r>   10.6201    0.0000 </r>
       <r>   21.0778    0.0000 </r>
       <r>   26.2278    0.0000 </r>
       <r>   26.8569    0.0000 </r>
       <r>   29.5922    0.0000 </r>
       <r>   34.1415    0.0000 </r>
       <r>   36.2475    0.0000 </r>
       <r>   37.8771    0.0000 </r>
       <r>   40.1687    0.0000 </r>
       <r>   44.6578    0.0000 </r>
       <r>   46.8530    0.0000 </r>
       <r>   49.6694    0.0000 </r>
       <r>   50.0529    0.0000 </r>
       <r>   51.4179    0.0000 </r>
       <r>   53.2740    0.0000 </r>
       <r>   56.7605    0.0000 </r>
      </set>
      <set comment="kpoint 48">
       <r>  -42.0436    1.0000 </r>
       <r>  -41.9264    1.0000 </r>
       <r>  -41.9251    1.0000 </r>
       <r>    4.0735    1.0000 </r>
       <r>    5.5841    1.0000 </r>
       <r>    7.7489    1.0000 </r>
       <r>    8.7779    1.0000 </r>
       <r>    9.0239    1.0000 </r>
       <r>    9.8376    1.0000 </r>
       <r>   25.2665    0.0000 </r>
       <r>   26.0898    0.0000 </r>
       <r>   27.1697    0.0000 </r>
       <r>   29.1924    0.0000 </r>
       <r>   29.7677    0.0000 </r>
       <r>   37.2720    0.0000 </r>
       <r>   37.4489    0.0000 </r>
       <r>   41.9924    0.0000 </r>
       <r>   42.6097    0.0000 </r>
       <r>   46.4977    0.0000 </r>
       <r>   49.9725    0.0000 </r>
       <r>   50.5129    0.0000 </r>
       <r>   51.3179    0.0000 </r>
       <r>   51.4236    0.0000 </r>
       <r>   59.8057    0.0000 </r>
      </set>
      <set comment="kpoint 49">
       <r>  -42.0130    1.0000 </r>
       <r>  -41.9128    1.0000 </r>
       <r>  -41.8970    1.0000 </r>
       <r>    3.5457    1.0000 </r>
       <r>    6.0297    1.0000 </r>
       <r>    7.4905    1.0000 </r>
       <r>    8.2211    1.0000 </r>
       <r>    8.6928    1.0000 </r>
       <r>    9.7470    1.0000 </r>
       <r>   24.9320    0.0000 </r>
       <r>   26.9420    0.0000 </r>
       <r>   28.4504    0.0000 </r>
       <r>   29.3365    0.0000 </r>
       <r>   32.6806    0.0000 </r>
       <r>   35.7139    0.0000 </r>
       <r>   36.8881    0.0000 </r>
       <r>   40.8687    0.0000 </r>
       <r>   43.8958    0.0000 </r>
       <r>   45.2852    0.0000 </r>
       <r>   47.2235    0.0000 </r>
       <r>   50.4933    0.0000 </r>
       <r>   51.4149    0.0000 </r>
       <r>   52.6038    0.0000 </r>
       <r>   58.7389    0.0000 </r>
      </set>
      <set comment="kpoint 50">
       <r>  -41.9484    1.0000 </r>
       <r>  -41.8871    1.0000 </r>
       <r>  -41.8852    1.0000 </r>
       <r>    2.5930    1.0000 </r>
       <r>    6.3387    1.0000 </r>
       <r>    7.7779    1.0000 </r>
       <r>    7.8416    1.0000 </r>
       <r>    8.2760    1.0000 </r>
       <r>    9.3684    1.0000 </r>
       <r>   26.9560    0.0000 </r>
       <r>   27.3101    0.0000 </r>
       <r>   28.8521    0.0000 </r>
       <r>   29.4067    0.0000 </r>
       <r>   34.0078    0.0000 </r>
       <r>   36.0768    0.0000 </r>
       <r>   36.4077    0.0000 </r>
       <r>   41.1084    0.0000 </r>
       <r>   41.6533    0.0000 </r>
       <r>   45.0615    0.0000 </r>
       <r>   47.9774    0.0000 </r>
       <r>   48.2777    0.0000 </r>
       <r>   51.3974    0.0000 </r>
       <r>   51.5062    0.0000 </r>
       <r>   59.7684    0.0000 </r>
      </set>
      <set comment="kpoint 51">
       <r>  -41.9218    1.0000 </r>
       <r>  -41.8621    1.0000 </r>
       <r>  -41.8621    1.0000 </r>
       <r>    1.9099    1.0000 </r>
       <r>    6.8560    1.0000 </r>
       <r>    7.3796    1.0000 </r>
       <r>    7.3796    1.0000 </r>
       <r>    8.9159    1.0000 </r>
       <r>    8.9159    1.0000 </r>
       <r>   26.1241    0.0000 </r>
       <r>   26.6097    0.0000 </r>
       <r>   30.8245    0.0000 </r>
       <r>   30.8245    0.0000 </r>
       <r>   34.6827    0.0000 </r>
       <r>   37.1583    0.0000 </r>
       <r>   37.1583    0.0000 </r>
       <r>   39.3696    0.0000 </r>
       <r>   43.3694    0.0000 </r>
       <r>   43.3694    0.0000 </r>
       <r>   45.9734    0.0000 </r>
       <r>   49.9442    0.0000 </r>
       <r>   49.9442    0.0000 </r>
       <r>   51.4090    0.0000 </r>
       <r>   57.6600    0.0000 </r>
      </set>
      <set comment="kpoint 52">
       <r>  -41.9639    1.0000 </r>
       <r>  -41.8891    1.0000 </r>
       <r>  -41.8636    1.0000 </r>
       <r>    2.5702    1.0000 </r>
       <r>    6.6027    1.0000 </r>
       <r>    7.5150    1.0000 </r>
       <r>    7.6208    1.0000 </r>
       <r>    8.5293    1.0000 </r>
       <r>    9.3635    1.0000 </r>
       <r>   25.4551    0.0000 </r>
       <r>   26.7308    0.0000 </r>
       <r>   29.5326    0.0000 </r>
       <r>   32.0118    0.0000 </r>
       <r>   32.7323    0.0000 </r>
       <r>   37.0803    0.0000 </r>
       <r>   37.3234    0.0000 </r>
       <r>   39.7516    0.0000 </r>
       <r>   41.3721    0.0000 </r>
       <r>   44.4430    0.0000 </r>
       <r>   47.2464    0.0000 </r>
       <r>   49.8811    0.0000 </r>
[...]
       </set>
       <set comment="band 3">
        <r>  0.0000  0.4969  0.0000  0.4969  0.0000  0.0000  0.0000  0.0000  0.0000 </r>
       </set>
       <set comment="band 4">
        <r>  0.1353  0.0000  0.0055  0.0000  0.1826  0.1370  0.0045  0.1370  0.0000 </r>
       </set>
       <set comment="band 5">
        <r>  0.0001  0.0009  0.0000  0.0009  0.1276  0.0733  0.5253  0.0733  0.0000 </r>
       </set>
       <set comment="band 6">
        <r>  0.0000  0.0006  0.0000  0.0006  0.0000  0.1817  0.0000  0.1817  0.4669 </r>
       </set>
       <set comment="band 7">
        <r>  0.0320  0.0204  0.0205  0.0204  0.3765  0.0073  0.0837  0.0073  0.0000 </r>
       </set>
       <set comment="band 8">
        <r>  0.0000  0.0001  0.0000  0.0001  0.0000  0.2669  0.0000  0.2669  0.4089 </r>
       </set>
       <set comment="band 9">
        <r>  0.0423  0.0133  0.0252  0.0133  0.0711  0.1544  0.2285  0.1544  0.0000 </r>
       </set>
       <set comment="band 10">
        <r>  0.2716  0.0214  0.0141  0.0214  0.1131  0.0851  0.0041  0.0851  0.0000 </r>
       </set>
       <set comment="band 11">
        <r>  0.0010  0.0016  0.0108  0.0016  0.0172  0.0002  0.0255  0.0002  0.0000 </r>
       </set>
       <set comment="band 12">
        <r>  0.0000  0.1130  0.0000  0.1130  0.0000  0.0130  0.0000  0.0130  0.0152 </r>
       </set>
       <set comment="band 13">
        <r>  0.0239  0.0325  0.1337  0.0325  0.0404  0.0064  0.0299  0.0064  0.0000 </r>
       </set>
       <set comment="band 14">
        <r>  0.0000  0.0007  0.0000  0.0007  0.0000  0.0276  0.0000  0.0276  0.1589 </r>
       </set>
       <set comment="band 15">
        <r>  0.0000  0.0070  0.0022  0.0070  0.0553  0.0144  0.1958  0.0144  0.0000 </r>
       </set>
       <set comment="band 16">
        <r>  0.0603  0.0291  0.0028  0.0291  0.0650  0.0203  0.0198  0.0203  0.0000 </r>
       </set>
       <set comment="band 17">
        <r>  0.0997  0.0360  0.0879  0.0360  0.0132  0.0284  0.0002  0.0284  0.0000 </r>
       </set>
       <set comment="band 18">
        <r>  0.0382  0.0014  0.0927  0.0014  0.0140  0.0309  0.0010  0.0309  0.0000 </r>
       </set>
       <set comment="band 19">
        <r>  0.0000  0.1296  0.0000  0.1296  0.0000  0.0312  0.0000  0.0312  0.0765 </r>
       </set>
       <set comment="band 20">
        <r>  0.0000  0.0656  0.0000  0.0656  0.0000  0.0272  0.0000  0.0272  0.0000 </r>
       </set>
       <set comment="band 21">
        <r>  6.2969  0.0000  0.0000  0.0000  0.0001  0.0000  0.0000  0.0000  0.0000 </r>
       </set>
       <set comment="band 22">
        <r>  0.0061  0.0103  0.0625  0.0103  0.0307  0.0017  0.0398  0.0017  0.0000 </r>
       </set>
       <set comment="band 23">
        <r>  0.0372  0.0042  0.0328  0.0042  0.1624  0.0097  0.0001  0.0097  0.0000 </r>
       </set>
       <set comment="band 24">
        <r>  0.0725  0.0010  0.0016  0.0010  0.0044  0.0005  0.0005  0.0005  0.0000 </r>
       </set>
      </set>
      <set comment="kpoint 106">
       <set comment="band 1">
        <r>  0.0000  0.2967  0.4051  0.2831  0.0000  0.0000  0.0000  0.0000  0.0000 </r>
       </set>
       <set comment="band 2">
        <r>  0.0000  0.0040  0.3662  0.6217  0.0000  0.0000  0.0000  0.0000  0.0000 </r>
       </set>
       <set comment="band 3">
        <r>  0.0000  0.6902  0.2181  0.0852  0.0000  0.0000  0.0000  0.0000  0.0000 </r>
       </set>
       <set comment="band 4">
        <r>  0.1021  0.0003  0.0065  0.0027  0.2162  0.1879  0.0064  0.1048  0.0010 </r>
       </set>
       <set comment="band 5">
        <r>  0.0000  0.0048  0.0001  0.0002  0.0650  0.1303  0.4387  0.0012  0.1194 </r>
       </set>
       <set comment="band 6">
        <r>  0.0073  0.0099  0.0086  0.0167  0.1684  0.1726  0.1611  0.0827  0.0589 </r>
       </set>
       <set comment="band 7">
        <r>  0.0038  0.0052  0.0108  0.0016  0.1846  0.0045  0.0256  0.1622  0.3726 </r>
       </set>
       <set comment="band 8">
        <r>  0.0006  0.0001  0.0010  0.0004  0.0812  0.0861  0.0665  0.4434  0.2469 </r>
       </set>
       <set comment="band 9">
        <r>  0.0762  0.0193  0.0362  0.0178  0.0162  0.2703  0.1255  0.0196  0.0502 </r>
       </set>
       <set comment="band 10">
        <r>  0.2847  0.0146  0.0091  0.0262  0.1313  0.0423  0.0087  0.0906  0.0174 </r>
       </set>
       <set comment="band 11">
        <r>  0.0122  0.0196  0.0015  0.0915  0.0486  0.0046  0.0270  0.0195  0.0418 </r>
       </set>
       <set comment="band 12">
        <r>  0.0339  0.0000  0.0954  0.0418  0.0034  0.0242  0.0579  0.0182  0.0043 </r>
       </set>
       <set comment="band 13">
        <r>  0.0028  0.1331  0.0411  0.0072  0.0125  0.0003  0.0192  0.0000  0.0001 </r>
       </set>
       <set comment="band 14">
        <r>  0.0005  0.0030  0.0037  0.0109  0.0400  0.0478  0.0065  0.0110  0.0882 </r>
       </set>
       <set comment="band 15">
        <r>  0.0000  0.0002  0.0012  0.0026  0.0680  0.0088  0.1129  0.0108  0.0017 </r>
       </set>
       <set comment="band 16">
        <r>  0.1881  0.0003  0.0068  0.0001  0.0145  0.0190  0.0128  0.0442  0.0025 </r>
       </set>
       <set comment="band 17">
        <r>  0.0138  0.0979  0.0425  0.0318  0.0189  0.0185  0.0163  0.0074  0.0363 </r>
       </set>
       <set comment="band 18">
        <r>  0.0050  0.1074  0.0424  0.0450  0.0018  0.0175  0.0005  0.0222  0.0471 </r>
       </set>
       <set comment="band 19">
        <r>  0.0179  0.0527  0.0602  0.0522  0.0002  0.0458  0.0443  0.0001  0.0244 </r>
       </set>
       <set comment="band 20">
        <r>  0.0000  0.0016  0.0006  0.0176  0.0008  0.0474  0.0045  0.0057  0.0002 </r>
       </set>
       <set comment="band 21">
        <r>  0.0087  0.0003  0.0142  0.0063  0.0581  0.0006  0.0086  0.0000  0.0113 </r>
       </set>
       <set comment="band 22">
        <r>  6.2906  0.0000  0.0000  0.0000  0.0000  0.0000  0.0000  0.0000  0.0000 </r>
       </set>
       <set comment="band 23">
        <r>  0.0201  0.0130  0.0350  0.0067  0.0285  0.0006  0.0024  0.0274  0.0302 </r>
       </set>
       <set comment="band 24">
        <r>  0.0098  0.0020  0.0574  0.0301  0.0265  0.0495  0.0003  0.0090  0.0182 </r>
       </set>
      </set>
      <set comment="kpoint 107">
       <set comment="band 1">
        <r>  0.0000  0.2468  0.3555  0.3837  0.0000  0.0000  0.0000  0.0000  0.0000 </r>
       </set>
       <set comment="band 2">
        <r>  0.0000  0.0514  0.3608  0.5775  0.0000  0.0000  0.0000  0.0000  0.0000 </r>
       </set>
       <set comment="band 3">
        <r>  0.0000  0.6927  0.2729  0.0271  0.0000  0.0000  0.0000  0.0000  0.0000 </r>
       </set>
       <set comment="band 4">
        <r>  0.0552  0.0000  0.0061  0.0048  0.0949  0.3996  0.0185  0.0407  0.0568 </r>
       </set>
       <set comment="band 5">
        <r>  0.0038  0.0111  0.0046  0.0007  0.0929  0.0010  0.3525  0.0150  0.2019 </r>
       </set>
       <set comment="band 6">
        <r>  0.0001  0.0064  0.0090  0.0202  0.3728  0.2095  0.0152  0.0316  0.0144 </r>
       </set>
       <set comment="band 7">
        <r>  0.0015  0.0002  0.0031  0.0016  0.0073  0.0005  0.2857  0.1410  0.4023 </r>
       </set>
       <set comment="band 8">
        <r>  0.0044  0.0000  0.0000  0.0003  0.1475  0.0292  0.0604  0.5998  0.0824 </r>
       </set>
       <set comment="band 9">
        <r>  0.2438  0.0141  0.0352  0.0065  0.0007  0.2119  0.0539  0.0219  0.0054 </r>
       </set>
       <set comment="band 10">
        <r>  0.1451  0.0168  0.0173  0.0619  0.1491  0.0009  0.0329  0.0623  0.0708 </r>
       </set>
       <set comment="band 11">
        <r>  0.0765  0.0143  0.0382  0.1050  0.0568  0.0072  0.0095  0.0368  0.0899 </r>
       </set>
       <set comment="band 12">
        <r>  0.0109  0.0520  0.0916  0.0001  0.0021  0.0406  0.1376  0.0021  0.0042 </r>
       </set>
       <set comment="band 13">
        <r>  0.0023  0.0945  0.0068  0.0044  0.0039  0.0459  0.0015  0.0000  0.0102 </r>
       </set>
       <set comment="band 14">
        <r>  0.0000  0.0000  0.0020  0.0100  0.0718  0.0419  0.0044  0.0064  0.0269 </r>
       </set>
       <set comment="band 15">
        <r>  0.0000  0.0004  0.0003  0.0089  0.0260  0.0162  0.0270  0.0118  0.0030 </r>
       </set>
       <set comment="band 16">
        <r>  0.1538  0.0531  0.0085  0.0010  0.0149  0.0087  0.0000  0.0041  0.0408 </r>
       </set>
       <set comment="band 17">
        <r>  0.0801  0.1340  0.0028  0.0017  0.0016  0.0651  0.0305  0.0013  0.0277 </r>
       </set>
       <set comment="band 18">
        <r>  0.0006  0.0014  0.0358  0.0244  0.0023  0.0028  0.0010  0.0295  0.0518 </r>
       </set>
       <set comment="band 19">
        <r>  0.0090  0.0476  0.1054  0.0015  0.0007  0.0548  0.1112  0.0015  0.0007 </r>
       </set>
       <set comment="band 20">
        <r>  0.0026  0.0138  0.0018  0.0375  0.0320  0.0096  0.0026  0.0046  0.0298 </r>
       </set>
       <set comment="band 21">
        <r>  0.0001  0.0030  0.0015  0.0021  0.0017  0.0099  0.0018  0.0007  0.0008 </r>
       </set>
       <set comment="band 22">
        <r>  6.2948  0.0000  0.0000  0.0000  0.0000  0.0000  0.0000  0.0000  0.0000 </r>
       </set>
       <set comment="band 23">
        <r>  0.0063  0.0003  0.0373  0.0571  0.0234  0.0223  0.0001  0.0197  0.0129 </r>
       </set>
       <set comment="band 24">
        <r>  0.0081  0.0049  0.0363  0.0051  0.0043  0.0013  0.0149  0.0161  0.0270 </r>
       </set>
      </set>
      <set comment="kpoint 108">
       <set comment="band 1">
        <r>  0.0000  0.2834  0.4181  0.2834  0.0000  0.0000  0.0000  0.0000  0.0000 </r>
       </set>
       <set comment="band 2">
        <r>  0.0000  0.2104  0.5704  0.2104  0.0000  0.0000  0.0000  0.0000  0.0000 </r>
       </set>
       <set comment="band 3">
        <r>  0.0000  0.4966  0.0000  0.4966  0.0000  0.0000  0.0000  0.0000  0.0000 </r>
       </set>
       <set comment="band 4">
        <r>  0.0837  0.0012  0.0059  0.0012  0.3299  0.0968  0.0339  0.0968  0.0000 </r>
       </set>
       <set comment="band 5">
        <r>  0.0009  0.0057  0.0003  0.0057  0.0091  0.0627  0.5744  0.0627  0.0000 </r>
       </set>
       <set comment="band 6">
        <r>  0.0063  0.0111  0.0216  0.0111  0.3147  0.1251  0.0399  0.1251  0.0000 </r>
       </set>
       <set comment="band 7">
        <r>  0.0000  0.0012  0.0000  0.0012  0.0000  0.1409  0.0000  0.1409  0.5561 </r>
       </set>
       <set comment="band 8">
        <r>  0.0000  0.0001  0.0000  0.0001  0.0000  0.3147  0.0000  0.3147  0.3087 </r>
       </set>
       <set comment="band 9">
        <r>  0.0042  0.0330  0.0566  0.0330  0.0766  0.0655  0.1680  0.0655  0.0000 </r>
       </set>
       <set comment="band 10">
        <r>  0.3743  0.0053  0.0002  0.0053  0.1249  0.0955  0.0003  0.0955  0.0000 </r>
       </set>
       <set comment="band 11">
        <r>  0.0410  0.0152  0.0999  0.0152  0.0004  0.0323  0.1173  0.0323  0.0000 </r>
       </set>
       <set comment="band 12">
        <r>  0.0000  0.1123  0.0000  0.1123  0.0000  0.0033  0.0000  0.0033  0.0676 </r>
       </set>
       <set comment="band 13">
        <r>  0.0228  0.0237  0.0213  0.0237  0.0811  0.0014  0.0055  0.0014  0.0000 </r>
       </set>
       <set comment="band 14">
        <r>  0.0000  0.0002  0.0000  0.0002  0.0000  0.0448  0.0000  0.0448  0.0822 </r>
       </set>
       <set comment="band 15">
        <r>  0.0000  0.0017  0.0195  0.0017  0.0947  0.0002  0.0754  0.0002  0.0000 </r>
       </set>
       <set comment="band 16">
        <r>  0.1688  0.0250  0.0093  0.0250  0.0011  0.0150  0.0451  0.0150  0.0000 </r>
       </set>
       <set comment="band 17">
        <r>  0.0302  0.0405  0.0145  0.0405  0.0203  0.0248  0.0159  0.0248  0.0000 </r>
       </set>
       <set comment="band 18">
        <r>  0.0193  0.0059  0.0513  0.0059  0.0668  0.0103  0.0530  0.0103  0.0000 </r>
       </set>
       <set comment="band 19">
        <r>  0.0000  0.1644  0.0000  0.1644  0.0000  0.0002  0.0000  0.0002  0.1141 </r>
       </set>
       <set comment="band 20">
        <r>  0.0000  0.0033  0.0000  0.0033  0.0000  0.0187  0.0000  0.0187  0.0013 </r>
       </set>
       <set comment="band 21">
        <r>  0.0031  0.0028  0.0279  0.0028  0.0520  0.0030  0.0064  0.0030  0.0000 </r>
       </set>
       <set comment="band 22">
        <r>  6.2989  0.0000  0.0000  0.0000  0.0000  0.0000  0.0000  0.0000  0.0000 </r>
       </set>
       <set comment="band 23">
        <r>  0.0383  0.0071  0.0217  0.0071  0.0661  0.0191  0.0007  0.0191  0.0000 </r>
       </set>
       <set comment="band 24">
        <r>  0.0000  0.0314  0.0000  0.0314  0.0000  0.0137  0.0000  0.0137  0.0426 </r>
       </set>
      </set>
      <set comment="kpoint 109">
       <set comment="band 1">
        <r>  0.0000  0.3280  0.3280  0.3280  0.0000  0.0000  0.0000  0.0000  0.0000 </r>
       </set>
       <set comment="band 2">
        <r>  0.0000  0.4054  0.0373  0.5514  0.0000  0.0000  0.0000  0.0000  0.0000 </r>
       </set>
       <set comment="band 3">
        <r>  0.0000  0.2573  0.6254  0.1114  0.0000  0.0000  0.0000  0.0000  0.0000 </r>
       </set>
       <set comment="band 4">
        <r>  0.1349  0.0003  0.0003  0.0003  0.1589  0.1589  0.0000  0.1589  0.0000 </r>
       </set>
       <set comment="band 5">
        <r>  0.0000  0.0000  0.0000  0.0000  0.0060  0.1413  0.0126  0.1986  0.4676 </r>
       </set>
       <set comment="band 6">
        <r>  0.0000  0.0000  0.0000  0.0000  0.2245  0.0893  0.4676  0.0320  0.0126 </r>
       </set>
       <set comment="band 7">
        <r>  0.0334  0.0483  0.0483  0.0483  0.0225  0.0225  0.0000  0.0225  0.0000 </r>
       </set>
       <set comment="band 8">
        <r>  0.0000  0.0001  0.0000  0.0001  0.0005  0.2678  0.0005  0.2842  0.3863 </r>
       </set>
       <set comment="band 9">
        <r>  0.0000  0.0000  0.0001  0.0000  0.3679  0.1006  0.3863  0.0841  0.0005 </r>
       </set>
       <set comment="band 10">
        <r>  0.3230  0.0082  0.0082  0.0082  0.1226  0.1226  0.0000  0.1226  0.0000 </r>
       </set>
       <set comment="band 11">
        <r>  0.0002  0.0034  0.0034  0.0034  0.0009  0.0009  0.0000  0.0009  0.0000 </r>
       </set>
       <set comment="band 12">
        <r>  0.0000  0.0749  0.1322  0.0124  0.0036  0.0003  0.0004  0.0021  0.0000 </r>
       </set>
       <set comment="band 13">
        <r>  0.0000  0.0714  0.0141  0.1340  0.0004  0.0037  0.0000  0.0020  0.0004 </r>
       </set>
       <set comment="band 14">
        <r>  0.0000  0.0007  0.0016  0.0003  0.0588  0.0105  0.2385  0.0243  0.0149 </r>
       </set>
       <set comment="band 15">
        <r>  0.0000  0.0010  0.0001  0.0014  0.0037  0.0519  0.0149  0.0381  0.2385 </r>
       </set>
       <set comment="band 16">
        <r>  0.1175  0.0046  0.0046  0.0046  0.0592  0.0592  0.0000  0.0592  0.0000 </r>
       </set>
       <set comment="band 17">
        <r>  0.0000  0.1033  0.1803  0.0150  0.0150  0.0013  0.0093  0.0086  0.0010 </r>
       </set>
       <set comment="band 18">
        <r>  0.0000  0.0958  0.0188  0.1841  0.0016  0.0153  0.0010  0.0080  0.0093 </r>
       </set>
       <set comment="band 19">
        <r>  0.0507  0.0255  0.0255  0.0255  0.0181  0.0181  0.0000  0.0181  0.0000 </r>
       </set>
       <set comment="band 20">
        <r>  6.3006  0.0000  0.0000  0.0000  0.0000  0.0000  0.0000  0.0000  0.0000 </r>
       </set>
       <set comment="band 21">
        <r>  0.0000  0.0377  0.0740  0.0085  0.0440  0.0050  0.0027  0.0224  0.0002 </r>
       </set>
       <set comment="band 22">
        <r>  0.0000  0.0424  0.0061  0.0717  0.0036  0.0426  0.0002  0.0252  0.0027 </r>
       </set>
       <set comment="band 23">
        <r>  0.1882  0.0009  0.0009  0.0009  0.0102  0.0102  0.0000  0.0102  0.0000 </r>
       </set>
       <set comment="band 24">
        <r>  0.0000  0.0038  0.0071  0.0007  0.1344  0.0141  0.0126  0.0718  0.0012 </r>
       </set>
      </set>
      <set comment="kpoint 110">
       <set comment="band 1">
        <r>  0.0000  0.3285  0.3285  0.3270  0.0000  0.0000  0.0000  0.0000  0.0000 </r>
       </set>
       <set comment="band 2">
        <r>  0.0000  0.1651  0.1651  0.6631  0.0000  0.0000  0.0000  0.0000  0.0000 </r>
       </set>
       <set comment="band 3">
        <r>  0.0000  0.4970  0.4970  0.0000  0.0000  0.0000  0.0000  0.0000  0.0000 </r>
       </set>
       <set comment="band 4">
        <r>  0.1188  0.0008  0.0008  0.0017  0.1549  0.1913  0.0001  0.1549  0.0003 </r>
       </set>
       <set comment="band 5">
        <r>  0.0000  0.0009  0.0009  0.0001  0.0559  0.1798  0.1267  0.0559  0.3802 </r>
       </set>
       <set comment="band 6">
        <r>  0.0000  0.0003  0.0003  0.0000  0.1607  0.0000  0.3800  0.1607  0.1267 </r>
       </set>
       <set comment="band 7">
        <r>  0.0010  0.0234  0.0234  0.0236  0.0794  0.2038  0.0352  0.0794  0.1057 </r>
       </set>
       <set comment="band 8">
        <r>  0.0000  0.0001  0.0001  0.0000  0.2906  0.0000  0.2671  0.2906  0.0890 </r>
       </set>
       <set comment="band 9">
        <r>  0.0091  0.0314  0.0314  0.0320  0.0206  0.2102  0.0517  0.0206  0.1550 </r>
       </set>
       <set comment="band 10">
        <r>  0.3587  0.0008  0.0008  0.0048  0.1378  0.1108  0.0008  0.1378  0.0025 </r>
       </set>
       <set comment="band 11">
        <r>  0.0004  0.0005  0.0005  0.0156  0.0067  0.0078  0.0061  0.0067  0.0183 </r>
       </set>
       <set comment="band 12">
        <r>  0.0189  0.0382  0.0382  0.1264  0.0138  0.0072  0.0031  0.0138  0.0093 </r>
       </set>
       <set comment="band 13">
        <r>  0.0000  0.1107  0.1107  0.0000  0.0001  0.0000  0.0221  0.0001  0.0074 </r>
       </set>
       <set comment="band 14">
        <r>  0.0038  0.0000  0.0000  0.0097  0.0007  0.0902  0.0436  0.0007  0.1308 </r>
       </set>
       <set comment="band 15">
        <r>  0.0000  0.0003  0.0003  0.0000  0.0562  0.0000  0.1531  0.0562  0.0510 </r>
       </set>
       <set comment="band 16">
        <r>  0.1417  0.0000  0.0000  0.0024  0.0696  0.0241  0.0018  0.0696  0.0053 </r>
       </set>
       <set comment="band 17">
        <r>  0.0304  0.0628  0.0628  0.1153  0.0015  0.0001  0.0113  0.0015  0.0340 </r>
       </set>
       <set comment="band 18">
        <r>  0.0000  0.1545  0.1545  0.0000  0.0005  0.0000  0.0260  0.0005  0.0087 </r>
       </set>
       <set comment="band 19">
        <r>  0.0159  0.0187  0.0187  0.0538  0.0009  0.0451  0.0039  0.0009  0.0117 </r>
       </set>
       <set comment="band 20">
        <r>  0.0025  0.0047  0.0047  0.0204  0.0058  0.0679  0.0000  0.0058  0.0000 </r>
       </set>
       <set comment="band 21">
        <r>  0.0000  0.0107  0.0107  0.0000  0.0400  0.0000  0.0048  0.0400  0.0016 </r>
       </set>
       <set comment="band 22">
        <r>  6.2970  0.0000  0.0000  0.0000  0.0000  0.0000  0.0000  0.0000  0.0000 </r>
       </set>
       <set comment="band 23">
        <r>  0.1084  0.0036  0.0036  0.0008  0.0015  0.0905  0.0013  0.0015  0.0040 </r>
       </set>
       <set comment="band 24">
        <r>  0.0000  0.0453  0.0453  0.0000  0.0495  0.0000  0.0024  0.0495  0.0008 </r>
       </set>
      </set>
     </set>
    </set>
   </array>
  </projected>
 </calculation>
 <structure name="finalpos" >
  <crystal>
   <varray name="basis" >
    <v>       0.00000000       2.01842560       2.01842560 </v>
    <v>       2.01842560       0.00000000       2.01842560 </v>
    <v>       2.01842560       2.01842560       0.00000000 </v>
   </varray>
   <i name="volume">     16.44630099 </i>
   <varray name="rec_basis" >
    <v>      -0.24771782       0.24771782       0.24771782 </v>
    <v>       0.24771782      -0.24771782       0.24771782 </v>
    <v>       0.24771782       0.24771782      -0.24771782 </v>
   </varray>
  </crystal>
  <varray name="positions" >
   <v>       0.00000000       0.00000000       0.00000000 </v>
  </varray>
 </structure>
</modeling>
