Co-fcc                                  
   1.00000000000000     
     0.000000    1.719182    1.719182
     1.719182    0.000000    1.719182
     1.719182    1.719182    0.000000
   Co
     1
Direct
  0.000000  0.000000  0.000000
 
   32   32   32
  96.191      94.147      88.284      79.345      68.367      56.462      44.646      33.733      24.310      16.738    
  11.154      7.4695      5.3783      4.4026      3.9836      3.7475      3.6679      3.7475      3.9836      4.4026    
  5.3783      7.4695      11.154      16.738      24.310      33.733      44.646      56.462      68.367      79.345    
  88.284      94.147      94.147      90.194      82.802      72.869      61.475      49.685      38.407      28.337    
  19.944      13.476      8.9546      6.1797      4.7515      4.1405      3.8321      3.6751      3.6751      3.8321    
  4.1405      4.7515      6.1797      8.9546      13.476      19.944      28.337      38.407      49.685      61.475    
  72.869      82.802      90.194      94.147      88.284      82.802      74.436      64.144      52.967      41.859    
  31.599      22.751      15.666      10.475      7.0839      5.1865      4.3127      3.9222      3.6955      3.6194    
  3.6955      3.9222      4.3127      5.1865      7.0839      10.475      15.666      22.751      31.599      41.859    
  52.967      64.144      74.436      82.802      88.284      90.194      79.345      72.869      64.144      54.107    
  43.695      33.724      24.835      17.465      11.843      7.9789      5.6660      4.5115      4.0100      3.7253    
  3.5814      3.5814      3.7253      4.0100      4.5115      5.6660      7.9788      11.843      17.465      24.835    
  33.724      43.695      54.107      64.144      72.869      79.345      82.802      82.802      68.367      61.475    
  52.967      43.695      34.463      25.946      18.646      12.876      8.7380      6.1220      4.7216      4.0905    
  3.7593      3.5597      3.4933      3.5597      3.7593      4.0905      4.7216      6.1220      8.7380      12.876    
  18.646      25.946      34.463      43.695      52.967      61.475      68.367      72.869      74.436      72.869    
  56.462      49.685      41.859      33.724      25.946      19.058      13.432      9.2468      6.4796      4.9106    
  4.1640      3.7921      3.5504      3.4305      3.4305      3.5504      3.7921      4.1640      4.9106      6.4796    
  9.2468      13.432      19.058      25.946      33.724      41.859      49.685      56.462      61.475      64.144    
  64.144      61.475      44.646      38.407      31.599      24.835      18.646      13.432      9.4258      6.6762    
  5.0424      4.2230      3.8189      3.5489      3.3896      3.3373      3.3896      3.5489      3.8189      4.2230    
  5.0424      6.6762      9.4258      13.432      18.646      24.835      31.599      38.407      44.646      49.685    
  52.967      54.107      52.967      49.685      33.733      28.337      22.751      17.465      12.876      9.2468    
  6.6762      5.0898      4.2562      3.8363      3.5508      3.3655      3.2755      3.2755      3.3655      3.5508    
  3.8363      4.2562      5.0898      6.6762      9.2468      12.876      17.465      22.751      28.337      33.733    
  38.407      41.859      43.695      43.695      41.859      38.407      24.310      19.944      15.666      11.843    
  8.7380      6.4796      5.0424      4.2562      3.8423      3.5527      3.3533      3.2391      3.2022      3.2391    
  3.3534      3.5527      3.8423      4.2562      5.0424      6.4796      8.7380      11.843      15.666      19.944    
  24.310      28.337      31.599      33.724      34.463      33.724      31.599      28.337      16.738      13.476    
  10.475      7.9789      6.1220      4.9106      4.2230      3.8363      3.5527      3.3497      3.2226      3.1621    
  3.1621      3.2226      3.3497      3.5527      3.8363      4.2230      4.9106      6.1220      7.9789      10.475    
  13.476      16.738      19.944      22.751      24.835      25.946      25.946      24.835      22.751      19.944    
  11.154      8.9546      7.0839      5.6660      4.7216      4.1640      3.8189      3.5508      3.3533      3.2226    
  3.1495      3.1262      3.1495      3.2226      3.3534      3.5508      3.8189      4.1640      4.7216      5.6660    
  7.0839      8.9546      11.154      13.476      15.666      17.465      18.646      19.058      18.646      17.465    
  15.666      13.476      7.4695      6.1797      5.1865      4.5115      4.0905      3.7921      3.5489      3.3655    
  3.2391      3.1621      3.1262      3.1262      3.1621      3.2391      3.3655      3.5489      3.7921      4.0905    
  4.5115      5.1865      6.1797      7.4695      8.9546      10.475      11.843      12.876      13.432      13.432    
  12.876      11.843      10.475      8.9546      5.3783      4.7515      4.3127      4.0100      3.7593      3.5504    
  3.3896      3.2755      3.2022      3.1621      3.1495      3.1621      3.2022      3.2755      3.3896      3.5504    
  3.7593      4.0100      4.3127      4.7515      5.3783      6.1797      7.0839      7.9789      8.7380      9.2468    
  9.4258      9.2468      8.7380      7.9788      7.0839      6.1797      4.4026      4.1405      3.9222      3.7253    
  3.5597      3.4305      3.3373      3.2755      3.2391      3.2226      3.2226      3.2391      3.2755      3.3373    
  3.4305      3.5597      3.7253      3.9222      4.1405      4.4026      4.7515      5.1865      5.6660      6.1220    
  6.4796      6.6762      6.6762      6.4796      6.1220      5.6660      5.1865      4.7515      3.9836      3.8321    
  3.6955      3.5814      3.4933      3.4305      3.3896      3.3655      3.3534      3.3497      3.3534      3.3655    
  3.3896      3.4305      3.4933      3.5814      3.6955      3.8321      3.9836      4.1405      4.3127      4.5115    
  4.7216      4.9106      5.0424      5.0898      5.0424      4.9106      4.7216      4.5115      4.3127      4.1405    
  3.7475      3.6751      3.6194      3.5814      3.5597      3.5504      3.5489      3.5508      3.5527      3.5527    
  3.5508      3.5489      3.5504      3.5597      3.5814      3.6194      3.6751      3.7475      3.8321      3.9222    
  4.0100      4.0905      4.1640      4.2230      4.2562      4.2562      4.2230      4.1640      4.0905      4.0100    
  3.9222      3.8321      3.6679      3.6751      3.6955      3.7253      3.7593      3.7921      3.8189      3.8363    
  3.8423      3.8363      3.8189      3.7921      3.7593      3.7253      3.6955      3.6751      3.6679      3.6751    
  3.6955      3.7253      3.7593      3.7921      3.8189      3.8363      3.8423      3.8363      3.8189      3.7921    
  3.7593      3.7253      3.6955      3.6751      3.7475      3.8321      3.9222      4.0100      4.0905      4.1640    
  4.2230      4.2562      4.2562      4.2230      4.1640      4.0905      4.0100      3.9222      3.8321      3.7475    
  3.6751      3.6194      3.5814      3.5597      3.5504      3.5489      3.5508      3.5527      3.5527      3.5508    
  3.5489      3.5504      3.5597      3.5814      3.6194      3.6751      3.9836      4.1405      4.3127      4.5115    
  4.7216      4.9106      5.0424      5.0898      5.0424      4.9106      4.7216      4.5115      4.3127      4.1405    
  3.9836      3.8321      3.6955      3.5814      3.4933      3.4305      3.3896      3.3655      3.3534      3.3497    
  3.3534      3.3655      3.3896      3.4305      3.4933      3.5814      3.6955      3.8321      4.4026      4.7515    
  5.1865      5.6660      6.1220      6.4796      6.6762      6.6762      6.4796      6.1220      5.6660      5.1865    
  4.7515      4.4026      4.1405      3.9222      3.7253      3.5597      3.4305      3.3373      3.2755      3.2391    
  3.2226      3.2226      3.2391      3.2755      3.3373      3.4305      3.5597      3.7253      3.9222      4.1405    
  5.3783      6.1797      7.0839      7.9788      8.7380      9.2468      9.4258      9.2468      8.7380      7.9789    
  7.0839      6.1797      5.3783      4.7515      4.3127      4.0100      3.7593      3.5504      3.3896      3.2755    
  3.2022      3.1621      3.1495      3.1621      3.2022      3.2755      3.3896      3.5504      3.7593      4.0100    
  4.3127      4.7515      7.4695      8.9546      10.475      11.843      12.876      13.432      13.432      12.876    
  11.843      10.475      8.9546      7.4695      6.1797      5.1865      4.5115      4.0905      3.7921      3.5489    
  3.3655      3.2391      3.1621      3.1262      3.1262      3.1621      3.2391      3.3655      3.5489      3.7921    
  4.0905      4.5115      5.1865      6.1797      11.154      13.476      15.666      17.465      18.646      19.058    
  18.646      17.465      15.666      13.476      11.154      8.9546      7.0839      5.6660      4.7216      4.1640    
  3.8189      3.5508      3.3534      3.2226      3.1495      3.1262      3.1495      3.2226      3.3533      3.5508    
  3.8189      4.1640      4.7216      5.6660      7.0839      8.9546      16.738      19.944      22.751      24.835    
  25.946      25.946      24.835      22.751      19.944      16.738      13.476      10.475      7.9789      6.1220    
  4.9106      4.2230      3.8363      3.5527      3.3497      3.2226      3.1621      3.1621      3.2226      3.3497    
  3.5527      3.8363      4.2230      4.9106      6.1220      7.9789      10.475      13.476      24.310      28.337    
  31.599      33.724      34.463      33.724      31.599      28.337      24.310      19.944      15.666      11.843    
  8.7380      6.4796      5.0424      4.2562      3.8423      3.5527      3.3534      3.2391      3.2022      3.2391    
  3.3533      3.5527      3.8423      4.2562      5.0424      6.4796      8.7380      11.843      15.666      19.944    
  33.733      38.407      41.859      43.695      43.695      41.859      38.407      33.733      28.337      22.751    
  17.465      12.876      9.2468      6.6762      5.0898      4.2562      3.8363      3.5508      3.3655      3.2755    
  3.2755      3.3655      3.5508      3.8363      4.2562      5.0898      6.6762      9.2468      12.876      17.465    
  22.751      28.337      44.646      49.685      52.967      54.107      52.967      49.685      44.646      38.407    
  31.599      24.835      18.646      13.432      9.4258      6.6762      5.0424      4.2230      3.8189      3.5489    
  3.3896      3.3373      3.3896      3.5489      3.8189      4.2230      5.0424      6.6762      9.4258      13.432    
  18.646      24.835      31.599      38.407      56.462      61.475      64.144      64.144      61.475      56.462    
  49.685      41.859      33.724      25.946      19.058      13.432      9.2468      6.4796      4.9106      4.1640    
  3.7921      3.5504      3.4305      3.4305      3.5504      3.7921      4.1640      4.9106      6.4796      9.2468    
  13.432      19.058      25.946      33.724      41.859      49.685      68.367      72.869      74.436      72.869    
  68.367      61.475      52.967      43.695      34.463      25.946      18.646      12.876      8.7380      6.1220    
  4.7216      4.0905      3.7593      3.5597      3.4933      3.5597      3.7593      4.0905      4.7216      6.1220    
  8.7380      12.876      18.646      25.946      34.463      43.695      52.967      61.475      79.345      82.802    
  82.802      79.345      72.869      64.144      54.107      43.695      33.724      24.835      17.465      11.843    
  7.9788      5.6660      4.5115      4.0100      3.7253      3.5814      3.5814      3.7253      4.0100      4.5115    
  5.6660      7.9789      11.843      17.465      24.835      33.724      43.695      54.107      64.144      72.869    
  88.284      90.194      88.284      82.802      74.436      64.144      52.967      41.859      31.599      22.751    
  15.666      10.475      7.0839      5.1865      4.3127      3.9222      3.6955      3.6194      3.6955      3.9222    
  4.3127      5.1865      7.0839      10.475      15.666      22.751      31.599      41.859      52.967      64.144    
  74.436      82.802      94.147      94.147      90.194      82.802      72.869      61.475      49.685      38.407    
  28.337      19.944      13.476      8.9546      6.1797      4.7515      4.1405      3.8321      3.6751      3.6751    
  3.8321      4.1405      4.7515      6.1797      8.9546      13.476      19.944      28.337      38.407      49.685    
  61.475      72.869      82.802      90.194      94.147      90.194      82.802      72.869      61.475      49.685    
  38.407      28.337      19.944      13.476      8.9546      6.1797      4.7515      4.1405      3.8321      3.6751    
  3.6751      3.8321      4.1405      4.7515      6.1797      8.9546      13.476      19.944      28.337      38.407    
  49.685      61.475      72.869      82.802      90.194      94.147      90.194      84.596      76.052      65.546    
  54.137      42.800      32.324      23.284      16.034      10.709      7.2181      5.2555      4.3480      3.9481    
  3.7180      3.6406      3.7180      3.9481      4.3480      5.2555      7.2181      10.709      16.034      23.284    
  32.324      42.800      54.137      65.546      76.052      84.596      90.194      92.145      82.802      76.052    
  66.962      56.508      45.664      35.276      26.001      18.293      12.389      8.3063      5.8413      4.5984    
  4.0631      3.7703      3.6218      3.6218      3.7703      4.0631      4.5984      5.8413      8.3063      12.389    
  18.293      26.001      35.276      45.664      56.508      66.962      76.052      82.802      86.407      86.407    
  72.869      65.546      56.508      46.659      36.847      27.778      19.980      13.783      9.3018      6.4360    
  4.8788      4.1747      3.8262      3.6171      3.5474      3.6171      3.8262      4.1747      4.8788      6.4360    
  9.3018      13.782      19.980      27.778      36.847      46.659      56.508      65.546      72.869      77.655    
  79.321      77.655      61.475      54.137      45.664      36.847      28.396      20.882      14.704      10.062    
  6.9499      5.1518      4.2854      3.8794      3.6229      3.4949      3.4949      3.6229      3.8794      4.2854    
  5.1518      6.9499      10.062      14.704      20.882      28.396      36.847      45.664      54.137      61.475    
  66.903      69.794      69.794      66.903      49.685      42.800      35.276      27.778      20.882      15.026    
  10.474      7.2985      5.3699      4.3843      3.9241      3.6343      3.4617      3.4048      3.4617      3.6343    
  3.9241      4.3843      5.3699      7.2985      10.474      15.026      20.882      27.778      35.276      42.800    
  49.685      55.241      58.861      60.118      58.860      55.241      38.407      32.324      26.001      19.980    
  14.704      10.474      7.4219      5.4911      4.4538      3.9562      3.6464      3.4430      3.3436      3.3436    
  3.4430      3.6464      3.9562      4.4538      5.4911      7.4219      10.474      14.704      19.980      26.001    
  32.324      38.407      43.665      47.543      49.604      49.604      47.543      43.665      28.337      23.284    
  18.293      13.783      10.062      7.2985      5.4911      4.4789      3.9732      3.6554      3.4340      3.3060    
  3.2644      3.3060      3.4340      3.6554      3.9732      4.4789      5.4911      7.2985      10.062      13.783    
  18.293      23.284      28.337      32.976      36.720      39.156      40.002      39.156      36.720      32.976    
  19.944      16.034      12.389      9.3018      6.9499      5.3699      4.4538      3.9732      3.6587      3.4306    
  3.2862      3.2172      3.2172      3.2862      3.4306      3.6587      3.9732      4.4538      5.3699      6.9499    
  9.3018      12.389      16.034      19.944      23.753      27.066      29.516      30.819      30.819      29.516    
  27.066      23.753      13.476      10.709      8.3063      6.4360      5.1518      4.3843      3.9562      3.6554    
  3.4306      3.2801      3.1956      3.1685      3.1956      3.2801      3.4306      3.6554      3.9562      4.3843    
  5.1518      6.4360      8.3063      10.709      13.476      16.353      19.038      21.226      22.657      23.154    
  22.657      21.226      19.038      16.353      8.9546      7.2181      5.8413      4.8788      4.2854      3.9241    
  3.6464      3.4340      3.2862      3.1956      3.1531      3.1531      3.1956      3.2862      3.4340      3.6464    
  3.9241      4.2854      4.8788      5.8413      7.2181      8.9546      10.908      12.873      14.618      15.926    
  16.626      16.626      15.926      14.618      12.873      10.908      6.1797      5.2555      4.5984      4.1747    
  3.8794      3.6343      3.4430      3.3060      3.2172      3.1685      3.1531      3.1685      3.2172      3.3060    
  3.4430      3.6343      3.8794      4.1747      4.5984      5.2555      6.1797      7.3271      8.5881      9.8115    
  10.835      11.514      11.752      11.514      10.835      9.8115      8.5881      7.3271      4.7515      4.3480    
  4.0631      3.8262      3.6229      3.4617      3.3436      3.2644      3.2172      3.1956      3.1956      3.2172    
  3.2644      3.3436      3.4617      3.6229      3.8262      4.0631      4.3480      4.7515      5.3045      5.9801    
  6.7053      7.3799      7.9008      8.1845      8.1845      7.9008      7.3799      6.7053      5.9801      5.3044    
  4.1405      3.9481      3.7703      3.6171      3.4949      3.4048      3.3436      3.3060      3.2862      3.2801    
  3.2862      3.3060      3.3436      3.4048      3.4949      3.6171      3.7703      3.9481      4.1405      4.3651    
  4.6518      4.9928      5.3484      5.6620      5.8776      5.9543      5.8776      5.6620      5.3484      4.9928    
  4.6518      4.3651      3.8321      3.7180      3.6218      3.5474      3.4949      3.4617      3.4430      3.4340    
  3.4306      3.4306      3.4340      3.4430      3.4617      3.4949      3.5474      3.6218      3.7180      3.8321    
  3.9567      4.0826      4.2126      4.3534      4.4923      4.6055      4.6693      4.6693      4.6055      4.4923    
  4.3534      4.2126      4.0826      3.9567      3.6751      3.6406      3.6218      3.6171      3.6229      3.6343    
  3.6464      3.6554      3.6587      3.6554      3.6464      3.6343      3.6229      3.6171      3.6218      3.6406    
  3.6751      3.7240      3.7832      3.8469      3.9083      3.9616      4.0045      4.0336      4.0441      4.0336    
  4.0045      3.9616      3.9083      3.8469      3.7832      3.7240      3.6751      3.7180      3.7703      3.8262    
  3.8794      3.9241      3.9562      3.9732      3.9732      3.9562      3.9241      3.8794      3.8262      3.7703    
  3.7180      3.6751      3.6456      3.6310      3.6301      3.6394      3.6543      3.6701      3.6829      3.6900    
  3.6900      3.6829      3.6701      3.6543      3.6394      3.6301      3.6310      3.6456      3.8321      3.9481    
  4.0631      4.1747      4.2854      4.3843      4.4538      4.4789      4.4538      4.3843      4.2854      4.1747    
  4.0631      3.9481      3.8321      3.7240      3.6310      3.5575      3.5044      3.4696      3.4493      3.4391    
  3.4347      3.4336      3.4347      3.4391      3.4493      3.4696      3.5044      3.5575      3.6310      3.7240    
  4.1405      4.3480      4.5984      4.8788      5.1518      5.3699      5.4911      5.4911      5.3699      5.1518    
  4.8788      4.5984      4.3480      4.1405      3.9567      3.7832      3.6301      3.5044      3.4084      3.3407    
  3.2967      3.2712      3.2598      3.2598      3.2712      3.2967      3.3407      3.4085      3.5044      3.6301    
  3.7832      3.9567      4.7515      5.2555      5.8413      6.4360      6.9499      7.2985      7.4219      7.2985    
  6.9499      6.4360      5.8413      5.2555      4.7515      4.3651      4.0826      3.8469      3.6394      3.4696    
  3.3407      3.2502      3.1925      3.1612      3.1513      3.1612      3.1925      3.2502      3.3407      3.4696    
  3.6394      3.8469      4.0826      4.3651      6.1797      7.2181      8.3063      9.3018      10.062      10.474    
  10.474      10.062      9.3018      8.3063      7.2181      6.1797      5.3045      4.6518      4.2126      3.9083    
  3.6543      3.4493      3.2967      3.1925      3.1294      3.1001      3.1001      3.1294      3.1925      3.2967    
  3.4493      3.6543      3.9083      4.2126      4.6518      5.3044      8.9546      10.709      12.389      13.782    
  14.704      15.026      14.704      13.783      12.389      10.709      8.9546      7.3271      5.9801      4.9928    
  4.3534      3.9616      3.6701      3.4391      3.2712      3.1612      3.1001      3.0807      3.1001      3.1612    
  3.2712      3.4391      3.6701      3.9616      4.3534      4.9928      5.9801      7.3271      13.476      16.034    
  18.293      19.980      20.882      20.882      19.980      18.293      16.034      13.476      10.908      8.5881    
  6.7053      5.3484      4.4923      4.0045      3.6829      3.4347      3.2598      3.1513      3.1001      3.1001    
  3.1513      3.2598      3.4347      3.6829      4.0045      4.4923      5.3484      6.7053      8.5881      10.908    
  19.944      23.284      26.001      27.778      28.396      27.778      26.001      23.284      19.944      16.353    
  12.873      9.8115      7.3799      5.6620      4.6055      4.0336      3.6900      3.4336      3.2598      3.1612    
  3.1294      3.1612      3.2598      3.4336      3.6900      4.0336      4.6055      5.6620      7.3799      9.8115    
  12.873      16.353      28.337      32.324      35.276      36.847      36.847      35.276      32.324      28.337    
  23.753      19.038      14.618      10.835      7.9008      5.8776      4.6693      4.0441      3.6900      3.4347    
  3.2712      3.1925      3.1925      3.2712      3.4347      3.6900      4.0441      4.6693      5.8776      7.9008    
  10.835      14.618      19.038      23.753      38.407      42.800      45.664      46.659      45.664      42.800    
  38.407      32.976      27.066      21.226      15.926      11.514      8.1845      5.9543      4.6693      4.0336    
  3.6829      3.4391      3.2967      3.2502      3.2967      3.4391      3.6829      4.0336      4.6693      5.9543    
  8.1845      11.514      15.926      21.226      27.066      32.976      49.685      54.137      56.508      56.508    
  54.137      49.685      43.665      36.720      29.516      22.657      16.626      11.752      8.1845      5.8776    
  4.6055      4.0045      3.6701      3.4493      3.3407      3.3407      3.4493      3.6701      4.0045      4.6055    
  5.8776      8.1845      11.752      16.626      22.657      29.516      36.720      43.665      61.475      65.546    
  66.962      65.546      61.475      55.241      47.543      39.156      30.819      23.154      16.626      11.514    
  7.9008      5.6620      4.4923      3.9616      3.6543      3.4696      3.4085      3.4696      3.6543      3.9616    
  4.4923      5.6620      7.9008      11.514      16.626      23.154      30.819      39.156      47.543      55.241    
  72.869      76.052      76.052      72.869      66.903      58.861      49.604      40.002      30.819      22.657    
  15.926      10.835      7.3799      5.3484      4.3534      3.9083      3.6394      3.5044      3.5044      3.6394    
  3.9083      4.3534      5.3484      7.3799      10.835      15.926      22.657      30.819      40.002      49.604    
  58.860      66.903      82.802      84.596      82.802      77.655      69.794      60.118      49.604      39.156    
  29.516      21.226      14.618      9.8115      6.7053      4.9928      4.2126      3.8469      3.6301      3.5575    
  3.6301      3.8469      4.2126      4.9928      6.7053      9.8115      14.618      21.226      29.516      39.156    
  49.604      60.118      69.794      77.655      90.194      90.194      86.407      79.321      69.794      58.860    
  47.543      36.720      27.066      19.038      12.873      8.5881      5.9801      4.6518      4.0826      3.7832    
  3.6310      3.6310      3.7832      4.0826      4.6518      5.9801      8.5881      12.873      19.038      27.066    
  36.720      47.543      58.860      69.794      79.321      86.407      94.147      92.145      86.407      77.655    
  66.903      55.241      43.665      32.976      23.753      16.353      10.908      7.3271      5.3044      4.3651    
  3.9567      3.7240      3.6456      3.7240      3.9567      4.3651      5.3044      7.3271      10.908      16.353    
  23.753      32.976      43.665      55.241      66.903      77.655      86.407      92.145      88.284      82.802    
  74.436      64.144      52.967      41.859      31.599      22.751      15.666      10.475      7.0839      5.1865    
  4.3127      3.9222      3.6955      3.6194      3.6955      3.9222      4.3127      5.1865      7.0839      10.475    
  15.666      22.751      31.599      41.859      52.967      64.144      74.436      82.802      88.284      90.194    
  82.802      76.052      66.962      56.508      45.664      35.276      26.001      18.293      12.389      8.3063    
  5.8413      4.5984      4.0631      3.7703      3.6218      3.6218      3.7703      4.0631      4.5984      5.8413    
  8.3063      12.389      18.293      26.001      35.276      45.664      56.508      66.962      76.052      82.802    
  86.407      86.407      74.436      66.962      57.740      47.690      37.676      28.417      20.446      14.101    
  9.5007      6.5475      4.9349      4.2042      3.8491      3.6369      3.5660      3.6369      3.8491      4.2042    
  4.9349      6.5475      9.5007      14.101      20.446      28.417      37.676      47.690      57.740      66.962    
  74.436      79.321      81.021      79.321      64.144      56.508      47.690      38.511      29.705      21.861    
  15.390      10.506      7.2081      5.2853      4.3516      3.9248      3.6607      3.5286      3.5286      3.6607    
  3.9248      4.3516      5.2853      7.2081      10.506      15.390      21.861      29.705      38.511      47.690    
  56.508      64.144      69.794      72.803      72.803      69.794      52.967      45.664      37.676      29.705    
  22.353      16.082      11.176      7.7204      5.5948      4.4942      3.9907      3.6884      3.5074      3.4476    
  3.5074      3.6884      3.9907      4.4942      5.5948      7.7204      11.176      16.082      22.353      29.705    
  37.676      45.664      52.967      58.861      62.699      64.033      62.699      58.860      41.859      35.276    
  28.417      21.861      16.082      11.411      8.0002      5.8079      4.6094      4.0422      3.7145      3.4982    
  3.3920      3.3920      3.4982      3.7145      4.0422      4.6094      5.8079      8.0002      11.411      16.082    
  21.861      28.417      35.276      41.859      47.543      51.733      53.959      53.959      51.733      47.543    
  31.599      26.001      20.446      15.390      11.176      8.0002      5.8838      4.6741      4.0764      3.7346    
  3.4961      3.3573      3.3121      3.3573      3.4961      3.7346      4.0764      4.6741      5.8839      8.0002    
  11.176      15.390      20.446      26.001      31.599      36.720      40.846      43.528      44.459      43.528    
  40.846      36.720      22.751      18.293      14.101      10.506      7.7204      5.8079      4.6741      4.0884    
  3.7454      3.4968      3.3381      3.2619      3.2619      3.3381      3.4968      3.7454      4.0884      4.6741    
  5.8079      7.7204      10.506      14.101      18.293      22.751      27.066      30.804      33.561      35.025    
  35.025      33.561      30.804      27.066      15.666      12.389      9.5007      7.2081      5.5948      4.6094    
  4.0764      3.7454      3.4974      3.3299      3.2351      3.2046      3.2351      3.3299      3.4974      3.7454    
  4.0764      4.6094      5.5948      7.2081      9.5007      12.389      15.666      19.038      22.160      24.691    
  26.341      26.915      26.341      24.691      22.160      19.038      10.475      8.3063      6.5475      5.2853    
  4.4942      4.0422      3.7346      3.4968      3.3299      3.2267      3.1782      3.1782      3.2267      3.3299    
  3.4968      3.7346      4.0422      4.4942      5.2853      6.5475      8.3063      10.475      12.873      15.254    
  17.350      18.911      19.744      19.744      18.911      17.350      15.254      12.873      7.0839      5.8413    
  4.9349      4.3516      3.9907      3.7145      3.4961      3.3381      3.2351      3.1782      3.1601      3.1782    
  3.2351      3.3381      3.4961      3.7145      3.9907      4.3516      4.9349      5.8413      7.0839      8.5881    
  10.208      11.757      13.039      13.885      14.180      13.885      13.039      11.757      10.208      8.5881    
  5.1865      4.5984      4.2042      3.9248      3.6884      3.4982      3.3573      3.2619      3.2046      3.1782    
  3.1782      3.2046      3.2619      3.3573      3.4982      3.6884      3.9248      4.2042      4.5984      5.1865    
  5.9801      6.9250      7.9161      8.8225      9.5142      9.8884      9.8884      9.5142      8.8224      7.9161    
  6.9250      5.9801      4.3127      4.0631      3.8491      3.6607      3.5074      3.3920      3.3121      3.2619    
  3.2351      3.2267      3.2351      3.2619      3.3121      3.3920      3.5074      3.6607      3.8491      4.0631    