    1    1  100    2
  0.1016239E+02  0.2431291E-09  0.2431291E-09  0.2431291E-09  0.5000000E-15
  1.000000000000000E-004
  CAR 
 Co-fcc                                  
      9     60     12
 
  0.6250000E-01  0.6250000E-01  0.6250000E-01  0.3906250E-02
      1          2.072121        2.095442   1.000000   1.000000
      2          8.446625        9.976975   1.000000   1.000000
      3          8.536914       10.084105   1.000000   1.000000
      4          8.536914       10.084105   1.000000   1.000000
      5          9.687431       11.550900   1.000000   0.000000
      6          9.687431       11.550900   1.000000   0.000000
      7         34.610619       34.397452   0.000000   0.000000
      8         37.943328       38.054709   0.000000   0.000000
      9         39.523073       39.701048   0.000000   0.000000
     10         39.523073       39.701048   0.000000   0.000000
     11         43.672603       43.947233   0.000000   0.000000
     12         43.672801       43.947786   0.000000   0.000000
 
  0.1875000E+00  0.6250000E-01  0.6250000E-01  0.1171875E-01
      1          2.911436        2.942650   1.000000   1.000000
      2          8.208452        9.676249   1.000000   1.000000
      3          8.712427       10.277117   1.000000   1.000000
      4          8.717049       10.285419   1.000000   1.000000
      5          9.513022       11.342585   1.000000   0.027082
      6          9.784864       11.636539   1.000000   0.000000
      7         32.010711       32.210244   0.000000   0.000000
      8         34.687043       34.758865   0.000000   0.000000
      9         38.302499       38.385097   0.000000   0.000000
     10         40.575813       40.757006   0.000000   0.000000
     11         42.351203       42.367818   0.000000   0.000000
     12         43.764932       44.012863   0.000000   0.000000
 
  0.3125000E+00  0.6250000E-01  0.6250000E-01  0.1171875E-01
      1          4.649379        4.787294   1.000000   1.000000
      2          8.084312        9.334844   1.000000   1.000000
      3          8.653435       10.254948   1.000000   1.000000
      4          8.736518       10.366880   1.000000   1.000000
      5          9.742780       11.518423   1.000000   0.000000
      6         10.224593       12.027087   1.000000   0.000000
      7         25.838255       26.302763   0.000000   0.000000
      8         33.533171       33.584821   0.000000   0.000000
      9         37.252908       37.367086   0.000000   0.000000
     10         40.285698       40.600545   0.000000   0.000000
     11         41.455187       41.734732   0.000000   0.000000
     12         42.352210       42.433646   0.000000   0.000000
 
  0.4375000E+00  0.6250000E-01  0.6250000E-01  0.1171875E-01
      1          5.767323        6.449014   1.000000   1.000000
      2          8.398997        9.842610   1.000000   1.000000
      3          8.509792       10.045641   1.000000   1.000000
      4          9.230751       10.140215   1.000000   1.000000
      5         10.356378       12.166336   1.000000   0.000000
      6         11.065251       12.688317   1.000000   0.000000
      7         20.358352       21.101233   0.000000   0.000000
      8         32.922104       32.856545   0.000000   0.000000
      9         36.059902       36.257011   0.000000   0.000000
     10         38.100862       38.430687   0.000000   0.000000
     11         40.563908       40.858056   0.000000   0.000000
     12         42.147942       42.365638   0.000000   0.000000
 
 -0.4375000E+00  0.6250000E-01  0.6250000E-01  0.1171875E-01
      1          5.879928        6.772605   1.000000   1.000000
      2          8.292966        9.858508   1.000000   1.000000
      3          8.451025       10.073457   1.000000   1.000000
      4          9.860868       10.585266   1.000000   1.000000
      5         10.670501       12.517802   1.000000   0.000000
      6         11.828949       12.979390   0.000000   0.000000
      7         18.175464       19.148023   0.000000   0.000000
      8         32.929047       32.763641   0.000000   0.000000
      9         36.151532       36.474674   0.000000   0.000000
     10         36.317860       36.606798   0.000000   0.000000
     11         41.413874       41.654618   0.000000   0.000000
     12         41.422302       41.699183   0.000000   0.000000
 
 -0.3125000E+00  0.6250000E-01  0.6250000E-01  0.1171875E-01
      1          5.562742        6.037572   1.000000   1.000000
      2          8.439057        9.509384   1.000000   1.000000
      3          8.608090       10.076027   1.000000   1.000000
      4          8.668474       10.233752   1.000000   1.000000
      5         10.442250       12.164418   1.000000   0.000000
      6         10.493305       12.280640   1.000000   0.000000
      7         22.015589       22.649224   0.000000   0.000000
      8         33.672897       33.508593   0.000000   0.000000
      9         35.596935       35.946727   0.000000   0.000000
     10         38.153167       38.497327   0.000000   0.000000
     11         41.185471       41.393344   0.000000   0.000000
     12         43.160440       43.378495   0.000000   0.000000
 
 -0.1875000E+00  0.6250000E-01  0.6250000E-01  0.1171875E-01
      1          4.030783        4.104080   1.000000   1.000000
      2          8.031479        9.388341   1.000000   1.000000
      3          8.723833       10.331982   1.000000   1.000000
      4          8.788471       10.391204   1.000000   1.000000
      5          9.665339       11.426243   1.000000   0.000009
      6          9.957310       11.796327   1.000000   0.000000
      7         27.891495       28.280556   0.000000   0.000000
      8         34.831001       34.710598   0.000000   0.000000
      9         36.150834       36.500248   0.000000   0.000000
     10         40.698278       40.795859   0.000000   0.000000
     11         41.052910       41.350508   0.000000   0.000000
     12         45.385402       45.498377   0.000000   0.000000
 
 -0.6250000E-01  0.6250000E-01  0.6250000E-01  0.1171875E-01
      1          2.499351        2.525426   1.000000   1.000000
      2          8.286719        9.786773   1.000000   1.000000
      3          8.658068       10.213569   1.000000   1.000000
      4          8.662894       10.219314   1.000000   1.000000
      5          9.535667       11.370739   1.000000   0.003246
      6          9.760965       11.629979   1.000000   0.000000
      7         33.719103       33.716957   0.000000   0.000000
      8         36.262635       36.290900   0.000000   0.000000
      9         37.536269       37.823704   0.000000   0.000000
     10         39.300648       39.397597   0.000000   0.000000
     11         43.579794       43.784608   0.000000   0.000000
     12         45.342715       45.463940   0.000000   0.000000
 
  0.1875000E+00  0.1875000E+00  0.6250000E-01  0.1171875E-01
      1          3.310542        3.349205   1.000000   1.000000
      2          7.978728        9.427213   1.000000   1.000000
      3          8.875207       10.459164   1.000000   1.000000
      4          8.908366       10.484851   1.000000   1.000000
      5          9.327959       11.087973   1.000000   1.000000
      6          9.898100       11.776956   1.000000   0.000000
      7         32.335024       32.541724   0.000000   0.000000
      8         34.755359       34.756025   0.000000   0.000000
      9         35.196975       35.530973   0.000000   0.000000
     10         37.292761       37.387242   0.000000   0.000000
     11         43.649825       44.336213   0.000000   0.000000
     12         45.899824       46.059667   0.000000   0.000000
 
  0.3125000E+00  0.1875000E+00  0.6250000E-01  0.2343750E-01
      1          4.714973        4.826806   1.000000   1.000000
      2          7.644298        9.008326   1.000000   1.000000
      3          8.638180       10.243581   1.000000   1.000000
      4          9.196236       10.824185   1.000000   1.000000
      5          9.621137       11.294308   1.000000   0.287722
      6         10.313312       12.134480   1.000000   0.000000
      7         28.454447       28.827590   0.000000   0.000000
      8         31.105688       31.365997   0.000000   0.000000
      9         34.943302       35.103048   0.000000   0.000000
     10         37.039474       37.201283   0.000000   0.000000
     11         42.412247       42.986080   0.000000   0.000000
     12         45.603613       45.690079   0.000000   0.000000
 
  0.4375000E+00  0.1875000E+00  0.6250000E-01  0.2343750E-01
      1          6.097574        6.634637   1.000000   1.000000
      2          7.778913        8.924570   1.000000   1.000000
      3          8.298644        9.779438   1.000000   1.000000
      4          9.024492       10.681141   1.000000   1.000000
      5         10.403241       12.174179   1.000000   0.000000
      6         11.593604       13.077723   0.000000   0.000000
      7         22.523033       23.099266   0.000000   0.000000
      8         30.432427       30.663787   0.000000   0.000000
      9         32.595170       32.883084   0.000000   0.000000
     10         36.745235       36.964114   0.000000   0.000000
     11         43.616150       43.764650   0.000000   0.000000
     12         46.221577       46.555553   0.000000   0.000000
 
 -0.4375000E+00  0.1875000E+00  0.6250000E-01  0.2343750E-01
      1          6.388472        7.348857   1.000000   1.000000
      2          7.816646        9.119954   1.000000   1.000000
      3          8.773100        9.920273   1.000000   1.000000
      4          8.854820       10.503143   1.000000   1.000000
      5         10.628218       12.457546   1.000000   0.000000
      6         13.807532       14.722287   0.000000   0.000000
      7         18.349031       19.237502   0.000000   0.000000
      8         29.795908       30.018104   0.000000   0.000000
      9         31.920686       32.267844   0.000000   0.000000
     10         36.464575       36.597067   0.000000   0.000000
     11         42.763201       42.997380   0.000000   0.000000
     12         46.466030       46.599118   0.000000   0.000000
 
 -0.3125000E+00  0.1875000E+00  0.6250000E-01  0.2343750E-01
      1          6.333350        7.063371   1.000000   1.000000
      2          7.980485        9.188502   1.000000   1.000000
      3          8.369016        9.661147   1.000000   1.000000
      4          8.900948       10.560646   1.000000   1.000000
      5         10.270690       12.040233   1.000000   0.000000
      6         12.490204       13.825534   0.000000   0.000000
      7         20.821655       21.498557   0.000000   0.000000
      8         29.025518       29.321232   0.000000   0.000000
      9         33.450545       33.692833   0.000000   0.000000
     10         37.615276       37.761603   0.000000   0.000000
     11         42.098917       42.317021   0.000000   0.000000
     12         45.844929       45.990002   0.000000   0.000000
 
 -0.1875000E+00  0.1875000E+00  0.6250000E-01  0.2343750E-01
      1          5.316449        5.484928   1.000000   1.000000
      2          7.727690        9.045592   1.000000   1.000000
      3          8.442551       10.013225   1.000000   1.000000
      4          9.125063       10.797932   1.000000   1.000000
      5          9.544013       11.244374   1.000000   0.802974
      6         10.859418       12.592389   1.000000   0.000000
      7         26.413089       26.857985   0.000000   0.000000
      8         29.201056       29.515381   0.000000   0.000000
      9         35.991273       36.135549   0.000000   0.000000
     10         39.591981       39.700994   0.000000   0.000000
     11         41.522159       41.667249   0.000000   0.000000
     12         44.796191       45.124646   0.000000   0.000000
 
 -0.6250000E-01  0.1875000E+00  0.6250000E-01  0.2343750E-01
      1          3.691139        3.740575   1.000000   1.000000
      2          7.976225        9.395762   1.000000   1.000000
      3          8.762521       10.352320   1.000000   1.000000
      4          8.911742       10.502804   1.000000   1.000000
      5          9.413932       11.183560   1.000000   0.994950
      6          9.993013       11.836308   1.000000   0.000000
      7         30.178041       30.487503   0.000000   0.000000
      8         32.855219       33.031101   0.000000   0.000000
      9         37.363045       37.457654   0.000000   0.000000
     10         39.205970       39.269576   0.000000   0.000000
     11         43.069154       43.300042   0.000000   0.000000
     12         44.530908       44.791931   0.000000   0.000000
 
  0.3125000E+00  0.3125000E+00  0.6250000E-01  0.1171875E-01
      1          5.382296        5.676362   1.000000   1.000000
      2          7.181833        8.509701   1.000000   1.000000
      3          8.998480       10.409168   1.000000   1.000000
      4          9.668065       11.330351   1.000000   0.057113
      5         10.035258       11.611617   1.000000   0.000000
      6         10.287019       12.183904   1.000000   0.000000
      7         29.039668       29.362991   0.000000   0.000000
      8         30.784272       31.042243   0.000000   0.000000
      9         30.828754       31.140687   0.000000   0.000000
     10         33.728017       33.983860   0.000000   0.000000
     11         38.906963       39.456776   0.000000   0.000000
     12         48.246533       51.104823   0.000000   0.000000
 
  0.4375000E+00  0.3125000E+00  0.6250000E-01  0.2343750E-01
      1          6.104422        6.829660   1.000000   1.000000
      2          6.955760        8.222889   1.000000   1.000000
      3          8.928697       10.188921   1.000000   1.000000
      4          9.941992       11.671138   1.000000   0.000000
      5         10.456806       12.239216   1.000000   0.000000
      6         11.862416       13.195874   0.000000   0.000000
      7         25.529010       25.930365   0.000000   0.000000
      8         27.511800       27.893283   0.000000   0.000000
      9         28.641690       28.996832   0.000000   0.000000
     10         35.033367       35.283760   0.000000   0.000000
     11         39.959508       40.391775   0.000000   0.000000
     12         48.080326       49.719498   0.000000   0.000000
 
 -0.4375000E+00  0.3125000E+00  0.6250000E-01  0.2343750E-01
      1          6.604616        7.717065   1.000000   1.000000
      2          7.106558        8.269279   1.000000   1.000000
      3          8.591354        9.818241   1.000000   1.000000
      4          9.631922       11.386615   1.000000   0.000760
      5         10.697888       12.511686   1.000000   0.000000
      6         15.171547       16.034112   0.000000   0.000000
      7         20.292128       20.876004   0.000000   0.000000
      8         25.330907       25.827321   0.000000   0.000000
      9         28.794377       29.124747   0.000000   0.000000
     10         35.509464       35.731488   0.000000   0.000000
     11         44.841060       45.180694   0.000000   0.000000
     12         47.279172       47.969595   0.000000   0.000000
 
 -0.3125000E+00  0.3125000E+00  0.6250000E-01  0.2343750E-01
      1          7.136519        8.144893   1.000000   1.000000
      2          7.293450        8.537099   1.000000   1.000000
      3          8.088911        9.313454   1.000000   1.000000
      4          9.412870       11.175664   1.000000   0.997411
      5         10.344629       12.086838   1.000000   0.000000
      6         15.513769       16.416719   0.000000   0.000000
      7         20.129374       20.760381   0.000000   0.000000
      8         23.992581       24.513508   0.000000   0.000000
      9         30.581234       30.916513   0.000000   0.000000
     10         36.385719       36.552982   0.000000   0.000000
     11         45.323419       45.412003   0.000000   0.000000
     12         47.800529       50.338665   0.000000   0.000000
 
 -0.1875000E+00  0.3125000E+00  0.6250000E-01  0.2343750E-01
      1          6.662771        7.200110   1.000000   1.000000
      2          7.745913        8.956181   1.000000   1.000000
      3          7.917551        9.388479   1.000000   1.000000
      4          9.216033       10.936328   1.000000   1.000000
      5          9.928899       11.632429   1.000000   0.000000
      6         12.611353       14.009446   0.000000   0.000000
      7         23.061168       23.617764   0.000000   0.000000
      8         26.146098       26.555515   0.000000   0.000000
      9         33.208409       33.468903   0.000000   0.000000
     10         38.200799       38.358697   0.000000   0.000000
     11         42.484132       42.565041   0.000000   0.000000
     12         47.304311       47.510898   0.000000   0.000000
 
 -0.6250000E-01  0.3125000E+00  0.6250000E-01  0.2343750E-01
      1          5.409279        5.689824   1.000000   1.000000
      2          8.036611        9.188952   1.000000   1.000000
      3          8.461654       10.056715   1.000000   1.000000
      4          8.809753       10.449685   1.000000   1.000000
      5          9.996781       11.731189   1.000000   0.000000
      6         10.712664       12.450668   1.000000   0.000000
      7         24.051048       24.581568   0.000000   0.000000
      8         31.957018       32.121021   0.000000   0.000000
      9         35.610243       35.741536   0.000000   0.000000
     10         38.512086       38.798104   0.000000   0.000000
     11         42.168808       42.356764   0.000000   0.000000
     12         43.789352       43.962601   0.000000   0.000000
 
  0.4375000E+00  0.4375000E+00  0.6250000E-01  0.1171875E-01
      1          5.837703        6.827443   1.000000   1.000000
      2          6.551411        7.795022   1.000000   1.000000
      3         10.306623       11.642850   1.000000   0.000000
      4         10.374751       12.227797   1.000000   0.000000
      5         10.723950       12.562810   1.000000   0.000000
      6         12.498165       13.285631   0.000000   0.000000
      7         24.219967       24.833577   0.000000   0.000000
      8         26.638178       26.915149   0.000000   0.000000
      9         27.828860       28.047116   0.000000   0.000000
     10         32.882590       33.257762   0.000000   0.000000
     11         37.356458       37.813107   0.000000   0.000000
     12         48.281122       51.805414   0.000000   0.000000
 
 -0.4375000E+00  0.4375000E+00  0.6250000E-01  0.2343750E-01
      1          5.986769        7.103785   1.000000   1.000000
      2          6.580400        7.800522   1.000000   1.000000
      3          9.842838       11.169150   1.000000   0.998559
      4         10.317979       12.210077   1.000000   0.000000
      5         10.876222       12.670060   1.000000   0.000000
      6         15.145804       15.690828   0.000000   0.000000
      7         22.034824       22.808758   0.000000   0.000000
      8         24.153471       24.504011   0.000000   0.000000
      9         26.670811       26.931677   0.000000   0.000000
     10         34.396066       34.703147   0.000000   0.000000
     11         39.264823       39.687177   0.000000   0.000000
     12         48.302626       51.781337   0.000000   0.000000
 
 -0.3125000E+00  0.4375000E+00  0.6250000E-01  0.2343750E-01
      1          6.541981        7.743781   1.000000   1.000000
      2          7.005255        8.158355   1.000000   1.000000
      3          8.779103       10.007686   1.000000   1.000000
      4          9.832135       11.650574   1.000000   0.000000
      5         10.682787       12.459520   1.000000   0.000000
      6         17.275435       17.915376   0.000000   0.000000
      7         19.576999       20.152655   0.000000   0.000000
      8         22.833758       23.479360   0.000000   0.000000
      9         28.290525       28.613151   0.000000   0.000000
     10         35.347676       35.586373   0.000000   0.000000
     11         44.829283       45.274086   0.000000   0.000000
     12         48.179342       48.882502   0.000000   0.000000
 
 -0.1875000E+00  0.4375000E+00  0.6250000E-01  0.2343750E-01
      1          6.788574        7.814588   1.000000   1.000000
      2          7.481983        8.707163   1.000000   1.000000
      3          8.417954        9.624970   1.000000   1.000000
      4          9.143431       10.850285   1.000000   1.000000
      5         10.516635       12.313000   1.000000   0.000000
      6         15.123095       15.966648   0.000000   0.000000
      7         18.583489       19.395283   0.000000   0.000000
      8         26.784075       27.180124   0.000000   0.000000
      9         30.967160       31.295187   0.000000   0.000000
     10         36.384182       36.528899   0.000000   0.000000
     11         44.092293       44.267625   0.000000   0.000000
     12         47.839216       48.776921   0.000000   0.000000
 
 -0.6250000E-01  0.4375000E+00  0.6250000E-01  0.2343750E-01
      1          6.039982        6.886584   1.000000   1.000000
      2          8.165260        9.593806   1.000000   1.000000
      3          8.605507       10.077439   1.000000   1.000000
      4          9.138290       10.250347   1.000000   1.000000
      5         10.565596       12.386731   1.000000   0.000000
      6         12.206177       13.424375   0.000000   0.000000
      7         19.100915       19.939410   0.000000   0.000000
      8         31.737551       31.793151   0.000000   0.000000
      9         34.211021       34.504184   0.000000   0.000000
     10         36.824205       37.027723   0.000000   0.000000
     11         41.682324       41.951030   0.000000   0.000000
     12         43.854940       44.036446   0.000000   0.000000
 
 -0.4375000E+00 -0.4375000E+00  0.6250000E-01  0.1171875E-01
      1          5.757814        6.849971   1.000000   1.000000
      2          6.409011        7.634737   1.000000   1.000000
      3         10.508680       12.158583   1.000000   0.000000
      4         10.627277       12.442994   1.000000   0.000000
      5         10.890159       12.689590   1.000000   0.000000
      6         14.056348       14.393879   0.000000   0.000000
      7         21.976059       22.794614   0.000000   0.000000
      8         26.003283       26.241307   0.000000   0.000000
      9         27.155625       27.339988   0.000000   0.000000
     10         32.752045       33.154013   0.000000   0.000000
     11         37.168983       37.622165   0.000000   0.000000
     12         48.313089       51.849578   0.000000   0.000000
 
 -0.3125000E+00 -0.4375000E+00  0.6250000E-01  0.2343750E-01
      1          6.080462        7.098789   1.000000   1.000000
      2          6.710187        7.946397   1.000000   1.000000
      3          9.473669       10.727580   1.000000   1.000000
      4         10.229322       12.046257   1.000000   0.000000
      5         10.711312       12.514977   1.000000   0.000000
      6         13.507623       14.404325   0.000000   0.000000
      7         24.136389       24.635441   0.000000   0.000000
      8         24.959070       25.415875   0.000000   0.000000
      9         27.277519       27.565805   0.000000   0.000000
     10         34.596837       34.883362   0.000000   0.000000
     11         39.465489       39.886249   0.000000   0.000000
     12         48.250243       51.237618   0.000000   0.000000
 
 -0.1875000E+00 -0.4375000E+00  0.6250000E-01  0.2343750E-01
      1          6.511725        7.374946   1.000000   1.000000
      2          7.388528        8.568021   1.000000   1.000000
      3          8.370171        9.674804   1.000000   1.000000
      4          9.326440       11.020852   1.000000   1.000000
      5         10.633104       12.457037   1.000000   0.000000
      6         13.132250       14.275502   0.000000   0.000000
      7         21.260290       21.853467   0.000000   0.000000
      8         28.379953       28.709765   0.000000   0.000000
      9         29.935806       30.295023   0.000000   0.000000
     10         35.910749       36.114406   0.000000   0.000000
     11         44.567750       44.742458   0.000000   0.000000
     12         46.528764       47.281016   0.000000   0.000000
 
 -0.3125000E+00 -0.3125000E+00  0.6250000E-01  0.1171875E-01
      1          5.837405        6.536807   1.000000   1.000000
      2          6.820013        8.098467   1.000000   1.000000
      3          9.658041       10.811046   1.000000   1.000000
      4         10.076759       11.817824   1.000000   0.000000
      5         10.502128       12.305855   1.000000   0.000000
      6         10.943796       12.388067   1.000000   0.000000
      7         27.127082       27.513340   0.000000   0.000000
      8         27.977285       28.338619   0.000000   0.000000
      9         29.093974       29.361560   0.000000   0.000000
     10         33.173265       33.496630   0.000000   0.000000
     11         37.855211       38.335164   0.000000   0.000000
     12         48.288732       51.780430   0.000000   0.000000
 
 -0.1875000E+00 -0.3125000E+00  0.6250000E-01  0.2343750E-01
      1          5.674280        5.991427   1.000000   1.000000
      2          7.284348        8.594901   1.000000   1.000000
      3          8.570513       10.044925   1.000000   1.000000
      4          9.554912       11.224693   1.000000   0.920579
      5         10.076824       11.758375   1.000000   0.000000
      6         10.823502       12.518215   1.000000   0.000000
      7         26.891011       27.293039   0.000000   0.000000
      8         29.431816       29.734621   0.000000   0.000000
      9         31.616853       31.913549   0.000000   0.000000
     10         35.788871       35.997279   0.000000   0.000000
     11         40.896747       41.375600   0.000000   0.000000
     12         47.446668       47.822352   0.000000   0.000000
 
 -0.1875000E+00 -0.1875000E+00  0.6250000E-01  0.1171875E-01
      1          4.380738        4.473025   1.000000   1.000000
      2          7.588378        8.975644   1.000000   1.000000
      3          8.886431       10.510773   1.000000   1.000000
      4          9.255406       10.865615   1.000000   1.000000
      5          9.489309       11.108747   1.000000   0.999999
      6         10.080648       11.970718   1.000000   0.000000
      7         30.711582       31.015248   0.000000   0.000000
      8         32.906004       33.243494   0.000000   0.000000
      9         33.302583       33.372874   0.000000   0.000000
     10         35.026897       35.208240   0.000000   0.000000
     11         40.835072       41.494428   0.000000   0.000000
     12         48.190273       48.386980   0.000000   0.000000
 
  0.1875000E+00  0.1875000E+00  0.1875000E+00  0.3906250E-02
      1          3.300766        3.342457   1.000000   1.000000
      2          8.177357        9.597651   1.000000   1.000000
      3          8.721615       10.304388   1.000000   1.000000
      4          8.721615       10.304388   1.000000   1.000000
      5          9.686960       11.517081   1.000000   0.000000
      6          9.686960       11.517081   1.000000   0.000000
      7         29.884927       30.195292   0.000000   0.000000
      8         35.779260       35.577314   0.000000   0.000000
      9         38.537720       38.846010   0.000000   0.000000
     10         38.537720       38.846010   0.000000   0.000000
     11         43.952878       43.894318   0.000000   0.000000
     12         44.460648       44.596420   0.000000   0.000000
 
  0.3125000E+00  0.1875000E+00  0.1875000E+00  0.1171875E-01
      1          4.402220        4.484046   1.000000   1.000000
      2          7.904284        9.274962   1.000000   1.000000
      3          8.661741       10.239910   1.000000   1.000000
      4          8.980392       10.608731   1.000000   1.000000
      5          9.364400       11.128013   1.000000   0.999983
      6         10.339359       12.135840   1.000000   0.000000
      7         28.185133       28.570148   0.000000   0.000000
      8         30.920681       31.173180   0.000000   0.000000
      9         38.636508       38.631122   0.000000   0.000000
     10         40.639576       40.623487   0.000000   0.000000
     11         40.924191       41.115526   0.000000   0.000000
     12         43.199502       43.570578   0.000000   0.000000
 
  0.4375000E+00  0.1875000E+00  0.1875000E+00  0.1171875E-01
      1          6.034231        6.335881   1.000000   1.000000
      2          7.783236        9.041486   1.000000   1.000000
      3          8.248353        9.764360   1.000000   1.000000
      4          9.049847       10.771414   1.000000   1.000000
      5          9.632337       11.322671   1.000000   0.086557
      6         11.587534       13.205977   0.000000   0.000000
      7         24.616589       25.126836   0.000000   0.000000
      8         27.529265       27.895304   0.000000   0.000000
      9         36.650905       36.672300   0.000000   0.000000
     10         37.482464       37.827540   0.000000   0.000000
     11         42.632197       42.597632   0.000000   0.000000
     12         44.709342       44.960426   0.000000   0.000000
 
 -0.4375000E+00  0.1875000E+00  0.1875000E+00  0.1171875E-01
      1          6.552611        7.451014   1.000000   1.000000
      2          7.808084        9.098838   1.000000   1.000000
      3          8.521861        9.672880   1.000000   1.000000
      4          8.920168       10.606322   1.000000   1.000000
      5         10.340059       12.123459   1.000000   0.000000
      6         13.668489       14.753779   0.000000   0.000000
      7         19.469078       20.234248   0.000000   0.000000
      8         27.762788       28.111920   0.000000   0.000000
      9         34.279049       34.627050   0.000000   0.000000
     10         35.000261       35.075983   0.000000   0.000000