       N       E                     dE             d eps       ncg     rms          rms(c)
DAV:   1     0.223118341042E+02    0.22312E+02   -0.35266E+03  3008   0.804E+02
DAV:   2    -0.694340398576E+01   -0.29255E+02   -0.27061E+02  3152   0.137E+02
DAV:   3    -0.770053653319E+01   -0.75713E+00   -0.74459E+00  3308   0.250E+01
DAV:   4    -0.770925610882E+01   -0.87196E-02   -0.87173E-02  3592   0.234E+00
DAV:   5    -0.770946099487E+01   -0.20489E-03   -0.20488E-03  3740   0.328E-01    0.122E+01
DAV:   6    -0.712523626080E+01    0.58422E+00   -0.10234E+01  3752   0.427E+01    0.388E+00
DAV:   7    -0.700704244580E+01    0.11819E+00   -0.97920E-01  3564   0.121E+01    0.247E+00
DAV:   8    -0.699391667426E+01    0.13126E-01   -0.13193E-02  3924   0.982E-01    0.124E+00
DAV:   9    -0.698842091229E+01    0.54958E-02   -0.42263E-03  4644   0.494E-01    0.265E-01
DAV:  10    -0.698790739634E+01    0.51352E-03   -0.29103E-04  4036   0.124E-01    0.385E-02
DAV:  11    -0.698791258332E+01   -0.51870E-05   -0.89857E-06  3500   0.369E-02    0.224E-02
DAV:  12    -0.698791298063E+01   -0.39731E-06   -0.28993E-06  3480   0.135E-02
   1 F= -.69879130E+01 E0= -.69873636E+01  d E =-.698791E+01  mag=     1.5703
