 vasp.6.3.2 27Jun22 (build Aug 12 2022 00:53:59) complex                        
  
 executed on               tv2STD date 2024.12.03  01:41:02
 running   28 mpi-ranks, with    1 threads/rank
 distrk:  each k-point on   28 cores,    1 groups
 distr:  one band on NCORE=   7 cores,    4 groups


--------------------------------------------------------------------------------------------------------


 INCAR:
   SYSTEM = Co-fcc
   NWRITE = 2    write-flag
   ISTART = 0    job   : 0-new, 1-cont, 2-samecut
   ICHARG = 2    charge: 0-wave, 1-file, 2-atom, >10-const
   INIWAV = 1    electr: 0-lowe 1-rand  2-diag
   ENCUT = 400.0     energy cutoff in eV
   PREC = Accurate      normal | accurate
   ADDGRID = .FALSE.  (use fine grid)
   NELM = 100     number of ELM steps
   EDIFF = 1E-06    energy stopping-criterion for ELM
   LREAL = .FALSE.      real-space projection (.FALSE., .TRUE., On, Auto)
   ALGO = Normal     Normal, Fast, Very_Fast
   LWAVE = .TRUE.
   LCHARG = .TRUE.
   NSW = 100       max number of geometry steps
   IBRION = 2     ionic relax: 0-MD, 1-quasi-Newton, 2-CG, 3-Damped MD
   EDIFFG = -0.02  force (eV/A) stopping-criterion for geometry steps
   ISIF = 2     (1:force\=y stress\=trace only ions\=y shape\=n volume\=n)
   ISYM = 1     (1-use symmetry, 0-no symmetry)
   ISMEAR = 0     (-1-Fermi, 1-Methfessel/Paxton)
   SIGMA = 0.05   broadening in eV
   LORBIT = 11
   NPAR = 4
   ISPIN = 2
   MAGMOM = 1*3

 POTCAR:    PAW_PBE Co 02Aug2007                  
 POTCAR:    PAW_PBE Co 02Aug2007                  
   SHA256 =  0e690c60710354995174544f52f9f2c30879afabeffe3b3fbd4001cb294e56d4 Co/POTCAR             
   COPYR  = (c) Copyright 02Aug2007 Georg Kresse                                                    
   COPYR  = This file is part of the software VASP. Any use, copying, and all other rights are regul
   COPYR  = If you do not have a valid VASP license, you may not use, copy or distribute this file. 
   VRHFIN =Co: d8 s1                                                                                
   LEXCH  = PE                                                                                      
   EATOM  =   813.3670 eV,   59.7808 Ry                                                             
                                                                                                    
   TITEL  = PAW_PBE Co 02Aug2007                                                                    
   LULTRA =        F    use ultrasoft PP ?                                                          
   IUNSCR =        1    unscreen: 0-lin 1-nonlin 2-no                                               
   RPACOR =    2.000    partial core radius                                                         
   POMASS =   58.933; ZVAL   =    9.000    mass and valenz                                          
   RCORE  =    2.300    outmost cutoff radius                                                       
   RWIGS  =    2.460; RWIGS  =    1.302    wigner-seitz radius (au A)                               
   ENMAX  =  267.968; ENMIN  =  200.976 eV                                                          
   RCLOC  =    1.203    cutoff for local pot                                                        
   LCOR   =        T    correct aug charges                                                         
   LPAW   =        T    paw PP                                                                      
   EAUG   =  477.818                                                                                
   DEXC   =    0.000                                                                                
   RMAX   =    2.360    core radius for proj-oper                                                   
   RAUG   =    1.300    factor for augmentation sphere                                              
   RDEP   =    2.393    radius for radial grids                                                     
   RDEPT  =    1.864    core radius for aug-charge                                                  
                                                                                                    
   Atomic configuration                                                                             
    9 entries                                                                                       
     n  l   j            E        occ.                                                              
     1  0  0.50     -7587.6674   2.0000                                                             
     2  0  0.50      -893.6084   2.0000                                                             
     2  1  1.50      -764.5805   6.0000                                                             
     3  0  0.50       -97.5973   2.0000                                                             
     3  1  1.50       -60.9648   6.0000                                                             
     3  2  2.50        -4.2382   8.0000                                                             
     4  0  0.50        -4.3746   1.0000                                                             
     4  1  1.50        -4.0817   0.0000                                                             
     4  3  2.50        -1.3606   0.0000                                                             
   Description                                                                                      
     l       E           TYP  RCUT    TYP  RCUT                                                     
     2     -4.2382362     23  2.300                                                                 
     2     -5.5988188     23  2.300                                                                 
     0     -4.3745797     23  2.300                                                                 
     0      5.7660125     23  2.300                                                                 
     1     -2.7211652     23  2.300                                                                 
     1     16.9860234     23  2.300                                                                 
  local pseudopotential read in
  partial core-charges read in
  partial kinetic energy density read in
  atomic valenz-charges read in
  non local Contribution for L=           2  read in
    real space projection operators read in
  non local Contribution for L=           2  read in
    real space projection operators read in
  non local Contribution for L=           0  read in
    real space projection operators read in
  non local Contribution for L=           0  read in
    real space projection operators read in
  non local Contribution for L=           1  read in
    real space projection operators read in
  non local Contribution for L=           1  read in
    real space projection operators read in
    PAW grid and wavefunctions read in
 
   number of l-projection  operators is LMAX  =           6
   number of lm-projection operators is LMMAX =          18
 
  PAW_PBE Co 02Aug2007                  :
 energy of atom  1       EATOM= -813.3670
 kinetic energy error for atom=    0.0093 (will be added to EATOM!!)
 
 
 POSCAR: Co
  positions in cartesian coordinates
  No initial velocities read in
 exchange correlation table for  LEXCH =        8
   RHO(1)=    0.500       N(1)  =     2000
   RHO(2)=  100.500       N(2)  =     4000
 


--------------------------------------------------------------------------------------------------------


 ion  position               nearest neighbor table
   1  0.000  0.000  0.000-
 
  LATTYP: Found a face centered cubic cell.
 ALAT       =     3.4383644111
  
  Lattice vectors:
  
 A1 = (   0.0000000000,   1.7191822056,   1.7191822056)
 A2 = (   1.7191822056,   0.0000000000,   1.7191822056)
 A3 = (   1.7191822056,   1.7191822056,   0.0000000000)


Analysis of symmetry for initial positions (statically):
=====================================================================
 Subroutine PRICEL returns:
 Original cell was already a primitive cell.
 

 Routine SETGRP: Setting up the symmetry group for a 
 face centered cubic supercell.


 Subroutine GETGRP returns: Found 48 space group operations
 (whereof 48 operations were pure point group operations)
 out of a pool of 48 trial point group operations.


The static configuration has the point symmetry O_h .


Analysis of symmetry for dynamics (positions and initial velocities):
=====================================================================
 Subroutine PRICEL returns:
 Original cell was already a primitive cell.
 

 Routine SETGRP: Setting up the symmetry group for a 
 face centered cubic supercell.


 Subroutine GETGRP returns: Found 48 space group operations
 (whereof 48 operations were pure point group operations)
 out of a pool of 48 trial point group operations.


The dynamic configuration has the point symmetry O_h .


Analysis of structural, dynamic, and magnetic symmetry:
=====================================================================
 Subroutine PRICEL returns:
 Original cell was already a primitive cell.
 

 Routine SETGRP: Setting up the symmetry group for a 
 face centered cubic supercell.


 Subroutine GETGRP returns: Found 48 space group operations
 (whereof 48 operations were pure point group operations)
 out of a pool of 48 trial point group operations.


The overall configuration has the point symmetry O_h .


 Subroutine INISYM returns: Found 48 space group operations
 (whereof 48 operations are pure point group operations),
 and found     1 'primitive' translations


----------------------------------------------------------------------------------------

                                     Primitive cell                                     

  volume of cell :      10.1624

  direct lattice vectors                    reciprocal lattice vectors
     0.000000000  1.719182206  1.719182206    -0.290835956  0.290835956  0.290835956
     1.719182206  0.000000000  1.719182206     0.290835956 -0.290835956  0.290835956
     1.719182206  1.719182206  0.000000000     0.290835956  0.290835956 -0.290835956

  length of vectors
     2.431290791  2.431290791  2.431290791     0.503742652  0.503742652  0.503742652

  position of ions in fractional coordinates (direct lattice)
     0.000000000  0.000000000  0.000000000

  ion indices of the primitive-cell ions
   primitive index   ion index
                 1           1

----------------------------------------------------------------------------------------

 
 
 KPOINTS: Automatic mesh                          

Automatic generation of k-mesh.
 Grid dimensions read from file:
 generate k-points for:    8    8    8

 Generating k-lattice:

  Cartesian coordinates                     Fractional coordinates (reciprocal lattice)
    -0.036354494  0.036354494  0.036354494     0.125000000  0.000000000  0.000000000
     0.036354494 -0.036354494  0.036354494     0.000000000  0.125000000  0.000000000
     0.036354494  0.036354494 -0.036354494     0.000000000  0.000000000  0.125000000

  Length of vectors
     0.062967832  0.062967832  0.062967832

  Shift w.r.t. Gamma in fractional coordinates (k-lattice)
     0.500000000  0.500000000  0.500000000

 
 Subroutine IBZKPT returns following result:
 ===========================================
 
 Found     60 irreducible k-points:
 
 Following reciprocal coordinates:
            Coordinates               Weight
  0.062500  0.062500  0.062500      8.000000
  0.187500  0.062500  0.062500     24.000000
  0.312500  0.062500  0.062500     24.000000
  0.437500  0.062500  0.062500     24.000000
 -0.437500  0.062500  0.062500     24.000000
 -0.312500  0.062500  0.062500     24.000000
 -0.187500  0.062500  0.062500     24.000000
 -0.062500  0.062500  0.062500     24.000000
  0.187500  0.187500  0.062500     24.000000
  0.312500  0.187500  0.062500     48.000000
  0.437500  0.187500  0.062500     48.000000
 -0.437500  0.187500  0.062500     48.000000
 -0.312500  0.187500  0.062500     48.000000
 -0.187500  0.187500  0.062500     48.000000
 -0.062500  0.187500  0.062500     48.000000
  0.312500  0.312500  0.062500     24.000000
  0.437500  0.312500  0.062500     48.000000
 -0.437500  0.312500  0.062500     48.000000
 -0.312500  0.312500  0.062500     48.000000
 -0.187500  0.312500  0.062500     48.000000
 -0.062500  0.312500  0.062500     48.000000
  0.437500  0.437500  0.062500     24.000000
 -0.437500  0.437500  0.062500     48.000000
 -0.312500  0.437500  0.062500     48.000000
 -0.187500  0.437500  0.062500     48.000000
 -0.062500  0.437500  0.062500     48.000000
 -0.437500 -0.437500  0.062500     24.000000
 -0.312500 -0.437500  0.062500     48.000000
 -0.187500 -0.437500  0.062500     48.000000
 -0.312500 -0.312500  0.062500     24.000000
 -0.187500 -0.312500  0.062500     48.000000
 -0.187500 -0.187500  0.062500     24.000000
  0.187500  0.187500  0.187500      8.000000
  0.312500  0.187500  0.187500     24.000000
  0.437500  0.187500  0.187500     24.000000
 -0.437500  0.187500  0.187500     24.000000
 -0.312500  0.187500  0.187500     24.000000
 -0.187500  0.187500  0.187500     24.000000
  0.312500  0.312500  0.187500     24.000000
  0.437500  0.312500  0.187500     48.000000
 -0.437500  0.312500  0.187500     48.000000
 -0.312500  0.312500  0.187500     48.000000
 -0.187500  0.312500  0.187500     48.000000
  0.437500  0.437500  0.187500     24.000000
 -0.437500  0.437500  0.187500     48.000000
 -0.312500  0.437500  0.187500     48.000000
 -0.187500  0.437500  0.187500     48.000000
 -0.437500 -0.437500  0.187500     24.000000
 -0.312500 -0.437500  0.187500     48.000000
 -0.312500 -0.312500  0.187500     24.000000
  0.312500  0.312500  0.312500      8.000000
  0.437500  0.312500  0.312500     24.000000
 -0.437500  0.312500  0.312500     24.000000
 -0.312500  0.312500  0.312500     24.000000
  0.437500  0.437500  0.312500     24.000000
 -0.437500  0.437500  0.312500     48.000000
 -0.312500  0.437500  0.312500     48.000000
 -0.437500 -0.437500  0.312500     24.000000
  0.437500  0.437500  0.437500      8.000000
 -0.437500  0.437500  0.437500     24.000000
 
 Following cartesian coordinates:
            Coordinates               Weight
  0.018177  0.018177  0.018177      8.000000
 -0.018177  0.054532  0.054532     24.000000
 -0.054532  0.090886  0.090886     24.000000
 -0.090886  0.127241  0.127241     24.000000
  0.163595 -0.127241 -0.127241     24.000000
  0.127241 -0.090886 -0.090886     24.000000
  0.090886 -0.054532 -0.054532     24.000000
  0.054532 -0.018177 -0.018177     24.000000
  0.018177  0.018177  0.090886     24.000000
 -0.018177  0.054532  0.127241     48.000000
 -0.054532  0.090886  0.163595     48.000000
  0.199950 -0.163595 -0.090886     48.000000
  0.163595 -0.127241 -0.054532     48.000000
  0.127241 -0.090886 -0.018177     48.000000
  0.090886 -0.054532  0.018177     48.000000
  0.018177  0.018177  0.163595     24.000000
 -0.018177  0.054532  0.199950     48.000000
  0.236304 -0.199950 -0.054532     48.000000
  0.199950 -0.163595 -0.018177     48.000000
  0.163595 -0.127241  0.018177     48.000000
  0.127241 -0.090886  0.054532     48.000000
  0.018177  0.018177  0.236304     24.000000
  0.272659 -0.236304 -0.018177     48.000000
  0.236304 -0.199950  0.018177     48.000000
  0.199950 -0.163595  0.054532     48.000000
  0.163595 -0.127241  0.090886     48.000000
  0.018177  0.018177 -0.272659     24.000000
 -0.018177  0.054532 -0.236304     48.000000
 -0.054532  0.090886 -0.199950     48.000000
  0.018177  0.018177 -0.199950     24.000000
 -0.018177  0.054532 -0.163595     48.000000
  0.018177  0.018177 -0.127241     24.000000
  0.054532  0.054532  0.054532      8.000000
  0.018177  0.090886  0.090886     24.000000
 -0.018177  0.127241  0.127241     24.000000
  0.236304 -0.127241 -0.127241     24.000000
  0.199950 -0.090886 -0.090886     24.000000
  0.163595 -0.054532 -0.054532     24.000000
  0.054532  0.054532  0.127241     24.000000
  0.018177  0.090886  0.163595     48.000000
  0.272659 -0.163595 -0.090886     48.000000
  0.236304 -0.127241 -0.054532     48.000000
  0.199950 -0.090886 -0.018177     48.000000
  0.054532  0.054532  0.199950     24.000000
  0.309013 -0.199950 -0.054532     48.000000
  0.272659 -0.163595 -0.018177     48.000000
  0.236304 -0.127241  0.018177     48.000000
  0.054532  0.054532 -0.309013     24.000000
  0.018177  0.090886 -0.272659     48.000000
  0.054532  0.054532 -0.236304     24.000000
  0.090886  0.090886  0.090886      8.000000
  0.054532  0.127241  0.127241     24.000000
  0.309013 -0.127241 -0.127241     24.000000
  0.272659 -0.090886 -0.090886     24.000000
  0.090886  0.090886  0.163595     24.000000
  0.345368 -0.163595 -0.090886     48.000000
  0.309013 -0.127241 -0.054532     48.000000
  0.090886  0.090886 -0.345368     24.000000
  0.127241  0.127241  0.127241      8.000000
  0.381722 -0.127241 -0.127241     24.000000
 


--------------------------------------------------------------------------------------------------------




 Dimension of arrays:
   k-points           NKPTS =     60   k-points in BZ     NKDIM =     60   number of bands    NBANDS=     12
   number of dos      NEDOS =    301   number of ions     NIONS =      1
   non local maximal  LDIM  =      6   non local SUM 2l+1 LMDIM =     18
   total plane-waves  NPLWV =   4096
   max r-space proj   IRMAX =      1   max aug-charges    IRDMAX=  16094
   dimension x,y,z NGX =    16 NGY =   16 NGZ =   16
   dimension x,y,z NGXF=    32 NGYF=   32 NGZF=   32
   support grid    NGXF=    32 NGYF=   32 NGZF=   32
   ions per type =               1
   NGX,Y,Z   is equivalent  to a cutoff of  10.94, 10.94, 10.94 a.u.
   NGXF,Y,Z  is equivalent  to a cutoff of  21.88, 21.88, 21.88 a.u.

 SYSTEM =  Co-fcc                                  
 POSCAR =  Co                                      

 Startparameter for this run:
   NWRITE =      2    write-flag & timer
   PREC   = accura    normal or accurate (medium, high low for compatibility)
   ISTART =      0    job   : 0-new  1-cont  2-samecut
   ICHARG =      2    charge: 1-file 2-atom 10-const
   ISPIN  =      2    spin polarized calculation?
   LNONCOLLINEAR =      F non collinear calculations
   LSORBIT =      F    spin-orbit coupling
   INIWAV =      1    electr: 0-lowe 1-rand  2-diag
   LASPH  =      F    aspherical Exc in radial PAW
 Electronic Relaxation 1
   ENCUT  =  400.0 eV  29.40 Ry    5.42 a.u.   3.96  3.96  3.96*2*pi/ulx,y,z
   ENINI  =  400.0     initial cutoff
   ENAUG  =  477.8 eV  augmentation charge cutoff
   NELM   =    100;   NELMIN=  2; NELMDL= -5     # of ELM steps 
   EDIFF  = 0.1E-05   stopping-criterion for ELM
   LREAL  =      F    real-space projection
   NLSPLINE    = F    spline interpolate recip. space projectors
   LCOMPAT=      F    compatible to vasp.4.4
   GGA_COMPAT  = T    GGA compatible to vasp.4.4-vasp.4.6
   LMAXPAW     = -100 max onsite density
   LMAXMIX     =    2 max onsite mixed and CHGCAR
   VOSKOWN=      0    Vosko Wilk Nusair interpolation
   ROPT   =    0.00000
 Ionic relaxation
   EDIFFG = -.2E-01   stopping-criterion for IOM
   NSW    =    100    number of steps for IOM
   NBLOCK =      1;   KBLOCK =    100    inner block; outer block 
   IBRION =      2    ionic relax: 0-MD 1-quasi-New 2-CG
   NFREE  =      1    steps in history (QN), initial steepest desc. (CG)
   ISIF   =      2    stress and relaxation
   IWAVPR =     11    prediction:  0-non 1-charg 2-wave 3-comb
   ISYM   =      1    0-nonsym 1-usesym 2-fastsym
   LCORR  =      T    Harris-Foulkes like correction to forces

   POTIM  = 0.5000    time-step for ionic-motion
   TEIN   =    0.0    initial temperature
   TEBEG  =    0.0;   TEEND  =   0.0 temperature during run
   SMASS  =  -3.00    Nose mass-parameter (am)
   estimated Nose-frequenzy (Omega)   =  0.10E-29 period in steps = 0.13E+47 mass=  -0.135E-27a.u.
   SCALEE = 1.0000    scale energy and forces
   NPACO  =    256;   APACO  = 10.0  distance and # of slots for P.C.
   PSTRESS=    0.0 pullay stress

  Mass of Ions in am
   POMASS =  58.93
  Ionic Valenz
   ZVAL   =   9.00
  Atomic Wigner-Seitz radii
   RWIGS  =  -1.00
  virtual crystal weights 
   VCA    =   1.00
   NELECT =       9.0000    total number of electrons
   NUPDOWN=      -1.0000    fix difference up-down

 DOS related values:
   EMIN   =  10.00;   EMAX   =-10.00  energy-range for DOS
   EFERMI =   0.00
   ISMEAR =     0;   SIGMA  =   0.05  broadening in eV -4-tet -1-fermi 0-gaus

 Electronic relaxation 2 (details)
   IALGO  =     38    algorithm
   LDIAG  =      T    sub-space diagonalisation (order eigenvalues)
   LSUBROT=      F    optimize rotation matrix (better conditioning)
   TURBO    =      0    0=normal 1=particle mesh
   IRESTART =      0    0=no restart 2=restart with 2 vectors
   NREBOOT  =      0    no. of reboots
   NMIN     =      0    reboot dimension
   EREF     =   0.00    reference energy to select bands
   IMIX   =      4    mixing-type and parameters
     AMIX     =   0.40;   BMIX     =  1.00
     AMIX_MAG =   1.60;   BMIX_MAG =  1.00
     AMIN     =   0.10
     WC   =   100.;   INIMIX=   1;  MIXPRE=   1;  MAXMIX= -45

 Intra band minimization:
   WEIMIN = 0.0010     energy-eigenvalue tresh-hold
   EBREAK =  0.21E-07  absolut break condition
   DEPER  =   0.30     relativ break condition  

   TIME   =   0.40     timestep for ELM

  volume/ion in A,a.u.               =      10.16        68.58
  Fermi-wavevector in a.u.,A,eV,Ry     =   1.572137  2.970908 33.628366  2.471615
  Thomas-Fermi vector in A             =   2.673616
 
 Write flags
   LWAVE        =      T    write WAVECAR
   LDOWNSAMPLE  =      F    k-point downsampling of WAVECAR
   LCHARG       =      T    write CHGCAR
   LVTOT        =      F    write LOCPOT, total local potential
   LVHAR        =      F    write LOCPOT, Hartree potential only
   LELF         =      F    write electronic localiz. function (ELF)
   LORBIT       =     11    0 simple, 1 ext, 2 COOP (PROOUT), +10 PAW based schemes


 Dipole corrections
   LMONO  =      F    monopole corrections only (constant potential shift)
   LDIPOL =      F    correct potential (dipole corrections)
   IDIPOL =      0    1-x, 2-y, 3-z, 4-all directions 
   EPSILON=  1.0000000 bulk dielectric constant

 Exchange correlation treatment:
   GGA     =    --    GGA type
   LEXCH   =     8    internal setting for exchange type
   LIBXC   =     F    Libxc                    
   VOSKOWN =     0    Vosko Wilk Nusair interpolation
   LHFCALC =     F    Hartree Fock is set to
   LHFONE  =     F    Hartree Fock one center treatment
   AEXX    =    0.0000 exact exchange contribution

 Linear response parameters
   LEPSILON=     F    determine dielectric tensor
   LRPA    =     F    only Hartree local field effects (RPA)
   LNABLA  =     F    use nabla operator in PAW spheres
   LVEL    =     F    velocity operator in full k-point grid
   CSHIFT  =0.1000    complex shift for real part using Kramers Kronig
   OMEGAMAX=  -1.0    maximum frequency
   DEG_THRESHOLD= 0.2000000E-02 threshold for treating states as degnerate
   RTIME   =   -0.100 relaxation time in fs
  (WPLASMAI=    0.000 imaginary part of plasma frequency in eV, 0.658/RTIME)
   DFIELD  = 0.0000000 0.0000000 0.0000000 field for delta impulse in time
 
  Optional k-point grid parameters
   LKPOINTS_OPT  =     F    use optional k-point grid
   KPOINTS_OPT_MODE=     1    mode for optional k-point grid
 
 Orbital magnetization related:
   ORBITALMAG=     F  switch on orbital magnetization
   LCHIMAG   =     F  perturbation theory with respect to B field
   DQ        =  0.001000  dq finite difference perturbation B field
   LLRAUG    =     F  two centre corrections for induced B field



--------------------------------------------------------------------------------------------------------


 conjugate gradient relaxation of ions
 charge density and potential will be updated during run
 spin polarized calculation
 Variant of blocked Davidson
 Davidson routine will perform the subspace rotation
 perform sub-space diagonalisation
    after iterative eigenvector-optimisation
 modified Broyden-mixing scheme, WC =      100.0
 initial mixing is a Kerker type mixing with AMIX =  0.4000 and BMIX =      1.0000
 Hartree-type preconditioning will be used
 using additional bands            7
 reciprocal scheme for non local part
 use partial core corrections
 calculate Harris-corrections to forces 
   (improved forces if not selfconsistent)
 use gradient corrections 
 use of overlap-Matrix (Vanderbilt PP)
 Gauss-broadening in eV      SIGMA  =   0.05


--------------------------------------------------------------------------------------------------------


  energy-cutoff  :      400.00
  volume of cell :       10.16
      direct lattice vectors                 reciprocal lattice vectors
     0.000000000  1.719182206  1.719182206    -0.290835956  0.290835956  0.290835956
     1.719182206  0.000000000  1.719182206     0.290835956 -0.290835956  0.290835956
     1.719182206  1.719182206  0.000000000     0.290835956  0.290835956 -0.290835956

  length of vectors
     2.431290791  2.431290791  2.431290791     0.503742652  0.503742652  0.503742652


 
 k-points in units of 2pi/SCALE and weight: Automatic mesh                          
   0.01817725  0.01817725  0.01817725       0.004
  -0.01817725  0.05453174  0.05453174       0.012
  -0.05453174  0.09088624  0.09088624       0.012
  -0.09088624  0.12724073  0.12724073       0.012
   0.16359523 -0.12724073 -0.12724073       0.012
   0.12724073 -0.09088624 -0.09088624       0.012
   0.09088624 -0.05453174 -0.05453174       0.012
   0.05453174 -0.01817725 -0.01817725       0.012
   0.01817725  0.01817725  0.09088624       0.012
  -0.01817725  0.05453174  0.12724073       0.023
  -0.05453174  0.09088624  0.16359523       0.023
   0.19994972 -0.16359523 -0.09088624       0.023
   0.16359523 -0.12724073 -0.05453174       0.023
   0.12724073 -0.09088624 -0.01817725       0.023
   0.09088624 -0.05453174  0.01817725       0.023
   0.01817725  0.01817725  0.16359523       0.012
  -0.01817725  0.05453174  0.19994972       0.023
   0.23630421 -0.19994972 -0.05453174       0.023
   0.19994972 -0.16359523 -0.01817725       0.023
   0.16359523 -0.12724073  0.01817725       0.023
   0.12724073 -0.09088624  0.05453174       0.023
   0.01817725  0.01817725  0.23630421       0.012
   0.27265871 -0.23630421 -0.01817725       0.023
   0.23630421 -0.19994972  0.01817725       0.023
   0.19994972 -0.16359523  0.05453174       0.023
   0.16359523 -0.12724073  0.09088624       0.023
   0.01817725  0.01817725 -0.27265871       0.012
  -0.01817725  0.05453174 -0.23630421       0.023
  -0.05453174  0.09088624 -0.19994972       0.023
   0.01817725  0.01817725 -0.19994972       0.012
  -0.01817725  0.05453174 -0.16359523       0.023
   0.01817725  0.01817725 -0.12724073       0.012
   0.05453174  0.05453174  0.05453174       0.004
   0.01817725  0.09088624  0.09088624       0.012
  -0.01817725  0.12724073  0.12724073       0.012
   0.23630421 -0.12724073 -0.12724073       0.012
   0.19994972 -0.09088624 -0.09088624       0.012
   0.16359523 -0.05453174 -0.05453174       0.012
   0.05453174  0.05453174  0.12724073       0.012
   0.01817725  0.09088624  0.16359523       0.023
   0.27265871 -0.16359523 -0.09088624       0.023
   0.23630421 -0.12724073 -0.05453174       0.023
   0.19994972 -0.09088624 -0.01817725       0.023
   0.05453174  0.05453174  0.19994972       0.012
   0.30901320 -0.19994972 -0.05453174       0.023
   0.27265871 -0.16359523 -0.01817725       0.023
   0.23630421 -0.12724073  0.01817725       0.023
   0.05453174  0.05453174 -0.30901320       0.012
   0.01817725  0.09088624 -0.27265871       0.023
   0.05453174  0.05453174 -0.23630421       0.012
   0.09088624  0.09088624  0.09088624       0.004
   0.05453174  0.12724073  0.12724073       0.012
   0.30901320 -0.12724073 -0.12724073       0.012
   0.27265871 -0.09088624 -0.09088624       0.012
   0.09088624  0.09088624  0.16359523       0.012
   0.34536770 -0.16359523 -0.09088624       0.023
   0.30901320 -0.12724073 -0.05453174       0.023
   0.09088624  0.09088624 -0.34536770       0.012
   0.12724073  0.12724073  0.12724073       0.004
   0.38172219 -0.12724073 -0.12724073       0.012
 
 k-points in reciprocal lattice and weights: Automatic mesh                          
   0.06250000  0.06250000  0.06250000       0.004
   0.18750000  0.06250000  0.06250000       0.012
   0.31250000  0.06250000  0.06250000       0.012
   0.43750000  0.06250000  0.06250000       0.012
  -0.43750000  0.06250000  0.06250000       0.012
  -0.31250000  0.06250000  0.06250000       0.012
  -0.18750000  0.06250000  0.06250000       0.012
  -0.06250000  0.06250000  0.06250000       0.012
   0.18750000  0.18750000  0.06250000       0.012
   0.31250000  0.18750000  0.06250000       0.023
   0.43750000  0.18750000  0.06250000       0.023
  -0.43750000  0.18750000  0.06250000       0.023
  -0.31250000  0.18750000  0.06250000       0.023
  -0.18750000  0.18750000  0.06250000       0.023
  -0.06250000  0.18750000  0.06250000       0.023
   0.31250000  0.31250000  0.06250000       0.012
   0.43750000  0.31250000  0.06250000       0.023
  -0.43750000  0.31250000  0.06250000       0.023
  -0.31250000  0.31250000  0.06250000       0.023
  -0.18750000  0.31250000  0.06250000       0.023
  -0.06250000  0.31250000  0.06250000       0.023
   0.43750000  0.43750000  0.06250000       0.012
  -0.43750000  0.43750000  0.06250000       0.023
  -0.31250000  0.43750000  0.06250000       0.023
  -0.18750000  0.43750000  0.06250000       0.023
  -0.06250000  0.43750000  0.06250000       0.023
  -0.43750000 -0.43750000  0.06250000       0.012
  -0.31250000 -0.43750000  0.06250000       0.023
  -0.18750000 -0.43750000  0.06250000       0.023
  -0.31250000 -0.31250000  0.06250000       0.012
  -0.18750000 -0.31250000  0.06250000       0.023
  -0.18750000 -0.18750000  0.06250000       0.012
   0.18750000  0.18750000  0.18750000       0.004
   0.31250000  0.18750000  0.18750000       0.012
   0.43750000  0.18750000  0.18750000       0.012
  -0.43750000  0.18750000  0.18750000       0.012
  -0.31250000  0.18750000  0.18750000       0.012
  -0.18750000  0.18750000  0.18750000       0.012
   0.31250000  0.31250000  0.18750000       0.012
   0.43750000  0.31250000  0.18750000       0.023
  -0.43750000  0.31250000  0.18750000       0.023
  -0.31250000  0.31250000  0.18750000       0.023
  -0.18750000  0.31250000  0.18750000       0.023
   0.43750000  0.43750000  0.18750000       0.012
  -0.43750000  0.43750000  0.18750000       0.023
  -0.31250000  0.43750000  0.18750000       0.023
  -0.18750000  0.43750000  0.18750000       0.023
  -0.43750000 -0.43750000  0.18750000       0.012
  -0.31250000 -0.43750000  0.18750000       0.023
  -0.31250000 -0.31250000  0.18750000       0.012
   0.31250000  0.31250000  0.31250000       0.004
   0.43750000  0.31250000  0.31250000       0.012
  -0.43750000  0.31250000  0.31250000       0.012
  -0.31250000  0.31250000  0.31250000       0.012
   0.43750000  0.43750000  0.31250000       0.012
  -0.43750000  0.43750000  0.31250000       0.023
  -0.31250000  0.43750000  0.31250000       0.023
  -0.43750000 -0.43750000  0.31250000       0.012
   0.43750000  0.43750000  0.43750000       0.004
  -0.43750000  0.43750000  0.43750000       0.012
 
 position of ions in fractional coordinates (direct lattice) 
   0.00000000  0.00000000  0.00000000
 
 position of ions in cartesian coordinates  (Angst):
   0.00000000  0.00000000  0.00000000
 


--------------------------------------------------------------------------------------------------------


 k-point   1 :   0.0625 0.0625 0.0625  plane waves:     172
 k-point   2 :   0.1875 0.0625 0.0625  plane waves:     174
 k-point   3 :   0.3125 0.0625 0.0625  plane waves:     184
 k-point   4 :   0.4375 0.0625 0.0625  plane waves:     182
 k-point   5 :  -0.4375 0.0625 0.0625  plane waves:     176
 k-point   6 :  -0.3125 0.0625 0.0625  plane waves:     184
 k-point   7 :  -0.1875 0.0625 0.0625  plane waves:     182
 k-point   8 :  -0.0625 0.0625 0.0625  plane waves:     174
 k-point   9 :   0.1875 0.1875 0.0625  plane waves:     174
 k-point  10 :   0.3125 0.1875 0.0625  plane waves:     182
 k-point  11 :   0.4375 0.1875 0.0625  plane waves:     184
 k-point  12 :  -0.4375 0.1875 0.0625  plane waves:     184
 k-point  13 :  -0.3125 0.1875 0.0625  plane waves:     184
 k-point  14 :  -0.1875 0.1875 0.0625  plane waves:     185
 k-point  15 :  -0.0625 0.1875 0.0625  plane waves:     179
 k-point  16 :   0.3125 0.3125 0.0625  plane waves:     182
 k-point  17 :   0.4375 0.3125 0.0625  plane waves:     186
 k-point  18 :  -0.4375 0.3125 0.0625  plane waves:     185
 k-point  19 :  -0.3125 0.3125 0.0625  plane waves:     184
 k-point  20 :  -0.1875 0.3125 0.0625  plane waves:     186
 k-point  21 :  -0.0625 0.3125 0.0625  plane waves:     184
 k-point  22 :   0.4375 0.4375 0.0625  plane waves:     191
 k-point  23 :  -0.4375 0.4375 0.0625  plane waves:     189
 k-point  24 :  -0.3125 0.4375 0.0625  plane waves:     185
 k-point  25 :  -0.1875 0.4375 0.0625  plane waves:     184
 k-point  26 :  -0.0625 0.4375 0.0625  plane waves:     181
 k-point  27 :  -0.4375-0.4375 0.0625  plane waves:     190
 k-point  28 :  -0.3125-0.4375 0.0625  plane waves:     187
 k-point  29 :  -0.1875-0.4375 0.0625  plane waves:     186
 k-point  30 :  -0.3125-0.3125 0.0625  plane waves:     185
 k-point  31 :  -0.1875-0.3125 0.0625  plane waves:     184
 k-point  32 :  -0.1875-0.1875 0.0625  plane waves:     180
 k-point  33 :   0.1875 0.1875 0.1875  plane waves:     172
 k-point  34 :   0.3125 0.1875 0.1875  plane waves:     181
 k-point  35 :   0.4375 0.1875 0.1875  plane waves:     184
 k-point  36 :  -0.4375 0.1875 0.1875  plane waves:     181
 k-point  37 :  -0.3125 0.1875 0.1875  plane waves:     184
 k-point  38 :  -0.1875 0.1875 0.1875  plane waves:     189
 k-point  39 :   0.3125 0.3125 0.1875  plane waves:     183
 k-point  40 :   0.4375 0.3125 0.1875  plane waves:     183
 k-point  41 :  -0.4375 0.3125 0.1875  plane waves:     188
 k-point  42 :  -0.3125 0.3125 0.1875  plane waves:     187
 k-point  43 :  -0.1875 0.3125 0.1875  plane waves:     185
 k-point  44 :   0.4375 0.4375 0.1875  plane waves:     186
 k-point  45 :  -0.4375 0.4375 0.1875  plane waves:     190
 k-point  46 :  -0.3125 0.4375 0.1875  plane waves:     188
 k-point  47 :  -0.1875 0.4375 0.1875  plane waves:     190
 k-point  48 :  -0.4375-0.4375 0.1875  plane waves:     188
 k-point  49 :  -0.3125-0.4375 0.1875  plane waves:     190
 k-point  50 :  -0.3125-0.3125 0.1875  plane waves:     188
 k-point  51 :   0.3125 0.3125 0.3125  plane waves:     183
 k-point  52 :   0.4375 0.3125 0.3125  plane waves:     186
 k-point  53 :  -0.4375 0.3125 0.3125  plane waves:     182
 k-point  54 :  -0.3125 0.3125 0.3125  plane waves:     186
 k-point  55 :   0.4375 0.4375 0.3125  plane waves:     184
 k-point  56 :  -0.4375 0.4375 0.3125  plane waves:     185
 k-point  57 :  -0.3125 0.4375 0.3125  plane waves:     187
 k-point  58 :  -0.4375-0.4375 0.3125  plane waves:     182
 k-point  59 :   0.4375 0.4375 0.4375  plane waves:     180
 k-point  60 :  -0.4375 0.4375 0.4375  plane waves:     180

 maximum and minimum number of plane-waves per node :        34       19

 maximum number of plane-waves:       191
 maximum index in each direction: 
   IXMAX=    4   IYMAX=    4   IZMAX=    3
   IXMIN=   -4   IYMIN=   -4   IZMIN=   -4


 parallel 3D FFT for wavefunctions:
    minimum data exchange during FFTs selected (reduces bandwidth)
 parallel 3D FFT for charge:
    minimum data exchange during FFTs selected (reduces bandwidth)


 total amount of memory used by VASP MPI-rank0    30856. kBytes
=======================================================================

   base      :      30000. kBytes
   nonl-proj :        242. kBytes
   fftplans  :         90. kBytes
   grid      :        217. kBytes
   one-center:         31. kBytes
   wavefun   :        276. kBytes
 
     INWAV:  cpu time      0.0000: real time      0.0001
 Broyden mixing: mesh for mixing (old mesh)
   NGX =  7   NGY =  7   NGZ =  7
  (NGX  = 32   NGY  = 32   NGZ  = 32)
  gives a total of    343 points

 initial charge density was supplied:
 charge density of overlapping atoms calculated
 number of electron       9.0000000 magnetization       3.0000000
 keeping initial charge density in first step


--------------------------------------------------------------------------------------------------------


 Maximum index for augmentation-charges         1333 (set IRDMAX)


--------------------------------------------------------------------------------------------------------


 First call to EWALD:  gamma=   0.818
 Maximum number of real-space cells 3x 3x 3
 Maximum number of reciprocal cells 3x 3x 3

    FEWALD:  cpu time      0.0012: real time      0.0012


--------------------------------------- Iteration      1(   1)  ---------------------------------------


    POTLOK:  cpu time      0.0045: real time      0.0046
    SETDIJ:  cpu time      0.0048: real time      0.0048
     EDDAV:  cpu time      0.2641: real time      0.2658
       DOS:  cpu time      0.0013: real time      0.0013
    --------------------------------------------
      LOOP:  cpu time      0.2746: real time      0.2765

 eigenvalue-minimisations  :  3008
 total energy-change (2. order) : 0.2231183E+02  (-0.3526640E+03)
 number of electron       9.0000000 magnetization       3.0000000
 augmentation part        9.0000000 magnetization       3.0000000

 Free energy of the ion-electron system (eV)
  ---------------------------------------------------
  alpha Z        PSCENC =        41.68084925
  Ewald energy   TEWEN  =      -777.65231406
  -Hartree energ DENC   =      -143.05580265
  -exchange      EXHF   =         0.00000000
  -V(xc)+E(xc)   XCENC  =        18.03319471
  PAW double counting   =       719.99081943     -772.94345096
  entropy T*S    EENTRO =        -0.00084343
  eigenvalues    EBANDS =       122.90164771
  atomic energy  EATOM  =       813.35773410
  Solvation  Ediel_sol  =         0.00000000
  ---------------------------------------------------
  free energy    TOTEN  =        22.31183410 eV

  energy without entropy =       22.31267753  energy(sigma->0) =       22.31225582


--------------------------------------------------------------------------------------------------------




--------------------------------------- Iteration      1(   2)  ---------------------------------------


     EDDAV:  cpu time      0.2565: real time      0.2588
       DOS:  cpu time      0.0008: real time      0.0008
    --------------------------------------------
      LOOP:  cpu time      0.2573: real time      0.2596

 eigenvalue-minimisations  :  3152
 total energy-change (2. order) :-0.2925524E+02  (-0.2706065E+02)
 number of electron       9.0000000 magnetization       3.0000000
 augmentation part        9.0000000 magnetization       3.0000000

 Free energy of the ion-electron system (eV)
  ---------------------------------------------------
  alpha Z        PSCENC =        41.68084925
  Ewald energy   TEWEN  =      -777.65231406
  -Hartree energ DENC   =      -143.05580265
  -exchange      EXHF   =         0.00000000
  -V(xc)+E(xc)   XCENC  =        18.03319471
  PAW double counting   =       719.99081943     -772.94345096
  entropy T*S    EENTRO =        -0.00102704
  eigenvalues    EBANDS =        93.64659323
  atomic energy  EATOM  =       813.35773410
  Solvation  Ediel_sol  =         0.00000000
  ---------------------------------------------------
  free energy    TOTEN  =        -6.94340399 eV

  energy without entropy =       -6.94237695  energy(sigma->0) =       -6.94289047


--------------------------------------------------------------------------------------------------------




--------------------------------------- Iteration      1(   3)  ---------------------------------------


     EDDAV:  cpu time      0.2612: real time      0.2627
       DOS:  cpu time      0.0008: real time      0.0008
    --------------------------------------------
      LOOP:  cpu time      0.2620: real time      0.2635

 eigenvalue-minimisations  :  3308
 total energy-change (2. order) :-0.7571325E+00  (-0.7445940E+00)
 number of electron       9.0000000 magnetization       3.0000000
 augmentation part        9.0000000 magnetization       3.0000000

 Free energy of the ion-electron system (eV)
  ---------------------------------------------------
  alpha Z        PSCENC =        41.68084925
  Ewald energy   TEWEN  =      -777.65231406
  -Hartree energ DENC   =      -143.05580265
  -exchange      EXHF   =         0.00000000
  -V(xc)+E(xc)   XCENC  =        18.03319471
  PAW double counting   =       719.99081943     -772.94345096
  entropy T*S    EENTRO =        -0.00099320
  eigenvalues    EBANDS =        92.88942685
  atomic energy  EATOM  =       813.35773410
  Solvation  Ediel_sol  =         0.00000000
  ---------------------------------------------------
  free energy    TOTEN  =        -7.70053653 eV

  energy without entropy =       -7.69954333  energy(sigma->0) =       -7.70003993


--------------------------------------------------------------------------------------------------------




--------------------------------------- Iteration      1(   4)  ---------------------------------------


     EDDAV:  cpu time      0.2760: real time      0.2775
       DOS:  cpu time      0.0008: real time      0.0008
    --------------------------------------------
      LOOP:  cpu time      0.2768: real time      0.2783

 eigenvalue-minimisations  :  3592
 total energy-change (2. order) :-0.8719576E-02  (-0.8717321E-02)
 number of electron       9.0000000 magnetization       3.0000000
 augmentation part        9.0000000 magnetization       3.0000000

 Free energy of the ion-electron system (eV)
  ---------------------------------------------------
  alpha Z        PSCENC =        41.68084925
  Ewald energy   TEWEN  =      -777.65231406
  -Hartree energ DENC   =      -143.05580265
  -exchange      EXHF   =         0.00000000
  -V(xc)+E(xc)   XCENC  =        18.03319471
  PAW double counting   =       719.99081943     -772.94345096
  entropy T*S    EENTRO =        -0.00100122
  eigenvalues    EBANDS =        92.88071530
  atomic energy  EATOM  =       813.35773410
  Solvation  Ediel_sol  =         0.00000000
  ---------------------------------------------------
  free energy    TOTEN  =        -7.70925611 eV

  energy without entropy =       -7.70825488  energy(sigma->0) =       -7.70875550


--------------------------------------------------------------------------------------------------------




--------------------------------------- Iteration      1(   5)  ---------------------------------------


     EDDAV:  cpu time      0.2964: real time      0.2982
       DOS:  cpu time      0.0007: real time      0.0007
    CHARGE:  cpu time      0.0109: real time      0.0109
    MIXING:  cpu time      0.0009: real time      0.0009
    --------------------------------------------
      LOOP:  cpu time      0.3089: real time      0.3108

 eigenvalue-minimisations  :  3740
 total energy-change (2. order) :-0.2048860E-03  (-0.2048846E-03)
 number of electron       8.9999993 magnetization       1.3965275
 augmentation part        4.6022663 magnetization       1.0009394

 Broyden mixing:
  rms(total) = 0.12239E+01    rms(broyden)= 0.12239E+01
  rms(prec ) = 0.32327E+01
  weight for this iteration     100.00

 Free energy of the ion-electron system (eV)
  ---------------------------------------------------
  alpha Z        PSCENC =        41.68084925
  Ewald energy   TEWEN  =      -777.65231406
  -Hartree energ DENC   =      -143.05580265
  -exchange      EXHF   =         0.00000000
  -V(xc)+E(xc)   XCENC  =        18.03319471
  PAW double counting   =       719.99081943     -772.94345096
  entropy T*S    EENTRO =        -0.00100146
  eigenvalues    EBANDS =        92.88051065
  atomic energy  EATOM  =       813.35773410
  Solvation  Ediel_sol  =         0.00000000
  ---------------------------------------------------
  free energy    TOTEN  =        -7.70946099 eV

  energy without entropy =       -7.70845953  energy(sigma->0) =       -7.70896026


--------------------------------------------------------------------------------------------------------




--------------------------------------- Iteration      1(   6)  ---------------------------------------


    POTLOK:  cpu time      0.0031: real time      0.0033
    SETDIJ:  cpu time      0.0044: real time      0.0044
     EDDAV:  cpu time      0.2906: real time      0.2920
       DOS:  cpu time      0.0008: real time      0.0008
    CHARGE:  cpu time      0.0096: real time      0.0097
    MIXING:  cpu time      0.0002: real time      0.0002
    --------------------------------------------
      LOOP:  cpu time      0.3088: real time      0.3105

 eigenvalue-minimisations  :  3752
 total energy-change (2. order) : 0.5842247E+00  (-0.1023446E+01)
 number of electron       8.9999992 magnetization       1.6051316
 augmentation part        5.2805443 magnetization       1.4641074

 Broyden mixing:
  rms(total) = 0.38808E+00    rms(broyden)= 0.38803E+00
  rms(prec ) = 0.71495E+00
  weight for this iteration     100.00

 eigenvalues of (default mixing * dielectric matrix)
  average eigenvalue GAMMA=   0.9474
  0.9474

 Free energy of the ion-electron system (eV)
  ---------------------------------------------------
  alpha Z        PSCENC =        41.68084925
  Ewald energy   TEWEN  =      -777.65231406
  -Hartree energ DENC   =      -125.53357328
  -exchange      EXHF   =         0.00000000
  -V(xc)+E(xc)   XCENC  =        16.53233348
  PAW double counting   =       812.68994725     -861.00054292
  entropy T*S    EENTRO =        -0.00165227
  eigenvalues    EBANDS =        72.80198220
  atomic energy  EATOM  =       813.35773410
  Solvation  Ediel_sol  =         0.00000000
  ---------------------------------------------------
  free energy    TOTEN  =        -7.12523626 eV

  energy without entropy =       -7.12358399  energy(sigma->0) =       -7.12441012


--------------------------------------------------------------------------------------------------------




--------------------------------------- Iteration      1(   7)  ---------------------------------------


    POTLOK:  cpu time      0.0027: real time      0.0029
    SETDIJ:  cpu time      0.0040: real time      0.0041
     EDDAV:  cpu time      0.2753: real time      0.2767
       DOS:  cpu time      0.0008: real time      0.0008
    CHARGE:  cpu time      0.0093: real time      0.0094
    MIXING:  cpu time      0.0002: real time      0.0002
    --------------------------------------------
      LOOP:  cpu time      0.2924: real time      0.2941

 eigenvalue-minimisations  :  3564
 total energy-change (2. order) : 0.1181938E+00  (-0.9791970E-01)
 number of electron       8.9999992 magnetization       1.5768434
 augmentation part        5.0865951 magnetization       1.4181826

 Broyden mixing:
  rms(total) = 0.24694E+00    rms(broyden)= 0.24694E+00
  rms(prec ) = 0.39492E+00
  weight for this iteration     100.00

 eigenvalues of (default mixing * dielectric matrix)
  average eigenvalue GAMMA=   0.7719
  1.0493  0.4945

 Free energy of the ion-electron system (eV)
  ---------------------------------------------------
  alpha Z        PSCENC =        41.68084925
  Ewald energy   TEWEN  =      -777.65231406
  -Hartree energ DENC   =      -128.39615189
  -exchange      EXHF   =         0.00000000
  -V(xc)+E(xc)   XCENC  =        16.75122535
  PAW double counting   =       852.68554144     -904.13253533
  entropy T*S    EENTRO =        -0.00107265
  eigenvalues    EBANDS =        78.69968134
  atomic energy  EATOM  =       813.35773410
  Solvation  Ediel_sol  =         0.00000000
  ---------------------------------------------------
  free energy    TOTEN  =        -7.00704245 eV

  energy without entropy =       -7.00596980  energy(sigma->0) =       -7.00650612


--------------------------------------------------------------------------------------------------------




--------------------------------------- Iteration      1(   8)  ---------------------------------------


    POTLOK:  cpu time      0.0027: real time      0.0029
    SETDIJ:  cpu time      0.0040: real time      0.0041
     EDDAV:  cpu time      0.2964: real time      0.2981
       DOS:  cpu time      0.0008: real time      0.0008
    CHARGE:  cpu time      0.0093: real time      0.0093
    MIXING:  cpu time      0.0002: real time      0.0002
    --------------------------------------------
      LOOP:  cpu time      0.3135: real time      0.3154

 eigenvalue-minimisations  :  3924
 total energy-change (2. order) : 0.1312577E-01  (-0.1319298E-02)
 number of electron       8.9999992 magnetization       1.5703653
 augmentation part        5.1033993 magnetization       1.4095183

 Broyden mixing:
  rms(total) = 0.12394E+00    rms(broyden)= 0.12394E+00
  rms(prec ) = 0.20082E+00
  weight for this iteration     100.00

 eigenvalues of (default mixing * dielectric matrix)
  average eigenvalue GAMMA=   1.0979
  1.9388  0.7864  0.5685

 Free energy of the ion-electron system (eV)
  ---------------------------------------------------
  alpha Z        PSCENC =        41.68084925
  Ewald energy   TEWEN  =      -777.65231406
  -Hartree energ DENC   =      -127.01808254
  -exchange      EXHF   =         0.00000000
  -V(xc)+E(xc)   XCENC  =        16.66255333
  PAW double counting   =       889.24915944     -941.50923715
  entropy T*S    EENTRO =        -0.00108153
  eigenvalues    EBANDS =        78.23650248
  atomic energy  EATOM  =       813.35773410
  Solvation  Ediel_sol  =         0.00000000
  ---------------------------------------------------
  free energy    TOTEN  =        -6.99391667 eV

  energy without entropy =       -6.99283515  energy(sigma->0) =       -6.99337591


--------------------------------------------------------------------------------------------------------




--------------------------------------- Iteration      1(   9)  ---------------------------------------


    POTLOK:  cpu time      0.0027: real time      0.0029
    SETDIJ:  cpu time      0.0040: real time      0.0041
     EDDAV:  cpu time      0.3388: real time      0.3405
       DOS:  cpu time      0.0008: real time      0.0008
    CHARGE:  cpu time      0.0093: real time      0.0093
    MIXING:  cpu time      0.0003: real time      0.0003
    --------------------------------------------
      LOOP:  cpu time      0.3560: real time      0.3579

 eigenvalue-minimisations  :  4644
 total energy-change (2. order) : 0.5495762E-02  (-0.4226323E-03)
 number of electron       8.9999992 magnetization       1.5713838
 augmentation part        5.1155328 magnetization       1.4102397

 Broyden mixing:
  rms(total) = 0.26516E-01    rms(broyden)= 0.26516E-01
  rms(prec ) = 0.46229E-01
  weight for this iteration     100.00

 eigenvalues of (default mixing * dielectric matrix)
  average eigenvalue GAMMA=   1.1868
  2.3647  1.0243  0.7245  0.6338

 Free energy of the ion-electron system (eV)
  ---------------------------------------------------
  alpha Z        PSCENC =        41.68084925
  Ewald energy   TEWEN  =      -777.65231406
  -Hartree energ DENC   =      -125.87244822
  -exchange      EXHF   =         0.00000000
  -V(xc)+E(xc)   XCENC  =        16.60818691
  PAW double counting   =       923.82429027     -976.82812285
  entropy T*S    EENTRO =        -0.00109420
  eigenvalues    EBANDS =        77.89449790
  atomic energy  EATOM  =       813.35773410
  Solvation  Ediel_sol  =         0.00000000
  ---------------------------------------------------
  free energy    TOTEN  =        -6.98842091 eV

  energy without entropy =       -6.98732671  energy(sigma->0) =       -6.98787381


--------------------------------------------------------------------------------------------------------




--------------------------------------- Iteration      1(  10)  ---------------------------------------


    POTLOK:  cpu time      0.0027: real time      0.0028
    SETDIJ:  cpu time      0.0043: real time      0.0043
     EDDAV:  cpu time      0.3026: real time      0.3043
       DOS:  cpu time      0.0008: real time      0.0008
    CHARGE:  cpu time      0.0093: real time      0.0093
    MIXING:  cpu time      0.0002: real time      0.0002
    --------------------------------------------
      LOOP:  cpu time      0.3199: real time      0.3218

 eigenvalue-minimisations  :  4036
 total energy-change (2. order) : 0.5135160E-03  (-0.2910343E-04)
 number of electron       8.9999992 magnetization       1.5701836
 augmentation part        5.1175634 magnetization       1.4101880

 Broyden mixing:
  rms(total) = 0.38545E-02    rms(broyden)= 0.38532E-02
  rms(prec ) = 0.49362E-02
  weight for this iteration     100.00

 eigenvalues of (default mixing * dielectric matrix)
  average eigenvalue GAMMA=   1.1318
  2.3888  0.6653  0.6653  1.0654  0.8742

 Free energy of the ion-electron system (eV)
  ---------------------------------------------------
  alpha Z        PSCENC =        41.68084925
  Ewald energy   TEWEN  =      -777.65231406
  -Hartree energ DENC   =      -125.46834598
  -exchange      EXHF   =         0.00000000
  -V(xc)+E(xc)   XCENC  =        16.59398494
  PAW double counting   =       939.61401212     -992.94880044
  entropy T*S    EENTRO =        -0.00109813
  eigenvalues    EBANDS =        77.83607079
  atomic energy  EATOM  =       813.35773410
  Solvation  Ediel_sol  =         0.00000000
  ---------------------------------------------------
  free energy    TOTEN  =        -6.98790740 eV

  energy without entropy =       -6.98680927  energy(sigma->0) =       -6.98735833


--------------------------------------------------------------------------------------------------------




--------------------------------------- Iteration      1(  11)  ---------------------------------------


    POTLOK:  cpu time      0.0027: real time      0.0029
    SETDIJ:  cpu time      0.0041: real time      0.0041
     EDDAV:  cpu time      0.2704: real time      0.2720
       DOS:  cpu time      0.0008: real time      0.0008
    CHARGE:  cpu time      0.0093: real time      0.0093
    MIXING:  cpu time      0.0002: real time      0.0002
    --------------------------------------------
      LOOP:  cpu time      0.2875: real time      0.2893

 eigenvalue-minimisations  :  3500
 total energy-change (2. order) :-0.5186983E-05  (-0.8985748E-06)
 number of electron       8.9999992 magnetization       1.5705562
 augmentation part        5.1177775 magnetization       1.4102946

 Broyden mixing:
  rms(total) = 0.22402E-02    rms(broyden)= 0.22401E-02
  rms(prec ) = 0.27460E-02
  weight for this iteration     100.00

 eigenvalues of (default mixing * dielectric matrix)
  average eigenvalue GAMMA=   1.2283
  2.3797  1.8511  0.9827  0.6278  0.7642  0.7642

 Free energy of the ion-electron system (eV)
  ---------------------------------------------------
  alpha Z        PSCENC =        41.68084925
  Ewald energy   TEWEN  =      -777.65231406
  -Hartree energ DENC   =      -125.46119889
  -exchange      EXHF   =         0.00000000
  -V(xc)+E(xc)   XCENC  =        16.59261331
  PAW double counting   =       940.65934265     -993.99507830
  entropy T*S    EENTRO =        -0.00109797
  eigenvalues    EBANDS =        77.83123733
  atomic energy  EATOM  =       813.35773410
  Solvation  Ediel_sol  =         0.00000000
  ---------------------------------------------------
  free energy    TOTEN  =        -6.98791258 eV

  energy without entropy =       -6.98681461  energy(sigma->0) =       -6.98736360


--------------------------------------------------------------------------------------------------------




--------------------------------------- Iteration      1(  12)  ---------------------------------------


    POTLOK:  cpu time      0.0026: real time      0.0028
    SETDIJ:  cpu time      0.0041: real time      0.0041
     EDDAV:  cpu time      0.2696: real time      0.2709
       DOS:  cpu time      0.0008: real time      0.0008
    --------------------------------------------
      LOOP:  cpu time      0.2770: real time      0.2786

 eigenvalue-minimisations  :  3480
 total energy-change (2. order) :-0.3973105E-06  (-0.2899259E-06)
 number of electron       8.9999992 magnetization       1.5705562
 augmentation part        5.1177775 magnetization       1.4102946

 Free energy of the ion-electron system (eV)
  ---------------------------------------------------
  alpha Z        PSCENC =        41.68084925
  Ewald energy   TEWEN  =      -777.65231406
  -Hartree energ DENC   =      -125.45429746
  -exchange      EXHF   =         0.00000000
  -V(xc)+E(xc)   XCENC  =        16.59242852
  PAW double counting   =       942.12949426     -995.46656806
  entropy T*S    EENTRO =        -0.00109874
  eigenvalues    EBANDS =        77.82585921
  atomic energy  EATOM  =       813.35773410
  Solvation  Ediel_sol  =         0.00000000
  ---------------------------------------------------
  free energy    TOTEN  =        -6.98791298 eV

  energy without entropy =       -6.98681424  energy(sigma->0) =       -6.98736361


--------------------------------------------------------------------------------------------------------




 average (electrostatic) potential at core
  the test charge radii are     1.0452
  (the norm of the test charge is              1.0000)
       1 -77.3823
 
 
 
 E-fermi :  11.2745     XC(G=0): -13.7958     alpha+bet :-18.9270

 Fermi energy:        11.2745076049

 spin component 1

 k-point     1 :       0.0625    0.0625    0.0625
  band No.  band energies     occupation 
      1       2.0721      1.00000
      2       8.4466      1.00000
      3       8.5369      1.00000
      4       8.5369      1.00000
      5       9.6874      1.00000
      6       9.6874      1.00000
      7      34.6106      0.00000
      8      37.9433      0.00000
      9      39.5231      0.00000
     10      39.5231      0.00000
     11      43.6726      0.00000
     12      43.6728      0.00000

 k-point     2 :       0.1875    0.0625    0.0625
  band No.  band energies     occupation 
      1       2.9114      1.00000
      2       8.2085      1.00000
      3       8.7124      1.00000
      4       8.7170      1.00000
      5       9.5130      1.00000
      6       9.7849      1.00000
      7      32.0107      0.00000
      8      34.6870      0.00000
      9      38.3025      0.00000
     10      40.5758      0.00000
     11      42.3512      0.00000
     12      43.7649      0.00000

 k-point     3 :       0.3125    0.0625    0.0625
  band No.  band energies     occupation 
      1       4.6494      1.00000
      2       8.0843      1.00000
      3       8.6534      1.00000
      4       8.7365      1.00000
      5       9.7428      1.00000
      6      10.2246      1.00000
      7      25.8383      0.00000
      8      33.5332      0.00000
      9      37.2529      0.00000
     10      40.2857      0.00000
     11      41.4552      0.00000
     12      42.3522      0.00000

 k-point     4 :       0.4375    0.0625    0.0625
  band No.  band energies     occupation 
      1       5.7673      1.00000
      2       8.3990      1.00000
      3       8.5098      1.00000
      4       9.2308      1.00000
      5      10.3564      1.00000
      6      11.0653      1.00000
      7      20.3584      0.00000
      8      32.9221      0.00000
      9      36.0599      0.00000
     10      38.1009      0.00000
     11      40.5639      0.00000
     12      42.1479      0.00000

 k-point     5 :      -0.4375    0.0625    0.0625
  band No.  band energies     occupation 
      1       5.8799      1.00000
      2       8.2930      1.00000
      3       8.4510      1.00000
      4       9.8609      1.00000
      5      10.6705      1.00000
      6      11.8289      0.00000
      7      18.1755      0.00000
      8      32.9290      0.00000
      9      36.1515      0.00000
     10      36.3179      0.00000
     11      41.4139      0.00000
     12      41.4223      0.00000

 k-point     6 :      -0.3125    0.0625    0.0625
  band No.  band energies     occupation 
      1       5.5627      1.00000
      2       8.4391      1.00000
      3       8.6081      1.00000
      4       8.6685      1.00000
      5      10.4423      1.00000
      6      10.4933      1.00000
      7      22.0156      0.00000
      8      33.6729      0.00000
      9      35.5969      0.00000
     10      38.1532      0.00000
     11      41.1855      0.00000
     12      43.1604      0.00000

 k-point     7 :      -0.1875    0.0625    0.0625
  band No.  band energies     occupation 
      1       4.0308      1.00000
      2       8.0315      1.00000
      3       8.7238      1.00000
      4       8.7885      1.00000
      5       9.6653      1.00000
      6       9.9573      1.00000
      7      27.8915      0.00000
      8      34.8310      0.00000
      9      36.1508      0.00000
     10      40.6983      0.00000
     11      41.0529      0.00000
     12      45.3854      0.00000

 k-point     8 :      -0.0625    0.0625    0.0625
  band No.  band energies     occupation 
      1       2.4994      1.00000
      2       8.2867      1.00000
      3       8.6581      1.00000
      4       8.6629      1.00000
      5       9.5357      1.00000
      6       9.7610      1.00000
      7      33.7191      0.00000
      8      36.2626      0.00000
      9      37.5363      0.00000
     10      39.3006      0.00000
     11      43.5798      0.00000
     12      45.3427      0.00000

 k-point     9 :       0.1875    0.1875    0.0625
  band No.  band energies     occupation 
      1       3.3105      1.00000
      2       7.9787      1.00000
      3       8.8752      1.00000
      4       8.9084      1.00000
      5       9.3280      1.00000
      6       9.8981      1.00000
      7      32.3350      0.00000
      8      34.7554      0.00000
      9      35.1970      0.00000
     10      37.2928      0.00000
     11      43.6498      0.00000
     12      45.8998      0.00000

 k-point    10 :       0.3125    0.1875    0.0625
  band No.  band energies     occupation 
      1       4.7150      1.00000
      2       7.6443      1.00000
      3       8.6382      1.00000
      4       9.1962      1.00000
      5       9.6211      1.00000
      6      10.3133      1.00000
      7      28.4544      0.00000
      8      31.1057      0.00000
      9      34.9433      0.00000
     10      37.0395      0.00000
     11      42.4122      0.00000
     12      45.6036      0.00000

 k-point    11 :       0.4375    0.1875    0.0625
  band No.  band energies     occupation 
      1       6.0976      1.00000
      2       7.7789      1.00000
      3       8.2986      1.00000
      4       9.0245      1.00000
      5      10.4032      1.00000
      6      11.5936      0.00000
      7      22.5230      0.00000
      8      30.4324      0.00000
      9      32.5952      0.00000
     10      36.7452      0.00000
     11      43.6162      0.00000
     12      46.2216      0.00000

 k-point    12 :      -0.4375    0.1875    0.0625
  band No.  band energies     occupation 
      1       6.3885      1.00000
      2       7.8166      1.00000
      3       8.7731      1.00000
      4       8.8548      1.00000
      5      10.6282      1.00000
      6      13.8075      0.00000
      7      18.3490      0.00000
      8      29.7959      0.00000
      9      31.9207      0.00000
     10      36.4646      0.00000
     11      42.7632      0.00000
     12      46.4660      0.00000

 k-point    13 :      -0.3125    0.1875    0.0625
  band No.  band energies     occupation 
      1       6.3334      1.00000
      2       7.9805      1.00000
      3       8.3690      1.00000
      4       8.9009      1.00000
      5      10.2707      1.00000
      6      12.4902      0.00000
      7      20.8217      0.00000
      8      29.0255      0.00000
      9      33.4505      0.00000
     10      37.6153      0.00000
     11      42.0989      0.00000
     12      45.8449      0.00000

 k-point    14 :      -0.1875    0.1875    0.0625
  band No.  band energies     occupation 
      1       5.3164      1.00000
      2       7.7277      1.00000
      3       8.4426      1.00000
      4       9.1251      1.00000
      5       9.5440      1.00000
      6      10.8594      1.00000
      7      26.4131      0.00000
      8      29.2011      0.00000
      9      35.9913      0.00000
     10      39.5920      0.00000
     11      41.5222      0.00000
     12      44.7962      0.00000

 k-point    15 :      -0.0625    0.1875    0.0625
  band No.  band energies     occupation 
      1       3.6911      1.00000
      2       7.9762      1.00000
      3       8.7625      1.00000
      4       8.9117      1.00000
      5       9.4139      1.00000
      6       9.9930      1.00000
      7      30.1780      0.00000
      8      32.8552      0.00000
      9      37.3630      0.00000
     10      39.2060      0.00000
     11      43.0692      0.00000
     12      44.5309      0.00000

 k-point    16 :       0.3125    0.3125    0.0625
  band No.  band energies     occupation 
      1       5.3823      1.00000
      2       7.1818      1.00000
      3       8.9985      1.00000
      4       9.6681      1.00000
      5      10.0353      1.00000
      6      10.2870      1.00000
      7      29.0397      0.00000
      8      30.7843      0.00000
      9      30.8288      0.00000
     10      33.7280      0.00000
     11      38.9070      0.00000
     12      48.2465      0.00000

 k-point    17 :       0.4375    0.3125    0.0625
  band No.  band energies     occupation 
      1       6.1044      1.00000
      2       6.9558      1.00000
      3       8.9287      1.00000
      4       9.9420      1.00000
      5      10.4568      1.00000
      6      11.8624      0.00000
      7      25.5290      0.00000
      8      27.5118      0.00000
      9      28.6417      0.00000
     10      35.0334      0.00000
     11      39.9595      0.00000
     12      48.0803      0.00000

 k-point    18 :      -0.4375    0.3125    0.0625
  band No.  band energies     occupation 
      1       6.6046      1.00000
      2       7.1066      1.00000
      3       8.5914      1.00000
      4       9.6319      1.00000
      5      10.6979      1.00000
      6      15.1715      0.00000
      7      20.2921      0.00000
      8      25.3309      0.00000
      9      28.7944      0.00000
     10      35.5095      0.00000
     11      44.8411      0.00000
     12      47.2792      0.00000

 k-point    19 :      -0.3125    0.3125    0.0625
  band No.  band energies     occupation 
      1       7.1365      1.00000
      2       7.2934      1.00000
      3       8.0889      1.00000
      4       9.4129      1.00000
      5      10.3446      1.00000
      6      15.5138      0.00000
      7      20.1294      0.00000
      8      23.9926      0.00000
      9      30.5812      0.00000
     10      36.3857      0.00000
     11      45.3234      0.00000
     12      47.8005      0.00000

 k-point    20 :      -0.1875    0.3125    0.0625
  band No.  band energies     occupation 
      1       6.6628      1.00000
      2       7.7459      1.00000
      3       7.9176      1.00000
      4       9.2160      1.00000
      5       9.9289      1.00000
      6      12.6114      0.00000
      7      23.0612      0.00000
      8      26.1461      0.00000
      9      33.2084      0.00000
     10      38.2008      0.00000
     11      42.4841      0.00000
     12      47.3043      0.00000

 k-point    21 :      -0.0625    0.3125    0.0625
  band No.  band energies     occupation 
      1       5.4093      1.00000
      2       8.0366      1.00000
      3       8.4617      1.00000
      4       8.8098      1.00000
      5       9.9968      1.00000
      6      10.7127      1.00000
      7      24.0510      0.00000
      8      31.9570      0.00000
      9      35.6102      0.00000
     10      38.5121      0.00000
     11      42.1688      0.00000
     12      43.7894      0.00000

 k-point    22 :       0.4375    0.4375    0.0625
  band No.  band energies     occupation 
      1       5.8377      1.00000
      2       6.5514      1.00000
      3      10.3066      1.00000
      4      10.3748      1.00000
      5      10.7240      1.00000
      6      12.4982      0.00000
      7      24.2200      0.00000
      8      26.6382      0.00000
      9      27.8289      0.00000
     10      32.8826      0.00000
     11      37.3565      0.00000
     12      48.2811      0.00000

 k-point    23 :      -0.4375    0.4375    0.0625
  band No.  band energies     occupation 
      1       5.9868      1.00000
      2       6.5804      1.00000
      3       9.8428      1.00000
      4      10.3180      1.00000
      5      10.8762      1.00000
      6      15.1458      0.00000
      7      22.0348      0.00000
      8      24.1535      0.00000
      9      26.6708      0.00000
     10      34.3961      0.00000
     11      39.2648      0.00000
     12      48.3026      0.00000

 k-point    24 :      -0.3125    0.4375    0.0625
  band No.  band energies     occupation 
      1       6.5420      1.00000
      2       7.0053      1.00000
      3       8.7791      1.00000
      4       9.8321      1.00000
      5      10.6828      1.00000
      6      17.2754      0.00000
      7      19.5770      0.00000
      8      22.8338      0.00000
      9      28.2905      0.00000
     10      35.3477      0.00000
     11      44.8293      0.00000
     12      48.1793      0.00000

 k-point    25 :      -0.1875    0.4375    0.0625
  band No.  band energies     occupation 
      1       6.7886      1.00000
      2       7.4820      1.00000
      3       8.4180      1.00000
      4       9.1434      1.00000
      5      10.5166      1.00000
      6      15.1231      0.00000
      7      18.5835      0.00000
      8      26.7841      0.00000
      9      30.9672      0.00000
     10      36.3842      0.00000
     11      44.0923      0.00000
     12      47.8392      0.00000

 k-point    26 :      -0.0625    0.4375    0.0625
  band No.  band energies     occupation 
      1       6.0400      1.00000
      2       8.1653      1.00000
      3       8.6055      1.00000
      4       9.1383      1.00000
      5      10.5656      1.00000
      6      12.2062      0.00000
      7      19.1009      0.00000
      8      31.7376      0.00000
      9      34.2110      0.00000
     10      36.8242      0.00000
     11      41.6823      0.00000
     12      43.8549      0.00000

 k-point    27 :      -0.4375   -0.4375    0.0625
  band No.  band energies     occupation 
      1       5.7578      1.00000
      2       6.4090      1.00000
      3      10.5087      1.00000
      4      10.6273      1.00000
      5      10.8902      1.00000
      6      14.0563      0.00000
      7      21.9761      0.00000
      8      26.0033      0.00000
      9      27.1556      0.00000
     10      32.7520      0.00000
     11      37.1690      0.00000
     12      48.3131      0.00000

 k-point    28 :      -0.3125   -0.4375    0.0625
  band No.  band energies     occupation 
      1       6.0805      1.00000
      2       6.7102      1.00000
      3       9.4737      1.00000
      4      10.2293      1.00000
      5      10.7113      1.00000
      6      13.5076      0.00000
      7      24.1364      0.00000
      8      24.9591      0.00000
      9      27.2775      0.00000
     10      34.5968      0.00000
     11      39.4655      0.00000
     12      48.2502      0.00000

 k-point    29 :      -0.1875   -0.4375    0.0625
  band No.  band energies     occupation 
      1       6.5117      1.00000
      2       7.3885      1.00000
      3       8.3702      1.00000
      4       9.3264      1.00000
      5      10.6331      1.00000
      6      13.1322      0.00000
      7      21.2603      0.00000
      8      28.3800      0.00000
      9      29.9358      0.00000
     10      35.9107      0.00000
     11      44.5678      0.00000
     12      46.5288      0.00000

 k-point    30 :      -0.3125   -0.3125    0.0625
  band No.  band energies     occupation 
      1       5.8374      1.00000
      2       6.8200      1.00000
      3       9.6580      1.00000
      4      10.0768      1.00000
      5      10.5021      1.00000
      6      10.9438      1.00000
      7      27.1271      0.00000
      8      27.9773      0.00000
      9      29.0940      0.00000
     10      33.1733      0.00000
     11      37.8552      0.00000
     12      48.2887      0.00000

 k-point    31 :      -0.1875   -0.3125    0.0625
  band No.  band energies     occupation 
      1       5.6743      1.00000
      2       7.2843      1.00000
      3       8.5705      1.00000
      4       9.5549      1.00000
      5      10.0768      1.00000
      6      10.8235      1.00000
      7      26.8910      0.00000
      8      29.4318      0.00000
      9      31.6169      0.00000
     10      35.7889      0.00000
     11      40.8967      0.00000
     12      47.4467      0.00000

 k-point    32 :      -0.1875   -0.1875    0.0625
  band No.  band energies     occupation 
      1       4.3807      1.00000
      2       7.5884      1.00000
      3       8.8864      1.00000
      4       9.2554      1.00000
      5       9.4893      1.00000
      6      10.0806      1.00000
      7      30.7116      0.00000
      8      32.9060      0.00000
      9      33.3026      0.00000
     10      35.0269      0.00000
     11      40.8351      0.00000
     12      48.1903      0.00000

 k-point    33 :       0.1875    0.1875    0.1875
  band No.  band energies     occupation 
      1       3.3008      1.00000
      2       8.1774      1.00000
      3       8.7216      1.00000
      4       8.7216      1.00000
      5       9.6870      1.00000
      6       9.6870      1.00000
      7      29.8849      0.00000
      8      35.7793      0.00000
      9      38.5377      0.00000
     10      38.5377      0.00000
     11      43.9529      0.00000
     12      44.4606      0.00000

 k-point    34 :       0.3125    0.1875    0.1875
  band No.  band energies     occupation 
      1       4.4022      1.00000
      2       7.9043      1.00000
      3       8.6617      1.00000
      4       8.9804      1.00000
      5       9.3644      1.00000
      6      10.3394      1.00000
      7      28.1851      0.00000
      8      30.9207      0.00000
      9      38.6365      0.00000
     10      40.6396      0.00000
     11      40.9242      0.00000
     12      43.1995      0.00000

 k-point    35 :       0.4375    0.1875    0.1875
  band No.  band energies     occupation 
      1       6.0342      1.00000
      2       7.7832      1.00000
      3       8.2484      1.00000
      4       9.0498      1.00000
      5       9.6323      1.00000
      6      11.5875      0.00000
      7      24.6166      0.00000
      8      27.5293      0.00000
      9      36.6509      0.00000
     10      37.4825      0.00000
     11      42.6322      0.00000
     12      44.7093      0.00000

 k-point    36 :      -0.4375    0.1875    0.1875
  band No.  band energies     occupation 
      1       6.5526      1.00000
      2       7.8081      1.00000
      3       8.5219      1.00000
      4       8.9202      1.00000
      5      10.3401      1.00000
      6      13.6685      0.00000
      7      19.4691      0.00000
      8      27.7628      0.00000
      9      34.2790      0.00000
     10      35.0003      0.00000
     11      44.8902      0.00000
     12      44.9352      0.00000

 k-point    37 :      -0.3125    0.1875    0.1875
  band No.  band energies     occupation 
      1       6.4389      1.00000
      2       7.6503      1.00000
      3       8.5697      1.00000
      4       9.0040      1.00000
      5      10.7073      1.00000
      6      13.4849      0.00000
      7      19.4235      0.00000
      8      29.1026      0.00000
      9      32.2885      0.00000
     10      34.6131      0.00000
     11      45.8825      0.00000
     12      46.1144      0.00000

 k-point    38 :      -0.1875    0.1875    0.1875
  band No.  band energies     occupation 
      1       5.8474      1.00000
      2       7.4497      1.00000
      3       8.4517      1.00000
      4       9.2122      1.00000
      5      10.5136      1.00000
      6      10.9228      1.00000
      7      24.5606      0.00000
      8      31.2119      0.00000
      9      31.8570      0.00000
     10      35.1207      0.00000
     11      43.2666      0.00000
     12      47.0554      0.00000

 k-point    39 :       0.3125    0.3125    0.1875
  band No.  band energies     occupation 
      1       4.9735      1.00000
      2       7.7748      1.00000
      3       8.5646      1.00000
      4       8.9525      1.00000
      5      10.0492      1.00000
      6      10.2519      1.00000
      7      26.1148      0.00000
      8      33.4728      0.00000
      9      33.8701      0.00000
     10      37.3380      0.00000
     11      43.7356      0.00000
     12      44.9856      0.00000

 k-point    40 :       0.4375    0.3125    0.1875
  band No.  band energies     occupation 
      1       6.1676      1.00000
      2       7.4836      1.00000
      3       8.1809      1.00000
      4       9.4136      1.00000
      5       9.9447      1.00000
      6      11.6420      0.00000
      7      24.8676      0.00000
      8      27.7079      0.00000
      9      32.2862      0.00000
     10      38.6329      0.00000
     11      42.0154      0.00000
     12      45.5222      0.00000

 k-point    41 :      -0.4375    0.3125    0.1875
  band No.  band energies     occupation 
      1       7.0181      1.00000
      2       7.4755      1.00000
      3       7.8184      1.00000
      4       9.4862      1.00000
      5      10.3054      1.00000
      6      14.1271      0.00000
      7      21.7611      0.00000
      8      25.0683      0.00000
      9      29.4987      0.00000
     10      39.5624      0.00000
     11      41.8894      0.00000
     12      47.1052      0.00000

 k-point    42 :      -0.3125    0.3125    0.1875
  band No.  band energies     occupation 
      1       6.9812      1.00000
      2       7.2401      1.00000
      3       8.1953      1.00000
      4       9.4306      1.00000
      5      10.6243      1.00000
      6      16.1231      0.00000
      7      18.8986      0.00000
      8      26.0103      0.00000
      9      27.6919      0.00000
     10      38.3454      0.00000
     11      43.3420      0.00000
     12      47.5814      0.00000

 k-point    43 :      -0.1875    0.3125    0.1875
  band No.  band energies     occupation 
      1       6.5572      1.00000
      2       7.2201      1.00000
      3       8.2464      1.00000
      4       9.7454      1.00000
      5      10.3470      1.00000
      6      12.9372      0.00000
      7      23.5716      0.00000
      8      26.4283      0.00000
      9      28.7042      0.00000
     10      37.8849      0.00000
     11      42.2218      0.00000
     12      46.0978      0.00000

 k-point    44 :       0.4375    0.4375    0.1875
  band No.  band energies     occupation 
      1       6.2709      1.00000
      2       7.1099      1.00000
      3       8.7010      1.00000
      4       9.5383      1.00000
      5      10.6964      1.00000
      6      12.3192      0.00000
      7      23.2499      0.00000
      8      28.0233      0.00000
      9      30.2224      0.00000
     10      34.2447      0.00000
     11      42.4263      0.00000
     12      48.0363      0.00000

 k-point    45 :      -0.4375    0.4375    0.1875
  band No.  band energies     occupation 
      1       6.4897      1.00000
      2       7.0204      1.00000
[...]
      5      12.5528      0.00000
      6      16.6048      0.00000
      7      21.8995      0.00000
      8      23.3334      0.00000
      9      28.7052      0.00000
     10      34.0853      0.00000
     11      42.1068      0.00000
     12      51.7615      0.00000

 k-point    49 :      -0.3125   -0.4375    0.1875
  band No.  band energies     occupation 
      1       7.5249      1.00000
      2       8.1313      1.00000
      3      10.1680      1.00000
      4      11.8116      0.00000
      5      12.6616      0.00000
      6      17.2664      0.00000
      7      22.3130      0.00000
      8      23.3227      0.00000
      9      25.8049      0.00000
     10      37.3684      0.00000
     11      42.7107      0.00000
     12      48.5787      0.00000

 k-point    50 :      -0.3125   -0.3125    0.1875
  band No.  band energies     occupation 
      1       7.3320      1.00000
      2       8.0617      1.00000
      3      10.3610      1.00000
      4      11.6603      0.00000
      5      12.6118      0.00000
      6      15.0733      0.00000
      7      22.6900      0.00000
      8      25.4100      0.00000
      9      29.3281      0.00000
     10      34.1986      0.00000
     11      42.3216      0.00000
     12      51.3383      0.00000

 k-point    51 :       0.3125    0.3125    0.3125
  band No.  band energies     occupation 
      1       5.3402      1.00000
      2       9.4481      1.00000
      3      10.2270      1.00000
      4      10.2270      1.00000
      5      11.9322      0.00000
      6      11.9322      0.00000
      7      24.3220      0.00000
      8      34.3230      0.00000
      9      38.1801      0.00000
     10      38.1801      0.00000
     11      42.3336      0.00000
     12      42.3336      0.00000

 k-point    52 :       0.4375    0.3125    0.3125
  band No.  band energies     occupation 
      1       6.3784      1.00000
      2       9.3020      1.00000
      3       9.8880      1.00000
      4      10.4057      1.00000
      5      11.7666      0.00000
      6      13.0244      0.00000
      7      22.9003      0.00000
      8      30.6208      0.00000
      9      36.2080      0.00000
     10      38.0943      0.00000
     11      42.7556      0.00000
     12      42.8326      0.00000

 k-point    53 :      -0.4375    0.3125    0.3125
  band No.  band energies     occupation 
      1       7.7531      1.00000
      2       8.9512      1.00000
      3       9.2308      1.00000
      4      10.9537      1.00000
      5      11.7938      0.00000
      6      15.0162      0.00000
      7      22.0842      0.00000
      8      25.3641      0.00000
      9      34.2570      0.00000
     10      35.1641      0.00000
     11      45.7839      0.00000
     12      46.8374      0.00000

 k-point    54 :      -0.3125    0.3125    0.3125
  band No.  band energies     occupation 
      1       8.0857      1.00000
      2       8.2291      1.00000
      3       9.6958      1.00000
      4      11.3890      0.00060
      5      12.2359      0.00000
      6      17.8311      0.00000
      7      19.4526      0.00000
      8      23.8560      0.00000
      9      31.1231      0.00000
     10      34.4458      0.00000
     11      48.4286      0.00000
     12      49.2824      0.00000

 k-point    55 :       0.4375    0.4375    0.3125
  band No.  band energies     occupation 
      1       6.7505      1.00000
      2       9.2894      1.00000
      3       9.9069      1.00000
      4      10.3917      1.00000
      5      12.5015      0.00000
      6      13.0256      0.00000
      7      21.2644      0.00000
      8      32.0327      0.00000
      9      34.0696      0.00000
     10      35.9431      0.00000
     11      43.8841      0.00000
     12      44.7297      0.00000

 k-point    56 :      -0.4375    0.4375    0.3125
  band No.  band energies     occupation 
      1       7.6572      1.00000
      2       8.7804      1.00000
      3       9.5372      1.00000
      4      10.8576      1.00000
      5      12.3107      0.00000
      6      15.1272      0.00000
      7      20.3737      0.00000
      8      28.2058      0.00000
      9      30.3191      0.00000
     10      38.2045      0.00000
     11      42.5389      0.00000
     12      49.4803      0.00000

 k-point    57 :      -0.3125    0.4375    0.3125
  band No.  band energies     occupation 
      1       8.1209      1.00000
      2       8.4509      1.00000
      3       9.3365      1.00000
      4      11.3735      0.00255
      5      12.4184      0.00000
      6      18.2532      0.00000
      7      19.7872      0.00000
      8      23.9522      0.00000
      9      27.5498      0.00000
     10      38.5785      0.00000
     11      44.7554      0.00000
     12      48.6300      0.00000

 k-point    58 :      -0.4375   -0.4375    0.3125
  band No.  band energies     occupation 
      1       7.8433      1.00000
      2       8.4444      1.00000
      3       9.7373      1.00000
      4      11.0523      1.00000
      5      12.4384      0.00000
      6      16.3630      0.00000
      7      19.4361      0.00000
      8      26.3646      0.00000
      9      31.6232      0.00000
     10      34.5041      0.00000
     11      47.5773      0.00000
     12      47.9791      0.00000

 k-point    59 :       0.4375    0.4375    0.4375
  band No.  band energies     occupation 
      1       6.5676      1.00000
      2      10.0243      1.00000
      3      10.0243      1.00000
      4      10.5512      1.00000
      5      12.4341      0.00000
      6      12.4341      0.00000
      7      19.8336      0.00000
      8      33.3084      0.00000
      9      37.7953      0.00000
     10      37.7953      0.00000
     11      40.5792      0.00000
     12      40.5792      0.00000

 k-point    60 :      -0.4375    0.4375    0.4375
  band No.  band energies     occupation 
      1       7.0790      1.00000
      2       9.4867      1.00000
      3      10.1538      1.00000
      4      10.2790      1.00000
      5      12.4029      0.00000
      6      14.0262      0.00000
      7      19.1930      0.00000
      8      30.9457      0.00000
      9      35.2449      0.00000
     10      35.3711      0.00000
     11      43.3079      0.00000
     12      43.6418      0.00000


--------------------------------------------------------------------------------------------------------


 soft charge-density along one line, spin component           1
         0         1         2         3         4         5         6         7         8         9
 total charge-density along one line
 
 soft charge-density along one line, spin component           2
         0         1         2         3         4         5         6         7         8         9
 total charge-density along one line
 
 pseudopotential strength for first ion, spin component:           1
  0.043  -0.000  -0.000  -0.000  -0.000  -0.615  -0.000  -0.000
 -0.000   0.043   0.000  -0.000  -0.000  -0.000  -0.615   0.000
 -0.000   0.000  -0.013   0.000   0.000  -0.000   0.000  -0.669
 -0.000  -0.000   0.000   0.043   0.000  -0.000  -0.000   0.000
 -0.000  -0.000   0.000   0.000  -0.013  -0.000  -0.000   0.000
 -0.615  -0.000  -0.000  -0.000  -0.000  -1.213  -0.000  -0.000
 -0.000  -0.615   0.000  -0.000  -0.000  -0.000  -1.213   0.000
 -0.000   0.000  -0.669   0.000   0.000  -0.000   0.000  -1.265
 -0.000  -0.000   0.000  -0.615   0.000  -0.000  -0.000   0.000
 -0.000  -0.000   0.000   0.000  -0.669  -0.000  -0.000   0.000
 -0.000  -0.000  -0.000  -0.000   0.000  -0.000  -0.000  -0.000
 -0.000  -0.000  -0.000  -0.000   0.000  -0.000  -0.000  -0.000
 -0.000   0.000  -0.000   0.000  -0.000  -0.000   0.000  -0.000
  0.000   0.000   0.000  -0.000  -0.000   0.000  -0.000   0.000
  0.000   0.000   0.000   0.000   0.000   0.000   0.000   0.000
 -0.000  -0.000   0.000  -0.000   0.000  -0.000   0.000   0.000
  0.000  -0.000   0.000  -0.000  -0.000   0.000   0.000  -0.000
  0.000  -0.000   0.000   0.000  -0.000   0.000   0.000   0.000
 pseudopotential strength for first ion, spin component:           2
  1.297   0.000  -0.000   0.000  -0.000   0.586   0.000  -0.000
  0.000   1.297   0.000   0.000  -0.000   0.000   0.586   0.000
 -0.000   0.000   1.358   0.000   0.000  -0.000   0.000   0.645
  0.000   0.000   0.000   1.297   0.000   0.000   0.000   0.000
 -0.000  -0.000   0.000   0.000   1.358  -0.000  -0.000   0.000
  0.586   0.000  -0.000   0.000  -0.000  -0.063   0.000  -0.000
  0.000   0.586   0.000   0.000  -0.000   0.000  -0.063   0.000
 -0.000   0.000   0.645   0.000   0.000  -0.000   0.000  -0.006
  0.000   0.000   0.000   0.586   0.000   0.000   0.000   0.000
 -0.000  -0.000   0.000   0.000   0.645  -0.000  -0.000   0.000
 -0.000  -0.000   0.000  -0.000   0.000  -0.000  -0.000   0.000
 -0.000  -0.000   0.000  -0.000   0.000  -0.000  -0.000   0.000
 -0.000  -0.000   0.000   0.000   0.000   0.000  -0.000   0.000
  0.000   0.000  -0.000  -0.000  -0.000   0.000  -0.000  -0.000
 -0.000   0.000  -0.000  -0.000  -0.000   0.000   0.000   0.000
 -0.000  -0.000   0.000   0.000   0.000  -0.000  -0.000   0.000
  0.000  -0.000   0.000  -0.000  -0.000   0.000   0.000  -0.000
  0.000   0.000   0.000   0.000  -0.000   0.000   0.000   0.000
 total augmentation occupancy for first ion, spin component:           1
  2.911   0.000   0.000   0.000  -0.000  -1.725  -0.000  -0.000  -0.000   0.000  -0.000   0.000   0.000   0.000   0.000   0.000
  0.000   2.911   0.000   0.000   0.000  -0.000  -1.725  -0.000  -0.000  -0.000   0.000   0.000   0.000   0.000   0.000   0.000
  0.000   0.000   3.294   0.000   0.000  -0.000  -0.000  -1.915   0.000   0.000  -0.000   0.000   0.000   0.000   0.000   0.000
  0.000   0.000   0.000   2.911  -0.000   0.000  -0.000   0.000  -1.725   0.000   0.000  -0.000   0.000   0.000   0.000   0.000
  0.000   0.000   0.000  -0.000   3.294   0.000   0.000   0.000   0.000  -1.915   0.000   0.000   0.000   0.000   0.000   0.000
 -1.725  -0.000   0.000  -0.000  -0.000   2.118  -0.000   0.000   0.000  -0.000   0.000  -0.000   0.000   0.000   0.000   0.000
 -0.000  -1.725  -0.000  -0.000   0.000  -0.000   2.118   0.000  -0.000   0.000  -0.000   0.000   0.000   0.000   0.000   0.000
 -0.000   0.000  -1.915  -0.000   0.000   0.000  -0.000   2.056  -0.000   0.000   0.000   0.000   0.000   0.000   0.000   0.000
 -0.000  -0.000  -0.000  -1.725   0.000   0.000  -0.000  -0.000   2.118  -0.000  -0.000   0.000   0.000   0.000   0.000   0.000
  0.000  -0.000   0.000   0.000  -1.915   0.000   0.000  -0.000  -0.000   2.056   0.000  -0.000   0.000   0.000   0.000   0.000
 -0.000   0.000   0.000   0.000   0.000   0.000  -0.000   0.000  -0.000  -0.000   2.497  -0.308   0.000   0.000   0.000   0.000
  0.000   0.000   0.000  -0.000  -0.000  -0.000   0.000   0.000   0.000  -0.000  -0.308   0.046   0.000   0.000   0.000   0.000
  0.000   0.000   0.000   0.000   0.000   0.000   0.000   0.000   0.000   0.000   0.000   0.000   0.351   0.000  -0.000  -0.034
  0.000   0.000   0.000   0.000   0.000   0.000   0.000   0.000   0.000   0.000   0.000   0.000   0.000   0.351  -0.000  -0.000
  0.000   0.000   0.000   0.000   0.000   0.000   0.000   0.000   0.000   0.000   0.000   0.000  -0.000  -0.000   0.351   0.000
  0.000   0.000   0.000   0.000   0.000   0.000   0.000   0.000   0.000   0.000   0.000   0.000  -0.034  -0.000   0.000   0.004
  0.000   0.000   0.000   0.000   0.000   0.000   0.000   0.000   0.000   0.000   0.000   0.000  -0.000  -0.034  -0.000   0.000
  0.000   0.000   0.000   0.000   0.000   0.000   0.000   0.000   0.000   0.000   0.000   0.000   0.000   0.000  -0.034   0.000
 total augmentation occupancy for first ion, spin component:           2
  2.028   0.000   0.000   0.000  -0.000  -0.996  -0.000  -0.000  -0.000   0.000   0.000  -0.000   0.000   0.000   0.000   0.000
  0.000   2.028  -0.000   0.000   0.000  -0.000  -0.996  -0.000  -0.000  -0.000  -0.000   0.000   0.000   0.000   0.000   0.000
  0.000   0.000   2.135  -0.000   0.000   0.000  -0.000  -1.001  -0.000  -0.000   0.000   0.000   0.000   0.000   0.000   0.000
  0.000   0.000   0.000   2.028  -0.000  -0.000  -0.000  -0.000  -0.996   0.000  -0.000   0.000   0.000   0.000   0.000   0.000
  0.000   0.000   0.000  -0.000   2.135  -0.000   0.000  -0.000   0.000  -1.001  -0.000  -0.000   0.000   0.000   0.000   0.000
 -0.996  -0.000  -0.000  -0.000  -0.000   0.288   0.000   0.000   0.000   0.000  -0.000   0.000   0.000   0.000   0.000   0.000
 -0.000  -0.996   0.000  -0.000   0.000   0.000   0.288   0.000   0.000   0.000  -0.000  -0.000   0.000   0.000   0.000   0.000
  0.000   0.000  -1.001  -0.000  -0.000   0.000  -0.000   0.288   0.000   0.000   0.000   0.000   0.000   0.000   0.000   0.000
 -0.000  -0.000   0.000  -0.996   0.000  -0.000   0.000   0.000   0.288  -0.000   0.000  -0.000   0.000   0.000   0.000   0.000
  0.000  -0.000   0.000   0.000  -1.001   0.000   0.000  -0.000  -0.000   0.288   0.000   0.000   0.000   0.000   0.000   0.000
  0.000  -0.000   0.000  -0.000   0.000  -0.000   0.000   0.000   0.000  -0.000  -0.306   0.094   0.000   0.000   0.000   0.000
 -0.000   0.000   0.000  -0.000  -0.000   0.000  -0.000   0.000  -0.000   0.000   0.094  -0.017   0.000   0.000   0.000   0.000
  0.000   0.000   0.000   0.000   0.000   0.000   0.000   0.000   0.000   0.000   0.000   0.000  -0.035  -0.000   0.000   0.005
  0.000   0.000   0.000   0.000   0.000   0.000   0.000   0.000   0.000   0.000   0.000   0.000  -0.000  -0.035  -0.000   0.000
  0.000   0.000   0.000   0.000   0.000   0.000   0.000   0.000   0.000   0.000   0.000   0.000   0.000  -0.000  -0.035   0.000
  0.000   0.000   0.000   0.000   0.000   0.000   0.000   0.000   0.000   0.000   0.000   0.000   0.005   0.000  -0.000  -0.001
  0.000   0.000   0.000   0.000   0.000   0.000   0.000   0.000   0.000   0.000   0.000   0.000   0.000   0.005   0.000   0.000
  0.000   0.000   0.000   0.000   0.000   0.000   0.000   0.000   0.000   0.000   0.000   0.000   0.000  -0.000   0.005   0.000


------------------------ aborting loop because EDIFF is reached ----------------------------------------





 total charge

# of ion       s       p       d       tot
------------------------------------------
    1        0.519   0.583   7.303   8.405



 magnetization (x)

# of ion       s       p       d       tot
------------------------------------------
    1       -0.014  -0.052   1.642   1.576
 
    CHARGE:  cpu time      0.0092: real time      0.0093
    FORLOC:  cpu time      0.0000: real time      0.0000
    FORNL :  cpu time      0.0058: real time      0.0058
    STRESS:  cpu time      0.0225: real time      0.0226
    FORCOR:  cpu time      0.0024: real time      0.0024
    FORHAR:  cpu time      0.0003: real time      0.0003
    MIXING:  cpu time      0.0002: real time      0.0002
    OFIELD:  cpu time      0.0000: real time      0.0000

  FORCE on cell =-STRESS in cart. coord.  units (eV):
  Direction    XX          YY          ZZ          XY          YZ          ZX
  --------------------------------------------------------------------------------------
  Alpha Z    41.68085    41.68085    41.68085
  Ewald    -259.21745  -259.21745  -259.21745     0.00000    -0.00000     0.00000
  Hartree    41.81799    41.81799    41.81799     0.00000     0.00000     0.00000
  E(xc)     -46.49571   -46.49571   -46.49571     0.00000     0.00000     0.00000
  Local      -5.09514    -5.09514    -5.09514     0.00005     0.00005     0.00005
  n-local    -3.20129    -2.23032    -5.53435     1.93933    -2.14788    -0.05358
  augment   155.10599   155.10599   155.10599    -0.00005    -0.00005    -0.00005
  Kinetic    76.00695    75.48384    79.03194    -0.73430     0.74703    -0.12487
  Fock        0.00000     0.00000     0.00000     0.00000     0.00000     0.00000
  -------------------------------------------------------------------------------------
  Total       0.98212     0.98212     0.98212    -0.00000     0.00000    -0.00000
  in kB     154.83915   154.83915   154.83915    -0.00000     0.00000    -0.00000
  external pressure =      154.84 kB  Pullay stress =        0.00 kB


 VOLUME and BASIS-vectors are now :
 -----------------------------------------------------------------------------
  energy-cutoff  :      400.00
  volume of cell :       10.16
      direct lattice vectors                 reciprocal lattice vectors
     0.000000000  1.719182206  1.719182206    -0.290835956  0.290835956  0.290835956
     1.719182206  0.000000000  1.719182206     0.290835956 -0.290835956  0.290835956
     1.719182206  1.719182206  0.000000000     0.290835956  0.290835956 -0.290835956

  length of vectors
     2.431290791  2.431290791  2.431290791     0.503742652  0.503742652  0.503742652


 FORCES acting on ions
    electron-ion (+dipol)            ewald-force                    non-local-force                 convergence-correction
 -----------------------------------------------------------------------------------------------
   0.771E-15 0.792E-15 -.334E-15   0.408E-15 -.594E-15 0.111E-14   -.331E-23 0.331E-23 0.331E-23   0.168E-14 0.481E-15 0.496E-14
 -----------------------------------------------------------------------------------------------
   0.771E-15 0.792E-15 -.334E-15   0.408E-15 -.594E-15 0.111E-14   -.331E-23 0.331E-23 0.331E-23   0.168E-14 0.481E-15 0.496E-14
 
 
 POSITION                                       TOTAL-FORCE (eV/Angst)
 -----------------------------------------------------------------------------------
      0.00000      0.00000      0.00000        -0.000000     -0.000000      0.000000
 -----------------------------------------------------------------------------------
    total drift:                                0.000000      0.000000      0.000000


--------------------------------------------------------------------------------------------------------



  FREE ENERGIE OF THE ION-ELECTRON SYSTEM (eV)
  ---------------------------------------------------
  free  energy   TOTEN  =        -6.98791298 eV

  energy  without entropy=       -6.98681424  energy(sigma->0) =       -6.98736361
 


--------------------------------------------------------------------------------------------------------


    POTLOK:  cpu time      0.0070: real time      0.0071


--------------------------------------------------------------------------------------------------------




--------------------------------------------------------------------------------------------------------


  
 reached required accuracy - stopping structural energy minimisation
 writing wavefunctions
     LOOP+:  cpu time      3.6572: real time      3.6915
    4ORBIT:  cpu time      0.0000: real time      0.0000



 total charge

# of ion       s       p       d       tot
------------------------------------------
    1        0.519   0.583   7.303   8.405



 magnetization (x)

# of ion       s       p       d       tot
------------------------------------------
    1       -0.014  -0.052   1.642   1.576
 

 total amount of memory used by VASP MPI-rank0    30856. kBytes
=======================================================================

   base      :      30000. kBytes
   nonl-proj :        242. kBytes
   fftplans  :         90. kBytes
   grid      :        217. kBytes
   one-center:         31. kBytes
   wavefun   :        276. kBytes
 
  
  
 General timing and accounting informations for this job:
 ========================================================
  
                  Total CPU time used (sec):        4.577
                            User time (sec):        4.040
                          System time (sec):        0.537
                         Elapsed time (sec):        5.922
  
                   Maximum memory used (kb):      234452.
                   Average memory used (kb):          N/A
  
                          Minor page faults:        18262
                          Major page faults:           96
                 Voluntary context switches:         2253
