Pt-fcc                                  
   1.00000000000000     
     0.000000    1.919483    1.919483
     1.919483    0.000000    1.919483
     1.919483    1.919483    0.000000
   Pt
     1
Direct
  0.000000  0.000000  0.000000
 
   36   36   36
  123.81      123.68      122.90      120.44      115.10      106.08      93.413      78.078      61.766      46.356    
  33.354      23.521      16.790      12.469      9.6373      7.8084      6.7129      6.1408      5.9642      6.1408    
  6.7129      7.8084      9.6373      12.469      16.790      23.521      33.354      46.356      61.766      78.078    
  93.413      106.08      115.10      120.44      122.90      123.68      123.68      123.22      121.58      117.61    
  110.31      99.290      85.091      69.101      53.153      38.966      27.669      19.572      14.247      10.819    
  8.5534      7.1404      6.3382      5.9790      5.9790      6.3382      7.1404      8.5534      10.819      14.247    
  19.572      27.669      38.966      53.153      69.101      85.091      99.290      110.31      117.61      121.58    
  123.22      123.68      122.90      121.58      118.38      112.30      102.73      89.831      74.631      58.763    
  43.981      31.647      22.397      16.096      12.033      9.3435      7.6066      6.5657      6.0215      5.8534    
  6.0215      6.5657      7.6066      9.3435      12.033      16.096      22.397      31.647      43.981      58.763    
  74.631      89.831      102.73      112.30      118.38      121.58      122.90      123.22      120.44      117.61    
  112.30      103.85      92.203      78.044      62.735      47.923      35.056      25.001      17.886      13.209    
  10.132      8.0881      6.8125      6.0868      5.7611      5.7611      6.0868      6.8125      8.0881      10.132    
  13.209      17.886      25.001      35.056      47.923      62.735      78.044      92.203      103.85      112.30    
  117.61      120.44      121.58      121.58      115.10      110.31      102.73      92.203      79.194      64.787    
  50.434      37.546      27.106      19.447      14.274      10.863      8.5538      7.0633      6.1675      5.6972    
  5.5515      5.6972      6.1675      7.0633      8.5538      10.863      14.274      19.447      27.106      37.546    
  50.434      64.787      79.194      92.203      102.73      110.31      115.10      117.61      118.38      117.61    
  106.08      99.290      89.831      78.044      64.787      51.295      38.858      28.474      20.607      15.132    
  11.477      8.9678      7.2989      6.2538      5.6555      5.3855      5.3855      5.6555      6.2538      7.2989    
  8.9678      11.477      15.132      20.607      28.474      38.858      51.295      64.787      78.044      89.831    
  99.290      106.08      110.31      112.30      112.30      110.31      93.413      85.091      74.631      62.735    
  50.434      38.858      28.949      21.225      15.692      11.921      9.2947      7.4990      6.3355      5.6301    
  5.2563      5.1398      5.2563      5.6301      6.3355      7.4990      9.2947      11.921      15.692      21.225    
  28.949      38.858      50.434      62.735      74.631      85.091      93.413      99.290      102.73      103.85    
  102.73      99.290      78.078      69.101      58.763      47.923      37.546      28.474      21.225      15.887    
  12.154      9.5043      7.6447      6.4025      5.6158      5.1592      4.9507      4.9507      5.1592      5.6158    
  6.4025      7.6447      9.5043      12.154      15.887      21.225      28.474      37.546      47.923      58.763    
  69.101      78.078      85.091      89.831      92.203      92.203      89.831      85.091      61.766      53.153    
  43.981      35.056      27.106      20.607      15.692      12.154      9.5765      7.7215      6.4465      5.6087    
  5.0911      4.8118      4.7239      4.8118      5.0911      5.6087      6.4465      7.7215      9.5765      12.154    
  15.692      20.607      27.106      35.056      43.981      53.153      61.766      69.101      74.631      78.044    
  79.194      78.044      74.631      69.101      46.356      38.966      31.647      25.001      19.447      15.132    
  11.921      9.5043      7.7215      6.4618      5.6058      5.0505      4.7201      4.5663      4.5663      4.7201    
  5.0505      5.6058      6.4618      7.7215      9.5043      11.921      15.132      19.447      25.001      31.647    
  38.966      46.356      53.153      58.763      62.735      64.787      64.787      62.735      58.763      53.153    
  33.354      27.669      22.397      17.886      14.274      11.477      9.2947      7.6447      6.4465      5.6058    
  5.0370      4.6743      4.4732      4.4087      4.4732      4.6743      5.0370      5.6058      6.4465      7.6447    
  9.2947      11.477      14.274      17.886      22.397      27.669      33.354      38.966      43.981      47.923    
  50.434      51.295      50.434      47.923      43.981      38.966      23.521      19.572      16.096      13.209    
  10.863      8.9678      7.4990      6.4025      5.6087      5.0505      4.6743      4.4423      4.3315      4.3315    
  4.4423      4.6743      5.0505      5.6087      6.4025      7.4990      8.9678      10.863      13.209      16.096    
  19.572      23.521      27.669      31.647      35.056      37.546      38.858      38.858      37.546      35.056    
  31.647      27.669      16.790      14.247      12.033      10.132      8.5538      7.2989      6.3355      5.6158    
  5.0911      4.7201      4.4732      4.3315      4.2853      4.3315      4.4732      4.7201      5.0911      5.6158    
  6.3355      7.2989      8.5538      10.132      12.033      14.247      16.790      19.572      22.397      25.001    
  27.106      28.474      28.949      28.474      27.106      25.001      22.397      19.572      12.469      10.819    
  9.3435      8.0881      7.0633      6.2538      5.6301      5.1592      4.8118      4.5663      4.4087      4.3315    
  4.3315      4.4087      4.5663      4.8118      5.1592      5.6301      6.2538      7.0633      8.0881      9.3435    
  10.819      12.469      14.247      16.096      17.886      19.447      20.607      21.225      21.225      20.607    
  19.447      17.886      16.096      14.247      9.6373      8.5534      7.6066      6.8125      6.1675      5.6555    
  5.2563      4.9507      4.7239      4.5663      4.4732      4.4423      4.4732      4.5663      4.7239      4.9507    
  5.2563      5.6555      6.1675      6.8125      7.6066      8.5534      9.6374      10.819      12.033      13.209    
  14.274      15.132      15.692      15.887      15.692      15.132      14.274      13.209      12.033      10.819    
  7.8084      7.1404      6.5657      6.0868      5.6972      5.3855      5.1398      4.9507      4.8118      4.7201    
  4.6743      4.6743      4.7201      4.8118      4.9507      5.1398      5.3855      5.6972      6.0868      6.5657    
  7.1404      7.8084      8.5534      9.3435      10.132      10.863      11.477      11.921      12.154      12.154    
  11.921      11.477      10.863      10.132      9.3435      8.5534      6.7129      6.3382      6.0215      5.7611    
  5.5515      5.3855      5.2563      5.1592      5.0911      5.0505      5.0370      5.0505      5.0911      5.1592    
  5.2563      5.3855      5.5515      5.7611      6.0215      6.3382      6.7129      7.1404      7.6066      8.0881    
  8.5538      8.9678      9.2947      9.5043      9.5765      9.5043      9.2947      8.9678      8.5538      8.0881    
  7.6066      7.1404      6.1408      5.9790      5.8534      5.7611      5.6972      5.6555      5.6301      5.6158    
  5.6087      5.6058      5.6058      5.6087      5.6158      5.6301      5.6555      5.6972      5.7611      5.8533    
  5.9790      6.1408      6.3382      6.5657      6.8125      7.0633      7.2989      7.4990      7.6447      7.7215    
  7.7215      7.6447      7.4990      7.2989      7.0633      6.8125      6.5657      6.3382      5.9642      5.9790    
  6.0215      6.0868      6.1675      6.2538      6.3355      6.4025      6.4465      6.4618      6.4465      6.4025    
  6.3355      6.2538      6.1675      6.0868      6.0215      5.9790      5.9642      5.9790      6.0215      6.0868    
  6.1675      6.2538      6.3355      6.4025      6.4465      6.4618      6.4465      6.4025      6.3355      6.2538    
  6.1675      6.0868      6.0215      5.9790      6.1408      6.3382      6.5657      6.8125      7.0633      7.2989    
  7.4990      7.6447      7.7215      7.7215      7.6447      7.4990      7.2989      7.0633      6.8125      6.5657    
  6.3382      6.1408      5.9790      5.8533      5.7611      5.6972      5.6555      5.6301      5.6158      5.6087    
  5.6058      5.6058      5.6087      5.6158      5.6301      5.6555      5.6972      5.7611      5.8534      5.9790    
  6.7129      7.1404      7.6066      8.0881      8.5538      8.9678      9.2947      9.5043      9.5765      9.5043    
  9.2947      8.9678      8.5538      8.0881      7.6066      7.1404      6.7129      6.3382      6.0215      5.7611    
  5.5515      5.3855      5.2563      5.1592      5.0911      5.0505      5.0370      5.0505      5.0911      5.1592    
  5.2563      5.3855      5.5515      5.7611      6.0215      6.3382      7.8084      8.5534      9.3435      10.132    
  10.863      11.477      11.921      12.154      12.154      11.921      11.477      10.863      10.132      9.3435    
  8.5534      7.8084      7.1404      6.5657      6.0868      5.6972      5.3855      5.1398      4.9507      4.8118    
  4.7201      4.6743      4.6743      4.7201      4.8118      4.9507      5.1398      5.3855      5.6972      6.0868    
  6.5657      7.1404      9.6373      10.819      12.033      13.209      14.274      15.132      15.692      15.887    
  15.692      15.132      14.274      13.209      12.033      10.819      9.6374      8.5534      7.6066      6.8125    
  6.1675      5.6555      5.2563      4.9507      4.7239      4.5663      4.4732      4.4423      4.4732      4.5663    
  4.7239      4.9507      5.2563      5.6555      6.1675      6.8125      7.6066      8.5534      12.469      14.247    
  16.096      17.886      19.447      20.607      21.225      21.225      20.607      19.447      17.886      16.096    
  14.247      12.469      10.819      9.3435      8.0881      7.0633      6.2538      5.6301      5.1592      4.8118    
  4.5663      4.4087      4.3315      4.3315      4.4087      4.5663      4.8118      5.1592      5.6301      6.2538    
  7.0633      8.0881      9.3435      10.819      16.790      19.572      22.397      25.001      27.106      28.474    
  28.949      28.474      27.106      25.001      22.397      19.572      16.790      14.247      12.033      10.132    
  8.5538      7.2989      6.3355      5.6158      5.0911      4.7201      4.4732      4.3315      4.2853      4.3315    
  4.4732      4.7201      5.0911      5.6158      6.3355      7.2989      8.5538      10.132      12.033      14.247    
  23.521      27.669      31.647      35.056      37.546      38.858      38.858      37.546      35.056      31.647    
  27.669      23.521      19.572      16.096      13.209      10.863      8.9678      7.4990      6.4025      5.6087    
  5.0505      4.6743      4.4423      4.3315      4.3315      4.4423      4.6743      5.0505      5.6087      6.4025    
  7.4990      8.9678      10.863      13.209      16.096      19.572      33.354      38.966      43.981      47.923    
  50.434      51.295      50.434      47.923      43.981      38.966      33.354      27.669      22.397      17.886    
  14.274      11.477      9.2947      7.6447      6.4465      5.6058      5.0370      4.6743      4.4732      4.4087    
  4.4732      4.6743      5.0370      5.6058      6.4465      7.6447      9.2947      11.477      14.274      17.886    
  22.397      27.669      46.356      53.153      58.763      62.735      64.787      64.787      62.735      58.763    
  53.153      46.356      38.966      31.647      25.001      19.447      15.132      11.921      9.5043      7.7215    
  6.4618      5.6058      5.0505      4.7201      4.5663      4.5663      4.7201      5.0505      5.6058      6.4618    
  7.7215      9.5043      11.921      15.132      19.447      25.001      31.647      38.966      61.766      69.101    
  74.631      78.044      79.194      78.044      74.631      69.101      61.766      53.153      43.981      35.056    
  27.106      20.607      15.692      12.154      9.5765      7.7215      6.4465      5.6087      5.0911      4.8118    
  4.7239      4.8118      5.0911      5.6087      6.4465      7.7215      9.5765      12.154      15.692      20.607    
  27.106      35.056      43.981      53.153      78.078      85.091      89.831      92.203      92.203      89.831    
  85.091      78.078      69.101      58.763      47.923      37.546      28.474      21.225      15.887      12.154    
  9.5043      7.6447      6.4025      5.6158      5.1592      4.9507      4.9507      5.1592      5.6158      6.4025    
  7.6447      9.5043      12.154      15.887      21.225      28.474      37.546      47.923      58.763      69.101    
  93.413      99.290      102.73      103.85      102.73      99.290      93.413      85.091      74.631      62.735    
  50.434      38.858      28.949      21.225      15.692      11.921      9.2947      7.4990      6.3355      5.6301    
  5.2563      5.1398      5.2563      5.6301      6.3355      7.4990      9.2947      11.921      15.692      21.225    
  28.949      38.858      50.434      62.735      74.631      85.091      106.08      110.31      112.30      112.30    
  110.31      106.08      99.290      89.831      78.044      64.787      51.295      38.858      28.474      20.607    
  15.132      11.477      8.9678      7.2989      6.2538      5.6555      5.3855      5.3855      5.6555      6.2538    
  7.2989      8.9678      11.477      15.132      20.607      28.474      38.858      51.295      64.787      78.044    
  89.831      99.290      115.10      117.61      118.38      117.61      115.10      110.31      102.73      92.203    
  79.194      64.787      50.434      37.546      27.106      19.447      14.274      10.863      8.5538      7.0633    
  6.1675      5.6972      5.5515      5.6972      6.1675      7.0633      8.5538      10.863      14.274      19.447    
  27.106      37.546      50.434      64.787      79.194      92.203      102.73      110.31      120.44      121.58    
  121.58      120.44      117.61      112.30      103.85      92.203      78.044      62.735      47.923      35.056    
  25.001      17.886      13.209      10.132      8.0881      6.8125      6.0868      5.7611      5.7611      6.0868    
  6.8125      8.0881      10.132      13.209      17.886      25.001      35.056      47.923      62.735      78.044    
  92.203      103.85      112.30      117.61      122.90      123.22      122.90      121.58      118.38      112.30    
  102.73      89.831      74.631      58.763      43.981      31.647      22.397      16.096      12.033      9.3435    
  7.6066      6.5657      6.0215      5.8534      6.0215      6.5657      7.6066      9.3435      12.033      16.096    
  22.397      31.647      43.981      58.763      74.631      89.831      102.73      112.30      118.38      121.58    
  123.68      123.68      123.22      121.58      117.61      110.31      99.290      85.091      69.101      53.153    
  38.966      27.669      19.572      14.247      10.819      8.5534      7.1404      6.3382      5.9790      5.9790    
  6.3382      7.1404      8.5534      10.819      14.247      19.572      27.669      38.966      53.153      69.101    
  85.091      99.290      110.31      117.61      121.58      123.22      123.68      123.22      121.58      117.61    
  110.31      99.290      85.091      69.101      53.153      38.966      27.669      19.572      14.247      10.819    
  8.5534      7.1404      6.3382      5.9790      5.9790      6.3382      7.1404      8.5534      10.819      14.247    
  19.572      27.669      38.966      53.153      69.101      85.091      99.290      110.31      117.61      121.58    
  123.22      123.68      123.22      122.02      118.98      113.06      103.62      90.782      75.556      59.582    
  44.642      32.132      22.722      16.300      12.164      9.4347      7.6717      6.6152      6.0630      5.8925    
  6.0630      6.6152      7.6717      9.4347      12.164      16.300      22.722      32.132      44.642      59.582    
  75.556      90.782      103.62      113.06      118.98      122.02      123.22      123.51      121.58      118.98    
  113.92      105.69      94.150      79.957      64.466      49.358      36.143      25.753      18.367      13.512    
  10.339      8.2329      6.9189      6.1718      5.8367      5.8367      6.1718      6.9189      8.2329      10.339    
  13.512      18.367      25.753      36.143      49.358      64.466      79.957      94.150      105.69      113.92    
  118.98      121.58      122.59      122.59      117.61      113.06      105.69      95.259      82.172      67.496    
  52.715      39.313      28.361      20.270      14.789      11.205      8.7914      7.2333      6.2977      5.8072    
  5.6554      5.8072      6.2977      7.2333      8.7914      11.205      14.789      20.270      28.361      39.313    
  52.715      67.496      82.172      95.259      105.69      113.06      117.61      119.95      120.65      119.95    
  110.31      103.62      94.150      82.172      68.521      54.455      41.339      30.271      21.808      15.891    
  11.969      9.3081      7.5376      6.4304      5.7978      5.5129      5.5129      5.7978      6.4304      7.5376    
  9.3081      11.969      15.891      21.808      30.271      41.339      54.455      68.521      82.172      94.150    
  103.62      110.31      114.41      116.32      116.32      114.41      99.290      90.782      79.957      67.496    
  54.455      42.035      31.280      22.810      16.706      12.570      9.7415      7.8082      6.5577      5.8019    
  5.4028      5.2786      5.4028      5.8019      6.5577      7.8082      9.7415      12.570      16.706      22.810    
  31.280      42.035      54.455      67.496      79.957      90.782      99.290      105.23      108.68      109.80    
  108.68      105.23      85.091      75.556      64.466      52.715      41.339      31.280      23.158      17.140    
  12.958      10.054      8.0218      6.6672      5.8130      5.3196      5.0953      5.0953      5.3196      5.8130    
  6.6672      8.0218      10.054      12.958      17.140      23.158      31.280      41.339      52.715      64.466    
  75.556      85.091      92.478      97.436      99.905      99.905      97.436      92.478      69.101      59.582    
  49.358      39.313      30.271      22.810      17.140      13.092      10.218      8.1588      6.7474      5.8253    
  5.2596      4.9564      4.8612      4.9564      5.2596      5.8253      6.7474      8.1588      10.218      13.092    
  17.140      22.810      30.271      39.313      49.358      59.582      69.101      77.149      83.183      86.892    
  88.140      86.892      83.183      77.149      53.153      44.642      36.143      28.361      21.808      16.706    
  12.958      10.218      8.2059      6.7899      5.8346      5.2205      4.8583      4.6909      4.6909      4.8583    
  5.2205      5.8346      6.7899      8.2059      10.218      12.958      16.706      21.808      28.361      36.143    
  44.642      53.153      60.931      67.318      71.825      74.148      74.148      71.825      67.318      60.931    
  38.966      32.132      25.753      20.270      15.891      12.570      10.054      8.1588      6.7899      5.8380    
  5.2011      4.7996      4.5791      4.5088      4.5791      4.7996      5.2011      5.8380      6.7899      8.1588    
  10.054      12.570      15.891      20.270      25.753      32.131      38.966      45.674      51.638      56.311    
  59.281      60.298      59.281      56.311      51.638      45.674      27.669      22.722      18.367      14.789    
  11.969      9.7415      8.0218      6.7474      5.8346      5.2011      4.7800      4.5235      4.4020      4.4020    
  4.5235      4.7800      5.2011      5.8346      6.7474      8.0218      9.7415      11.969      14.789      18.367    
  22.722      27.669      32.850      37.798      42.026      45.106      46.727      46.727      45.106      42.026    
  37.798      32.850      19.572      16.300      13.512      11.205      9.3081      7.8082      6.6672      5.8253    
  5.2205      4.7996      4.5235      4.3668      4.3160      4.3668      4.5235      4.7996      5.2205      5.8253    
  6.6672      7.8082      9.3081      11.205      13.512      16.300      19.572      23.181      26.849      30.226    
  32.952      34.723      35.337      34.723      32.952      30.226      26.849      23.181      14.247      12.164    
  10.339      8.7914      7.5376      6.5577      5.8130      5.2596      4.8583      4.5791      4.4020      4.3160    
  4.3160      4.4020      4.5791      4.8583      5.2596      5.8130      6.5577      7.5376      8.7914      10.339    
  12.164      14.247      16.576      19.043      21.452      23.561      25.130      25.966      25.966      25.130    
  23.561      21.452      19.043      16.576      10.819      9.4347      8.2329      7.2333      6.4304      5.8019    
  5.3196      4.9564      4.6909      4.5088      4.4020      4.3668      4.4020      4.5088      4.6909      4.9564    
  5.3196      5.8019      6.4304      7.2333      8.2329      9.4347      10.819      12.332      13.917      15.504    
  16.970      18.165      18.950      19.223      18.950      18.165      16.970      15.504      13.917      12.332    
  8.5534      7.6717      6.9189      6.2977      5.7978      5.4028      5.0953      4.8612      4.6909      4.5791    
  4.5235      4.5235      4.5791      4.6909      4.8612      5.0953      5.4028      5.7978      6.2977      6.9189    
  7.6717      8.5534      9.5426      10.596      11.650      12.632      13.469      14.086      14.415      14.415    
  14.086      13.469      12.632      11.650      10.596      9.5426      7.1404      6.6152      6.1718      5.8072    
  5.5129      5.2786      5.0953      4.9564      4.8583      4.7996      4.7800      4.7996      4.8583      4.9564    
  5.0953      5.2786      5.5129      5.8072      6.1718      6.6152      7.1404      7.7408      8.3972      9.0769    
  9.7354      10.322      10.785      11.083      11.185      11.083      10.785      10.322      9.7354      9.0769    
  8.3972      7.7408      6.3382      6.0630      5.8367      5.6554      5.5129      5.4028      5.3196      5.2596    
  5.2205      5.2011      5.2011      5.2205      5.2596      5.3196      5.4028      5.5129      5.6554      5.8367    
  6.0630      6.3382      6.6616      7.0260      7.4163      7.8098      8.1780      8.4901      8.7172      8.8368    
  8.8368      8.7172      8.4901      8.1780      7.8098      7.4163      7.0260      6.6616      5.9790      5.8925    
  5.8367      5.8072      5.7978      5.8019      5.8130      5.8253      5.8346      5.8380      5.8346      5.8253    
  5.8130      5.8019      5.7978      5.8072      5.8367      5.8925      5.9790      6.0978      6.2471      6.4206    
  6.6076      6.7940      6.9633      7.0990      7.1868      7.2173      7.1868      7.0990      6.9633      6.7940    
  6.6076      6.4206      6.2471      6.0978      5.9790      6.0630      6.1718      6.2977      6.4304      6.5577    
  6.6672      6.7474      6.7899      6.7899      6.7474      6.6672      6.5577      6.4304      6.2977      6.1718    
  6.0630      5.9790      5.9238      5.8981      5.8995      5.9226      5.9604      6.0045      6.0468      6.0798    
  6.0977      6.0977      6.0798      6.0468      6.0045      5.9604      5.9226      5.8995      5.8981      5.9238    
  6.3382      6.6152      6.9189      7.2333      7.5376      7.8082      8.0218      8.1588      8.2059      8.1588    
  8.0218      7.8082      7.5376      7.2333      6.9189      6.6152      6.3382      6.0978      5.8981      5.7384    
  5.6147      5.5217      5.4536      5.4055      5.3738      5.3557      5.3498      5.3557      5.3738      5.4055    
  5.4536      5.5217      5.6147      5.7384      5.8981      6.0978      7.1404      7.6717      8.2329      8.7914    
  9.3081      9.7415      10.054      10.218      10.218      10.054      9.7415      9.3081      8.7914      8.2329    
  7.6717      7.1404      6.6616      6.2471      5.8995      5.6147      5.3855      5.2041      5.0639      4.9608    
  4.8927      4.8587      4.8587      4.8927      4.9608      5.0639      5.2041      5.3855      5.6147      5.8995    
  6.2471      6.6616      8.5534      9.4347      10.339      11.205      11.969      12.570      12.958      13.092    
  12.958      12.570      11.969      11.205      10.339      9.4347      8.5534      7.7408      7.0260      6.4206    
  5.9226      5.5217      5.2041      4.9571      4.7712      4.6408      4.5630      4.5372      4.5630      4.6408    
  4.7712      4.9571      5.2041      5.5217      5.9226      6.4206      7.0260      7.7408      10.819      12.164    
  13.512      14.789      15.891      16.706      17.140      17.140      16.706      15.891      14.789      13.512    
  12.164      10.819      9.5426      8.3972      7.4163      6.6076      5.9604      5.4536      5.0639      4.7712    
  4.5609      4.4243      4.3567      4.3567      4.4243      4.5609      4.7712      5.0639      5.4536      5.9604    
  6.6076      7.4163      8.3972      9.5426      14.247      16.300      18.367      20.270      21.808      22.810    
  23.158      22.810      21.808      20.270      18.367      16.300      14.247      12.332      10.596      9.0769    
  7.8098      6.7940      6.0045      5.4055      4.9608      4.6408      4.4243      4.2986      4.2573      4.2986    
  4.4243      4.6408      4.9608      5.4055      6.0045      6.7940      7.8098      9.0769      10.596      12.332    
  19.572      22.722      25.753      28.361      30.271      31.280      31.280      30.271      28.361      25.753    
  22.722      19.572      16.576      13.917      11.650      9.7354      8.1780      6.9633      6.0468      5.3738    
  4.8927      4.5630      4.3567      4.2573      4.2573      4.3567      4.5630      4.8927      5.3738      6.0468    
  6.9633      8.1780      9.7354      11.650      13.917      16.576      27.669      32.132      36.143      39.313    
  41.339      42.035      41.339      39.313      36.143      32.131      27.669      23.181      19.043      15.504    
  12.632      10.322      8.4901      7.0990      6.0798      5.3557      4.8587      4.5372      4.3567      4.2986    
  4.3567      4.5372      4.8587      5.3557      6.0798      7.0990      8.4901      10.322      12.632      15.504    
  19.043      23.181      38.966      44.642      49.358      52.715      54.455      54.455      52.715      49.358    
  44.642      38.966      32.850      26.849      21.452      16.970      13.469      10.785      8.7172      7.1868    
  6.0977      5.3498      4.8587      4.5630      4.4243      4.4243      4.5630      4.8587      5.3498      6.0977    
  7.1868      8.7172      10.785      13.469      16.970      21.452      26.849      32.850      53.153      59.582    
  64.466      67.496      68.521      67.496      64.466      59.582      53.153      45.674      37.798      30.226    
  23.561      18.165      14.086      11.083      8.8368      7.2173      6.0977      5.3557      4.8927      4.6408    
  4.5609      4.6408      4.8927      5.3557      6.0977      7.2173      8.8368      11.083      14.086      18.165    
  23.561      30.226      37.798      45.674      69.101      75.556      79.957      82.172      82.172      79.957    
  75.556      69.101      60.931      51.638      42.026      32.952      25.130      18.950      14.415      11.185    
  8.8368      7.1868      6.0798      5.3738      4.9608      4.7712      4.7712      4.9608      5.3738      6.0798    
  7.1868      8.8368      11.185      14.415      18.950      25.130      32.952      42.026      51.638      60.931    
  85.091      90.782      94.150      95.259      94.150      90.782      85.091      77.149      67.318      56.311    
  45.106      34.723      25.966      19.223      14.415      11.083      8.7172      7.0990      6.0468      5.4055    
  5.0639      4.9571      5.0639      5.4055      6.0468      7.0990      8.7172      11.083      14.415      19.223    
  25.966      34.723      45.106      56.311      67.318      77.149      99.290      103.62      105.69      105.69    
  103.62      99.290      92.478      83.183      71.825      59.281      46.727      35.337      25.966      18.950    
  14.086      10.785      8.4901      6.9633      6.0045      5.4536      5.2041      5.2041      5.4536      6.0045    
  6.9633      8.4901      10.785      14.086      18.950      25.966      35.337      46.727      59.281      71.825    
  83.183      92.478      110.31      113.06      113.92      113.06      110.31      105.23      97.436      86.892    
  74.148      60.298      46.727      34.723      25.130      18.165      13.469      10.322      8.1780      6.7940    
  5.9604      5.5217      5.3855      5.5217      5.9604      6.7940      8.1780      10.322      13.469      18.165    
  25.130      34.723      46.727      60.298      74.148      86.892      97.436      105.23      117.61      118.98    