Pt-fcc                                  
   1.00000000000000     
     0.000000    1.919483    1.919483
     1.919483    0.000000    1.919483
     1.919483    1.919483    0.000000
   Pt
     1
Direct
  0.000000  0.000000  0.000000
 
   36   36   36
 0.12380738722E+03 0.12368068542E+03 0.12289992887E+03 0.12043793204E+03 0.11509889286E+03
 0.10608077113E+03 0.93412593838E+02 0.78078052300E+02 0.61766248975E+02 0.46355667296E+02
 0.33354045490E+02 0.23520550877E+02 0.16789695214E+02 0.12468507762E+02 0.96373497545E+01
 0.78083842204E+01 0.67129175066E+01 0.61408119497E+01 0.59642278713E+01 0.61408119497E+01
 0.67129175066E+01 0.78083842204E+01 0.96373497545E+01 0.12468507762E+02 0.16789695214E+02
 0.23520550877E+02 0.33354045490E+02 0.46355667296E+02 0.61766248975E+02 0.78078052300E+02
 0.93412593838E+02 0.10608077113E+03 0.11509889286E+03 0.12043793204E+03 0.12289992887E+03
 0.12368068542E+03 0.12368068542E+03 0.12322389360E+03 0.12157997968E+03 0.11761388301E+03
 0.11031089679E+03 0.99290419457E+02 0.85091433802E+02 0.69101150370E+02 0.53152776169E+02
 0.38966440293E+02 0.27669117204E+02 0.19572039509E+02 0.14247334244E+02 0.10818608991E+02
 0.85533906224E+01 0.71403963857E+01 0.63381901629E+01 0.59789573174E+01 0.59789579025E+01
 0.63381915495E+01 0.71403977065E+01 0.85533909939E+01 0.10818608077E+02 0.14247332474E+02
 0.19572037898E+02 0.27669116735E+02 0.38966441254E+02 0.53152777692E+02 0.69101150578E+02
 0.85091430471E+02 0.99290411018E+02 0.11031088329E+03 0.11761386636E+03 0.12157996341E+03
 0.12322388173E+03 0.12368068107E+03 0.12289992887E+03 0.12157997968E+03 0.11838036417E+03
 0.11230028861E+03 0.10272946338E+03 0.89831297406E+02 0.74631077124E+02 0.58762724570E+02
 0.43980681486E+02 0.31646609212E+02 0.22397167387E+02 0.16095635257E+02 0.12033230597E+02
 0.93435029517E+01 0.76065863169E+01 0.65656553541E+01 0.60214560656E+01 0.58533557916E+01
 0.60214579431E+01 0.65656579410E+01 0.76065879545E+01 0.93435024686E+01 0.12033228062E+02
 0.16095632026E+02 0.22397165405E+02 0.31646609812E+02 0.43980684347E+02 0.58762727354E+02
 0.74631076180E+02 0.89831289240E+02 0.10272944640E+03 0.11230026429E+03 0.11838033708E+03
 0.12157995625E+03 0.12289991528E+03 0.12322388173E+03 0.12043793204E+03 0.11761388301E+03
 0.11230028861E+03 0.10385399248E+03 0.92202750105E+02 0.78043621824E+02 0.62735338632E+02
 0.47923145758E+02 0.35056416680E+02 0.25000683496E+02 0.17885607625E+02 0.13209409876E+02
 0.10132227575E+02 0.80881280266E+01 0.68125438448E+01 0.60868249654E+01 0.57611355785E+01
 0.57611367941E+01 0.60868278698E+01 0.68125466256E+01 0.80881288555E+01 0.10132225699E+02
 0.13209406171E+02 0.17885604223E+02 0.25000682639E+02 0.35056419307E+02 0.47923150609E+02
 0.62735342324E+02 0.78043620094E+02 0.92202739683E+02 0.10385397284E+03 0.11230026277E+03
 0.11761385690E+03 0.12043791265E+03 0.12157995625E+03 0.12157996341E+03 0.11509889286E+03
 0.11031089679E+03 0.10272946338E+03 0.92202750105E+02 0.79194138864E+02 0.64787445141E+02
 0.50434193215E+02 0.37546137770E+02 0.27105534517E+02 0.19447081248E+02 0.14273684909E+02
 0.10863104509E+02 0.85537812881E+01 0.70633201389E+01 0.61674534571E+01 0.56971942010E+01
 0.55515263359E+01 0.56971963194E+01 0.61674564234E+01 0.70633221222E+01 0.85537809480E+01
 0.10863101818E+02 0.14273681309E+02 0.19447078979E+02 0.27105535433E+02 0.37546142193E+02
 0.50434199441E+02 0.64787449928E+02 0.79194138709E+02 0.92202742894E+02 0.10272944955E+03
 0.11031087947E+03 0.11509887700E+03 0.11761385690E+03 0.11838033708E+03 0.11761386636E+03
 0.10608077113E+03 0.99290419457E+02 0.89831297406E+02 0.78043621824E+02 0.64787445141E+02
 0.51295377119E+02 0.38858205535E+02 0.28474304449E+02 0.20606609554E+02 0.15132168482E+02
 0.11476985485E+02 0.89677981546E+01 0.72989239609E+01 0.62538165398E+01 0.56554983692E+01
 0.53854544250E+01 0.53854552836E+01 0.56555004614E+01 0.62538186888E+01 0.72989249051E+01
 0.89677972712E+01 0.11476983166E+02 0.15132166063E+02 0.20606608699E+02 0.28474306377E+02
 0.38858210360E+02 0.51295383683E+02 0.64787451467E+02 0.78043625877E+02 0.89831298036E+02
 0.99290416887E+02 0.10608076687E+03 0.11031087947E+03 0.11230026277E+03 0.11230026429E+03
 0.11031088329E+03 0.93412593838E+02 0.85091433802E+02 0.74631077124E+02 0.62735338632E+02
 0.50434193215E+02 0.38858205535E+02 0.28948961175E+02 0.21224891776E+02 0.15692262234E+02
 0.11920572731E+02 0.92946678721E+01 0.74990062548E+01 0.63355235997E+01 0.56301086770E+01
 0.52563109360E+01 0.51398123358E+01 0.52563117340E+01 0.56301099146E+01 0.63355247152E+01
 0.74990067192E+01 0.92946674402E+01 0.11920571577E+02 0.15692260957E+02 0.21224891225E+02
 0.28948962197E+02 0.38858208746E+02 0.50434198746E+02 0.62735346157E+02 0.74631085844E+02
 0.85091442645E+02 0.93412601688E+02 0.99290416887E+02 0.10272944955E+03 0.10385397284E+03
 0.10272944640E+03 0.99290411018E+02 0.78078052300E+02 0.69101150370E+02 0.58762724570E+02
 0.47923145758E+02 0.37546137770E+02 0.28474304449E+02 0.21224891776E+02 0.15887061140E+02
 0.12153839292E+02 0.95042867146E+01 0.76447157285E+01 0.64025456101E+01 0.56158463495E+01
 0.51591749929E+01 0.49506939895E+01 0.49506939285E+01 0.51591749248E+01 0.56158464913E+01
 0.64025461186E+01 0.76447164672E+01 0.95042872613E+01 0.12153839093E+02 0.15887059887E+02
 0.21224889731E+02 0.28474302567E+02 0.37546137556E+02 0.47923148684E+02 0.58762731501E+02
 0.69101161020E+02 0.78078065024E+02 0.85091442645E+02 0.89831298036E+02 0.92202742894E+02
 0.92202739683E+02 0.89831289240E+02 0.85091430471E+02 0.61766248975E+02 0.53152776169E+02
 0.43980681486E+02 0.35056416680E+02 0.27105534517E+02 0.20606609554E+02 0.15692262234E+02
 0.12153839292E+02 0.95765182499E+01 0.77215242264E+01 0.64464987857E+01 0.56086527127E+01
 0.50910561318E+01 0.48118453060E+01 0.47238652608E+01 0.48118444238E+01 0.50910549774E+01
 0.56086521209E+01 0.64464992740E+01 0.77215255795E+01 0.95765194969E+01 0.12153839141E+02
 0.15692259747E+02 0.20606604826E+02 0.27105528812E+02 0.35056412217E+02 0.43980680464E+02
 0.53152779859E+02 0.61766257062E+02 0.69101161020E+02 0.74631085844E+02 0.78043625877E+02
 0.79194138709E+02 0.78043620094E+02 0.74631076180E+02 0.69101150578E+02 0.46355667296E+02
 0.38966440293E+02 0.31646609212E+02 0.25000683496E+02 0.19447081248E+02 0.15132168482E+02
 0.11920572731E+02 0.95042867146E+01 0.77215242264E+01 0.64618028035E+01 0.56057574848E+01
 0.50505138154E+01 0.47200897224E+01 0.45663459164E+01 0.45663451701E+01 0.47200879089E+01
 0.50505120097E+01 0.56057567652E+01 0.64618036265E+01 0.77215260391E+01 0.95042881097E+01
 0.11920572069E+02 0.15132164645E+02 0.19447074363E+02 0.25000674911E+02 0.31646601151E+02
 0.38966434952E+02 0.46355665842E+02 0.53152779859E+02 0.58762731501E+02 0.62735346157E+02
 0.64787451467E+02 0.64787449928E+02 0.62735342324E+02 0.58762727354E+02 0.53152777692E+02
 0.33354045490E+02 0.27669117204E+02 0.22397167387E+02 0.17885607625E+02 0.14273684909E+02
 0.11476985485E+02 0.92946678721E+01 0.76447157285E+01 0.64464987857E+01 0.56057574848E+01
 0.50370348431E+01 0.46743108373E+01 0.44731573444E+01 0.44087389964E+01 0.44731558966E+01
 0.46743086993E+01 0.50370331418E+01 0.56057571440E+01 0.64464999893E+01 0.76447177764E+01
 0.92946693385E+01 0.11476984899E+02 0.14273681223E+02 0.17885600846E+02 0.22397158456E+02
 0.27669107680E+02 0.33354037035E+02 0.38966434952E+02 0.43980680464E+02 0.47923148684E+02
 0.50434198746E+02 0.51295383683E+02 0.50434199441E+02 0.47923150609E+02 0.43980684347E+02
 0.38966441254E+02 0.23520550877E+02 0.19572039509E+02 0.16095635257E+02 0.13209409876E+02
 0.10863104509E+02 0.89677981546E+01 0.74990062548E+01 0.64025456101E+01 0.56086527127E+01
 0.50505138154E+01 0.46743108373E+01 0.44422600870E+01 0.43314878808E+01 0.43314873254E+01
 0.44422586758E+01 0.46743092528E+01 0.50505128487E+01 0.56086529680E+01 0.64025471698E+01
 0.74990086745E+01 0.89678004507E+01 0.10863105607E+02 0.13209408793E+02 0.16095631483E+02
 0.19572033214E+02 0.23520542658E+02 0.27669107680E+02 0.31646601151E+02 0.35056412217E+02
 0.37546137556E+02 0.38858208746E+02 0.38858210360E+02 0.37546142193E+02 0.35056419307E+02
 0.31646609812E+02 0.27669116735E+02 0.16789695214E+02 0.14247334244E+02 0.12033230597E+02
 0.10132227575E+02 0.85537812881E+01 0.72989239609E+01 0.63355235997E+01 0.56158463495E+01
 0.50910561318E+01 0.47200897224E+01 0.44731573444E+01 0.43314878808E+01 0.42852597002E+01
 0.43314875551E+01 0.44731568004E+01 0.47200892044E+01 0.50910559953E+01 0.56158470350E+01
 0.63355254429E+01 0.72989270904E+01 0.85537853694E+01 0.10132231823E+02 0.12033233947E+02
 0.14247335435E+02 0.16789693513E+02 0.19572033214E+02 0.22397158456E+02 0.25000674911E+02
 0.27105528812E+02 0.28474302567E+02 0.28948962197E+02 0.28474306377E+02 0.27105535433E+02
 0.25000682639E+02 0.22397165405E+02 0.19572037898E+02 0.12468507762E+02 0.10818608991E+02
 0.93435029517E+01 0.80881280266E+01 0.70633201389E+01 0.62538165398E+01 0.56301086770E+01
 0.51591749929E+01 0.48118453060E+01 0.45663459164E+01 0.44087389964E+01 0.43314873254E+01
 0.43314875551E+01 0.44087395390E+01 0.45663464434E+01 0.48118455803E+01 0.51591751248E+01
 0.56301092426E+01 0.62538183636E+01 0.70633239463E+01 0.80881340038E+01 0.93435103941E+01
 0.10818616577E+02 0.12468513771E+02 0.14247335435E+02 0.16095631483E+02 0.17885600846E+02
 0.19447074363E+02 0.20606604826E+02 0.21224889731E+02 0.21224891225E+02 0.20606608699E+02
 0.19447078979E+02 0.17885604223E+02 0.16095632026E+02 0.14247332474E+02 0.96373497545E+01
 0.85533906224E+01 0.76065863169E+01 0.68125438448E+01 0.61674534571E+01 0.56554983692E+01
 0.52563109360E+01 0.49506939895E+01 0.47238652608E+01 0.45663451701E+01 0.44731558966E+01
 0.44422586758E+01 0.44731568004E+01 0.45663464434E+01 0.47238661450E+01 0.49506940100E+01
 0.52563102459E+01 0.56554978684E+01 0.61674544231E+01 0.68125473875E+01 0.76065928468E+01
 0.85533994563E+01 0.96373593336E+01 0.10818616577E+02 0.12033233947E+02 0.13209408793E+02
 0.14273681223E+02 0.15132164645E+02 0.15692259747E+02 0.15887059887E+02 0.15692260957E+02
 0.15132166063E+02 0.14273681309E+02 0.13209406171E+02 0.12033228062E+02 0.10818608077E+02
 0.78083842204E+01 0.71403963857E+01 0.65656553541E+01 0.60868249654E+01 0.56971942010E+01
 0.53854544250E+01 0.51398123358E+01 0.49506939285E+01 0.48118444238E+01 0.47200879089E+01
 0.46743086993E+01 0.46743092528E+01 0.47200892044E+01 0.48118455803E+01 0.49506940100E+01
 0.51398109110E+01 0.53854518543E+01 0.56971916316E+01 0.60868238926E+01 0.65656569725E+01
 0.71404011465E+01 0.78083915427E+01 0.85533994563E+01 0.93435103941E+01 0.10132231823E+02
 0.10863105607E+02 0.11476984899E+02 0.11920572069E+02 0.12153839141E+02 0.12153839093E+02
 0.11920571577E+02 0.11476983166E+02 0.10863101818E+02 0.10132225699E+02 0.93435024686E+01
 0.85533909939E+01 0.67129175066E+01 0.63381901629E+01 0.60214560656E+01 0.57611355785E+01
 0.55515263359E+01 0.53854552836E+01 0.52563117340E+01 0.51591749248E+01 0.50910549774E+01
 0.50505120097E+01 0.50370331418E+01 0.50505128487E+01 0.50910559953E+01 0.51591751248E+01
 0.52563102459E+01 0.53854518543E+01 0.55515214816E+01 0.57611304648E+01 0.60214521181E+01
 0.63381884843E+01 0.67129185450E+01 0.71404011465E+01 0.76065928468E+01 0.80881340038E+01
 0.85537853694E+01 0.89678004507E+01 0.92946693385E+01 0.95042881097E+01 0.95765194969E+01
 0.95042872613E+01 0.92946674402E+01 0.89677972712E+01 0.85537809480E+01 0.80881288555E+01
 0.76065879545E+01 0.71403977065E+01 0.61408119497E+01 0.59789573174E+01 0.58533557916E+01
 0.57611367941E+01 0.56971963194E+01 0.56555004614E+01 0.56301099146E+01 0.56158464913E+01
 0.56086521209E+01 0.56057567652E+01 0.56057571440E+01 0.56086529680E+01 0.56158470350E+01
 0.56301092426E+01 0.56554978684E+01 0.56971916316E+01 0.57611304648E+01 0.58533487531E+01
 0.59789507441E+01 0.61408068483E+01 0.63381884843E+01 0.65656569725E+01 0.68125473875E+01
 0.70633239463E+01 0.72989270904E+01 0.74990086745E+01 0.76447177764E+01 0.77215260391E+01
 0.77215255795E+01 0.76447164672E+01 0.74990067192E+01 0.72989249051E+01 0.70633221222E+01
 0.68125466256E+01 0.65656579410E+01 0.63381915495E+01 0.59642278713E+01 0.59789579025E+01
 0.60214579431E+01 0.60868278698E+01 0.61674564234E+01 0.62538186888E+01 0.63355247152E+01
 0.64025461186E+01 0.64464992740E+01 0.64618036265E+01 0.64464999893E+01 0.64025471698E+01
 0.63355254429E+01 0.62538183636E+01 0.61674544231E+01 0.60868238926E+01 0.60214521181E+01
 0.59789507441E+01 0.59642202233E+01 0.59789507441E+01 0.60214521181E+01 0.60868238926E+01
 0.61674544231E+01 0.62538183636E+01 0.63355254429E+01 0.64025471698E+01 0.64464999893E+01
 0.64618036265E+01 0.64464992740E+01 0.64025461186E+01 0.63355247152E+01 0.62538186888E+01
 0.61674564234E+01 0.60868278698E+01 0.60214579431E+01 0.59789579025E+01 0.61408119497E+01
 0.63381915495E+01 0.65656579410E+01 0.68125466256E+01 0.70633221222E+01 0.72989249051E+01
 0.74990067192E+01 0.76447164672E+01 0.77215255795E+01 0.77215260391E+01 0.76447177764E+01
 0.74990086745E+01 0.72989270904E+01 0.70633239463E+01 0.68125473875E+01 0.65656569725E+01
 0.63381884843E+01 0.61408068483E+01 0.59789507441E+01 0.58533487531E+01 0.57611304648E+01
 0.56971916316E+01 0.56554978684E+01 0.56301092426E+01 0.56158470350E+01 0.56086529680E+01
 0.56057571440E+01 0.56057567652E+01 0.56086521209E+01 0.56158464913E+01 0.56301099146E+01
 0.56555004614E+01 0.56971963194E+01 0.57611367941E+01 0.58533557916E+01 0.59789573174E+01
 0.67129175066E+01 0.71403977065E+01 0.76065879545E+01 0.80881288555E+01 0.85537809480E+01
 0.89677972712E+01 0.92946674402E+01 0.95042872613E+01 0.95765194969E+01 0.95042881097E+01
 0.92946693385E+01 0.89678004507E+01 0.85537853694E+01 0.80881340038E+01 0.76065928468E+01
 0.71404011465E+01 0.67129185450E+01 0.63381884843E+01 0.60214521181E+01 0.57611304648E+01
 0.55515214816E+01 0.53854518543E+01 0.52563102459E+01 0.51591751248E+01 0.50910559953E+01
 0.50505128487E+01 0.50370331418E+01 0.50505120097E+01 0.50910549774E+01 0.51591749248E+01
 0.52563117340E+01 0.53854552836E+01 0.55515263359E+01 0.57611355785E+01 0.60214560656E+01
 0.63381901629E+01 0.78083842204E+01 0.85533909939E+01 0.93435024686E+01 0.10132225699E+02
 0.10863101818E+02 0.11476983166E+02 0.11920571577E+02 0.12153839093E+02 0.12153839141E+02
 0.11920572069E+02 0.11476984899E+02 0.10863105607E+02 0.10132231823E+02 0.93435103941E+01
 0.85533994563E+01 0.78083915427E+01 0.71404011465E+01 0.65656569725E+01 0.60868238926E+01
 0.56971916316E+01 0.53854518543E+01 0.51398109110E+01 0.49506940100E+01 0.48118455803E+01
 0.47200892044E+01 0.46743092528E+01 0.46743086993E+01 0.47200879089E+01 0.48118444238E+01
 0.49506939285E+01 0.51398123358E+01 0.53854544250E+01 0.56971942010E+01 0.60868249654E+01
 0.65656553541E+01 0.71403963857E+01 0.96373497545E+01 0.10818608077E+02 0.12033228062E+02
 0.13209406171E+02 0.14273681309E+02 0.15132166063E+02 0.15692260957E+02 0.15887059887E+02
 0.15692259747E+02 0.15132164645E+02 0.14273681223E+02 0.13209408793E+02 0.12033233947E+02
 0.10818616577E+02 0.96373593336E+01 0.85533994563E+01 0.76065928468E+01 0.68125473875E+01
 0.61674544231E+01 0.56554978684E+01 0.52563102459E+01 0.49506940100E+01 0.47238661450E+01
 0.45663464434E+01 0.44731568004E+01 0.44422586758E+01 0.44731558966E+01 0.45663451701E+01
 0.47238652608E+01 0.49506939895E+01 0.52563109360E+01 0.56554983692E+01 0.61674534571E+01
 0.68125438448E+01 0.76065863169E+01 0.85533906224E+01 0.12468507762E+02 0.14247332474E+02
 0.16095632026E+02 0.17885604223E+02 0.19447078979E+02 0.20606608699E+02 0.21224891225E+02
 0.21224889731E+02 0.20606604826E+02 0.19447074363E+02 0.17885600846E+02 0.16095631483E+02
 0.14247335435E+02 0.12468513771E+02 0.10818616577E+02 0.93435103941E+01 0.80881340038E+01
 0.70633239463E+01 0.62538183636E+01 0.56301092426E+01 0.51591751248E+01 0.48118455803E+01
 0.45663464434E+01 0.44087395390E+01 0.43314875551E+01 0.43314873254E+01 0.44087389964E+01
 0.45663459164E+01 0.48118453060E+01 0.51591749929E+01 0.56301086770E+01 0.62538165398E+01
 0.70633201389E+01 0.80881280266E+01 0.93435029517E+01 0.10818608991E+02 0.16789695214E+02
 0.19572037898E+02 0.22397165405E+02 0.25000682639E+02 0.27105535433E+02 0.28474306377E+02
 0.28948962197E+02 0.28474302567E+02 0.27105528812E+02 0.25000674911E+02 0.22397158456E+02
 0.19572033214E+02 0.16789693513E+02 0.14247335435E+02 0.12033233947E+02 0.10132231823E+02
 0.85537853694E+01 0.72989270904E+01 0.63355254429E+01 0.56158470350E+01 0.50910559953E+01
 0.47200892044E+01 0.44731568004E+01 0.43314875551E+01 0.42852597002E+01 0.43314878808E+01
 0.44731573444E+01 0.47200897224E+01 0.50910561318E+01 0.56158463495E+01 0.63355235997E+01
 0.72989239609E+01 0.85537812881E+01 0.10132227575E+02 0.12033230597E+02 0.14247334244E+02
 0.23520550877E+02 0.27669116735E+02 0.31646609812E+02 0.35056419307E+02 0.37546142193E+02
 0.38858210360E+02 0.38858208746E+02 0.37546137556E+02 0.35056412217E+02 0.31646601151E+02
 0.27669107680E+02 0.23520542658E+02 0.19572033214E+02 0.16095631483E+02 0.13209408793E+02
 0.10863105607E+02 0.89678004507E+01 0.74990086745E+01 0.64025471698E+01 0.56086529680E+01
 0.50505128487E+01 0.46743092528E+01 0.44422586758E+01 0.43314873254E+01 0.43314878808E+01
 0.44422600870E+01 0.46743108373E+01 0.50505138154E+01 0.56086527127E+01 0.64025456101E+01
 0.74990062548E+01 0.89677981546E+01 0.10863104509E+02 0.13209409876E+02 0.16095635257E+02
 0.19572039509E+02 0.33354045490E+02 0.38966441254E+02 0.43980684347E+02 0.47923150609E+02
 0.50434199441E+02 0.51295383683E+02 0.50434198746E+02 0.47923148684E+02 0.43980680464E+02
 0.38966434952E+02 0.33354037035E+02 0.27669107680E+02 0.22397158456E+02 0.17885600846E+02
 0.14273681223E+02 0.11476984899E+02 0.92946693385E+01 0.76447177764E+01 0.64464999893E+01
 0.56057571440E+01 0.50370331418E+01 0.46743086993E+01 0.44731558966E+01 0.44087389964E+01
 0.44731573444E+01 0.46743108373E+01 0.50370348431E+01 0.56057574848E+01 0.64464987857E+01
 0.76447157285E+01 0.92946678721E+01 0.11476985485E+02 0.14273684909E+02 0.17885607625E+02
 0.22397167387E+02 0.27669117204E+02 0.46355667296E+02 0.53152777692E+02 0.58762727354E+02
 0.62735342324E+02 0.64787449928E+02 0.64787451467E+02 0.62735346157E+02 0.58762731501E+02
 0.53152779859E+02 0.46355665842E+02 0.38966434952E+02 0.31646601151E+02 0.25000674911E+02
 0.19447074363E+02 0.15132164645E+02 0.11920572069E+02 0.95042881097E+01 0.77215260391E+01
 0.64618036265E+01 0.56057567652E+01 0.50505120097E+01 0.47200879089E+01 0.45663451701E+01
 0.45663459164E+01 0.47200897224E+01 0.50505138154E+01 0.56057574848E+01 0.64618028035E+01
 0.77215242264E+01 0.95042867146E+01 0.11920572731E+02 0.15132168482E+02 0.19447081248E+02
 0.25000683496E+02 0.31646609212E+02 0.38966440293E+02 0.61766248975E+02 0.69101150578E+02
 0.74631076180E+02 0.78043620094E+02 0.79194138709E+02 0.78043625877E+02 0.74631085844E+02
 0.69101161020E+02 0.61766257062E+02 0.53152779859E+02 0.43980680464E+02 0.35056412217E+02
 0.27105528812E+02 0.20606604826E+02 0.15692259747E+02 0.12153839141E+02 0.95765194969E+01
 0.77215255795E+01 0.64464992740E+01 0.56086521209E+01 0.50910549774E+01 0.48118444238E+01
 0.47238652608E+01 0.48118453060E+01 0.50910561318E+01 0.56086527127E+01 0.64464987857E+01
 0.77215242264E+01 0.95765182499E+01 0.12153839292E+02 0.15692262234E+02 0.20606609554E+02
 0.27105534517E+02 0.35056416680E+02 0.43980681486E+02 0.53152776169E+02 0.78078052300E+02
 0.85091430471E+02 0.89831289240E+02 0.92202739683E+02 0.92202742894E+02 0.89831298036E+02
 0.85091442645E+02 0.78078065024E+02 0.69101161020E+02 0.58762731501E+02 0.47923148684E+02
 0.37546137556E+02 0.28474302567E+02 0.21224889731E+02 0.15887059887E+02 0.12153839093E+02
 0.95042872613E+01 0.76447164672E+01 0.64025461186E+01 0.56158464913E+01 0.51591749248E+01
 0.49506939285E+01 0.49506939895E+01 0.51591749929E+01 0.56158463495E+01 0.64025456101E+01
 0.76447157285E+01 0.95042867146E+01 0.12153839292E+02 0.15887061140E+02 0.21224891776E+02
 0.28474304449E+02 0.37546137770E+02 0.47923145758E+02 0.58762724570E+02 0.69101150370E+02
 0.93412593838E+02 0.99290411018E+02 0.10272944640E+03 0.10385397284E+03 0.10272944955E+03
 0.99290416887E+02 0.93412601688E+02 0.85091442645E+02 0.74631085844E+02 0.62735346157E+02
 0.50434198746E+02 0.38858208746E+02 0.28948962197E+02 0.21224891225E+02 0.15692260957E+02
 0.11920571577E+02 0.92946674402E+01 0.74990067192E+01 0.63355247152E+01 0.56301099146E+01
 0.52563117340E+01 0.51398123358E+01 0.52563109360E+01 0.56301086770E+01 0.63355235997E+01
 0.74990062548E+01 0.92946678721E+01 0.11920572731E+02 0.15692262234E+02 0.21224891776E+02
 0.28948961175E+02 0.38858205535E+02 0.50434193215E+02 0.62735338632E+02 0.74631077124E+02
 0.85091433802E+02 0.10608077113E+03 0.11031088329E+03 0.11230026429E+03 0.11230026277E+03
 0.11031087947E+03 0.10608076687E+03 0.99290416887E+02 0.89831298036E+02 0.78043625877E+02
 0.64787451467E+02 0.51295383683E+02 0.38858210360E+02 0.28474306377E+02 0.20606608699E+02
 0.15132166063E+02 0.11476983166E+02 0.89677972712E+01 0.72989249051E+01 0.62538186888E+01
 0.56555004614E+01 0.53854552836E+01 0.53854544250E+01 0.56554983692E+01 0.62538165398E+01
 0.72989239609E+01 0.89677981546E+01 0.11476985485E+02 0.15132168482E+02 0.20606609554E+02
 0.28474304449E+02 0.38858205535E+02 0.51295377119E+02 0.64787445141E+02 0.78043621824E+02
 0.89831297406E+02 0.99290419457E+02 0.11509889286E+03 0.11761386636E+03 0.11838033708E+03
 0.11761385690E+03 0.11509887700E+03 0.11031087947E+03 0.10272944955E+03 0.92202742894E+02
 0.79194138709E+02 0.64787449928E+02 0.50434199441E+02 0.37546142193E+02 0.27105535433E+02
 0.19447078979E+02 0.14273681309E+02 0.10863101818E+02 0.85537809480E+01 0.70633221222E+01
 0.61674564234E+01 0.56971963194E+01 0.55515263359E+01 0.56971942010E+01 0.61674534571E+01
 0.70633201389E+01 0.85537812881E+01 0.10863104509E+02 0.14273684909E+02 0.19447081248E+02
 0.27105534517E+02 0.37546137770E+02 0.50434193215E+02 0.64787445141E+02 0.79194138864E+02
 0.92202750105E+02 0.10272946338E+03 0.11031089679E+03 0.12043793204E+03 0.12157996341E+03
 0.12157995625E+03 0.12043791265E+03 0.11761385690E+03 0.11230026277E+03 0.10385397284E+03
 0.92202739683E+02 0.78043620094E+02 0.62735342324E+02 0.47923150609E+02 0.35056419307E+02
 0.25000682639E+02 0.17885604223E+02 0.13209406171E+02 0.10132225699E+02 0.80881288555E+01
 0.68125466256E+01 0.60868278698E+01 0.57611367941E+01 0.57611355785E+01 0.60868249654E+01
 0.68125438448E+01 0.80881280266E+01 0.10132227575E+02 0.13209409876E+02 0.17885607625E+02
 0.25000683496E+02 0.35056416680E+02 0.47923145758E+02 0.62735338632E+02 0.78043621824E+02
 0.92202750105E+02 0.10385399248E+03 0.11230028861E+03 0.11761388301E+03 0.12289992887E+03
 0.12322388173E+03 0.12289991528E+03 0.12157995625E+03 0.11838033708E+03 0.11230026429E+03
 0.10272944640E+03 0.89831289240E+02 0.74631076180E+02 0.58762727354E+02 0.43980684347E+02
 0.31646609812E+02 0.22397165405E+02 0.16095632026E+02 0.12033228062E+02 0.93435024686E+01
 0.76065879545E+01 0.65656579410E+01 0.60214579431E+01 0.58533557916E+01 0.60214560656E+01
 0.65656553541E+01 0.76065863169E+01 0.93435029517E+01 0.12033230597E+02 0.16095635257E+02
 0.22397167387E+02 0.31646609212E+02 0.43980681486E+02 0.58762724570E+02 0.74631077124E+02
 0.89831297406E+02 0.10272946338E+03 0.11230028861E+03 0.11838036417E+03 0.12157997968E+03
 0.12368068542E+03 0.12368068107E+03 0.12322388173E+03 0.12157996341E+03 0.11761386636E+03
 0.11031088329E+03 0.99290411018E+02 0.85091430471E+02 0.69101150578E+02 0.53152777692E+02
 0.38966441254E+02 0.27669116735E+02 0.19572037898E+02 0.14247332474E+02 0.10818608077E+02
 0.85533909939E+01 0.71403977065E+01 0.63381915495E+01 0.59789579025E+01 0.59789573174E+01
 0.63381901629E+01 0.71403963857E+01 0.85533906224E+01 0.10818608991E+02 0.14247334244E+02
 0.19572039509E+02 0.27669117204E+02 0.38966440293E+02 0.53152776169E+02 0.69101150370E+02
 0.85091433802E+02 0.99290419457E+02 0.11031089679E+03 0.11761388301E+03 0.12157997968E+03
 0.12322389360E+03 0.12368068542E+03 0.12322389360E+03 0.12157997968E+03 0.11761388301E+03
 0.11031089679E+03 0.99290419457E+02 0.85091433802E+02 0.69101150370E+02 0.53152776169E+02
 0.38966440293E+02 0.27669117204E+02 0.19572039509E+02 0.14247334244E+02 0.10818608991E+02
 0.85533906224E+01 0.71403963857E+01 0.63381901629E+01 0.59789573174E+01 0.59789579025E+01
 0.63381915495E+01 0.71403977065E+01 0.85533909939E+01 0.10818608077E+02 0.14247332474E+02
 0.19572037898E+02 0.27669116735E+02 0.38966441254E+02 0.53152777692E+02 0.69101150578E+02
 0.85091430471E+02 0.99290411018E+02 0.11031088329E+03 0.11761386636E+03 0.12157996341E+03
 0.12322388173E+03 0.12368068107E+03 0.12322389360E+03 0.12201765117E+03 0.11897716420E+03
 0.11306238987E+03 0.10362085760E+03 0.90782104548E+02 0.75555650455E+02 0.59582072732E+02
 0.44641632628E+02 0.32131502734E+02 0.22722074687E+02 0.16299678616E+02 0.12164191425E+02
 0.94347414006E+01 0.76716788395E+01 0.66151940981E+01 0.60630259069E+01 0.58925032403E+01
 0.60630279193E+01 0.66151968693E+01 0.76716805930E+01 0.94347408857E+01 0.12164188722E+02
 0.16299675185E+02 0.22722072593E+02 0.32131503335E+02 0.44641635491E+02 0.59582075232E+02
 0.75555648599E+02 0.90782094540E+02 0.10362083781E+03 0.11306236204E+03 0.11897713345E+03
 0.12201762471E+03 0.12322387828E+03 0.12350673057E+03 0.12157997968E+03 0.11897716420E+03
 0.11391898097E+03 0.10568957971E+03 0.94150194565E+02 0.79957010080E+02 0.64466107145E+02
 0.49358254361E+02 0.36143491054E+02 0.25752867862E+02 0.18367434795E+02 0.13511657678E+02
 0.10338534818E+02 0.82328573618E+01 0.69188874274E+01 0.61717901348E+01 0.58367326009E+01
 0.58367340065E+01 0.61717934859E+01 0.69188906191E+01 0.82328582813E+01 0.10338532621E+02
 0.13511653406E+02 0.18367430911E+02 0.25752866878E+02 0.36143493864E+02 0.49358259210E+02
 0.64466109796E+02 0.79957005376E+02 0.94150178720E+02 0.10568955240E+03 0.11391894628E+03
 0.11897712975E+03 0.12157995427E+03 0.12259475297E+03 0.12259476233E+03 0.11761388301E+03
 0.11306238987E+03 0.10568957971E+03 0.95258810961E+02 0.82172201037E+02 0.67496170443E+02
 0.52715208933E+02 0.39313460677E+02 0.28361107836E+02 0.20269710988E+02 0.14788921087E+02
 0.11205042488E+02 0.87914253834E+01 0.72333291568E+01 0.62976918287E+01 0.58072047113E+01
 0.56554115052E+01 0.58072073920E+01 0.62976955458E+01 0.72333315569E+01 0.87914247829E+01
 0.11205038932E+02 0.14788916494E+02 0.20269708192E+02 0.28361109006E+02 0.39313465789E+02
 0.52715215256E+02 0.67496173258E+02 0.82172195607E+02 0.95258794747E+02 0.10568955397E+03
 0.11306235987E+03 0.11761385645E+03 0.11994733525E+03 0.12064625901E+03 0.11994735085E+03
 0.11031089679E+03 0.10362085760E+03 0.94150194565E+02 0.82172201037E+02 0.68520565428E+02
 0.54454615211E+02 0.41339157257E+02 0.30271447375E+02 0.21808464627E+02 0.15891477524E+02
 0.11968770559E+02 0.93080531109E+01 0.75376391096E+01 0.64303750254E+01 0.57978375880E+01
 0.55129046232E+01 0.55129058757E+01 0.57978406008E+01 0.64303779897E+01 0.75376401522E+01
 0.93080514012E+01 0.11968766875E+02 0.15891473999E+02 0.21808463681E+02 0.30271450411E+02
 0.41339163670E+02 0.54454622356E+02 0.68520569545E+02 0.82172198883E+02 0.94150185002E+02
 0.10362084234E+03 0.11031088008E+03 0.11441184363E+03 0.11631583209E+03 0.11631583696E+03
 0.11441185657E+03 0.99290419457E+02 0.90782104548E+02 0.79957010080E+02 0.67496170443E+02
 0.54454615211E+02 0.42035029949E+02 0.31280130678E+02 0.22810093694E+02 0.16706290163E+02
 0.12570347828E+02 0.97415186096E+01 0.78082226717E+01 0.65577094554E+01 0.58019245362E+01
 0.54027712045E+01 0.52786372855E+01 0.54027727949E+01 0.58019268378E+01 0.65577111703E+01
 0.78082227707E+01 0.97415169231E+01 0.12570345208E+02 0.16706288183E+02 0.22810093924E+02
 0.31280133967E+02 0.42035035939E+02 0.54454622456E+02 0.67496176962E+02 0.79957014184E+02
 0.90782105544E+02 0.99290417931E+02 0.10523298600E+03 0.10867797811E+03 0.10979845626E+03
 0.10867797996E+03 0.10523298855E+03 0.85091433802E+02 0.75555650455E+02 0.64466107145E+02
 0.52715208933E+02 0.41339157257E+02 0.31280130678E+02 0.23157656761E+02 0.17139901262E+02
 0.12957680386E+02 0.10054414980E+02 0.80218123292E+01 0.66671743652E+01 0.58129676563E+01
 0.53196017580E+01 0.50952834560E+01 0.50952838126E+01 0.53196026836E+01 0.58129687566E+01
 0.66671751561E+01 0.80218124134E+01 0.10054414243E+02 0.12957679064E+02 0.17139899970E+02
 0.23157656328E+02 0.31280131971E+02 0.41339160918E+02 0.52715215152E+02 0.64466115599E+02
 0.75555660245E+02 0.85091443626E+02 0.92477948928E+02 0.97435746284E+02 0.99904988484E+02
 0.99904986481E+02 0.97435740615E+02 0.92477940523E+02 0.69101150370E+02 0.59582072732E+02
 0.49358254361E+02 0.39313460677E+02 0.30271447375E+02 0.22810093694E+02 0.17139901262E+02
 0.13091620956E+02 0.10218457843E+02 0.81587594206E+01 0.67474370915E+01 0.58253028337E+01
 0.52595869782E+01 0.49563680235E+01 0.48611935593E+01 0.49563677738E+01 0.52595867470E+01
 0.58253029508E+01 0.67474376701E+01 0.81587601618E+01 0.10218458124E+02 0.13091620116E+02
 0.17139899089E+02 0.22810090719E+02 0.30271444916E+02 0.39313460496E+02 0.49358257918E+02
 0.59582080579E+02 0.69101161654E+02 0.77149258938E+02 0.83183048274E+02 0.86892244560E+02
 0.88140323671E+02 0.86892238362E+02 0.83183037531E+02 0.77149246439E+02 0.53152776169E+02
 0.44641632628E+02 0.36143491054E+02 0.28361107836E+02 0.21808464627E+02 0.16706290163E+02
 0.12957680386E+02 0.10218457843E+02 0.82059441958E+01 0.67898917685E+01 0.58345527393E+01
 0.52204630477E+01 0.48582787491E+01 0.46908815254E+01 0.46908809815E+01 0.48582774589E+01
 0.52204618683E+01 0.58345524706E+01 0.67898926561E+01 0.82059456052E+01 0.10218458520E+02
 0.12957679000E+02 0.16706286097E+02 0.21808458459E+02 0.28361101282E+02 0.36143486493E+02
 0.44641632001E+02 0.53152780178E+02 0.60930602884E+02 0.67317675968E+02 0.71824765256E+02
 0.74148201508E+02 0.74148198858E+02 0.71824758249E+02 0.67317667104E+02 0.60930595227E+02
 0.38966440293E+02 0.32131502734E+02 0.25752867862E+02 0.20269710988E+02 0.15891477524E+02
 0.12570347828E+02 0.10054414980E+02 0.81587594206E+01 0.67898917685E+01 0.58379515117E+01