   1   1   1   0
  0.1414435E+02  0.2714559E-09  0.2714559E-09  0.2714559E-09  0.5000000E-15
  1.000000000000000E-004
  CAR 
 Pt-fcc                                  
     73.58493629    -45.35713207  301     13.40575320      1.00000000
    -45.357  0.0000E+00  0.0000E+00
    -44.961  0.0000E+00  0.0000E+00
    -44.564  0.0000E+00  0.0000E+00
    -44.168  0.0000E+00  0.0000E+00
    -43.771  0.0000E+00  0.0000E+00
    -43.375  0.0000E+00  0.0000E+00
    -42.978  0.0000E+00  0.0000E+00
    -42.582  0.0000E+00  0.0000E+00
    -42.185  0.0000E+00  0.0000E+00
    -41.789  0.0000E+00  0.0000E+00
    -41.392  0.0000E+00  0.0000E+00
    -40.996  0.0000E+00  0.0000E+00
    -40.599  0.0000E+00  0.0000E+00
    -40.203  0.1666E-15  0.6604E-16
    -39.807  0.2910E-01  0.1154E-01
    -39.410  0.1083E+00  0.5593E-01
    -39.014  0.5850E-02  0.6000E-01
    -38.617  0.0000E+00  0.6000E-01
    -38.221  0.0000E+00  0.6000E-01
    -37.824  0.0000E+00  0.6000E-01
    -37.428  0.0000E+00  0.6000E-01
    -37.031  0.0000E+00  0.6000E-01
    -36.635  0.0000E+00  0.6000E-01
    -36.238  0.0000E+00  0.6000E-01
    -35.842  0.0000E+00  0.6000E-01
    -35.445  0.0000E+00  0.6000E-01
    -35.049  0.0000E+00  0.6000E-01
    -34.652  0.0000E+00  0.6000E-01
    -34.256  0.0000E+00  0.6000E-01
    -33.859  0.0000E+00  0.6000E-01
    -33.463  0.0000E+00  0.6000E-01
    -33.066  0.0000E+00  0.6000E-01
    -32.670  0.0000E+00  0.6000E-01
    -32.274  0.0000E+00  0.6000E-01
    -31.877  0.0000E+00  0.6000E-01
    -31.481  0.0000E+00  0.6000E-01
    -31.084  0.0000E+00  0.6000E-01
    -30.688  0.0000E+00  0.6000E-01
    -30.291  0.0000E+00  0.6000E-01
    -29.895  0.0000E+00  0.6000E-01
    -29.498  0.0000E+00  0.6000E-01
    -29.102  0.0000E+00  0.6000E-01
    -28.705  0.0000E+00  0.6000E-01
    -28.309  0.0000E+00  0.6000E-01
    -27.912  0.0000E+00  0.6000E-01
    -27.516  0.0000E+00  0.6000E-01
    -27.119  0.0000E+00  0.6000E-01
    -26.723  0.0000E+00  0.6000E-01
    -26.326  0.0000E+00  0.6000E-01
    -25.930  0.0000E+00  0.6000E-01
    -25.533  0.0000E+00  0.6000E-01
    -25.137  0.0000E+00  0.6000E-01
    -24.741  0.0000E+00  0.6000E-01
    -24.344  0.0000E+00  0.6000E-01
    -23.948  0.0000E+00  0.6000E-01
    -23.551  0.0000E+00  0.6000E-01
    -23.155  0.0000E+00  0.6000E-01
    -22.758  0.0000E+00  0.6000E-01
    -22.362  0.0000E+00  0.6000E-01
    -21.965  0.0000E+00  0.6000E-01
    -21.569  0.0000E+00  0.6000E-01
    -21.172  0.0000E+00  0.6000E-01
    -20.776  0.0000E+00  0.6000E-01
    -20.379  0.0000E+00  0.6000E-01
    -19.983  0.0000E+00  0.6000E-01
    -19.586  0.0000E+00  0.6000E-01
    -19.190  0.0000E+00  0.6000E-01
    -18.793  0.0000E+00  0.6000E-01
    -18.397  0.0000E+00  0.6000E-01
    -18.000  0.0000E+00  0.6000E-01
    -17.604  0.0000E+00  0.6000E-01
    -17.208  0.0000E+00  0.6000E-01
    -16.811  0.0000E+00  0.6000E-01
    -16.415  0.0000E+00  0.6000E-01
    -16.018  0.0000E+00  0.6000E-01
    -15.622  0.0000E+00  0.6000E-01
    -15.225  0.0000E+00  0.6000E-01
    -14.829  0.0000E+00  0.6000E-01
    -14.432  0.0000E+00  0.6000E-01
    -14.036  0.0000E+00  0.6000E-01
    -13.639  0.0000E+00  0.6000E-01
    -13.243  0.0000E+00  0.6000E-01
    -12.846  0.0000E+00  0.6000E-01
    -12.450  0.0000E+00  0.6000E-01
    -12.053  0.0000E+00  0.6000E-01
    -11.657  0.0000E+00  0.6000E-01
    -11.260  0.0000E+00  0.6000E-01
    -10.864  0.0000E+00  0.6000E-01
    -10.467  0.0000E+00  0.6000E-01
    -10.071  0.0000E+00  0.6000E-01
     -9.675  0.0000E+00  0.6000E-01
     -9.278  0.0000E+00  0.6000E-01
     -8.882  0.0000E+00  0.6000E-01
     -8.485  0.0000E+00  0.6000E-01
     -8.089  0.0000E+00  0.6000E-01
     -7.692  0.0000E+00  0.6000E-01
     -7.296  0.0000E+00  0.6000E-01
     -6.899  0.0000E+00  0.6000E-01
     -6.503  0.0000E+00  0.6000E-01
     -6.106  0.0000E+00  0.6000E-01
     -5.710  0.0000E+00  0.6000E-01
     -5.313  0.0000E+00  0.6000E-01
     -4.917  0.0000E+00  0.6000E-01
     -4.520  0.0000E+00  0.6000E-01
     -4.124  0.0000E+00  0.6000E-01
     -3.727  0.0000E+00  0.6000E-01
     -3.331  0.0000E+00  0.6000E-01
     -2.934  0.0000E+00  0.6000E-01
     -2.538  0.0000E+00  0.6000E-01
     -2.142  0.0000E+00  0.6000E-01
     -1.745  0.0000E+00  0.6000E-01
     -1.349  0.0000E+00  0.6000E-01
     -0.952  0.0000E+00  0.6000E-01
     -0.556  0.0000E+00  0.6000E-01
     -0.159  0.0000E+00  0.6000E-01
      0.237  0.0000E+00  0.6000E-01
      0.634  0.0000E+00  0.6000E-01
      1.030  0.0000E+00  0.6000E-01
      1.427  0.0000E+00  0.6000E-01
      1.823  0.0000E+00  0.6000E-01
      2.220  0.1344E-18  0.6000E-01
      2.616  0.1008E-03  0.6004E-01
      3.013  0.3346E-03  0.6017E-01
      3.409  0.6694E-03  0.6044E-01
      3.806  0.7547E-03  0.6074E-01
      4.202  0.8183E-03  0.6106E-01
      4.599  0.1244E-02  0.6156E-01
      4.995  0.1684E-02  0.6223E-01
      5.391  0.2208E-02  0.6316E-01
      5.788  0.5849E-02  0.6548E-01
      6.184  0.9209E-02  0.6919E-01
      6.581  0.1291E-01  0.7441E-01
      6.977  0.1256E-01  0.7957E-01
      7.374  0.1138E-01  0.8420E-01
      7.770  0.8378E-02  0.8757E-01
      8.167  0.1186E-01  0.9245E-01
      8.563  0.1095E-01  0.9702E-01
      8.960  0.1422E-01  0.1029E+00
      9.356  0.1493E-01  0.1089E+00
      9.753  0.2065E-01  0.1174E+00
     10.149  0.1234E-01  0.1225E+00
     10.546  0.9599E-02  0.1264E+00
     10.942  0.1082E-01  0.1308E+00
     11.339  0.1407E-01  0.1365E+00
     11.735  0.9950E-02  0.1407E+00
     12.132  0.8560E-02  0.1444E+00
     12.528  0.1114E-01  0.1491E+00
     12.924  0.8235E-02  0.1525E+00
     13.321  0.1495E-01  0.1587E+00
     13.717  0.1475E-01  0.1647E+00
     14.114  0.3946E-02  0.1664E+00
     14.510  0.2421E-02  0.1674E+00
     14.907  0.3462E-02  0.1688E+00
     15.303  0.1559E-02  0.1694E+00
     15.700  0.3654E-02  0.1708E+00
     16.096  0.2393E-02  0.1718E+00
     16.493  0.2451E-02  0.1728E+00
     16.889  0.1784E-02  0.1735E+00
     17.286  0.3034E-02  0.1747E+00
     17.682  0.2190E-02  0.1756E+00
     18.079  0.2553E-02  0.1766E+00
     18.475  0.1934E-02  0.1774E+00
     18.872  0.1445E-02  0.1781E+00
     19.268  0.1673E-02  0.1787E+00
     19.665  0.4793E-02  0.1806E+00
     20.061  0.1634E-02  0.1813E+00
     20.457  0.5062E-02  0.1833E+00
     20.854  0.1818E-02  0.1841E+00
     21.250  0.2238E-02  0.1850E+00
     21.647  0.4804E-02  0.1870E+00
     22.043  0.1460E-02  0.1876E+00
     22.440  0.3460E-02  0.1890E+00
     22.836  0.3622E-02  0.1904E+00
     23.233  0.1921E-02  0.1912E+00
     23.629  0.1768E-02  0.1919E+00
     24.026  0.4425E-02  0.1937E+00
     24.422  0.3908E-02  0.1952E+00
     24.819  0.2512E-02  0.1963E+00
     25.215  0.4766E-02  0.1982E+00
     25.612  0.2291E-02  0.1992E+00
     26.008  0.4092E-02  0.2008E+00
     26.405  0.6137E-02  0.2032E+00
     26.801  0.3951E-02  0.2048E+00
     27.198  0.4837E-02  0.2067E+00
     27.594  0.4912E-02  0.2087E+00
     27.990  0.5748E-02  0.2111E+00
     28.387  0.5474E-02  0.2134E+00
     28.783  0.9088E-02  0.2172E+00
     29.180  0.6178E-02  0.2197E+00
     29.576  0.8125E-02  0.2230E+00
     29.973  0.5352E-02  0.2254E+00
     30.369  0.6251E-02  0.2279E+00
     30.766  0.6308E-02  0.2304E+00
     31.162  0.6233E-02  0.2329E+00
     31.559  0.2703E-02  0.2341E+00
     31.955  0.3954E-02  0.2357E+00
     32.352  0.1743E-02  0.2364E+00
     32.748  0.5495E-02  0.2387E+00
     33.145  0.5311E-02  0.2410E+00
     33.541  0.5934E-02  0.2434E+00
     33.938  0.8618E-02  0.2469E+00
     34.334  0.5045E-02  0.2490E+00
     34.731  0.8112E-02  0.2523E+00
     35.127  0.6130E-02  0.2548E+00
     35.523  0.5635E-02  0.2572E+00
     35.920  0.2620E-02  0.2583E+00
     36.316  0.1097E-02  0.2589E+00
     36.713  0.4622E-02  0.2607E+00
     37.109  0.3655E-02  0.2622E+00
     37.506  0.3083E-02  0.2635E+00
     37.902  0.5158E-02  0.2656E+00
     38.299  0.5471E-02  0.2679E+00
     38.695  0.4053E-02  0.2696E+00
     39.092  0.7421E-02  0.2726E+00
     39.488  0.4064E-02  0.2743E+00
     39.885  0.5917E-02  0.2766E+00
     40.281  0.3818E-02  0.2782E+00
     40.678  0.5847E-02  0.2806E+00
     41.074  0.7895E-02  0.2837E+00
     41.471  0.8248E-02  0.2871E+00
     41.867  0.1099E-01  0.2914E+00
     42.264  0.9227E-02  0.2953E+00
     42.660  0.1077E-01  0.2996E+00
     43.056  0.8094E-02  0.3030E+00
     43.453  0.9604E-02  0.3069E+00
     43.849  0.3658E-02  0.3084E+00
     44.246  0.5080E-02  0.3104E+00
     44.642  0.6139E-02  0.3129E+00
     45.039  0.5328E-02  0.3150E+00
     45.435  0.7269E-02  0.3181E+00
     45.832  0.5687E-02  0.3205E+00
     46.228  0.8641E-02  0.3240E+00
     46.625  0.1034E-01  0.3281E+00
     47.021  0.4233E-02  0.3300E+00
     47.418  0.7972E-02  0.3331E+00
     47.814  0.5017E-02  0.3351E+00
     48.211  0.4646E-02  0.3370E+00
     48.607  0.5896E-02  0.3395E+00
     49.004  0.5361E-02  0.3416E+00
     49.400  0.8240E-02  0.3449E+00
     49.797  0.5762E-02  0.3474E+00
     50.193  0.6791E-02  0.3503E+00
     50.589  0.1097E-01  0.3548E+00
     50.986  0.8365E-02  0.3584E+00
     51.382  0.1109E-01  0.3628E+00
     51.779  0.5648E-02  0.3653E+00
     52.175  0.1132E-01  0.3698E+00
     52.572  0.9886E-02  0.3738E+00
     52.968  0.9409E-02  0.3778E+00
     53.365  0.9382E-02  0.3816E+00
     53.761  0.1021E-01  0.3858E+00
     54.158  0.4811E-01  0.4051E+00
     54.554  0.6514E-02  0.4077E+00
     54.951  0.8027E-02  0.4111E+00
     55.347  0.7194E-02  0.4140E+00
     55.744  0.8409E-02  0.4173E+00
     56.140  0.6638E-02  0.4200E+00
     56.537  0.7759E-02  0.4231E+00
     56.933  0.9756E-02  0.4272E+00
     57.330  0.7445E-02  0.4302E+00
     57.726  0.7187E-02  0.4332E+00
     58.122  0.6631E-02  0.4359E+00
     58.519  0.6518E-02  0.4386E+00
     58.915  0.7656E-02  0.4417E+00
     59.312  0.6924E-02  0.4446E+00
     59.708  0.8871E-02  0.4483E+00
     60.105  0.9272E-02  0.4520E+00
     60.501  0.7395E-02  0.4551E+00
     60.898  0.9905E-02  0.4590E+00
     61.294  0.6909E-02  0.4619E+00
     61.691  0.8162E-02  0.4652E+00
     62.087  0.6404E-02  0.4678E+00
     62.484  0.5542E-02  0.4701E+00
     62.880  0.5967E-02  0.4726E+00
     63.277  0.4460E-02  0.4744E+00
     63.673  0.3782E-02  0.4759E+00
     64.070  0.1348E-02  0.4766E+00
     64.466  0.2115E-02  0.4774E+00
     64.863  0.7488E-03  0.4779E+00
     65.259  0.1869E-02  0.4787E+00
     65.655  0.1149E-02  0.4792E+00
     66.052  0.9448E-03  0.4795E+00
     66.448  0.0000E+00  0.4796E+00
     66.845  0.9689E-05  0.4796E+00
     67.241  0.5937E-03  0.4799E+00
     67.638  0.0000E+00  0.4799E+00
     68.034  0.6880E-08  0.4799E+00
     68.431  0.3027E-03  0.4800E+00
     68.827  0.0000E+00  0.4800E+00
     69.224  0.0000E+00  0.4800E+00
     69.620  0.0000E+00  0.4800E+00
     70.017  0.0000E+00  0.4800E+00
     70.413  0.0000E+00  0.4800E+00
     70.810  0.0000E+00  0.4800E+00
     71.206  0.0000E+00  0.4800E+00
     71.603  0.0000E+00  0.4800E+00
     71.999  0.0000E+00  0.4800E+00
     72.396  0.0000E+00  0.4800E+00
     72.792  0.0000E+00  0.4800E+00
     73.188  0.0000E+00  0.4800E+00
     73.585  0.0000E+00  0.4800E+00
     73.58493629    -45.35713207  301     13.40575320      1.00000000
    -45.357  0.0000E+00  0.0000E+00  0.0000E+00  0.0000E+00  0.0000E+00  0.0000E+00  0.0000E+00  0.0000E+00  0.0000E+00
    -44.961  0.0000E+00  0.0000E+00  0.0000E+00  0.0000E+00  0.0000E+00  0.0000E+00  0.0000E+00  0.0000E+00  0.0000E+00
    -44.564  0.0000E+00  0.0000E+00  0.0000E+00  0.0000E+00  0.0000E+00  0.0000E+00  0.0000E+00  0.0000E+00  0.0000E+00
    -44.168  0.0000E+00  0.0000E+00  0.0000E+00  0.0000E+00  0.0000E+00  0.0000E+00  0.0000E+00  0.0000E+00  0.0000E+00
    -43.771  0.0000E+00  0.0000E+00  0.0000E+00  0.0000E+00  0.0000E+00  0.0000E+00  0.0000E+00  0.0000E+00  0.0000E+00
    -43.375  0.0000E+00  0.0000E+00  0.0000E+00  0.0000E+00  0.0000E+00  0.0000E+00  0.0000E+00  0.0000E+00  0.0000E+00
    -42.978  0.0000E+00  0.0000E+00  0.0000E+00  0.0000E+00  0.0000E+00  0.0000E+00  0.0000E+00  0.0000E+00  0.0000E+00
    -42.582  0.0000E+00  0.0000E+00  0.0000E+00  0.0000E+00  0.0000E+00  0.0000E+00  0.0000E+00  0.0000E+00  0.0000E+00
    -42.185  0.0000E+00  0.0000E+00  0.0000E+00  0.0000E+00  0.0000E+00  0.0000E+00  0.0000E+00  0.0000E+00  0.0000E+00
    -41.789  0.0000E+00  0.0000E+00  0.0000E+00  0.0000E+00  0.0000E+00  0.0000E+00  0.0000E+00  0.0000E+00  0.0000E+00
    -41.392  0.0000E+00  0.0000E+00  0.0000E+00  0.0000E+00  0.0000E+00  0.0000E+00  0.0000E+00  0.0000E+00  0.0000E+00
    -40.996  0.0000E+00  0.0000E+00  0.0000E+00  0.0000E+00  0.0000E+00  0.0000E+00  0.0000E+00  0.0000E+00  0.0000E+00
    -40.599  0.0000E+00  0.0000E+00  0.0000E+00  0.0000E+00  0.0000E+00  0.0000E+00  0.0000E+00  0.0000E+00  0.0000E+00
    -40.203  0.5160E-19  0.5438E-14  0.5438E-14  0.5438E-14  0.3024E-19  0.3024E-19  0.2502E-19  0.3024E-19  0.2502E-19
    -39.807  0.1246E-03  0.9532E+00  0.9532E+00  0.9532E+00  0.4296E-04  0.4296E-04  0.2016E-04  0.4296E-04  0.2016E-04
    -39.410  0.3073E-03  0.3578E+01  0.3578E+01  0.3578E+01  0.1932E-03  0.1932E-03  0.1050E-03  0.1932E-03  0.1050E-03
    -39.014  0.1987E-05  0.1944E+00  0.1944E+00  0.1944E+00  0.2814E-05  0.2814E-05  0.1369E-05  0.2814E-05  0.1369E-05
    -38.617  0.0000E+00  0.0000E+00  0.0000E+00  0.0000E+00  0.0000E+00  0.0000E+00  0.0000E+00  0.0000E+00  0.0000E+00
    -38.221  0.0000E+00  0.0000E+00  0.0000E+00  0.0000E+00  0.0000E+00  0.0000E+00  0.0000E+00  0.0000E+00  0.0000E+00
    -37.824  0.0000E+00  0.0000E+00  0.0000E+00  0.0000E+00  0.0000E+00  0.0000E+00  0.0000E+00  0.0000E+00  0.0000E+00
    -37.428  0.0000E+00  0.0000E+00  0.0000E+00  0.0000E+00  0.0000E+00  0.0000E+00  0.0000E+00  0.0000E+00  0.0000E+00
    -37.031  0.0000E+00  0.0000E+00  0.0000E+00  0.0000E+00  0.0000E+00  0.0000E+00  0.0000E+00  0.0000E+00  0.0000E+00
    -36.635  0.0000E+00  0.0000E+00  0.0000E+00  0.0000E+00  0.0000E+00  0.0000E+00  0.0000E+00  0.0000E+00  0.0000E+00
    -36.238  0.0000E+00  0.0000E+00  0.0000E+00  0.0000E+00  0.0000E+00  0.0000E+00  0.0000E+00  0.0000E+00  0.0000E+00
    -35.842  0.0000E+00  0.0000E+00  0.0000E+00  0.0000E+00  0.0000E+00  0.0000E+00  0.0000E+00  0.0000E+00  0.0000E+00
    -35.445  0.0000E+00  0.0000E+00  0.0000E+00  0.0000E+00  0.0000E+00  0.0000E+00  0.0000E+00  0.0000E+00  0.0000E+00
    -35.049  0.0000E+00  0.0000E+00  0.0000E+00  0.0000E+00  0.0000E+00  0.0000E+00  0.0000E+00  0.0000E+00  0.0000E+00
    -34.652  0.0000E+00  0.0000E+00  0.0000E+00  0.0000E+00  0.0000E+00  0.0000E+00  0.0000E+00  0.0000E+00  0.0000E+00
    -34.256  0.0000E+00  0.0000E+00  0.0000E+00  0.0000E+00  0.0000E+00  0.0000E+00  0.0000E+00  0.0000E+00  0.0000E+00
    -33.859  0.0000E+00  0.0000E+00  0.0000E+00  0.0000E+00  0.0000E+00  0.0000E+00  0.0000E+00  0.0000E+00  0.0000E+00
    -33.463  0.0000E+00  0.0000E+00  0.0000E+00  0.0000E+00  0.0000E+00  0.0000E+00  0.0000E+00  0.0000E+00  0.0000E+00
    -33.066  0.0000E+00  0.0000E+00  0.0000E+00  0.0000E+00  0.0000E+00  0.0000E+00  0.0000E+00  0.0000E+00  0.0000E+00
    -32.670  0.0000E+00  0.0000E+00  0.0000E+00  0.0000E+00  0.0000E+00  0.0000E+00  0.0000E+00  0.0000E+00  0.0000E+00
    -32.274  0.0000E+00  0.0000E+00  0.0000E+00  0.0000E+00  0.0000E+00  0.0000E+00  0.0000E+00  0.0000E+00  0.0000E+00
    -31.877  0.0000E+00  0.0000E+00  0.0000E+00  0.0000E+00  0.0000E+00  0.0000E+00  0.0000E+00  0.0000E+00  0.0000E+00
    -31.481  0.0000E+00  0.0000E+00  0.0000E+00  0.0000E+00  0.0000E+00  0.0000E+00  0.0000E+00  0.0000E+00  0.0000E+00
    -31.084  0.0000E+00  0.0000E+00  0.0000E+00  0.0000E+00  0.0000E+00  0.0000E+00  0.0000E+00  0.0000E+00  0.0000E+00
    -30.688  0.0000E+00  0.0000E+00  0.0000E+00  0.0000E+00  0.0000E+00  0.0000E+00  0.0000E+00  0.0000E+00  0.0000E+00
    -30.291  0.0000E+00  0.0000E+00  0.0000E+00  0.0000E+00  0.0000E+00  0.0000E+00  0.0000E+00  0.0000E+00  0.0000E+00
    -29.895  0.0000E+00  0.0000E+00  0.0000E+00  0.0000E+00  0.0000E+00  0.0000E+00  0.0000E+00  0.0000E+00  0.0000E+00
    -29.498  0.0000E+00  0.0000E+00  0.0000E+00  0.0000E+00  0.0000E+00  0.0000E+00  0.0000E+00  0.0000E+00  0.0000E+00
    -29.102  0.0000E+00  0.0000E+00  0.0000E+00  0.0000E+00  0.0000E+00  0.0000E+00  0.0000E+00  0.0000E+00  0.0000E+00
    -28.705  0.0000E+00  0.0000E+00  0.0000E+00  0.0000E+00  0.0000E+00  0.0000E+00  0.0000E+00  0.0000E+00  0.0000E+00
    -28.309  0.0000E+00  0.0000E+00  0.0000E+00  0.0000E+00  0.0000E+00  0.0000E+00  0.0000E+00  0.0000E+00  0.0000E+00
    -27.912  0.0000E+00  0.0000E+00  0.0000E+00  0.0000E+00  0.0000E+00  0.0000E+00  0.0000E+00  0.0000E+00  0.0000E+00
    -27.516  0.0000E+00  0.0000E+00  0.0000E+00  0.0000E+00  0.0000E+00  0.0000E+00  0.0000E+00  0.0000E+00  0.0000E+00
    -27.119  0.0000E+00  0.0000E+00  0.0000E+00  0.0000E+00  0.0000E+00  0.0000E+00  0.0000E+00  0.0000E+00  0.0000E+00
    -26.723  0.0000E+00  0.0000E+00  0.0000E+00  0.0000E+00  0.0000E+00  0.0000E+00  0.0000E+00  0.0000E+00  0.0000E+00
    -26.326  0.0000E+00  0.0000E+00  0.0000E+00  0.0000E+00  0.0000E+00  0.0000E+00  0.0000E+00  0.0000E+00  0.0000E+00
    -25.930  0.0000E+00  0.0000E+00  0.0000E+00  0.0000E+00  0.0000E+00  0.0000E+00  0.0000E+00  0.0000E+00  0.0000E+00
    -25.533  0.0000E+00  0.0000E+00  0.0000E+00  0.0000E+00  0.0000E+00  0.0000E+00  0.0000E+00  0.0000E+00  0.0000E+00
    -25.137  0.0000E+00  0.0000E+00  0.0000E+00  0.0000E+00  0.0000E+00  0.0000E+00  0.0000E+00  0.0000E+00  0.0000E+00
    -24.741  0.0000E+00  0.0000E+00  0.0000E+00  0.0000E+00  0.0000E+00  0.0000E+00  0.0000E+00  0.0000E+00  0.0000E+00
    -24.344  0.0000E+00  0.0000E+00  0.0000E+00  0.0000E+00  0.0000E+00  0.0000E+00  0.0000E+00  0.0000E+00  0.0000E+00
    -23.948  0.0000E+00  0.0000E+00  0.0000E+00  0.0000E+00  0.0000E+00  0.0000E+00  0.0000E+00  0.0000E+00  0.0000E+00
    -23.551  0.0000E+00  0.0000E+00  0.0000E+00  0.0000E+00  0.0000E+00  0.0000E+00  0.0000E+00  0.0000E+00  0.0000E+00
    -23.155  0.0000E+00  0.0000E+00  0.0000E+00  0.0000E+00  0.0000E+00  0.0000E+00  0.0000E+00  0.0000E+00  0.0000E+00
    -22.758  0.0000E+00  0.0000E+00  0.0000E+00  0.0000E+00  0.0000E+00  0.0000E+00  0.0000E+00  0.0000E+00  0.0000E+00
    -22.362  0.0000E+00  0.0000E+00  0.0000E+00  0.0000E+00  0.0000E+00  0.0000E+00  0.0000E+00  0.0000E+00  0.0000E+00
    -21.965  0.0000E+00  0.0000E+00  0.0000E+00  0.0000E+00  0.0000E+00  0.0000E+00  0.0000E+00  0.0000E+00  0.0000E+00
    -21.569  0.0000E+00  0.0000E+00  0.0000E+00  0.0000E+00  0.0000E+00  0.0000E+00  0.0000E+00  0.0000E+00  0.0000E+00
    -21.172  0.0000E+00  0.0000E+00  0.0000E+00  0.0000E+00  0.0000E+00  0.0000E+00  0.0000E+00  0.0000E+00  0.0000E+00
    -20.776  0.0000E+00  0.0000E+00  0.0000E+00  0.0000E+00  0.0000E+00  0.0000E+00  0.0000E+00  0.0000E+00  0.0000E+00
    -20.379  0.0000E+00  0.0000E+00  0.0000E+00  0.0000E+00  0.0000E+00  0.0000E+00  0.0000E+00  0.0000E+00  0.0000E+00
    -19.983  0.0000E+00  0.0000E+00  0.0000E+00  0.0000E+00  0.0000E+00  0.0000E+00  0.0000E+00  0.0000E+00  0.0000E+00
    -19.586  0.0000E+00  0.0000E+00  0.0000E+00  0.0000E+00  0.0000E+00  0.0000E+00  0.0000E+00  0.0000E+00  0.0000E+00
    -19.190  0.0000E+00  0.0000E+00  0.0000E+00  0.0000E+00  0.0000E+00  0.0000E+00  0.0000E+00  0.0000E+00  0.0000E+00
    -18.793  0.0000E+00  0.0000E+00  0.0000E+00  0.0000E+00  0.0000E+00  0.0000E+00  0.0000E+00  0.0000E+00  0.0000E+00
    -18.397  0.0000E+00  0.0000E+00  0.0000E+00  0.0000E+00  0.0000E+00  0.0000E+00  0.0000E+00  0.0000E+00  0.0000E+00
    -18.000  0.0000E+00  0.0000E+00  0.0000E+00  0.0000E+00  0.0000E+00  0.0000E+00  0.0000E+00  0.0000E+00  0.0000E+00
    -17.604  0.0000E+00  0.0000E+00  0.0000E+00  0.0000E+00  0.0000E+00  0.0000E+00  0.0000E+00  0.0000E+00  0.0000E+00
    -17.208  0.0000E+00  0.0000E+00  0.0000E+00  0.0000E+00  0.0000E+00  0.0000E+00  0.0000E+00  0.0000E+00  0.0000E+00
    -16.811  0.0000E+00  0.0000E+00  0.0000E+00  0.0000E+00  0.0000E+00  0.0000E+00  0.0000E+00  0.0000E+00  0.0000E+00
    -16.415  0.0000E+00  0.0000E+00  0.0000E+00  0.0000E+00  0.0000E+00  0.0000E+00  0.0000E+00  0.0000E+00  0.0000E+00
    -16.018  0.0000E+00  0.0000E+00  0.0000E+00  0.0000E+00  0.0000E+00  0.0000E+00  0.0000E+00  0.0000E+00  0.0000E+00
    -15.622  0.0000E+00  0.0000E+00  0.0000E+00  0.0000E+00  0.0000E+00  0.0000E+00  0.0000E+00  0.0000E+00  0.0000E+00
    -15.225  0.0000E+00  0.0000E+00  0.0000E+00  0.0000E+00  0.0000E+00  0.0000E+00  0.0000E+00  0.0000E+00  0.0000E+00
    -14.829  0.0000E+00  0.0000E+00  0.0000E+00  0.0000E+00  0.0000E+00  0.0000E+00  0.0000E+00  0.0000E+00  0.0000E+00
    -14.432  0.0000E+00  0.0000E+00  0.0000E+00  0.0000E+00  0.0000E+00  0.0000E+00  0.0000E+00  0.0000E+00  0.0000E+00
    -14.036  0.0000E+00  0.0000E+00  0.0000E+00  0.0000E+00  0.0000E+00  0.0000E+00  0.0000E+00  0.0000E+00  0.0000E+00
    -13.639  0.0000E+00  0.0000E+00  0.0000E+00  0.0000E+00  0.0000E+00  0.0000E+00  0.0000E+00  0.0000E+00  0.0000E+00
    -13.243  0.0000E+00  0.0000E+00  0.0000E+00  0.0000E+00  0.0000E+00  0.0000E+00  0.0000E+00  0.0000E+00  0.0000E+00
    -12.846  0.0000E+00  0.0000E+00  0.0000E+00  0.0000E+00  0.0000E+00  0.0000E+00  0.0000E+00  0.0000E+00  0.0000E+00
    -12.450  0.0000E+00  0.0000E+00  0.0000E+00  0.0000E+00  0.0000E+00  0.0000E+00  0.0000E+00  0.0000E+00  0.0000E+00
    -12.053  0.0000E+00  0.0000E+00  0.0000E+00  0.0000E+00  0.0000E+00  0.0000E+00  0.0000E+00  0.0000E+00  0.0000E+00
    -11.657  0.0000E+00  0.0000E+00  0.0000E+00  0.0000E+00  0.0000E+00  0.0000E+00  0.0000E+00  0.0000E+00  0.0000E+00
    -11.260  0.0000E+00  0.0000E+00  0.0000E+00  0.0000E+00  0.0000E+00  0.0000E+00  0.0000E+00  0.0000E+00  0.0000E+00
    -10.864  0.0000E+00  0.0000E+00  0.0000E+00  0.0000E+00  0.0000E+00  0.0000E+00  0.0000E+00  0.0000E+00  0.0000E+00
    -10.467  0.0000E+00  0.0000E+00  0.0000E+00  0.0000E+00  0.0000E+00  0.0000E+00  0.0000E+00  0.0000E+00  0.0000E+00
    -10.071  0.0000E+00  0.0000E+00  0.0000E+00  0.0000E+00  0.0000E+00  0.0000E+00  0.0000E+00  0.0000E+00  0.0000E+00
     -9.675  0.0000E+00  0.0000E+00  0.0000E+00  0.0000E+00  0.0000E+00  0.0000E+00  0.0000E+00  0.0000E+00  0.0000E+00
     -9.278  0.0000E+00  0.0000E+00  0.0000E+00  0.0000E+00  0.0000E+00  0.0000E+00  0.0000E+00  0.0000E+00  0.0000E+00
     -8.882  0.0000E+00  0.0000E+00  0.0000E+00  0.0000E+00  0.0000E+00  0.0000E+00  0.0000E+00  0.0000E+00  0.0000E+00
     -8.485  0.0000E+00  0.0000E+00  0.0000E+00  0.0000E+00  0.0000E+00  0.0000E+00  0.0000E+00  0.0000E+00  0.0000E+00
     -8.089  0.0000E+00  0.0000E+00  0.0000E+00  0.0000E+00  0.0000E+00  0.0000E+00  0.0000E+00  0.0000E+00  0.0000E+00
     -7.692  0.0000E+00  0.0000E+00  0.0000E+00  0.0000E+00  0.0000E+00  0.0000E+00  0.0000E+00  0.0000E+00  0.0000E+00
     -7.296  0.0000E+00  0.0000E+00  0.0000E+00  0.0000E+00  0.0000E+00  0.0000E+00  0.0000E+00  0.0000E+00  0.0000E+00
     -6.899  0.0000E+00  0.0000E+00  0.0000E+00  0.0000E+00  0.0000E+00  0.0000E+00  0.0000E+00  0.0000E+00  0.0000E+00
     -6.503  0.0000E+00  0.0000E+00  0.0000E+00  0.0000E+00  0.0000E+00  0.0000E+00  0.0000E+00  0.0000E+00  0.0000E+00
     -6.106  0.0000E+00  0.0000E+00  0.0000E+00  0.0000E+00  0.0000E+00  0.0000E+00  0.0000E+00  0.0000E+00  0.0000E+00
     -5.710  0.0000E+00  0.0000E+00  0.0000E+00  0.0000E+00  0.0000E+00  0.0000E+00  0.0000E+00  0.0000E+00  0.0000E+00
     -5.313  0.0000E+00  0.0000E+00  0.0000E+00  0.0000E+00  0.0000E+00  0.0000E+00  0.0000E+00  0.0000E+00  0.0000E+00
     -4.917  0.0000E+00  0.0000E+00  0.0000E+00  0.0000E+00  0.0000E+00  0.0000E+00  0.0000E+00  0.0000E+00  0.0000E+00
     -4.520  0.0000E+00  0.0000E+00  0.0000E+00  0.0000E+00  0.0000E+00  0.0000E+00  0.0000E+00  0.0000E+00  0.0000E+00
     -4.124  0.0000E+00  0.0000E+00  0.0000E+00  0.0000E+00  0.0000E+00  0.0000E+00  0.0000E+00  0.0000E+00  0.0000E+00
     -3.727  0.0000E+00  0.0000E+00  0.0000E+00  0.0000E+00  0.0000E+00  0.0000E+00  0.0000E+00  0.0000E+00  0.0000E+00
     -3.331  0.0000E+00  0.0000E+00  0.0000E+00  0.0000E+00  0.0000E+00  0.0000E+00  0.0000E+00  0.0000E+00  0.0000E+00
     -2.934  0.0000E+00  0.0000E+00  0.0000E+00  0.0000E+00  0.0000E+00  0.0000E+00  0.0000E+00  0.0000E+00  0.0000E+00
     -2.538  0.0000E+00  0.0000E+00  0.0000E+00  0.0000E+00  0.0000E+00  0.0000E+00  0.0000E+00  0.0000E+00  0.0000E+00
     -2.142  0.0000E+00  0.0000E+00  0.0000E+00  0.0000E+00  0.0000E+00  0.0000E+00  0.0000E+00  0.0000E+00  0.0000E+00
     -1.745  0.0000E+00  0.0000E+00  0.0000E+00  0.0000E+00  0.0000E+00  0.0000E+00  0.0000E+00  0.0000E+00  0.0000E+00
     -1.349  0.0000E+00  0.0000E+00  0.0000E+00  0.0000E+00  0.0000E+00  0.0000E+00  0.0000E+00  0.0000E+00  0.0000E+00
     -0.952  0.0000E+00  0.0000E+00  0.0000E+00  0.0000E+00  0.0000E+00  0.0000E+00  0.0000E+00  0.0000E+00  0.0000E+00
     -0.556  0.0000E+00  0.0000E+00  0.0000E+00  0.0000E+00  0.0000E+00  0.0000E+00  0.0000E+00  0.0000E+00  0.0000E+00
     -0.159  0.0000E+00  0.0000E+00  0.0000E+00  0.0000E+00  0.0000E+00  0.0000E+00  0.0000E+00  0.0000E+00  0.0000E+00
      0.237  0.0000E+00  0.0000E+00  0.0000E+00  0.0000E+00  0.0000E+00  0.0000E+00  0.0000E+00  0.0000E+00  0.0000E+00
      0.634  0.0000E+00  0.0000E+00  0.0000E+00  0.0000E+00  0.0000E+00  0.0000E+00  0.0000E+00  0.0000E+00  0.0000E+00
      1.030  0.0000E+00  0.0000E+00  0.0000E+00  0.0000E+00  0.0000E+00  0.0000E+00  0.0000E+00  0.0000E+00  0.0000E+00
      1.427  0.0000E+00  0.0000E+00  0.0000E+00  0.0000E+00  0.0000E+00  0.0000E+00  0.0000E+00  0.0000E+00  0.0000E+00
      1.823  0.0000E+00  0.0000E+00  0.0000E+00  0.0000E+00  0.0000E+00  0.0000E+00  0.0000E+00  0.0000E+00  0.0000E+00
      2.220  0.5708E-17  0.6921E-20  0.6921E-20  0.6921E-20  0.3930E-21  0.3930E-21  0.1672E-37  0.3930E-21  0.1672E-37
      2.616  0.4282E-02  0.5192E-05  0.5192E-05  0.5192E-05  0.2948E-06  0.2948E-06  0.4913E-11  0.2948E-06  0.4913E-11
      3.013  0.1396E-01  0.6592E-04  0.6592E-04  0.6592E-04  0.9030E-05  0.9030E-05  0.5089E-05  0.9030E-05  0.5089E-05
      3.409  0.2719E-01  0.2560E-03  0.2560E-03  0.2560E-03  0.7387E-04  0.7387E-04  0.5211E-04  0.7387E-04  0.5211E-04
      3.806  0.2969E-01  0.4171E-03  0.4171E-03  0.4171E-03  0.2760E-03  0.2760E-03  0.7840E-04  0.2760E-03  0.7840E-04
      4.202  0.3096E-01  0.5924E-03  0.5924E-03  0.5924E-03  0.4671E-03  0.4671E-03  0.2961E-03  0.4671E-03  0.2961E-03
      4.599  0.4507E-01  0.1014E-02  0.1014E-02  0.1014E-02  0.1484E-02  0.1484E-02  0.5643E-03  0.1484E-02  0.5643E-03
      4.995  0.5609E-01  0.1543E-02  0.1543E-02  0.1543E-02  0.4086E-02  0.4086E-02  0.1295E-02  0.4086E-02  0.1295E-02
      5.391  0.6166E-01  0.1838E-02  0.1838E-02  0.1838E-02  0.1247E-01  0.1247E-01  0.2465E-02  0.1247E-01  0.2465E-02
      5.788  0.1111E+00  0.2952E-02  0.2952E-02  0.2952E-02  0.5492E-01  0.5492E-01  0.2717E-01  0.5492E-01  0.2717E-01
      6.184  0.1235E+00  0.4785E-02  0.4785E-02  0.4785E-02  0.7097E-01  0.7097E-01  0.1047E+00  0.7097E-01  0.1047E+00
      6.581  0.1076E+00  0.5365E-02  0.5365E-02  0.5365E-02  0.1596E+00  0.1596E+00  0.1246E+00  0.1596E+00  0.1246E+00
      6.977  0.6471E-01  0.5369E-02  0.5369E-02  0.5369E-02  0.1901E+00  0.1901E+00  0.1076E+00  0.1901E+00  0.1076E+00
      7.374  0.3397E-01  0.6227E-02  0.6227E-02  0.6227E-02  0.1616E+00  0.1616E+00  0.1286E+00  0.1616E+00  0.1286E+00
      7.770  0.9400E-02  0.6286E-02  0.6286E-02  0.6286E-02  0.1223E+00  0.1223E+00  0.9613E-01  0.1223E+00  0.9613E-01
      8.167  0.9679E-02  0.9111E-02  0.9111E-02  0.9111E-02  0.1483E+00  0.1483E+00  0.1787E+00  0.1483E+00  0.1787E+00
      8.563  0.1275E-01  0.6733E-02  0.6733E-02  0.6733E-02  0.1796E+00  0.1796E+00  0.1188E+00  0.1796E+00  0.1188E+00
      8.960  0.1788E-01  0.1001E-01  0.1001E-01  0.1001E-01  0.2404E+00  0.2404E+00  0.1464E+00  0.2404E+00  0.1464E+00
      9.356  0.2543E-01  0.9990E-02  0.9990E-02  0.9990E-02  0.2150E+00  0.2150E+00  0.2175E+00  0.2150E+00  0.2175E+00
      9.753  0.2732E-01  0.1433E-01  0.1433E-01  0.1433E-01  0.3634E+00  0.3634E+00  0.2212E+00  0.3634E+00  0.2212E+00
     10.149  0.1468E-01  0.8746E-02  0.8746E-02  0.8746E-02  0.1903E+00  0.1903E+00  0.1776E+00  0.1903E+00  0.1776E+00
     10.546  0.1231E-01  0.7197E-02  0.7197E-02  0.7197E-02  0.1247E+00  0.1247E+00  0.1742E+00  0.1247E+00  0.1742E+00
     10.942  0.9343E-02  0.7031E-02  0.7031E-02  0.7031E-02  0.1102E+00  0.1102E+00  0.2578E+00  0.1102E+00  0.2578E+00
     11.339  0.1259E-01  0.7825E-02  0.7825E-02  0.7825E-02  0.1179E+00  0.1179E+00  0.3856E+00  0.1179E+00  0.3856E+00
     11.735  0.1013E-01  0.4957E-02  0.4957E-02  0.4957E-02  0.1077E+00  0.1077E+00  0.2470E+00  0.1077E+00  0.2470E+00
     12.132  0.3882E-02  0.4011E-02  0.4011E-02  0.4011E-02  0.8837E-01  0.8837E-01  0.2287E+00  0.8837E-01  0.2287E+00
     12.528  0.6872E-02  0.3463E-02  0.3463E-02  0.3463E-02  0.1603E+00  0.1603E+00  0.2453E+00  0.1603E+00  0.2453E+00
     12.924  0.3873E-02  0.2270E-02  0.2270E-02  0.2270E-02  0.1476E+00  0.1476E+00  0.1453E+00  0.1476E+00  0.1453E+00
     13.321  0.6666E-02  0.2489E-02  0.2489E-02  0.2489E-02  0.2763E+00  0.2763E+00  0.2701E+00  0.2763E+00  0.2701E+00
     13.717  0.1400E-01  0.3516E-02  0.3516E-02  0.3516E-02  0.3332E+00  0.3332E+00  0.1707E+00  0.3332E+00  0.1707E+00
     14.114  0.4356E-02  0.1029E-02  0.1029E-02  0.1029E-02  0.1041E+00  0.1041E+00  0.2392E-01  0.1041E+00  0.2392E-01
     14.510  0.1188E-01  0.3412E-02  0.3412E-02  0.3412E-02  0.3521E-01  0.3521E-01  0.3346E-01  0.3521E-01  0.3346E-01
     14.907  0.2096E-01  0.5658E-02  0.5658E-02  0.5658E-02  0.5096E-01  0.5096E-01  0.4033E-01  0.5096E-01  0.4033E-01
     15.303  0.9237E-02  0.3441E-02  0.3441E-02  0.3441E-02  0.2035E-01  0.2035E-01  0.1681E-01  0.2035E-01  0.1681E-01
     15.700  0.3233E-01  0.7361E-02  0.7361E-02  0.7361E-02  0.4996E-01  0.4996E-01  0.3484E-01  0.4996E-01  0.3484E-01
     16.096  0.1302E-01  0.7789E-02  0.7789E-02  0.7789E-02  0.2738E-01  0.2738E-01  0.1865E-01  0.2738E-01  0.1865E-01
     16.493  0.3079E-01  0.4840E-02  0.4840E-02  0.4840E-02  0.3024E-01  0.3024E-01  0.2157E-01  0.3024E-01  0.2157E-01