    1    1  100    1
  0.1414435E+02  0.2714559E-09  0.2714559E-09  0.2714559E-09  0.5000000E-15
  1.000000000000000E-004
  CAR 
 Pt-fcc                                  
     16    110     24
 
  0.5000000E-01  0.5000000E-01  0.5000000E-01  0.2000000E-02
      1        -39.373541   1.000000
      2        -39.360510   1.000000
      3        -39.360510   1.000000
      4          2.499209   1.000000
      5          9.113655   1.000000
      6          9.210195   1.000000
      7          9.210195   1.000000
      8         11.544982   1.000000
      9         11.544982   1.000000
     10         27.967102   0.000000
     11         32.562292   0.000000
     12         33.291398   0.000000
     13         33.291398   0.000000
     14         39.376437   0.000000
     15         45.307225   0.000000
     16         46.069511   0.000000
     17         46.069511   0.000000
     18         49.826209   0.000000
     19         49.826209   0.000000
     20         50.796164   0.000000
     21         53.806847   0.000000
     22         56.391570   0.000000
     23         56.391570   0.000000
     24         63.529002   0.000000
 
  0.1500000E+00  0.5000000E-01  0.5000000E-01  0.6000000E-02
      1        -39.445307   1.000000
      2        -39.381559   1.000000
      3        -39.366114   1.000000
      4          3.056888   1.000000
      5          8.850739   1.000000
      6          9.409935   1.000000
      7          9.453947   1.000000
      8         11.285848   1.000000
      9         11.606200   1.000000
     10         28.821849   0.000000
     11         30.854369   0.000000
     12         33.522114   0.000000
     13         34.505636   0.000000
     14         40.520064   0.000000
     15         42.918416   0.000000
     16         43.367995   0.000000
     17         45.035175   0.000000
     18         47.957204   0.000000
     19         51.260382   0.000000
     20         53.618444   0.000000
     21         53.812012   0.000000
     22         55.059744   0.000000
     23         57.573577   0.000000
     24         64.228156   0.000000
 
  0.2500000E+00  0.5000000E-01  0.5000000E-01  0.6000000E-02
      1        -39.604235   1.000000
      2        -39.409551   1.000000
      3        -39.387152   1.000000
      4          4.232226   1.000000
      5          8.604889   1.000000
      6          9.616625   1.000000
      7          9.660734   1.000000
      8         11.260585   1.000000
      9         11.897856   1.000000
     10         28.080663   0.000000
     11         30.010473   0.000000
     12         34.896774   0.000000
     13         36.813138   0.000000
     14         37.002345   0.000000
     15         40.393147   0.000000
     16         40.767673   0.000000
     17         47.126400   0.000000
     18         48.296556   0.000000
     19         51.809909   0.000000
     20         53.656969   0.000000
     21         53.813612   0.000000
     22         56.580241   0.000000
     23         58.145373   0.000000
     24         64.557180   0.000000
 
  0.3500000E+00  0.5000000E-01  0.5000000E-01  0.6000000E-02
      1        -39.783548   1.000000
      2        -39.437213   1.000000
      3        -39.414608   1.000000
      4          5.219695   1.000000
      5          9.251226   1.000000
      6          9.443495   1.000000
      7          9.479243   1.000000
      8         12.002930   1.000000
      9         12.735830   1.000000
     10         24.810229   0.000000
     11         29.158886   0.000000
     12         34.474102   0.000000
     13         36.749088   0.000000
     14         37.658244   0.000000
     15         39.733215   0.000000
     16         40.155786   0.000000
     17         48.642358   0.000000
     18         51.006109   0.000000
     19         52.967247   0.000000
     20         53.788373   0.000000
     21         53.992844   0.000000
     22         56.978543   0.000000
     23         58.808294   0.000000
     24         63.600712   0.000000
 
  0.4500000E+00  0.5000000E-01  0.5000000E-01  0.6000000E-02
      1        -39.914162   1.000000
      2        -39.453683   1.000000
      3        -39.437577   1.000000
      4          5.429092   1.000000
      5          9.113496   1.000000
      6          9.225540   1.000000
      7         11.157409   1.000000
      8         12.966210   1.000000
      9         13.707085   0.000000
     10         21.249605   0.000000
     11         27.895722   0.000000
     12         32.790075   0.000000
     13         33.838100   0.000000
     14         40.935419   0.000000
     15         42.232360   0.000000
     16         42.637194   0.000000
     17         49.133858   0.000000
     18         50.691518   0.000000
     19         51.808912   0.000000
     20         53.803729   0.000000
     21         56.367786   0.000000
     22         59.225292   0.000000
     23         59.293139   0.000000
     24         60.673428   0.000000
 
 -0.4500000E+00  0.5000000E-01  0.5000000E-01  0.6000000E-02
      1        -39.950674   1.000000
      2        -39.453634   1.000000
      3        -39.447874   1.000000
      4          5.421560   1.000000
      5          9.012258   1.000000
      6          9.167152   1.000000
      7         11.936921   1.000000
      8         13.445775   0.128817
      9         14.115945   0.000000
     10         19.762574   0.000000
     11         27.566752   0.000000
     12         32.631676   0.000000
     13         32.658544   0.000000
     14         42.489393   0.000000
     15         42.748211   0.000000
     16         44.227603   0.000000
     17         49.273545   0.000000
     18         49.943045   0.000000
     19         50.494100   0.000000
     20         53.808496   0.000000
     21         57.447733   0.000000
     22         58.030567   0.000000
     23         60.458726   0.000000
     24         61.135761   0.000000
 
 -0.3500000E+00  0.5000000E-01  0.5000000E-01  0.6000000E-02
      1        -39.879637   1.000000
      2        -39.442594   1.000000
      3        -39.438031   1.000000
      4          5.410092   1.000000
      5          9.158530   1.000000
      6          9.333465   1.000000
      7         10.460794   1.000000
      8         13.010762   1.000000
      9         13.107705   1.000000
     10         22.371456   0.000000
     11         28.224752   0.000000
     12         33.464163   0.000000
     13         34.339401   0.000000
     14         40.591916   0.000000
     15         40.747890   0.000000
     16         41.852263   0.000000
     17         48.474341   0.000000
     18         51.761249   0.000000
     19         52.360440   0.000000
     20         53.802609   0.000000
     21         56.302612   0.000000
     22         57.248614   0.000000
     23         59.419387   0.000000
     24         61.460612   0.000000
 
 -0.2500000E+00  0.5000000E-01  0.5000000E-01  0.6000000E-02
      1        -39.725865   1.000000
      2        -39.422280   1.000000
      3        -39.411373   1.000000
      4          4.978884   1.000000
      5          8.870469   1.000000
      6          9.480017   1.000000
      7          9.597380   1.000000
      8         11.831205   1.000000
      9         12.301215   1.000000
     10         25.978065   0.000000
     11         29.660513   0.000000
     12         35.277884   0.000000
     13         36.426092   0.000000
     14         38.296985   0.000000
     15         38.728402   0.000000
     16         39.579253   0.000000
     17         48.200154   0.000000
     18         50.804599   0.000000
     19         52.051686   0.000000
     20         53.795554   0.000000
     21         54.446990   0.000000
     22         55.658538   0.000000
     23         59.275875   0.000000
     24         64.858635   0.000000
 
 -0.1500000E+00  0.5000000E-01  0.5000000E-01  0.6000000E-02
      1        -39.544885   1.000000
      2        -39.395332   1.000000
      3        -39.384365   1.000000
      4          3.806177   1.000000
      5          8.618647   1.000000
      6          9.610624   1.000000
      7          9.636086   1.000000
      8         11.198121   1.000000
      9         11.726228   1.000000
     10         29.073396   0.000000
     11         29.746278   0.000000
     12         34.590966   0.000000
     13         35.476440   0.000000
     14         38.562824   0.000000
     15         40.644295   0.000000
     16         42.416268   0.000000
     17         45.599407   0.000000
     18         48.063120   0.000000
     19         52.077569   0.000000
     20         53.785702   0.000000
     21         54.040297   0.000000
     22         55.016665   0.000000
     23         58.468708   0.000000
     24         64.460174   0.000000
 
 -0.5000000E-01  0.5000000E-01  0.5000000E-01  0.6000000E-02
      1        -39.406201   1.000000
      2        -39.371552   1.000000
      3        -39.367879   1.000000
      4          2.783852   1.000000
      5          8.935298   1.000000
      6          9.346315   1.000000
      7          9.354843   1.000000
      8         11.330586   1.000000
      9         11.630978   1.000000
     10         28.421133   0.000000
     11         31.797204   0.000000
     12         33.382790   0.000000
     13         33.633194   0.000000
     14         40.723280   0.000000
     15         43.552850   0.000000
     16         43.924259   0.000000
     17         46.157794   0.000000
     18         47.640365   0.000000
     19         51.857296   0.000000
     20         52.384594   0.000000
     21         53.805102   0.000000
     22         54.871366   0.000000
     23         57.543660   0.000000
     24         64.063342   0.000000
 
  0.1500000E+00  0.1500000E+00  0.5000000E-01  0.6000000E-02
      1        -39.461161   1.000000
      2        -39.392420   1.000000
      3        -39.388282   1.000000
      4          3.332498   1.000000
      5          8.589623   1.000000
      6          9.633573   1.000000
      7          9.641381   1.000000
      8         10.955259   1.000000
      9         11.797647   1.000000
     10         29.278126   0.000000
     11         31.110037   0.000000
     12         33.417057   0.000000
     13         33.772635   0.000000
     14         41.065142   0.000000
     15         41.886343   0.000000
     16         43.612235   0.000000
     17         44.346052   0.000000
     18         46.718426   0.000000
     19         52.462295   0.000000
     20         53.794848   0.000000
     21         54.032352   0.000000
     22         54.130740   0.000000
     23         58.475424   0.000000
     24         65.383964   0.000000
 
  0.2500000E+00  0.1500000E+00  0.5000000E-01  0.1200000E-01
      1        -39.572427   1.000000
      2        -39.432401   1.000000
      3        -39.404030   1.000000
      4          4.314945   1.000000
      5          8.193384   1.000000
      6          9.752153   1.000000
      7         10.045227   1.000000
      8         10.830660   1.000000
      9         12.114296   1.000000
     10         29.443511   0.000000
     11         30.519718   0.000000
     12         33.171048   0.000000
     13         34.528339   0.000000
     14         38.355951   0.000000
     15         40.767042   0.000000
     16         42.304384   0.000000
     17         45.955449   0.000000
     18         47.210253   0.000000
     19         51.244182   0.000000
     20         53.255410   0.000000
     21         53.797725   0.000000
     22         56.993504   0.000000
     23         59.921399   0.000000
     24         65.304061   0.000000
 
  0.3500000E+00  0.1500000E+00  0.5000000E-01  0.1200000E-01
      1        -39.729311   1.000000
      2        -39.468042   1.000000
      3        -39.430038   1.000000
      4          5.480774   1.000000
      5          8.251961   1.000000
      6          9.269665   1.000000
      7         10.053265   1.000000
      8         11.781207   1.000000
      9         12.934089   1.000000
     10         26.310490   0.000000
     11         30.232417   0.000000
     12         32.695471   0.000000
     13         34.643290   0.000000
     14         38.965019   0.000000
     15         39.853902   0.000000
     16         41.801786   0.000000
     17         45.227266   0.000000
     18         50.799344   0.000000
     19         52.759959   0.000000
     20         53.057478   0.000000
     21         53.799088   0.000000
     22         57.016335   0.000000
     23         61.420027   0.000000
     24         63.154077   0.000000
 
  0.4500000E+00  0.1500000E+00  0.5000000E-01  0.1200000E-01
      1        -39.862879   1.000000
      2        -39.494196   1.000000
      3        -39.456358   1.000000
      4          5.896636   1.000000
      5          8.795933   1.000000
      6          9.437916   1.000000
      7          9.812235   1.000000
      8         13.011394   1.000000
      9         14.252857   0.000000
     10         22.439104   0.000000
     11         28.943526   0.000000
     12         31.573689   0.000000
     13         33.863642   0.000000
     14         39.782093   0.000000
     15         42.317631   0.000000
     16         43.280737   0.000000
     17         45.572242   0.000000
     18         52.248161   0.000000
     19         52.538131   0.000000
     20         53.804531   0.000000
     21         54.546727   0.000000
     22         58.092987   0.000000
     23         59.664658   0.000000
     24         61.467156   0.000000
 
 -0.4500000E+00  0.1500000E+00  0.5000000E-01  0.1200000E-01
      1        -39.924664   1.000000
      2        -39.511366   1.000000
      3        -39.464769   1.000000
      4          5.908724   1.000000
      5          8.609342   1.000000
      6          9.598440   1.000000
      7         10.591069   1.000000
      8         13.357823   0.912398
      9         15.917580   0.000000
     10         19.574791   0.000000
     11         28.381627   0.000000
     12         31.236272   0.000000
     13         32.377423   0.000000
     14         41.642976   0.000000
     15         42.461474   0.000000
     16         45.429971   0.000000
     17         47.847200   0.000000
     18         50.136703   0.000000
     19         52.029726   0.000000
     20         53.799732   0.000000
     21         54.830520   0.000000
     22         56.282823   0.000000
     23         60.532911   0.000000
     24         62.454438   0.000000
 
 -0.3500000E+00  0.1500000E+00  0.5000000E-01  0.1200000E-01
      1        -39.890855   1.000000
      2        -39.513279   1.000000
      3        -39.450408   1.000000
      4          5.941008   1.000000
      5          8.737840   1.000000
      6          9.630393   1.000000
      7         10.097088   1.000000
      8         12.805831   1.000000
      9         15.069233   0.000000
     10         21.332894   0.000000
     11         28.639582   0.000000
     12         30.978080   0.000000
     13         33.824073   0.000000
     14         39.743796   0.000000
     15         42.526087   0.000000
     16         44.469963   0.000000
     17         47.445126   0.000000
     18         51.436192   0.000000
     19         52.501286   0.000000
     20         53.326329   0.000000
     21         53.806150   0.000000
     22         57.999874   0.000000
     23         60.371121   0.000000
     24         61.358277   0.000000
 
 -0.2500000E+00  0.1500000E+00  0.5000000E-01  0.1200000E-01
      1        -39.776419   1.000000
      2        -39.494572   1.000000
      3        -39.422843   1.000000
      4          5.759975   1.000000
      5          8.639039   1.000000
      6          9.146752   1.000000
      7          9.916173   1.000000
      8         11.694215   1.000000
      9         13.659489   0.000000
     10         25.063359   0.000000
     11         29.647003   0.000000
     12         31.924392   0.000000
     13         35.603512   0.000000
     14         37.741842   0.000000
     15         41.266874   0.000000
     16         42.794130   0.000000
     17         45.409006   0.000000
     18         51.051889   0.000000
     19         51.491639   0.000000
     20         53.803593   0.000000
     21         55.089728   0.000000
     22         57.558855   0.000000
     23         60.793068   0.000000
     24         61.931215   0.000000
 
 -0.1500000E+00  0.1500000E+00  0.5000000E-01  0.1200000E-01
      1        -39.626435   1.000000
      2        -39.455361   1.000000
      3        -39.395029   1.000000
      4          4.736734   1.000000
      5          8.243428   1.000000
      6          9.578179   1.000000
      7         10.079856   1.000000
      8         10.833919   1.000000
      9         12.474804   1.000000
     10         28.285689   0.000000
     11         30.534175   0.000000
     12         33.289533   0.000000
     13         34.497221   0.000000
     14         38.143906   0.000000
     15         41.398541   0.000000
     16         42.373685   0.000000
     17         44.867444   0.000000
     18         48.253812   0.000000
     19         51.247942   0.000000
     20         52.755576   0.000000
     21         53.797814   0.000000
     22         58.908427   0.000000
     23         60.098632   0.000000
     24         64.128552   0.000000
 
 -0.5000000E-01  0.1500000E+00  0.5000000E-01  0.1200000E-01
      1        -39.503013   1.000000
      2        -39.402866   1.000000
      3        -39.378417   1.000000
      4          3.583216   1.000000
      5          8.583184   1.000000
      6          9.631930   1.000000
      7          9.654348   1.000000
      8         11.017705   1.000000
      9         11.794400   1.000000
     10         29.567066   0.000000
     11         30.037886   0.000000
     12         33.523921   0.000000
     13         35.117508   0.000000
     14         39.020282   0.000000
     15         41.840779   0.000000
     16         44.158463   0.000000
     17         44.758731   0.000000
     18         46.334139   0.000000
     19         52.142407   0.000000
     20         53.252295   0.000000
     21         53.803164   0.000000
     22         55.698196   0.000000
     23         58.741817   0.000000
     24         64.948928   0.000000
 
  0.2500000E+00  0.2500000E+00  0.5000000E-01  0.6000000E-02
      1        -39.616572   1.000000
      2        -39.454436   1.000000
      3        -39.453817   1.000000
      4          4.952153   1.000000
      5          7.662675   1.000000
      6          9.919469   1.000000
      7         10.605904   1.000000
      8         10.862504   1.000000
      9         12.319935   1.000000
     10         30.294317   0.000000
     11         31.689526   0.000000
     12         31.965183   0.000000
     13         32.589286   0.000000
     14         37.352494   0.000000
     15         40.457561   0.000000
     16         40.753349   0.000000
     17         47.591129   0.000000
     18         48.397418   0.000000
     19         49.617400   0.000000
     20         53.786910   0.000000
     21         55.897021   0.000000
     22         56.763127   0.000000
     23         58.491731   0.000000
     24         68.178479   0.000000
 
  0.3500000E+00  0.2500000E+00  0.5000000E-01  0.1200000E-01
      1        -39.720628   1.000000
      2        -39.503610   1.000000
      3        -39.476671   1.000000
      4          5.865503   1.000000
      5          7.326522   1.000000
      6          9.489252   1.000000
      7         11.119197   1.000000
      8         11.799974   1.000000
      9         12.985588   1.000000
     10         28.022063   0.000000
     11         30.124556   0.000000
     12         31.155301   0.000000
     13         33.680660   0.000000
     14         36.539249   0.000000
     15         40.680336   0.000000
     16         42.005370   0.000000
     17         47.240303   0.000000
     18         47.610532   0.000000
     19         52.402339   0.000000
     20         53.798776   0.000000
     21         55.659019   0.000000
     22         57.698059   0.000000
     23         59.340680   0.000000
     24         66.034770   0.000000
 
  0.4500000E+00  0.2500000E+00  0.5000000E-01  0.1200000E-01
      1        -39.820106   1.000000
      2        -39.552610   1.000000
      3        -39.500346   1.000000
      4          6.408121   1.000000
      5          7.644384   1.000000
      6          9.106485   1.000000
      7         10.912409   1.000000
      8         13.167840   1.000000
      9         14.587667   0.000000
     10         23.830821   0.000000
     11         29.374370   0.000000
     12         29.524690   0.000000
     13         33.633929   0.000000
     14         38.839695   0.000000
     15         41.395160   0.000000
     16         43.541216   0.000000
     17         46.506910   0.000000
     18         49.040961   0.000000
     19         52.347775   0.000000
     20         53.799558   0.000000
     21         55.853879   0.000000
     22         59.198716   0.000000
     23         59.848311   0.000000
     24         63.344297   0.000000
 
 -0.4500000E+00  0.2500000E+00  0.5000000E-01  0.1200000E-01
      1        -39.869541   1.000000
      2        -39.602276   1.000000
      3        -39.503132   1.000000
      4          6.575699   1.000000
      5          8.002628   1.000000
      6          9.354331   1.000000
      7         10.605993   1.000000
      8         13.407113   0.484659
      9         17.333164   0.000000
     10         20.061583   0.000000
     11         28.146455   0.000000
     12         29.707416   0.000000
     13         32.487135   0.000000
     14         40.690055   0.000000
     15         42.755365   0.000000
     16         44.000769   0.000000
     17         47.195652   0.000000
     18         50.936445   0.000000
     19         51.933049   0.000000
     20         53.802142   0.000000
     21         54.840263   0.000000
     22         57.526447   0.000000
     23         60.402742   0.000000
     24         62.967983   0.000000
 
 -0.3500000E+00  0.2500000E+00  0.5000000E-01  0.1200000E-01
      1        -39.854713   1.000000
      2        -39.630651   1.000000
      3        -39.483510   1.000000
      4          6.828202   1.000000
      5          8.110962   1.000000
      6          9.343393   1.000000
      7         10.449275   1.000000
      8         12.740420   1.000000
      9         17.124989   0.000000
     10         20.930281   0.000000
     11         27.114805   0.000000
     12         30.551449   0.000000
     13         32.846227   0.000000
     14         39.536144   0.000000
     15         41.897846   0.000000
     16         45.548266   0.000000
     17         49.387644   0.000000
     18         50.573660   0.000000
     19         52.855108   0.000000
     20         53.549213   0.000000
     21         53.803437   0.000000
     22         55.509142   0.000000
     23         59.926094   0.000000
     24         62.188207   0.000000
 
 -0.2500000E+00  0.2500000E+00  0.5000000E-01  0.1200000E-01
      1        -39.798606   1.000000
      2        -39.606988   1.000000
      3        -39.450841   1.000000
      4          6.946259   1.000000
      5          8.274970   1.000000
      6          8.558836   1.000000
      7         10.560395   1.000000
      8         11.645580   1.000000
      9         15.419320   0.000000
     10         24.243909   0.000000
     11         27.360726   0.000000
     12         30.927513   0.000000
     13         35.487249   0.000000
     14         36.520668   0.000000
     15         42.074795   0.000000
     16         46.032181   0.000000
     17         46.737399   0.000000
     18         48.699328   0.000000
     19         51.896138   0.000000
     20         53.803583   0.000000
     21         55.712738   0.000000
     22         58.951388   0.000000
     23         59.724939   0.000000
     24         60.841716   0.000000
 
 -0.1500000E+00  0.2500000E+00  0.5000000E-01  0.1200000E-01
      1        -39.734961   1.000000
      2        -39.525229   1.000000
      3        -39.419133   1.000000
      4          5.980735   1.000000
      5          8.106830   1.000000
      6          9.114060   1.000000
      7         10.400057   1.000000
      8         11.030037   1.000000
      9         13.803886   0.000000
     10         26.317428   0.000000
     11         29.566154   0.000000
     12         31.731236   0.000000
     13         34.481832   0.000000
     14         38.207121   0.000000
     15         41.996503   0.000000
     16         43.331777   0.000000
     17         44.469489   0.000000
     18         49.059249   0.000000
     19         51.235448   0.000000
     20         53.803761   0.000000
     21         55.038776   0.000000
     22         59.234472   0.000000
     23         61.373655   0.000000
     24         61.993804   0.000000
 
 -0.5000000E-01  0.2500000E+00  0.5000000E-01  0.1200000E-01
      1        -39.668383   1.000000
      2        -39.435627   1.000000
      3        -39.401573   1.000000
      4          4.817389   1.000000
      5          8.470735   1.000000
      6          9.546580   1.000000
      7          9.797719   1.000000
      8         11.322752   1.000000
      9         12.367210   1.000000
     10         27.212997   0.000000
     11         30.214523   0.000000
     12         34.303051   0.000000
     13         35.419166   0.000000
     14         38.377354   0.000000
     15         39.516019   0.000000
     16         41.027298   0.000000
     17         46.606128   0.000000
     18         49.340522   0.000000
     19         52.417052   0.000000
     20         52.898027   0.000000
     21         53.798674   0.000000
     22         56.873073   0.000000
     23         60.057548   0.000000
     24         64.454320   0.000000
 
  0.3500000E+00  0.3500000E+00  0.5000000E-01  0.6000000E-02
      1        -39.779139   1.000000
      2        -39.525895   1.000000
      3        -39.521868   1.000000
      4          5.963792   1.000000
      5          6.780965   1.000000
      6         10.543901   1.000000
      7         11.940585   1.000000
      8         12.407980   1.000000
      9         12.964001   1.000000
     10         27.938266   0.000000
     11         28.663609   0.000000
     12         29.725883   0.000000
     13         33.557335   0.000000
     14         34.971188   0.000000
     15         42.596003   0.000000
     16         43.063419   0.000000
     17         45.309327   0.000000
     18         49.233626   0.000000
     19         52.291991   0.000000
     20         53.805523   0.000000
     21         58.195081   0.000000
     22         58.399488   0.000000
     23         58.819708   0.000000
     24         63.918069   0.000000
 
  0.4500000E+00  0.3500000E+00  0.5000000E-01  0.1200000E-01
      1        -39.843107   1.000000
      2        -39.571314   1.000000
      3        -39.544598   1.000000
      4          6.107567   1.000000
      5          6.626436   1.000000
      6         10.689754   1.000000
      7         12.384049   1.000000
      8         13.187720   1.000000
      9         14.521709   0.000000
     10         25.008034   0.000000
     11         27.021382   0.000000
     12         28.019331   0.000000
     13         34.549257   0.000000
     14         36.425483   0.000000
     15         42.281977   0.000000
     16         45.108048   0.000000
     17         46.538192   0.000000
     18         49.859971   0.000000
     19         50.998584   0.000000
     20         53.802217   0.000000
     21         56.690142   0.000000
     22         59.104515   0.000000
     23         60.611590   0.000000
     24         61.536263   0.000000
 
 -0.4500000E+00  0.3500000E+00  0.5000000E-01  0.1200000E-01
      1        -39.856472   1.000000
      2        -39.643658   1.000000
      3        -39.547091   1.000000
      4          6.337909   1.000000
      5          7.046861   1.000000
      6         10.222096   1.000000
      7         11.921291   1.000000
      8         13.563162   0.000004
      9         17.591867   0.000000
     10         21.325756   0.000000
     11         26.022981   0.000000
     12         27.618429   0.000000
     13         34.492528   0.000000
     14         39.204136   0.000000
     15         41.507639   0.000000
     16         44.734674   0.000000
     17         48.939901   0.000000
     18         50.554581   0.000000
     19         51.245951   0.000000
     20         53.797630   0.000000
     21         55.549617   0.000000
     22         57.573928   0.000000
     23         59.922882   0.000000
     24         61.137184   0.000000
 
 -0.3500000E+00  0.3500000E+00  0.5000000E-01  0.1200000E-01
      1        -39.802094   1.000000
      2        -39.730244   1.000000
      3        -39.524552   1.000000
      4          6.765544   1.000000
      5          7.733567   1.000000
      6          9.473596   1.000000
      7         11.404512   1.000000
      8         13.018095   1.000000
      9         18.634766   0.000000
     10         21.278786   0.000000
     11         24.265135   0.000000
     12         29.351563   0.000000
     13         33.649451   0.000000
     14         40.317697   0.000000
     15         42.292030   0.000000
     16         42.699783   0.000000
     17         50.409344   0.000000
     18         50.850341   0.000000
     19         53.796798   0.000000
     20         53.909127   0.000000
     21         54.950207   0.000000
     22         55.970856   0.000000
     23         58.780327   0.000000
     24         61.168075   0.000000
 
 -0.2500000E+00  0.3500000E+00  0.5000000E-01  0.1200000E-01
      1        -39.806245   1.000000
      2        -39.691033   1.000000
      3        -39.487388   1.000000
      4          7.205851   1.000000
      5          8.126910   1.000000
      6          8.758430   1.000000
      7         10.853445   1.000000