PROCAR lm decomposed
# of k-points:  110         # of bands:   24         # of ions:    1

 k-point     1 :    0.05000000 0.05000000 0.05000000     weight = 0.00200000

band     1 # energy  -39.37354064 # occ.  2.00000000
 
ion      s     py     pz     px    dxy    dyz    dz2    dxz  x2-y2    tot
    1  0.000  0.332  0.332  0.332  0.000  0.000  0.000  0.000  0.000  0.997
 
band     2 # energy  -39.36050982 # occ.  2.00000000
 
ion      s     py     pz     px    dxy    dyz    dz2    dxz  x2-y2    tot
    1  0.000  0.044  0.436  0.518  0.000  0.000  0.000  0.000  0.000  0.998
 
band     3 # energy  -39.36050982 # occ.  2.00000000
 
ion      s     py     pz     px    dxy    dyz    dz2    dxz  x2-y2    tot
    1  0.000  0.621  0.229  0.147  0.000  0.000  0.000  0.000  0.000  0.998
 
band     4 # energy    2.49920888 # occ.  2.00000000
 
ion      s     py     pz     px    dxy    dyz    dz2    dxz  x2-y2    tot
    1  0.425  0.001  0.001  0.001  0.000  0.000  0.000  0.000  0.000  0.426
 
band     5 # energy    9.11365513 # occ.  2.00000000
 
ion      s     py     pz     px    dxy    dyz    dz2    dxz  x2-y2    tot
    1  0.000  0.000  0.000  0.000  0.283  0.283  0.000  0.283  0.000  0.850
 
band     6 # energy    9.21019536 # occ.  2.00000000
 
ion      s     py     pz     px    dxy    dyz    dz2    dxz  x2-y2    tot
    1  0.000  0.000  0.000  0.000  0.000  0.427  0.000  0.428  0.000  0.856
 
band     7 # energy    9.21019536 # occ.  2.00000000
 
ion      s     py     pz     px    dxy    dyz    dz2    dxz  x2-y2    tot
    1  0.000  0.000  0.000  0.000  0.570  0.143  0.000  0.142  0.000  0.856
 
band     8 # energy   11.54498248 # occ.  2.00000000
 
ion      s     py     pz     px    dxy    dyz    dz2    dxz  x2-y2    tot
    1  0.000  0.000  0.000  0.000  0.000  0.000  0.000  0.000  0.917  0.918
 
band     9 # energy   11.54498248 # occ.  2.00000000
 
ion      s     py     pz     px    dxy    dyz    dz2    dxz  x2-y2    tot
    1  0.000  0.000  0.000  0.000  0.000  0.000  0.917  0.000  0.000  0.918
 
band    10 # energy   27.96710163 # occ.  0.00000000
 
ion      s     py     pz     px    dxy    dyz    dz2    dxz  x2-y2    tot
    1  0.000  0.000  0.000  0.000  0.002  0.002  0.000  0.002  0.000  0.007
 
band    11 # energy   32.56229194 # occ.  0.00000000
 
ion      s     py     pz     px    dxy    dyz    dz2    dxz  x2-y2    tot
    1  0.008  0.020  0.020  0.020  0.002  0.002  0.000  0.002  0.000  0.073
 
band    12 # energy   33.29139782 # occ.  0.00000000
 
ion      s     py     pz     px    dxy    dyz    dz2    dxz  x2-y2    tot
    1  0.000  0.034  0.000  0.030  0.000  0.001  0.000  0.001  0.004  0.070
 
band    13 # energy   33.29139782 # occ.  0.00000000
 
ion      s     py     pz     px    dxy    dyz    dz2    dxz  x2-y2    tot
    1  0.000  0.009  0.043  0.013  0.001  0.000  0.004  0.000  0.000  0.070
 
band    14 # energy   39.37643704 # occ.  0.00000000
 
ion      s     py     pz     px    dxy    dyz    dz2    dxz  x2-y2    tot
    1  0.044  0.005  0.005  0.005  0.001  0.001  0.000  0.001  0.000  0.059
 
band    15 # energy   45.30722512 # occ.  0.00000000
 
ion      s     py     pz     px    dxy    dyz    dz2    dxz  x2-y2    tot
    1  0.007  0.056  0.056  0.056  0.120  0.120  0.000  0.120  0.000  0.536
 
band    16 # energy   46.06951084 # occ.  0.00000000
 
ion      s     py     pz     px    dxy    dyz    dz2    dxz  x2-y2    tot
    1  0.000  0.032  0.003  0.048  0.014  0.263  0.000  0.177  0.002  0.539
 
band    17 # energy   46.06951084 # occ.  0.00000000
 
ion      s     py     pz     px    dxy    dyz    dz2    dxz  x2-y2    tot
    1  0.000  0.023  0.052  0.007  0.288  0.040  0.002  0.126  0.000  0.539
 
band    18 # energy   49.82620875 # occ.  0.00000000
 
ion      s     py     pz     px    dxy    dyz    dz2    dxz  x2-y2    tot
    1  0.000  0.317  0.000  0.294  0.000  0.040  0.000  0.043  0.020  0.714
 
band    19 # energy   49.82620875 # occ.  0.00000000
 
ion      s     py     pz     px    dxy    dyz    dz2    dxz  x2-y2    tot
    1  0.000  0.090  0.407  0.114  0.055  0.015  0.020  0.012  0.000  0.714
 
band    20 # energy   50.79616379 # occ.  0.00000000
 
ion      s     py     pz     px    dxy    dyz    dz2    dxz  x2-y2    tot
    1  0.028  0.169  0.169  0.169  0.062  0.062  0.000  0.062  0.000  0.719
 
band    21 # energy   53.80684701 # occ.  0.00000000
 
ion      s     py     pz     px    dxy    dyz    dz2    dxz  x2-y2    tot
    1  6.298  0.000  0.000  0.000  0.000  0.000  0.000  0.000  0.000  6.298
 
band    22 # energy   56.39157044 # occ.  0.00000000
 
ion      s     py     pz     px    dxy    dyz    dz2    dxz  x2-y2    tot
    1  0.000  0.004  0.010  0.018  0.000  0.000  0.228  0.000  0.256  0.516
 
band    23 # energy   56.39157044 # occ.  0.00000000
 
ion      s     py     pz     px    dxy    dyz    dz2    dxz  x2-y2    tot
    1  0.000  0.018  0.011  0.003  0.000  0.000  0.256  0.000  0.228  0.516
 
band    24 # energy   63.52900249 # occ.  0.00000000
 
ion      s     py     pz     px    dxy    dyz    dz2    dxz  x2-y2    tot
    1  0.000  0.000  0.000  0.000  0.000  0.000  0.000  0.000  0.000  0.000
 

 k-point     2 :    0.15000000 0.05000000 0.05000000     weight = 0.00600000

band     1 # energy  -39.44530729 # occ.  2.00000000
 
ion      s     py     pz     px    dxy    dyz    dz2    dxz  x2-y2    tot
    1  0.000  0.454  0.454  0.087  0.000  0.000  0.000  0.000  0.000  0.995
 
band     2 # energy  -39.38155855 # occ.  2.00000000
 
ion      s     py     pz     px    dxy    dyz    dz2    dxz  x2-y2    tot
    1  0.000  0.044  0.044  0.910  0.000  0.000  0.000  0.000  0.000  0.997
 
band     3 # energy  -39.36611448 # occ.  2.00000000
 
ion      s     py     pz     px    dxy    dyz    dz2    dxz  x2-y2    tot
    1  0.000  0.499  0.499  0.000  0.000  0.000  0.000  0.000  0.000  0.997
 
band     4 # energy    3.05688826 # occ.  2.00000000
 
ion      s     py     pz     px    dxy    dyz    dz2    dxz  x2-y2    tot
    1  0.411  0.004  0.004  0.000  0.000  0.002  0.000  0.000  0.000  0.423
 
band     5 # energy    8.85073888 # occ.  2.00000000
 
ion      s     py     pz     px    dxy    dyz    dz2    dxz  x2-y2    tot
    1  0.000  0.000  0.000  0.002  0.398  0.029  0.000  0.398  0.000  0.829
 
band     6 # energy    9.40993467 # occ.  2.00000000
 
ion      s     py     pz     px    dxy    dyz    dz2    dxz  x2-y2    tot
    1  0.000  0.000  0.000  0.000  0.427  0.000  0.003  0.427  0.001  0.858
 
band     7 # energy    9.45394658 # occ.  2.00000000
 
ion      s     py     pz     px    dxy    dyz    dz2    dxz  x2-y2    tot
    1  0.000  0.001  0.001  0.000  0.015  0.796  0.006  0.015  0.018  0.854
 
band     8 # energy   11.28584850 # occ.  2.00000000
 
ion      s     py     pz     px    dxy    dyz    dz2    dxz  x2-y2    tot
    1  0.000  0.000  0.000  0.000  0.002  0.000  0.673  0.002  0.224  0.903
 
band     9 # energy   11.60620001 # occ.  2.00000000
 
ion      s     py     pz     px    dxy    dyz    dz2    dxz  x2-y2    tot
    1  0.000  0.000  0.000  0.000  0.001  0.024  0.222  0.001  0.666  0.914
 
band    10 # energy   28.82184924 # occ.  0.00000000
 
ion      s     py     pz     px    dxy    dyz    dz2    dxz  x2-y2    tot
    1  0.000  0.000  0.000  0.000  0.020  0.002  0.000  0.020  0.000  0.043
 
band    11 # energy   30.85436945 # occ.  0.00000000
 
ion      s     py     pz     px    dxy    dyz    dz2    dxz  x2-y2    tot
    1  0.031  0.023  0.023  0.007  0.003  0.016  0.001  0.003  0.004  0.111
 
band    12 # energy   33.52211431 # occ.  0.00000000
 
ion      s     py     pz     px    dxy    dyz    dz2    dxz  x2-y2    tot
    1  0.000  0.003  0.003  0.082  0.010  0.002  0.001  0.010  0.004  0.116
 
band    13 # energy   34.50563621 # occ.  0.00000000
 
ion      s     py     pz     px    dxy    dyz    dz2    dxz  x2-y2    tot
    1  0.000  0.030  0.030  0.000  0.001  0.000  0.024  0.001  0.008  0.093
 
band    14 # energy   40.52006446 # occ.  0.00000000
 
ion      s     py     pz     px    dxy    dyz    dz2    dxz  x2-y2    tot
    1  0.001  0.101  0.101  0.010  0.006  0.112  0.000  0.006  0.001  0.339
 
band    15 # energy   42.91841579 # occ.  0.00000000
 
ion      s     py     pz     px    dxy    dyz    dz2    dxz  x2-y2    tot
    1  0.048  0.019  0.019  0.029  0.011  0.082  0.003  0.011  0.009  0.233
 
band    16 # energy   43.36799522 # occ.  0.00000000
 
ion      s     py     pz     px    dxy    dyz    dz2    dxz  x2-y2    tot
    1  0.017  0.000  0.000  0.167  0.099  0.001  0.000  0.099  0.000  0.385
 
band    17 # energy   45.03517466 # occ.  0.00000000
 
ion      s     py     pz     px    dxy    dyz    dz2    dxz  x2-y2    tot
    1  0.000  0.071  0.071  0.000  0.168  0.000  0.014  0.168  0.005  0.496
 
band    18 # energy   47.95720413 # occ.  0.00000000
 
ion      s     py     pz     px    dxy    dyz    dz2    dxz  x2-y2    tot
    1  0.000  0.218  0.218  0.000  0.070  0.000  0.054  0.070  0.018  0.649
 
band    19 # energy   51.26038165 # occ.  0.00000000
 
ion      s     py     pz     px    dxy    dyz    dz2    dxz  x2-y2    tot
    1  0.081  0.132  0.132  0.034  0.000  0.272  0.008  0.000  0.024  0.683
 
band    20 # energy   53.61844405 # occ.  0.00000000
 
ion      s     py     pz     px    dxy    dyz    dz2    dxz  x2-y2    tot
    1  0.202  0.008  0.008  0.308  0.127  0.002  0.015  0.127  0.045  0.842
 
band    21 # energy   53.81201188 # occ.  0.00000000
 
ion      s     py     pz     px    dxy    dyz    dz2    dxz  x2-y2    tot
    1  6.122  0.000  0.000  0.007  0.003  0.000  0.000  0.003  0.001  6.137
 
band    22 # energy   55.05974366 # occ.  0.00000000
 
ion      s     py     pz     px    dxy    dyz    dz2    dxz  x2-y2    tot
    1  0.002  0.007  0.007  0.128  0.016  0.014  0.063  0.016  0.188  0.440
 
band    23 # energy   57.57357744 # occ.  0.00000000
 
ion      s     py     pz     px    dxy    dyz    dz2    dxz  x2-y2    tot
    1  0.000  0.070  0.070  0.000  0.001  0.000  0.242  0.001  0.081  0.464
 
band    24 # energy   64.22815593 # occ.  0.00000000
 
ion      s     py     pz     px    dxy    dyz    dz2    dxz  x2-y2    tot
    1  0.000  0.000  0.000  0.000  0.009  0.000  0.035  0.009  0.012  0.065
 

 k-point     3 :    0.25000000 0.05000000 0.05000000     weight = 0.00600000

band     1 # energy  -39.60423454 # occ.  2.00000000
 
ion      s     py     pz     px    dxy    dyz    dz2    dxz  x2-y2    tot
    1  0.000  0.390  0.390  0.210  0.000  0.000  0.000  0.000  0.000  0.990
 
band     2 # energy  -39.40955125 # occ.  2.00000000
 
ion      s     py     pz     px    dxy    dyz    dz2    dxz  x2-y2    tot
    1  0.000  0.106  0.106  0.785  0.000  0.000  0.000  0.000  0.000  0.996
 
band     3 # energy  -39.38715171 # occ.  2.00000000
 
ion      s     py     pz     px    dxy    dyz    dz2    dxz  x2-y2    tot
    1  0.000  0.498  0.498  0.000  0.000  0.000  0.000  0.000  0.000  0.997
 
band     4 # energy    4.23222577 # occ.  2.00000000
 
ion      s     py     pz     px    dxy    dyz    dz2    dxz  x2-y2    tot
    1  0.365  0.009  0.009  0.003  0.013  0.024  0.000  0.013  0.001  0.437
 
band     5 # energy    8.60488887 # occ.  2.00000000
 
ion      s     py     pz     px    dxy    dyz    dz2    dxz  x2-y2    tot
    1  0.011  0.004  0.004  0.008  0.338  0.063  0.000  0.338  0.000  0.765
 
band     6 # energy    9.61662543 # occ.  2.00000000
 
ion      s     py     pz     px    dxy    dyz    dz2    dxz  x2-y2    tot
    1  0.001  0.002  0.002  0.000  0.035  0.576  0.049  0.035  0.148  0.848
 
band     7 # energy    9.66073414 # occ.  2.00000000
 
ion      s     py     pz     px    dxy    dyz    dz2    dxz  x2-y2    tot
    1  0.000  0.000  0.000  0.000  0.349  0.000  0.120  0.349  0.040  0.859
 
band     8 # energy   11.26058519 # occ.  2.00000000
 
ion      s     py     pz     px    dxy    dyz    dz2    dxz  x2-y2    tot
    1  0.000  0.000  0.000  0.000  0.083  0.000  0.543  0.083  0.181  0.891
 
band     9 # energy   11.89785558 # occ.  2.00000000
 
ion      s     py     pz     px    dxy    dyz    dz2    dxz  x2-y2    tot
    1  0.002  0.001  0.001  0.000  0.011  0.182  0.175  0.011  0.525  0.908
 
band    10 # energy   28.08066311 # occ.  0.00000000
 
ion      s     py     pz     px    dxy    dyz    dz2    dxz  x2-y2    tot
    1  0.075  0.025  0.025  0.021  0.019  0.036  0.001  0.019  0.004  0.225
 
band    11 # energy   30.01047271 # occ.  0.00000000
 
ion      s     py     pz     px    dxy    dyz    dz2    dxz  x2-y2    tot
    1  0.004  0.004  0.004  0.010  0.054  0.020  0.000  0.054  0.000  0.151
 
band    12 # energy   34.89677429 # occ.  0.00000000
 
ion      s     py     pz     px    dxy    dyz    dz2    dxz  x2-y2    tot
    1  0.000  0.009  0.009  0.119  0.018  0.021  0.007  0.018  0.022  0.223
 
band    13 # energy   36.81313832 # occ.  0.00000000
 
ion      s     py     pz     px    dxy    dyz    dz2    dxz  x2-y2    tot
    1  0.000  0.029  0.029  0.000  0.006  0.000  0.062  0.006  0.021  0.153
 
band    14 # energy   37.00234492 # occ.  0.00000000
 
ion      s     py     pz     px    dxy    dyz    dz2    dxz  x2-y2    tot
    1  0.041  0.093  0.093  0.002  0.000  0.056  0.002  0.000  0.005  0.293
 
band    15 # energy   40.39314728 # occ.  0.00000000
 
ion      s     py     pz     px    dxy    dyz    dz2    dxz  x2-y2    tot
    1  0.004  0.000  0.000  0.135  0.031  0.016  0.007  0.031  0.022  0.246
 
band    16 # energy   40.76767309 # occ.  0.00000000
 
ion      s     py     pz     px    dxy    dyz    dz2    dxz  x2-y2    tot
    1  0.000  0.112  0.112  0.000  0.070  0.000  0.030  0.070  0.010  0.405
 
band    17 # energy   47.12640034 # occ.  0.00000000
 
ion      s     py     pz     px    dxy    dyz    dz2    dxz  x2-y2    tot
    1  0.067  0.000  0.000  0.000  0.000  0.004  0.002  0.000  0.006  0.082
 
band    18 # energy   48.29655605 # occ.  0.00000000
 
ion      s     py     pz     px    dxy    dyz    dz2    dxz  x2-y2    tot
    1  0.000  0.141  0.141  0.000  0.120  0.000  0.058  0.120  0.019  0.599
 
band    19 # energy   51.80990922 # occ.  0.00000000
 
ion      s     py     pz     px    dxy    dyz    dz2    dxz  x2-y2    tot
    1  0.066  0.068  0.068  0.094  0.002  0.271  0.019  0.002  0.058  0.649
 
band    20 # energy   53.65696916 # occ.  0.00000000
 
ion      s     py     pz     px    dxy    dyz    dz2    dxz  x2-y2    tot
    1  0.760  0.011  0.011  0.004  0.081  0.000  0.031  0.081  0.093  1.071
 
band    21 # energy   53.81361158 # occ.  0.00000000
 
ion      s     py     pz     px    dxy    dyz    dz2    dxz  x2-y2    tot
    1  5.613  0.002  0.002  0.000  0.007  0.000  0.003  0.007  0.009  5.643
 
band    22 # energy   56.58024122 # occ.  0.00000000
 
ion      s     py     pz     px    dxy    dyz    dz2    dxz  x2-y2    tot
    1  0.036  0.012  0.012  0.284  0.084  0.044  0.006  0.084  0.018  0.581
 
band    23 # energy   58.14537259 # occ.  0.00000000
 
ion      s     py     pz     px    dxy    dyz    dz2    dxz  x2-y2    tot
    1  0.000  0.096  0.096  0.000  0.009  0.000  0.126  0.009  0.042  0.379
 
band    24 # energy   64.55718012 # occ.  0.00000000
 
ion      s     py     pz     px    dxy    dyz    dz2    dxz  x2-y2    tot
    1  0.000  0.000  0.000  0.000  0.003  0.000  0.043  0.003  0.014  0.064
 

 k-point     4 :    0.35000000 0.05000000 0.05000000     weight = 0.00600000

band     1 # energy  -39.78354751 # occ.  2.00000000
 
ion      s     py     pz     px    dxy    dyz    dz2    dxz  x2-y2    tot
    1  0.000  0.359  0.359  0.267  0.000  0.000  0.000  0.000  0.000  0.985
 
band     2 # energy  -39.43721329 # occ.  2.00000000
 
ion      s     py     pz     px    dxy    dyz    dz2    dxz  x2-y2    tot
    1  0.000  0.135  0.135  0.726  0.000  0.000  0.000  0.000  0.000  0.996
 
band     3 # energy  -39.41460770 # occ.  2.00000000
 
ion      s     py     pz     px    dxy    dyz    dz2    dxz  x2-y2    tot
    1  0.000  0.498  0.498  0.000  0.000  0.000  0.000  0.000  0.000  0.996
 
band     4 # energy    5.21969530 # occ.  2.00000000
 
ion      s     py     pz     px    dxy    dyz    dz2    dxz  x2-y2    tot
    1  0.250  0.007  0.007  0.002  0.088  0.099  0.000  0.088  0.001  0.542
 
band     5 # energy    9.25122600 # occ.  2.00000000
 
ion      s     py     pz     px    dxy    dyz    dz2    dxz  x2-y2    tot
    1  0.046  0.012  0.012  0.019  0.260  0.014  0.012  0.260  0.037  0.673
 
band     6 # energy    9.44349527 # occ.  2.00000000
 
ion      s     py     pz     px    dxy    dyz    dz2    dxz  x2-y2    tot
    1  0.017  0.009  0.009  0.004  0.001  0.361  0.089  0.001  0.268  0.758
 
band     7 # energy    9.47924329 # occ.  2.00000000
 
ion      s     py     pz     px    dxy    dyz    dz2    dxz  x2-y2    tot
    1  0.000  0.000  0.000  0.000  0.218  0.000  0.311  0.218  0.104  0.850
 
band     8 # energy   12.00293028 # occ.  2.00000000
 
ion      s     py     pz     px    dxy    dyz    dz2    dxz  x2-y2    tot
    1  0.000  0.001  0.001  0.000  0.223  0.000  0.344  0.223  0.115  0.906
 
band     9 # energy   12.73583036 # occ.  2.00000000
 
ion      s     py     pz     px    dxy    dyz    dz2    dxz  x2-y2    tot
    1  0.008  0.003  0.003  0.000  0.028  0.364  0.120  0.028  0.359  0.911
 
band    10 # energy   24.81022919 # occ.  0.00000000
 
ion      s     py     pz     px    dxy    dyz    dz2    dxz  x2-y2    tot
    1  0.172  0.031  0.031  0.032  0.061  0.072  0.001  0.061  0.003  0.462
 
band    11 # energy   29.15888580 # occ.  0.00000000
 
ion      s     py     pz     px    dxy    dyz    dz2    dxz  x2-y2    tot
    1  0.009  0.009  0.009  0.014  0.037  0.011  0.001  0.037  0.002  0.130
 
band    12 # energy   34.47410161 # occ.  0.00000000
 
ion      s     py     pz     px    dxy    dyz    dz2    dxz  x2-y2    tot
    1  0.010  0.051  0.051  0.136  0.030  0.034  0.000  0.030  0.001  0.343
 
band    13 # energy   36.74908837 # occ.  0.00000000
 
ion      s     py     pz     px    dxy    dyz    dz2    dxz  x2-y2    tot
    1  0.000  0.113  0.113  0.000  0.033  0.000  0.021  0.033  0.007  0.321
 
band    14 # energy   37.65824390 # occ.  0.00000000
 
ion      s     py     pz     px    dxy    dyz    dz2    dxz  x2-y2    tot
    1  0.016  0.006  0.006  0.050  0.000  0.017  0.015  0.000  0.044  0.153
 
band    15 # energy   39.73321484 # occ.  0.00000000
 
ion      s     py     pz     px    dxy    dyz    dz2    dxz  x2-y2    tot
    1  0.000  0.018  0.018  0.000  0.019  0.000  0.127  0.019  0.042  0.243
 
band    16 # energy   40.15578626 # occ.  0.00000000
 
ion      s     py     pz     px    dxy    dyz    dz2    dxz  x2-y2    tot
    1  0.022  0.008  0.008  0.024  0.003  0.000  0.018  0.003  0.053  0.139
 
band    17 # energy   48.64235849 # occ.  0.00000000
 
ion      s     py     pz     px    dxy    dyz    dz2    dxz  x2-y2    tot
    1  0.000  0.141  0.141  0.000  0.096  0.000  0.048  0.096  0.016  0.539
 
band    18 # energy   51.00610867 # occ.  0.00000000
 
ion      s     py     pz     px    dxy    dyz    dz2    dxz  x2-y2    tot
    1  0.145  0.010  0.010  0.067  0.000  0.182  0.018  0.000  0.054  0.486
 
band    19 # energy   52.96724694 # occ.  0.00000000
 
ion      s     py     pz     px    dxy    dyz    dz2    dxz  x2-y2    tot
    1  0.046  0.038  0.038  0.067  0.043  0.035  0.016  0.043  0.049  0.376
 
band    20 # energy   53.78837303 # occ.  0.00000000
 
ion      s     py     pz     px    dxy    dyz    dz2    dxz  x2-y2    tot
    1  6.120  0.001  0.001  0.001  0.001  0.000  0.000  0.001  0.001  6.126
 
band    21 # energy   53.99284438 # occ.  0.00000000
 
ion      s     py     pz     px    dxy    dyz    dz2    dxz  x2-y2    tot
    1  0.197  0.013  0.013  0.020  0.063  0.005  0.009  0.063  0.027  0.410
 
band    22 # energy   56.97854333 # occ.  0.00000000
 
ion      s     py     pz     px    dxy    dyz    dz2    dxz  x2-y2    tot
    1  0.013  0.037  0.037  0.151  0.030  0.082  0.001  0.030  0.004  0.385
 
band    23 # energy   58.80829365 # occ.  0.00000000
 
ion      s     py     pz     px    dxy    dyz    dz2    dxz  x2-y2    tot
    1  0.000  0.105  0.105  0.000  0.016  0.000  0.064  0.016  0.021  0.327
 
band    24 # energy   63.60071236 # occ.  0.00000000
 
ion      s     py     pz     px    dxy    dyz    dz2    dxz  x2-y2    tot
    1  0.000  0.002  0.002  0.000  0.038  0.000  0.071  0.038  0.024  0.176
 

 k-point     5 :    0.45000000 0.05000000 0.05000000     weight = 0.00600000

band     1 # energy  -39.91416155 # occ.  2.00000000
 
ion      s     py     pz     px    dxy    dyz    dz2    dxz  x2-y2    tot
    1  0.000  0.338  0.338  0.304  0.000  0.000  0.000  0.000  0.000  0.981
 
band     2 # energy  -39.45368278 # occ.  2.00000000
 
ion      s     py     pz     px    dxy    dyz    dz2    dxz  x2-y2    tot
    1  0.000  0.154  0.154  0.686  0.000  0.000  0.000  0.000  0.000  0.995
 
band     3 # energy  -39.43757679 # occ.  2.00000000
 
ion      s     py     pz     px    dxy    dyz    dz2    dxz  x2-y2    tot
    1  0.000  0.498  0.498  0.000  0.000  0.000  0.000  0.000  0.000  0.996
 
band     4 # energy    5.42909178 # occ.  2.00000000
 
ion      s     py     pz     px    dxy    dyz    dz2    dxz  x2-y2    tot
    1  0.160  0.002  0.002  0.000  0.157  0.160  0.000  0.157  0.000  0.637
 
band     5 # energy    9.11349619 # occ.  2.00000000
 
ion      s     py     pz     px    dxy    dyz    dz2    dxz  x2-y2    tot
    1  0.000  0.000  0.000  0.000  0.055  0.247  0.119  0.055  0.357  0.834
 
band     6 # energy    9.22554048 # occ.  2.00000000
 
ion      s     py     pz     px    dxy    dyz    dz2    dxz  x2-y2    tot
    1  0.000  0.000  0.000  0.000  0.174  0.000  0.370  0.174  0.123  0.841
 
band     7 # energy   11.15740903 # occ.  2.00000000
 
ion      s     py     pz     px    dxy    dyz    dz2    dxz  x2-y2    tot
    1  0.048  0.041  0.041  0.042  0.103  0.007  0.013  0.103  0.040  0.437
 
band     8 # energy   12.96621006 # occ.  2.00000000
 
ion      s     py     pz     px    dxy    dyz    dz2    dxz  x2-y2    tot
    1  0.000  0.000  0.000  0.000  0.278  0.000  0.284  0.278  0.095  0.936
 
band     9 # energy   13.70708548 # occ.  0.00000000
 
ion      s     py     pz     px    dxy    dyz    dz2    dxz  x2-y2    tot
    1  0.016  0.010  0.010  0.006  0.030  0.407  0.087  0.030  0.262  0.859
 
band    10 # energy   21.24960538 # occ.  0.00000000
 
ion      s     py     pz     px    dxy    dyz    dz2    dxz  x2-y2    tot
    1  0.305  0.016  0.016  0.020  0.111  0.102  0.001  0.111  0.002  0.684
 
band    11 # energy   27.89572203 # occ.  0.00000000
 
ion      s     py     pz     px    dxy    dyz    dz2    dxz  x2-y2    tot
    1  0.002  0.005  0.005  0.006  0.009  0.000  0.001  0.009  0.003  0.041
 
band    12 # energy   32.79007547 # occ.  0.00000000
 
ion      s     py     pz     px    dxy    dyz    dz2    dxz  x2-y2    tot
    1  0.004  0.039  0.039  0.146  0.015  0.003  0.000  0.015  0.001  0.262
 
band    13 # energy   33.83810050 # occ.  0.00000000
 
ion      s     py     pz     px    dxy    dyz    dz2    dxz  x2-y2    tot
    1  0.000  0.109  0.109  0.000  0.007  0.000  0.013  0.007  0.004  0.249
 
band    14 # energy   40.93541882 # occ.  0.00000000
 
ion      s     py     pz     px    dxy    dyz    dz2    dxz  x2-y2    tot
    1  0.008  0.000  0.000  0.028  0.000  0.071  0.042  0.000  0.125  0.273
 
band    15 # energy   42.23235984 # occ.  0.00000000
 
ion      s     py     pz     px    dxy    dyz    dz2    dxz  x2-y2    tot
    1  0.000  0.004  0.004  0.000  0.051  0.000  0.208  0.051  0.069  0.387
 
band    16 # energy   42.63719400 # occ.  0.00000000
 
ion      s     py     pz     px    dxy    dyz    dz2    dxz  x2-y2    tot
    1  0.061  0.009  0.009  0.008  0.051  0.005  0.013  0.051  0.039  0.247
 
band    17 # energy   49.13385848 # occ.  0.00000000
 
ion      s     py     pz     px    dxy    dyz    dz2    dxz  x2-y2    tot
    1  0.000  0.168  0.168  0.000  0.033  0.000  0.008  0.033  0.003  0.413
 
band    18 # energy   50.69151827 # occ.  0.00000000
 
ion      s     py     pz     px    dxy    dyz    dz2    dxz  x2-y2    tot
    1  0.092  0.007  0.007  0.158  0.002  0.127  0.015  0.002  0.044  0.455
 
band    19 # energy   51.80891182 # occ.  0.00000000
 
ion      s     py     pz     px    dxy    dyz    dz2    dxz  x2-y2    tot
    1  0.025  0.066  0.066  0.034  0.046  0.002  0.008  0.046  0.025  0.321
 
band    20 # energy   53.80372873 # occ.  0.00000000
 
ion      s     py     pz     px    dxy    dyz    dz2    dxz  x2-y2    tot
    1  6.286  0.000  0.000  0.000  0.000  0.000  0.000  0.000  0.000  6.286
 
band    21 # energy   56.36778615 # occ.  0.00000000
 
ion      s     py     pz     px    dxy    dyz    dz2    dxz  x2-y2    tot
    1  0.004  0.041  0.041  0.087  0.011  0.065  0.002  0.011  0.006  0.268
 
band    22 # energy   59.22529247 # occ.  0.00000000
 
ion      s     py     pz     px    dxy    dyz    dz2    dxz  x2-y2    tot
    1  0.000  0.080  0.080  0.000  0.000  0.000  0.028  0.000  0.009  0.198
 
band    23 # energy   59.29313894 # occ.  0.00000000
 
ion      s     py     pz     px    dxy    dyz    dz2    dxz  x2-y2    tot
    1  0.050  0.002  0.002  0.000  0.001  0.001  0.000  0.001  0.000  0.056
 
band    24 # energy   60.67342765 # occ.  0.00000000
 
ion      s     py     pz     px    dxy    dyz    dz2    dxz  x2-y2    tot
    1  0.000  0.022  0.022  0.000  0.123  0.000  0.003  0.123  0.001  0.294
 

 k-point     6 :   -0.45000000 0.05000000 0.05000000     weight = 0.00600000

band     1 # energy  -39.95067441 # occ.  2.00000000
 
ion      s     py     pz     px    dxy    dyz    dz2    dxz  x2-y2    tot
    1  0.000  0.323  0.323  0.334  0.000  0.000  0.000  0.000  0.000  0.979
 
band     2 # energy  -39.45363388 # occ.  2.00000000
 
ion      s     py     pz     px    dxy    dyz    dz2    dxz  x2-y2    tot
    1  0.000  0.170  0.170  0.656  0.000  0.000  0.000  0.000  0.000  0.995
 
band     3 # energy  -39.44787432 # occ.  2.00000000
 
ion      s     py     pz     px    dxy    dyz    dz2    dxz  x2-y2    tot
    1  0.000  0.498  0.498  0.000  0.000  0.000  0.000  0.000  0.000  0.995
 
band     4 # energy    5.42155988 # occ.  2.00000000
 
ion      s     py     pz     px    dxy    dyz    dz2    dxz  x2-y2    tot
    1  0.142  0.000  0.000  0.001  0.167  0.178  0.000  0.167  0.000  0.655
 
band     5 # energy    9.01225834 # occ.  2.00000000
 
ion      s     py     pz     px    dxy    dyz    dz2    dxz  x2-y2    tot
    1  0.000  0.000  0.000  0.000  0.059  0.209  0.126  0.059  0.378  0.831
 
band     6 # energy    9.16715165 # occ.  2.00000000
 
ion      s     py     pz     px    dxy    dyz    dz2    dxz  x2-y2    tot
    1  0.000  0.000  0.000  0.000  0.171  0.000  0.373  0.171  0.124  0.839
 
band     7 # energy   11.93692059 # occ.  2.00000000
 
ion      s     py     pz     px    dxy    dyz    dz2    dxz  x2-y2    tot
    1  0.003  0.043  0.043  0.042  0.025  0.183  0.026  0.025  0.077  0.468
 
band     8 # energy   13.44577544 # occ.  0.25763443
 
ion      s     py     pz     px    dxy    dyz    dz2    dxz  x2-y2    tot
    1  0.000  0.000  0.000  0.000  0.287  0.000  0.286  0.287  0.095  0.955
 
band     9 # energy   14.11594481 # occ.  0.00000000
 
ion      s     py     pz     px    dxy    dyz    dz2    dxz  x2-y2    tot
    1  0.002  0.024  0.024  0.028  0.077  0.206  0.067  0.077  0.200  0.703
 
band    10 # energy   19.76257425 # occ.  0.00000000
 
ion      s     py     pz     px    dxy    dyz    dz2    dxz  x2-y2    tot
    1  0.391  0.002  0.002  0.000  0.137  0.140  0.000  0.137  0.000  0.808
 
band    11 # energy   27.56675205 # occ.  0.00000000
 
ion      s     py     pz     px    dxy    dyz    dz2    dxz  x2-y2    tot
    1  0.000  0.004  0.004  0.005  0.000  0.005  0.001  0.000  0.003  0.022
 
band    12 # energy   32.63167625 # occ.  0.00000000
 
ion      s     py     pz     px    dxy    dyz    dz2    dxz  x2-y2    tot
    1  0.003  0.036  0.036  0.143  0.003  0.006  0.002  0.003  0.006  0.239
 
band    13 # energy   32.65854449 # occ.  0.00000000
 
ion      s     py     pz     px    dxy    dyz    dz2    dxz  x2-y2    tot
    1  0.000  0.110  0.110  0.000  0.001  0.000  0.004  0.001  0.001  0.226
 
band    14 # energy   42.48939300 # occ.  0.00000000
 
ion      s     py     pz     px    dxy    dyz    dz2    dxz  x2-y2    tot
    1  0.000  0.002  0.002  0.000  0.056  0.000  0.214  0.056  0.071  0.401
 
band    15 # energy   42.74821114 # occ.  0.00000000
 
ion      s     py     pz     px    dxy    dyz    dz2    dxz  x2-y2    tot
    1  0.000  0.000  0.000  0.002  0.016  0.083  0.075  0.016  0.225  0.418
 
band    16 # energy   44.22760255 # occ.  0.00000000
 
ion      s     py     pz     px    dxy    dyz    dz2    dxz  x2-y2    tot
    1  0.110  0.003  0.003  0.000  0.073  0.073  0.000  0.073  0.000  0.334
 
band    17 # energy   49.27354469 # occ.  0.00000000
 
ion      s     py     pz     px    dxy    dyz    dz2    dxz  x2-y2    tot
    1  0.026  0.090  0.090  0.078  0.007  0.001  0.000  0.007  0.001  0.298
 
band    18 # energy   49.94304519 # occ.  0.00000000
 
ion      s     py     pz     px    dxy    dyz    dz2    dxz  x2-y2    tot
    1  0.000  0.000  0.000  0.177  0.004  0.000  0.002  0.004  0.006  0.195
 
band    19 # energy   50.49409997 # occ.  0.00000000
 
ion      s     py     pz     px    dxy    dyz    dz2    dxz  x2-y2    tot
    1  0.000  0.174  0.174  0.000  0.003  0.000  0.021  0.003  0.007  0.383
 
band    20 # energy   53.80849581 # occ.  0.00000000
 
ion      s     py     pz     px    dxy    dyz    dz2    dxz  x2-y2    tot
    1  6.298  0.000  0.000  0.000  0.000  0.000  0.000  0.000  0.000  6.298
 
band    21 # energy   57.44773309 # occ.  0.00000000
 
ion      s     py     pz     px    dxy    dyz    dz2    dxz  x2-y2    tot
    1  0.000  0.057  0.057  0.000  0.055  0.000  0.000  0.055  0.000  0.224
 
band    22 # energy   58.03056739 # occ.  0.00000000
 
ion      s     py     pz     px    dxy    dyz    dz2    dxz  x2-y2    tot
    1  0.009  0.015  0.015  0.058  0.010  0.050  0.001  0.010  0.002  0.169
 