<?xml version="1.0" encoding="ISO-8859-1"?>
<modeling>
 <generator>
  <i name="program" type="string">vasp </i>
  <i name="version" type="string">6.3.2  </i>
  <i name="subversion" type="string">27Jun22 (build Aug 12 2022 00:53:59) complex                          parallel </i>
  <i name="platform" type="string">tv2STD </i>
  <i name="date" type="string">2024 12 03 </i>
  <i name="time" type="string">02:19:17 </i>
 </generator>
 <incar>
  <i type="string" name="SYSTEM">Pt-fcc</i>
  <i type="int" name="ISTART">     0</i>
  <i type="string" name="PREC">accurate      normal | accurate</i>
  <i type="string" name="ALGO">Normal     Normal, Fast, Very_Fast</i>
  <i type="logical" name="ADDGRID"> F  </i>
  <i type="int" name="ICHARG">     2</i>
  <i type="int" name="INIWAV">     1</i>
  <i type="int" name="NELM">   100</i>
  <i type="int" name="IBRION">     2</i>
  <i name="EDIFF">      0.00000100</i>
  <i name="EDIFFG">     -0.02000000</i>
  <i type="int" name="NSW">   100</i>
  <i type="int" name="ISIF">     2</i>
  <i type="int" name="ISYM">     1</i>
  <i name="ENCUT">    425.00000000</i>
  <i type="logical" name="LREAL"> F  </i>
  <i type="int" name="ISMEAR">     0</i>
  <i name="SIGMA">      0.05000000</i>
  <i type="int" name="NWRITE">     2</i>
  <i type="logical" name="LWAVE"> T  </i>
  <i type="logical" name="LCHARG"> T  </i>
  <i type="int" name="LORBIT">    11</i>
 </incar>
 <primitive_cell>
  <structure name="primitive_cell" >
   <crystal>
    <varray name="basis" >
     <v>       0.00000000       1.91948317       1.91948317 </v>
     <v>       1.91948317       0.00000000       1.91948317 </v>
     <v>       1.91948317       1.91948317       0.00000000 </v>
    </varray>
    <i name="volume">     14.14434764 </i>
    <varray name="rec_basis" >
     <v>      -0.26048679       0.26048679       0.26048679 </v>
     <v>       0.26048679      -0.26048679       0.26048679 </v>
     <v>       0.26048679       0.26048679      -0.26048679 </v>
    </varray>
   </crystal>
   <varray name="positions" >
    <v>       0.00000000       0.00000000       0.00000000 </v>
   </varray>
  </structure>
  <varray name="primitive_index" >
   <v type="int" >        1 </v>
  </varray>
 </primitive_cell>
 <kpoints>
  <generation param="Monkhorst-Pack">
   <v type="int" name="divisions">      10       10       10 </v>
   <v name="usershift">      0.00000000       0.00000000       0.00000000 </v>
   <v name="genvec1">      0.10000000       0.00000000       0.00000000 </v>
   <v name="genvec2">      0.00000000       0.10000000       0.00000000 </v>
   <v name="genvec3">      0.00000000       0.00000000       0.10000000 </v>
   <v name="shift">      0.50000000       0.50000000       0.50000000 </v>
  </generation>
  <varray name="kpointlist" >
   <v>       0.05000000       0.05000000       0.05000000 </v>
   <v>       0.15000000       0.05000000       0.05000000 </v>
   <v>       0.25000000       0.05000000       0.05000000 </v>
   <v>       0.35000000       0.05000000       0.05000000 </v>
   <v>       0.45000000       0.05000000       0.05000000 </v>
   <v>      -0.45000000       0.05000000       0.05000000 </v>
   <v>      -0.35000000       0.05000000       0.05000000 </v>
   <v>      -0.25000000       0.05000000       0.05000000 </v>
   <v>      -0.15000000       0.05000000       0.05000000 </v>
   <v>      -0.05000000       0.05000000       0.05000000 </v>
   <v>       0.15000000       0.15000000       0.05000000 </v>
   <v>       0.25000000       0.15000000       0.05000000 </v>
   <v>       0.35000000       0.15000000       0.05000000 </v>
   <v>       0.45000000       0.15000000       0.05000000 </v>
   <v>      -0.45000000       0.15000000       0.05000000 </v>
   <v>      -0.35000000       0.15000000       0.05000000 </v>
   <v>      -0.25000000       0.15000000       0.05000000 </v>
   <v>      -0.15000000       0.15000000       0.05000000 </v>
   <v>      -0.05000000       0.15000000       0.05000000 </v>
   <v>       0.25000000       0.25000000       0.05000000 </v>
   <v>       0.35000000       0.25000000       0.05000000 </v>
   <v>       0.45000000       0.25000000       0.05000000 </v>
   <v>      -0.45000000       0.25000000       0.05000000 </v>
   <v>      -0.35000000       0.25000000       0.05000000 </v>
   <v>      -0.25000000       0.25000000       0.05000000 </v>
   <v>      -0.15000000       0.25000000       0.05000000 </v>
   <v>      -0.05000000       0.25000000       0.05000000 </v>
   <v>       0.35000000       0.35000000       0.05000000 </v>
   <v>       0.45000000       0.35000000       0.05000000 </v>
   <v>      -0.45000000       0.35000000       0.05000000 </v>
   <v>      -0.35000000       0.35000000       0.05000000 </v>
   <v>      -0.25000000       0.35000000       0.05000000 </v>
   <v>      -0.15000000       0.35000000       0.05000000 </v>
   <v>      -0.05000000       0.35000000       0.05000000 </v>
   <v>       0.45000000       0.45000000       0.05000000 </v>
   <v>      -0.45000000       0.45000000       0.05000000 </v>
   <v>      -0.35000000       0.45000000       0.05000000 </v>
   <v>      -0.25000000       0.45000000       0.05000000 </v>
   <v>      -0.15000000       0.45000000       0.05000000 </v>
   <v>      -0.05000000       0.45000000       0.05000000 </v>
   <v>      -0.45000000      -0.45000000       0.05000000 </v>
   <v>      -0.35000000      -0.45000000       0.05000000 </v>
   <v>      -0.25000000      -0.45000000       0.05000000 </v>
   <v>      -0.15000000      -0.45000000       0.05000000 </v>
   <v>      -0.35000000      -0.35000000       0.05000000 </v>
   <v>      -0.25000000      -0.35000000       0.05000000 </v>
   <v>      -0.15000000      -0.35000000       0.05000000 </v>
   <v>      -0.25000000      -0.25000000       0.05000000 </v>
   <v>      -0.15000000      -0.25000000       0.05000000 </v>
   <v>      -0.15000000      -0.15000000       0.05000000 </v>
   <v>       0.15000000       0.15000000       0.15000000 </v>
   <v>       0.25000000       0.15000000       0.15000000 </v>
   <v>       0.35000000       0.15000000       0.15000000 </v>
   <v>       0.45000000       0.15000000       0.15000000 </v>
   <v>      -0.45000000       0.15000000       0.15000000 </v>
   <v>      -0.35000000       0.15000000       0.15000000 </v>
   <v>      -0.25000000       0.15000000       0.15000000 </v>
   <v>      -0.15000000       0.15000000       0.15000000 </v>
   <v>       0.25000000       0.25000000       0.15000000 </v>
   <v>       0.35000000       0.25000000       0.15000000 </v>
   <v>       0.45000000       0.25000000       0.15000000 </v>
   <v>      -0.45000000       0.25000000       0.15000000 </v>
   <v>      -0.35000000       0.25000000       0.15000000 </v>
   <v>      -0.25000000       0.25000000       0.15000000 </v>
   <v>      -0.15000000       0.25000000       0.15000000 </v>
   <v>       0.35000000       0.35000000       0.15000000 </v>
   <v>       0.45000000       0.35000000       0.15000000 </v>
   <v>      -0.45000000       0.35000000       0.15000000 </v>
   <v>      -0.35000000       0.35000000       0.15000000 </v>
   <v>      -0.25000000       0.35000000       0.15000000 </v>
   <v>      -0.15000000       0.35000000       0.15000000 </v>
   <v>       0.45000000       0.45000000       0.15000000 </v>
   <v>      -0.45000000       0.45000000       0.15000000 </v>
   <v>      -0.35000000       0.45000000       0.15000000 </v>
   <v>      -0.25000000       0.45000000       0.15000000 </v>
   <v>      -0.15000000       0.45000000       0.15000000 </v>
   <v>      -0.45000000      -0.45000000       0.15000000 </v>
   <v>      -0.35000000      -0.45000000       0.15000000 </v>
   <v>      -0.25000000      -0.45000000       0.15000000 </v>
   <v>      -0.35000000      -0.35000000       0.15000000 </v>
   <v>      -0.25000000      -0.35000000       0.15000000 </v>
   <v>      -0.25000000      -0.25000000       0.15000000 </v>
   <v>       0.25000000       0.25000000       0.25000000 </v>
   <v>       0.35000000       0.25000000       0.25000000 </v>
   <v>       0.45000000       0.25000000       0.25000000 </v>
   <v>      -0.45000000       0.25000000       0.25000000 </v>
   <v>      -0.35000000       0.25000000       0.25000000 </v>
   <v>      -0.25000000       0.25000000       0.25000000 </v>
   <v>       0.35000000       0.35000000       0.25000000 </v>
   <v>       0.45000000       0.35000000       0.25000000 </v>
   <v>      -0.45000000       0.35000000       0.25000000 </v>
   <v>      -0.35000000       0.35000000       0.25000000 </v>
   <v>      -0.25000000       0.35000000       0.25000000 </v>
   <v>       0.45000000       0.45000000       0.25000000 </v>
   <v>      -0.45000000       0.45000000       0.25000000 </v>
   <v>      -0.35000000       0.45000000       0.25000000 </v>
   <v>      -0.25000000       0.45000000       0.25000000 </v>
   <v>      -0.45000000      -0.45000000       0.25000000 </v>
   <v>      -0.35000000      -0.45000000       0.25000000 </v>
   <v>      -0.35000000      -0.35000000       0.25000000 </v>
   <v>       0.35000000       0.35000000       0.35000000 </v>
   <v>       0.45000000       0.35000000       0.35000000 </v>
   <v>      -0.45000000       0.35000000       0.35000000 </v>
   <v>      -0.35000000       0.35000000       0.35000000 </v>
   <v>       0.45000000       0.45000000       0.35000000 </v>
   <v>      -0.45000000       0.45000000       0.35000000 </v>
   <v>      -0.35000000       0.45000000       0.35000000 </v>
   <v>      -0.45000000      -0.45000000       0.35000000 </v>
   <v>       0.45000000       0.45000000       0.45000000 </v>
   <v>      -0.45000000       0.45000000       0.45000000 </v>
  </varray>
  <varray name="weights" >
   <v>       0.00200000 </v>
   <v>       0.00600000 </v>
   <v>       0.00600000 </v>
   <v>       0.00600000 </v>
   <v>       0.00600000 </v>
   <v>       0.00600000 </v>
   <v>       0.00600000 </v>
   <v>       0.00600000 </v>
   <v>       0.00600000 </v>
   <v>       0.00600000 </v>
   <v>       0.00600000 </v>
   <v>       0.01200000 </v>
   <v>       0.01200000 </v>
   <v>       0.01200000 </v>
   <v>       0.01200000 </v>
   <v>       0.01200000 </v>
   <v>       0.01200000 </v>
   <v>       0.01200000 </v>
   <v>       0.01200000 </v>
   <v>       0.00600000 </v>
   <v>       0.01200000 </v>
   <v>       0.01200000 </v>
   <v>       0.01200000 </v>
   <v>       0.01200000 </v>
   <v>       0.01200000 </v>
   <v>       0.01200000 </v>
   <v>       0.01200000 </v>
   <v>       0.00600000 </v>
   <v>       0.01200000 </v>
   <v>       0.01200000 </v>
   <v>       0.01200000 </v>
   <v>       0.01200000 </v>
   <v>       0.01200000 </v>
   <v>       0.01200000 </v>
   <v>       0.00600000 </v>
   <v>       0.01200000 </v>
   <v>       0.01200000 </v>
   <v>       0.01200000 </v>
   <v>       0.01200000 </v>
   <v>       0.01200000 </v>
   <v>       0.00600000 </v>
   <v>       0.01200000 </v>
   <v>       0.01200000 </v>
   <v>       0.01200000 </v>
   <v>       0.00600000 </v>
   <v>       0.01200000 </v>
   <v>       0.01200000 </v>
   <v>       0.00600000 </v>
   <v>       0.01200000 </v>
   <v>       0.00600000 </v>
   <v>       0.00200000 </v>
   <v>       0.00600000 </v>
   <v>       0.00600000 </v>
   <v>       0.00600000 </v>
   <v>       0.00600000 </v>
   <v>       0.00600000 </v>
   <v>       0.00600000 </v>
   <v>       0.00600000 </v>
   <v>       0.00600000 </v>
   <v>       0.01200000 </v>
   <v>       0.01200000 </v>
   <v>       0.01200000 </v>
   <v>       0.01200000 </v>
   <v>       0.01200000 </v>
   <v>       0.01200000 </v>
   <v>       0.00600000 </v>
   <v>       0.01200000 </v>
   <v>       0.01200000 </v>
   <v>       0.01200000 </v>
   <v>       0.01200000 </v>
   <v>       0.01200000 </v>
   <v>       0.00600000 </v>
   <v>       0.01200000 </v>
   <v>       0.01200000 </v>
   <v>       0.01200000 </v>
   <v>       0.01200000 </v>
   <v>       0.00600000 </v>
   <v>       0.01200000 </v>
   <v>       0.01200000 </v>
   <v>       0.00600000 </v>
   <v>       0.01200000 </v>
   <v>       0.00600000 </v>
   <v>       0.00200000 </v>
   <v>       0.00600000 </v>
   <v>       0.00600000 </v>
   <v>       0.00600000 </v>
   <v>       0.00600000 </v>
   <v>       0.00600000 </v>
   <v>       0.00600000 </v>
   <v>       0.01200000 </v>
   <v>       0.01200000 </v>
   <v>       0.01200000 </v>
   <v>       0.01200000 </v>
   <v>       0.00600000 </v>
   <v>       0.01200000 </v>
   <v>       0.01200000 </v>
   <v>       0.01200000 </v>
   <v>       0.00600000 </v>
   <v>       0.01200000 </v>
   <v>       0.00600000 </v>
   <v>       0.00200000 </v>
   <v>       0.00600000 </v>
   <v>       0.00600000 </v>
   <v>       0.00600000 </v>
   <v>       0.00600000 </v>
   <v>       0.01200000 </v>
   <v>       0.01200000 </v>
   <v>       0.00600000 </v>
   <v>       0.00200000 </v>
   <v>       0.00600000 </v>
  </varray>
 </kpoints>
 <parameters>
  <separator name="general" >
   <i type="string" name="SYSTEM">Pt-fcc</i>
   <i type="logical" name="LCOMPAT"> F  </i>
  </separator>
  <separator name="electronic" >
   <i type="string" name="PREC">accura</i>
   <i name="ENMAX">    425.00000000</i>
   <i name="ENAUG">    527.01400000</i>
   <i name="EDIFF">      0.00000100</i>
   <i type="int" name="IALGO">    38</i>
   <i type="int" name="IWAVPR">    11</i>
   <i type="int" name="NBANDS">    24</i>
   <i type="int" name="NBANDSLOW">    -1</i>
   <i type="int" name="NBANDSHIGH">    -1</i>
   <i name="NELECT">     16.00000000</i>
   <i type="int" name="TURBO">     0</i>
   <i type="int" name="IRESTART">     0</i>
   <i type="int" name="NREBOOT">     0</i>
   <i type="int" name="NMIN">     0</i>
   <i name="EREF">      0.00000000</i>
   <separator name="electronic smearing" >
    <i type="int" name="ISMEAR">     0</i>
    <i name="SIGMA">      0.05000000</i>
    <i name="KSPACING">      0.50000000</i>
    <i type="logical" name="KGAMMA"> T  </i>
    <i type="logical" name="KBLOWUP"> T  </i>
   </separator>
   <separator name="electronic projectors" >
    <i type="logical" name="LREAL"> F  </i>
    <v name="ROPT">      0.00000000</v>
    <i type="int" name="LMAXPAW">  -100</i>
    <i type="int" name="LMAXMIX">     2</i>
    <i type="logical" name="NLSPLINE"> F  </i>
   </separator>
   <separator name="electronic startup" >
    <i type="int" name="ISTART">     0</i>
    <i type="int" name="ICHARG">     2</i>
    <i type="int" name="INIWAV">     1</i>
   </separator>
   <separator name="electronic spin" >
    <i type="int" name="ISPIN">     1</i>
    <i type="logical" name="LNONCOLLINEAR"> F  </i>
    <v name="MAGMOM">      1.00000000</v>
    <i name="NUPDOWN">     -1.00000000</i>
    <i type="logical" name="LSORBIT"> F  </i>
    <v name="SAXIS">      0.00000000      0.00000000      1.00000000</v>
    <i type="logical" name="LSPIRAL"> F  </i>
    <v name="QSPIRAL">      0.00000000      0.00000000      0.00000000</v>
    <i type="logical" name="LZEROZ"> F  </i>
   </separator>
   <separator name="electronic exchange-correlation" >
    <i type="logical" name="LASPH"> F  </i>
    <i type="logical" name="LMETAGGA"> F  </i>
   </separator>
   <separator name="electronic convergence" >
    <i type="int" name="NELM">   100</i>
    <i type="int" name="NELMDL">    -5</i>
    <i type="int" name="NELMIN">     2</i>
    <i name="ENINI">    425.00000000</i>
    <separator name="electronic convergence detail" >
     <i type="logical" name="LDIAG"> T  </i>
     <i type="logical" name="LSUBROT"> F  </i>
     <i name="WEIMIN">      0.00100000</i>
     <i name="EBREAK">      0.00000001</i>
     <i name="DEPER">      0.30000000</i>
     <i type="int" name="NRMM">     4</i>
     <i name="TIME">      0.40000000</i>
    </separator>
   </separator>
   <separator name="electronic mixer" >
    <i name="AMIX">      0.40000000</i>
    <i name="BMIX">      1.00000000</i>
    <i name="AMIN">      0.10000000</i>
    <i name="AMIX_MAG">      1.60000000</i>
    <i name="BMIX_MAG">      1.00000000</i>
    <separator name="electronic mixer details" >
     <i type="int" name="IMIX">     4</i>
     <i type="logical" name="MIXFIRST"> F  </i>
     <i type="int" name="MAXMIX">   -45</i>
     <i name="WC">    100.00000000</i>
     <i type="int" name="INIMIX">     1</i>
     <i type="int" name="MIXPRE">     1</i>
     <i type="int" name="MREMOVE">     5</i>
    </separator>
   </separator>
   <separator name="electronic dipolcorrection" >
    <i type="logical" name="LDIPOL"> F  </i>
    <i type="logical" name="LMONO"> F  </i>
    <i type="int" name="IDIPOL">     0</i>
    <i name="EPSILON">      1.00000000</i>
    <v name="DIPOL">   -100.00000000   -100.00000000   -100.00000000</v>
    <i name="EFIELD">      0.00000000</i>
   </separator>
  </separator>
  <separator name="grids" >
   <i type="int" name="NGX">    18</i>
   <i type="int" name="NGY">    18</i>
   <i type="int" name="NGZ">    18</i>
   <i type="int" name="NGXF">    36</i>
   <i type="int" name="NGYF">    36</i>
   <i type="int" name="NGZF">    36</i>
   <i type="logical" name="ADDGRID"> F  </i>
  </separator>
  <separator name="ionic" >
   <i type="int" name="NSW">   100</i>
   <i type="int" name="IBRION">     2</i>
   <i type="int" name="MDALGO">     0</i>
   <i type="int" name="ISIF">     2</i>
   <i name="PSTRESS">      0.00000000</i>
   <i name="EDIFFG">     -0.02000000</i>
   <i type="int" name="NFREE">     1</i>
   <i name="POTIM">      0.50000000</i>
   <i name="SMASS">     -3.00000000</i>
   <i name="SCALEE">      1.00000000</i>
  </separator>
  <separator name="ionic md" >
   <i name="TEBEG">      0.00010000</i>
   <i name="TEEND">      0.00010000</i>
   <i type="int" name="NBLOCK">     1</i>
   <i type="int" name="KBLOCK">   100</i>
   <i type="int" name="NPACO">   256</i>
   <i name="APACO">     10.00000000</i>
  </separator>
  <separator name="symmetry" >
   <i type="int" name="ISYM">     1</i>
   <i name="SYMPREC">      0.00001000</i>
  </separator>
  <separator name="dos" >
   <i type="int" name="LORBIT">    11</i>
   <v name="RWIGS">     -1.00000000</v>
   <i type="int" name="NEDOS">   301</i>
   <i name="EMIN">     10.00000000</i>
   <i name="EMAX">    -10.00000000</i>
   <i name="EFERMI">      0.00000000</i>
  </separator>
  <separator name="writing" >
   <i type="int" name="NWRITE">     2</i>
   <i type="logical" name="LWAVE"> T  </i>
   <i type="logical" name="LDOWNSAMPLE"> F  </i>
   <i type="logical" name="LCHARG"> T  </i>
   <i type="logical" name="LPARD"> F  </i>
   <i type="logical" name="LVTOT"> F  </i>
   <i type="logical" name="LVHAR"> F  </i>
   <i type="logical" name="LELF"> F  </i>
   <i type="logical" name="LOPTICS"> F  </i>
   <v name="STM">      0.00000000      0.00000000      0.00000000      0.00000000      0.00000000      0.00000000      0.00000000</v>
  </separator>
  <separator name="performance" >
   <i type="int" name="NPAR">    24</i>
   <i type="int" name="NSIM">     4</i>
   <i type="int" name="NBLK">    -1</i>
   <i type="logical" name="LPLANE"> T  </i>
   <i type="logical" name="LSCALAPACK"> T  </i>
   <i type="logical" name="LSCAAWARE"> T  </i>
   <i type="logical" name="LSCALU"> F  </i>
   <i type="logical" name="LASYNC"> F  </i>
   <i type="logical" name="LORBITALREAL"> F  </i>
  </separator>
  <separator name="miscellaneous" >
   <i type="int" name="IDIOT">     3</i>
   <i type="int" name="PHON_NSTRUCT">    -1</i>
   <i type="logical" name="LMUSIC"> F  </i>
   <v name="POMASS">    195.08000000</v>
   <v name="DARWINR">      0.00000000</v>
   <v name="DARWINV">      1.00000000</v>
   <i type="logical" name="LCORR"> T  </i>
  </separator>
  <i type="logical" name="GGA_COMPAT"> T  </i>
  <i type="logical" name="LBERRY"> F  </i>
  <i type="int" name="ICORELEVEL">     0</i>
  <i type="logical" name="LDAU"> F  </i>
  <i type="int" name="I_CONSTRAINED_M">     0</i>
  <separator name="electronic exchange-correlation" >
   <i type="string" name="GGA">--</i>
   <i type="int" name="VOSKOWN">     0</i>
   <i type="logical" name="LHFCALC"> F  </i>
   <i type="string" name="PRECFOCK"></i>
   <i type="logical" name="LSYMGRAD"> F  </i>
   <i type="logical" name="LHFONE"> F  </i>
   <i type="logical" name="LRHFCALC"> F  </i>
   <i type="logical" name="LTHOMAS"> F  </i>
   <i type="logical" name="LMODELHF"> F  </i>
   <i type="logical" name="LFOCKACE"> F  </i>
   <i name="ENCUT4O">     -1.00000000</i>
   <i type="int" name="EXXOEP">     0</i>
   <i type="int" name="FOURORBIT">     0</i>
   <i name="AEXX">      0.00000000</i>
   <i name="HFALPHA">      0.00000000</i>
   <i name="MCALPHA">      0.00000000</i>
   <i name="ALDAX">      1.00000000</i>
   <i name="AGGAX">      1.00000000</i>
   <i name="ALDAC">      1.00000000</i>
   <i name="AGGAC">      1.00000000</i>
   <i type="int" name="NKREDX">     1</i>
   <i type="int" name="NKREDY">     1</i>
   <i type="int" name="NKREDZ">     1</i>
   <i type="logical" name="SHIFTRED"> F  </i>
   <i type="logical" name="ODDONLY"> F  </i>
   <i type="logical" name="EVENONLY"> F  </i>
   <i type="int" name="LMAXFOCK">     0</i>
   <i type="int" name="NMAXFOCKAE">     0</i>
   <i type="logical" name="LFOCKAEDFT"> F  </i>
   <i name="HFSCREEN">      0.00000000</i>
   <i name="HFSCREENC">      0.00000000</i>
   <i type="int" name="NBANDSGWLOW">     0</i>
  </separator>
  <separator name="vdW DFT" >
   <i type="logical" name="LUSE_VDW"> F  </i>
   <i name="Zab_VDW">     -0.84910000</i>
   <i name="PARAM1">      0.12340000</i>
   <i name="PARAM2">      1.00000000</i>
   <i name="PARAM3">      0.00000000</i>
  </separator>
  <separator name="model GW" >
   <i type="int" name="MODEL_GW">     0</i>
   <i name="MODEL_EPS0">      8.48660858</i>
   <i name="MODEL_ALPHA">      1.00000000</i>
  </separator>
  <separator name="linear response parameters" >
   <i type="logical" name="LEPSILON"> F  </i>
   <i type="logical" name="LRPA"> F  </i>
   <i type="logical" name="LNABLA"> F  </i>
   <i type="logical" name="LVEL"> F  </i>
   <i name="CSHIFT">      0.10000000</i>
   <i name="OMEGAMAX">     -1.00000000</i>
   <i name="DEG_THRESHOLD">      0.00200000</i>
   <i name="RTIME">     -0.10000000</i>
   <i name="WPLASMAI">      0.00000000</i>
   <v name="DFIELD">      0.00000000      0.00000000      0.00000000</v>
   <v name="WPLASMA">      0.00000000      0.00000000      0.00000000      0.00000000      0.00000000      0.00000000      0.00000000      0.00000000      0.00000000</v>
  </separator>
  <separator name="orbital magnetization" >
   <i type="logical" name="NUCIND"> F  </i>
   <v name="MAGPOS">      0.00000000      0.00000000      0.00000000</v>
   <i type="logical" name="LNICSALL"> T  </i>
   <i type="logical" name="ORBITALMAG"> F  </i>
   <i type="logical" name="LMAGBLOCH"> F  </i>
   <i type="logical" name="LCHIMAG"> F  </i>
   <i type="logical" name="LGAUGE"> T  </i>
   <i type="int" name="MAGATOM">     0</i>
   <v name="MAGDIPOL">      0.00000000      0.00000000      0.00000000</v>
   <v name="AVECCONST">      0.00000000      0.00000000      0.00000000</v>
  </separator>
  <separator name="response functions" >
   <i type="logical" name="LFINITE_TEMPERATURE"> F  </i>
   <i type="logical" name="LADDER"> F  </i>
   <i type="logical" name="LRPAFORCE"> F  </i>
   <i type="logical" name="LFXC"> F  </i>
   <i type="logical" name="LHARTREE"> T  </i>
   <i type="int" name="IBSE">     0</i>
   <v type="int" name="KPOINT">    -1     0     0     0</v>
   <i type="logical" name="LTCTC"> F  </i>
   <i type="logical" name="LTCTE"> F  </i>
   <i type="logical" name="LTETE"> F  </i>
   <i type="logical" name="LTRIPLET"> F  </i>
   <i type="logical" name="LFXCEPS"> F  </i>
   <i type="logical" name="LFXHEG"> F  </i>
   <i type="int" name="NATURALO">     2</i>
   <i type="logical" name="LHOLEGF"> F  </i>
   <i type="logical" name="L2ORDER"> F  </i>
   <i type="logical" name="LDMP1"> F  </i>
   <i type="logical" name="LMP2LT"> F  </i>
   <i type="logical" name="LSMP2LT"> F  </i>
   <i type="logical" name="LGWLF"> F  </i>
   <i name="ENCUTGW">     -2.00000000</i>
   <i name="ENCUTGWSOFT">     -2.00000000</i>
   <i name="ENCUTLF">     -1.00000000</i>
   <i type="logical" name="LESF_SPLINES"> F  </i>
   <i type="int" name="LMAXMP2">    -1</i>
   <i name="SCISSOR">      0.00000000</i>
   <i type="int" name="NOMEGA">     0</i>
   <i type="int" name="NOMEGAR">     0</i>
   <i type="int" name="NBANDSGW">    -1</i>
   <i type="int" name="NBANDSO">    -1</i>
   <i type="int" name="NBANDSV">    -1</i>
   <i type="int" name="NELMGW">     1</i>
   <i type="int" name="NELMHF">     1</i>
   <i type="int" name="DIM">     3</i>
   <i type="int" name="IESPILON">     4</i>
   <i type="int" name="ANTIRES">     0</i>
   <i name="OMEGAMAX">    -30.00000000</i>
   <i name="OMEGAMIN">    -30.00000000</i>
   <i name="OMEGATL">   -200.00000000</i>
   <i type="int" name="OMEGAGRID">     0</i>
   <i name="CSHIFT">     -0.10000000</i>
   <i type="logical" name="LSELFENERGY"> F  </i>
   <i type="logical" name="LSPECTRAL"> F  </i>
   <i type="logical" name="LSPECTRALGW"> F  </i>
   <i type="logical" name="LSINGLES"> F  </i>
   <i type="logical" name="LFERMIGW"> F  </i>
   <i type="logical" name="ODDONLYGW"> F  </i>
   <i type="logical" name="EVENONLYGW"> F  </i>
   <i type="int" name="NKREDLFX">     1</i>
   <i type="int" name="NKREDLFY">     1</i>
   <i type="int" name="NKREDLFZ">     1</i>
   <i type="int" name="MAXMEM">  2800</i>
   <i type="int" name="TELESCOPE">     0</i>
   <i type="int" name="NTAUPAR">    -1</i>
   <i type="int" name="NOMEGAPAR">    -1</i>
   <i name="DAMP_NEWTON">      0.80000001</i>
   <i name="LAMBDA">      1.00000000</i>
  </separator>
  <separator name="External order field" >
   <i name="OFIELD_KAPPA">      0.00000000</i>
   <v name="OFIELD_K">      0.00000000      0.00000000      0.00000000</v>
   <i name="OFIELD_Q6_NEAR">      0.00000000</i>
   <i name="OFIELD_Q6_FAR">      0.00000000</i>
   <i name="OFIELD_A">      0.00000000</i>
  </separator>
  <separator name="optional k-points parameters" >
   <i type="int" name="KPOINTS_OPT_MODE">     1</i>
   <i type="logical" name="LKPOINTS_OPT"> F  </i>
  </separator>
 </parameters>
 <atominfo>
  <atoms>       1 </atoms>
  <types>       1 </types>
  <array name="atoms" >
   <dimension dim="1">ion</dimension>
   <field type="string">element</field>
   <field type="int">atomtype</field>
   <set>
    <rc><c>Pt</c><c>   1</c></rc>
   </set>
  </array>
  <array name="atomtypes" >
   <dimension dim="1">type</dimension>
   <field type="int">atomspertype</field>
   <field type="string">element</field>
   <field>mass</field>
   <field>valence</field>
   <field type="string">pseudopotential</field>
   <set>
    <rc><c>   1</c><c>Pt</c><c>    195.08000000</c><c>     16.00000000</c><c>  PAW_PBE Pt_pv 12Dec2005               </c></rc>
   </set>
  </array>
 </atominfo>
 <structure name="initialpos" >
  <crystal>
   <varray name="basis" >
    <v>       0.00000000       1.91948317       1.91948317 </v>
    <v>       1.91948317       0.00000000       1.91948317 </v>
    <v>       1.91948317       1.91948317       0.00000000 </v>
   </varray>
   <i name="volume">     14.14434764 </i>
   <varray name="rec_basis" >
    <v>      -0.26048679       0.26048679       0.26048679 </v>
    <v>       0.26048679      -0.26048679       0.26048679 </v>
    <v>       0.26048679       0.26048679      -0.26048679 </v>
   </varray>
  </crystal>
  <varray name="positions" >
   <v>       0.00000000       0.00000000       0.00000000 </v>
  </varray>
 </structure>
 <calculation>
  <scstep>
   <time name="dav">    0.48    0.48</time>
   <time name="total">    0.48    0.49</time>
   <energy>
    <i name="alphaZ">    169.63090993 </i>
    <i name="ewald">  -2201.29381692 </i>
    <i name="hartreedc">   -372.35238693 </i>
    <i name="XCdc">     64.23485599 </i>
    <i name="pawpsdc">   2065.75261637 </i>
    <i name="pawaedc">  -2030.83594803 </i>
    <i name="eentropy">     -0.00177734 </i>
    <i name="bandstr">   -107.89991128 </i>
    <i name="atom">   2428.19501064 </i>
    <i name="e_fr_energy">     15.42955244 </i>
    <i name="e_wo_entrp">     15.43132978 </i>
    <i name="e_0_energy">     15.43044111 </i>
   </energy>
  </scstep>
  <scstep>
   <time name="dav">    0.64    0.64</time>
   <time name="total">    0.64    0.64</time>
   <energy>
    <i name="e_fr_energy">     -6.24924934 </i>
    <i name="e_wo_entrp">     -6.24768202 </i>
    <i name="e_0_energy">     -6.24846568 </i>
   </energy>
  </scstep>
  <scstep>
   <time name="dav">    0.64    0.64</time>
   <time name="total">    0.64    0.64</time>
   <energy>
    <i name="e_fr_energy">     -6.27596663 </i>
    <i name="e_wo_entrp">     -6.27440615 </i>
    <i name="e_0_energy">     -6.27518639 </i>
   </energy>
  </scstep>
  <scstep>
   <time name="dav">    0.90    0.91</time>
   <time name="total">    0.90    0.91</time>
   <energy>
    <i name="e_fr_energy">     -6.27598933 </i>
    <i name="e_wo_entrp">     -6.27442885 </i>
    <i name="e_0_energy">     -6.27520909 </i>
   </energy>
  </scstep>
  <scstep>
   <time name="dav">    0.63    0.63</time>
   <time name="total">    0.64    0.65</time>
   <energy>
    <i name="e_fr_energy">     -6.27598933 </i>
    <i name="e_wo_entrp">     -6.27442885 </i>
    <i name="e_0_energy">     -6.27520909 </i>
   </energy>
  </scstep>
  <scstep>
   <time name="dav">    0.51    0.51</time>
   <time name="total">    0.53    0.53</time>
   <energy>
    <i name="e_fr_energy">     -5.96560671 </i>
    <i name="e_wo_entrp">     -5.96358369 </i>
    <i name="e_0_energy">     -5.96459520 </i>
   </energy>
  </scstep>
  <scstep>
   <time name="dav">    0.77    0.77</time>
   <time name="total">    0.78    0.79</time>
   <energy>
    <i name="e_fr_energy">     -5.94224935 </i>
    <i name="e_wo_entrp">     -5.94008597 </i>
    <i name="e_0_energy">     -5.94116766 </i>
   </energy>
  </scstep>
  <scstep>
   <time name="dav">    0.43    0.43</time>
   <time name="total">    0.44    0.45</time>
   <energy>
    <i name="e_fr_energy">     -5.94048026 </i>
    <i name="e_wo_entrp">     -5.93830213 </i>
    <i name="e_0_energy">     -5.93939120 </i>
   </energy>
  </scstep>
  <scstep>
   <time name="dav">    0.73    0.73</time>
   <time name="total">    0.75    0.75</time>
   <energy>
    <i name="e_fr_energy">     -5.94038728 </i>
    <i name="e_wo_entrp">     -5.93821202 </i>
    <i name="e_0_energy">     -5.93929965 </i>
   </energy>
  </scstep>
  <scstep>
   <time name="dav">    0.73    0.73</time>
   <time name="total">    0.75    0.75</time>
   <energy>
    <i name="e_fr_energy">     -5.94039173 </i>
    <i name="e_wo_entrp">     -5.93821778 </i>
    <i name="e_0_energy">     -5.93930476 </i>
   </energy>
  </scstep>
  <scstep>
   <time name="dav">    0.26    0.26</time>
   <time name="total">    0.26    0.26</time>
   <energy>
    <i name="alphaZ">    169.63090993 </i>
    <i name="ewald">  -2201.29381692 </i>
    <i name="hartreedc">   -353.63305302 </i>
    <i name="XCdc">     63.39950318 </i>
    <i name="pawpsdc">   2482.82015542 </i>
    <i name="pawaedc">  -2450.90939730 </i>
    <i name="eentropy">     -0.00217395 </i>
    <i name="bandstr">   -144.14752969 </i>
    <i name="atom">   2428.19501064 </i>
    <i name="e_fr_energy">     -5.94039170 </i>
    <i name="e_wo_entrp">     -5.93821775 </i>
    <i name="e_0_energy">     -5.93930472 </i>
   </energy>
  </scstep>
  <structure>
   <crystal>
    <varray name="basis" >
     <v>       0.00000000       1.91948317       1.91948317 </v>
     <v>       1.91948317       0.00000000       1.91948317 </v>
     <v>       1.91948317       1.91948317       0.00000000 </v>
    </varray>
    <i name="volume">     14.14434764 </i>
    <varray name="rec_basis" >
     <v>      -0.26048679       0.26048679       0.26048679 </v>
     <v>       0.26048679      -0.26048679       0.26048679 </v>
     <v>       0.26048679       0.26048679      -0.26048679 </v>
    </varray>
   </crystal>
   <varray name="positions" >
    <v>       0.00000000       0.00000000       0.00000000 </v>
   </varray>
  </structure>
  <varray name="forces" >
   <v>      -0.00000000       0.00000000       0.00000000 </v>
  </varray>
  <varray name="stress" >
   <v>     303.46019456       0.00000000       0.00000000 </v>
   <v>       0.00000000     303.46019456       0.00000000 </v>
   <v>      -0.00000000       0.00000000     303.46019456 </v>
  </varray>
  <energy>
   <i name="e_fr_energy">     -5.94039170 </i>
   <i name="e_wo_entrp">     -5.93821775 </i>
   <i name="e_0_energy">     -5.93930472 </i>
  </energy>
  <time name="totalsc">    7.03    7.19</time>
  <eigenvalues>
   <array>
    <dimension dim="1">band</dimension>
    <dimension dim="2">kpoint</dimension>
    <dimension dim="3">spin</dimension>
    <field>eigene</field>
    <field>occ</field>
    <set>
     <set comment="spin 1">
      <set comment="kpoint 1">
       <r>  -39.3735    1.0000 </r>
       <r>  -39.3605    1.0000 </r>
       <r>  -39.3605    1.0000 </r>
       <r>    2.4992    1.0000 </r>
       <r>    9.1137    1.0000 </r>
       <r>    9.2102    1.0000 </r>
       <r>    9.2102    1.0000 </r>
       <r>   11.5450    1.0000 </r>
       <r>   11.5450    1.0000 </r>
       <r>   27.9671    0.0000 </r>
       <r>   32.5623    0.0000 </r>
       <r>   33.2914    0.0000 </r>
       <r>   33.2914    0.0000 </r>
       <r>   39.3764    0.0000 </r>
       <r>   45.3072    0.0000 </r>
       <r>   46.0695    0.0000 </r>
       <r>   46.0695    0.0000 </r>
       <r>   49.8262    0.0000 </r>
       <r>   49.8262    0.0000 </r>
       <r>   50.7962    0.0000 </r>
       <r>   53.8068    0.0000 </r>
       <r>   56.3916    0.0000 </r>
       <r>   56.3916    0.0000 </r>
       <r>   63.5290    0.0000 </r>
      </set>
      <set comment="kpoint 2">
       <r>  -39.4453    1.0000 </r>
       <r>  -39.3816    1.0000 </r>
       <r>  -39.3661    1.0000 </r>
       <r>    3.0569    1.0000 </r>
       <r>    8.8507    1.0000 </r>
       <r>    9.4099    1.0000 </r>
       <r>    9.4539    1.0000 </r>
       <r>   11.2858    1.0000 </r>
       <r>   11.6062    1.0000 </r>
       <r>   28.8218    0.0000 </r>
       <r>   30.8544    0.0000 </r>
       <r>   33.5221    0.0000 </r>
       <r>   34.5056    0.0000 </r>
       <r>   40.5201    0.0000 </r>
       <r>   42.9184    0.0000 </r>
       <r>   43.3680    0.0000 </r>
       <r>   45.0352    0.0000 </r>
       <r>   47.9572    0.0000 </r>
       <r>   51.2604    0.0000 </r>
       <r>   53.6184    0.0000 </r>
       <r>   53.8120    0.0000 </r>
       <r>   55.0597    0.0000 </r>
       <r>   57.5736    0.0000 </r>
       <r>   64.2282    0.0000 </r>
      </set>
      <set comment="kpoint 3">
       <r>  -39.6042    1.0000 </r>
       <r>  -39.4096    1.0000 </r>
       <r>  -39.3872    1.0000 </r>
       <r>    4.2322    1.0000 </r>
       <r>    8.6049    1.0000 </r>
       <r>    9.6166    1.0000 </r>
       <r>    9.6607    1.0000 </r>
       <r>   11.2606    1.0000 </r>
       <r>   11.8979    1.0000 </r>
       <r>   28.0807    0.0000 </r>
       <r>   30.0105    0.0000 </r>
       <r>   34.8968    0.0000 </r>
       <r>   36.8131    0.0000 </r>
       <r>   37.0023    0.0000 </r>
       <r>   40.3931    0.0000 </r>
       <r>   40.7677    0.0000 </r>
       <r>   47.1264    0.0000 </r>
       <r>   48.2966    0.0000 </r>
       <r>   51.8099    0.0000 </r>
       <r>   53.6570    0.0000 </r>
       <r>   53.8136    0.0000 </r>
       <r>   56.5802    0.0000 </r>
       <r>   58.1454    0.0000 </r>
       <r>   64.5572    0.0000 </r>
      </set>
      <set comment="kpoint 4">
       <r>  -39.7835    1.0000 </r>
       <r>  -39.4372    1.0000 </r>
       <r>  -39.4146    1.0000 </r>
       <r>    5.2197    1.0000 </r>
       <r>    9.2512    1.0000 </r>
       <r>    9.4435    1.0000 </r>
       <r>    9.4792    1.0000 </r>
       <r>   12.0029    1.0000 </r>
       <r>   12.7358    1.0000 </r>
       <r>   24.8102    0.0000 </r>
       <r>   29.1589    0.0000 </r>
       <r>   34.4741    0.0000 </r>
       <r>   36.7491    0.0000 </r>
       <r>   37.6582    0.0000 </r>
       <r>   39.7332    0.0000 </r>
       <r>   40.1558    0.0000 </r>
       <r>   48.6424    0.0000 </r>
       <r>   51.0061    0.0000 </r>
       <r>   52.9672    0.0000 </r>
       <r>   53.7884    0.0000 </r>
       <r>   53.9928    0.0000 </r>
       <r>   56.9785    0.0000 </r>
       <r>   58.8083    0.0000 </r>
       <r>   63.6007    0.0000 </r>
      </set>
      <set comment="kpoint 5">
       <r>  -39.9142    1.0000 </r>
       <r>  -39.4537    1.0000 </r>
       <r>  -39.4376    1.0000 </r>
       <r>    5.4291    1.0000 </r>
       <r>    9.1135    1.0000 </r>
       <r>    9.2255    1.0000 </r>
       <r>   11.1574    1.0000 </r>
       <r>   12.9662    1.0000 </r>
       <r>   13.7071    0.0000 </r>
       <r>   21.2496    0.0000 </r>
       <r>   27.8957    0.0000 </r>
       <r>   32.7901    0.0000 </r>
       <r>   33.8381    0.0000 </r>
       <r>   40.9354    0.0000 </r>
       <r>   42.2324    0.0000 </r>
       <r>   42.6372    0.0000 </r>
       <r>   49.1339    0.0000 </r>
       <r>   50.6915    0.0000 </r>
       <r>   51.8089    0.0000 </r>
       <r>   53.8037    0.0000 </r>
       <r>   56.3678    0.0000 </r>
       <r>   59.2253    0.0000 </r>
       <r>   59.2931    0.0000 </r>
       <r>   60.6734    0.0000 </r>
      </set>
      <set comment="kpoint 6">
       <r>  -39.9507    1.0000 </r>
       <r>  -39.4536    1.0000 </r>
       <r>  -39.4479    1.0000 </r>
       <r>    5.4216    1.0000 </r>
       <r>    9.0123    1.0000 </r>
       <r>    9.1672    1.0000 </r>
       <r>   11.9369    1.0000 </r>
       <r>   13.4458    0.1288 </r>
       <r>   14.1159    0.0000 </r>
       <r>   19.7626    0.0000 </r>
       <r>   27.5668    0.0000 </r>
       <r>   32.6317    0.0000 </r>
       <r>   32.6585    0.0000 </r>
       <r>   42.4894    0.0000 </r>
       <r>   42.7482    0.0000 </r>
       <r>   44.2276    0.0000 </r>
       <r>   49.2735    0.0000 </r>
       <r>   49.9430    0.0000 </r>
       <r>   50.4941    0.0000 </r>
       <r>   53.8085    0.0000 </r>
       <r>   57.4477    0.0000 </r>
       <r>   58.0306    0.0000 </r>
       <r>   60.4587    0.0000 </r>
       <r>   61.1358    0.0000 </r>
      </set>
      <set comment="kpoint 7">
       <r>  -39.8796    1.0000 </r>
       <r>  -39.4426    1.0000 </r>
       <r>  -39.4380    1.0000 </r>
       <r>    5.4101    1.0000 </r>
       <r>    9.1585    1.0000 </r>
       <r>    9.3335    1.0000 </r>
       <r>   10.4608    1.0000 </r>
       <r>   13.0108    1.0000 </r>
       <r>   13.1077    1.0000 </r>
       <r>   22.3715    0.0000 </r>
       <r>   28.2248    0.0000 </r>
       <r>   33.4642    0.0000 </r>
       <r>   34.3394    0.0000 </r>
       <r>   40.5919    0.0000 </r>
       <r>   40.7479    0.0000 </r>
       <r>   41.8523    0.0000 </r>
       <r>   48.4743    0.0000 </r>
       <r>   51.7612    0.0000 </r>
       <r>   52.3604    0.0000 </r>
       <r>   53.8026    0.0000 </r>
       <r>   56.3026    0.0000 </r>
       <r>   57.2486    0.0000 </r>
       <r>   59.4194    0.0000 </r>
       <r>   61.4606    0.0000 </r>
      </set>
      <set comment="kpoint 8">
       <r>  -39.7259    1.0000 </r>
       <r>  -39.4223    1.0000 </r>
       <r>  -39.4114    1.0000 </r>
       <r>    4.9789    1.0000 </r>
       <r>    8.8705    1.0000 </r>
       <r>    9.4800    1.0000 </r>
       <r>    9.5974    1.0000 </r>
       <r>   11.8312    1.0000 </r>
       <r>   12.3012    1.0000 </r>
       <r>   25.9781    0.0000 </r>
       <r>   29.6605    0.0000 </r>
       <r>   35.2779    0.0000 </r>
       <r>   36.4261    0.0000 </r>
       <r>   38.2970    0.0000 </r>
       <r>   38.7284    0.0000 </r>
       <r>   39.5793    0.0000 </r>
       <r>   48.2002    0.0000 </r>
       <r>   50.8046    0.0000 </r>
       <r>   52.0517    0.0000 </r>
       <r>   53.7956    0.0000 </r>
       <r>   54.4470    0.0000 </r>
       <r>   55.6585    0.0000 </r>
       <r>   59.2759    0.0000 </r>
       <r>   64.8586    0.0000 </r>
      </set>
      <set comment="kpoint 9">
       <r>  -39.5449    1.0000 </r>
       <r>  -39.3953    1.0000 </r>
       <r>  -39.3844    1.0000 </r>
       <r>    3.8062    1.0000 </r>
       <r>    8.6186    1.0000 </r>
       <r>    9.6106    1.0000 </r>
       <r>    9.6361    1.0000 </r>
       <r>   11.1981    1.0000 </r>
       <r>   11.7262    1.0000 </r>
       <r>   29.0734    0.0000 </r>
       <r>   29.7463    0.0000 </r>
       <r>   34.5910    0.0000 </r>
       <r>   35.4764    0.0000 </r>
       <r>   38.5628    0.0000 </r>
       <r>   40.6443    0.0000 </r>
       <r>   42.4163    0.0000 </r>
       <r>   45.5994    0.0000 </r>
       <r>   48.0631    0.0000 </r>
       <r>   52.0776    0.0000 </r>
       <r>   53.7857    0.0000 </r>
       <r>   54.0403    0.0000 </r>
       <r>   55.0167    0.0000 </r>
       <r>   58.4687    0.0000 </r>
       <r>   64.4602    0.0000 </r>
      </set>
      <set comment="kpoint 10">
       <r>  -39.4062    1.0000 </r>
       <r>  -39.3716    1.0000 </r>
       <r>  -39.3679    1.0000 </r>
       <r>    2.7839    1.0000 </r>
       <r>    8.9353    1.0000 </r>
       <r>    9.3463    1.0000 </r>
       <r>    9.3548    1.0000 </r>
       <r>   11.3306    1.0000 </r>
       <r>   11.6310    1.0000 </r>
       <r>   28.4211    0.0000 </r>
       <r>   31.7972    0.0000 </r>
       <r>   33.3828    0.0000 </r>
       <r>   33.6332    0.0000 </r>
       <r>   40.7233    0.0000 </r>
       <r>   43.5529    0.0000 </r>
       <r>   43.9243    0.0000 </r>
       <r>   46.1578    0.0000 </r>
       <r>   47.6404    0.0000 </r>
       <r>   51.8573    0.0000 </r>
       <r>   52.3846    0.0000 </r>
       <r>   53.8051    0.0000 </r>
       <r>   54.8714    0.0000 </r>
       <r>   57.5437    0.0000 </r>
       <r>   64.0633    0.0000 </r>
      </set>
      <set comment="kpoint 11">
       <r>  -39.4612    1.0000 </r>
       <r>  -39.3924    1.0000 </r>
       <r>  -39.3883    1.0000 </r>
       <r>    3.3325    1.0000 </r>
       <r>    8.5896    1.0000 </r>
       <r>    9.6336    1.0000 </r>
       <r>    9.6414    1.0000 </r>
       <r>   10.9553    1.0000 </r>
       <r>   11.7976    1.0000 </r>
       <r>   29.2781    0.0000 </r>
       <r>   31.1100    0.0000 </r>
       <r>   33.4171    0.0000 </r>
       <r>   33.7726    0.0000 </r>
       <r>   41.0651    0.0000 </r>
       <r>   41.8863    0.0000 </r>
       <r>   43.6122    0.0000 </r>
       <r>   44.3461    0.0000 </r>
       <r>   46.7184    0.0000 </r>
       <r>   52.4623    0.0000 </r>
       <r>   53.7948    0.0000 </r>
       <r>   54.0324    0.0000 </r>
       <r>   54.1307    0.0000 </r>
       <r>   58.4754    0.0000 </r>
       <r>   65.3840    0.0000 </r>
      </set>
      <set comment="kpoint 12">
       <r>  -39.5724    1.0000 </r>
       <r>  -39.4324    1.0000 </r>
       <r>  -39.4040    1.0000 </r>
       <r>    4.3149    1.0000 </r>
       <r>    8.1934    1.0000 </r>
       <r>    9.7522    1.0000 </r>
       <r>   10.0452    1.0000 </r>
       <r>   10.8307    1.0000 </r>
       <r>   12.1143    1.0000 </r>
       <r>   29.4435    0.0000 </r>
       <r>   30.5197    0.0000 </r>
       <r>   33.1710    0.0000 </r>
       <r>   34.5283    0.0000 </r>
       <r>   38.3560    0.0000 </r>
       <r>   40.7670    0.0000 </r>
       <r>   42.3044    0.0000 </r>
       <r>   45.9554    0.0000 </r>
       <r>   47.2103    0.0000 </r>
       <r>   51.2442    0.0000 </r>
       <r>   53.2554    0.0000 </r>
       <r>   53.7977    0.0000 </r>
       <r>   56.9935    0.0000 </r>
       <r>   59.9214    0.0000 </r>
       <r>   65.3041    0.0000 </r>
      </set>
      <set comment="kpoint 13">
       <r>  -39.7293    1.0000 </r>
       <r>  -39.4680    1.0000 </r>
       <r>  -39.4300    1.0000 </r>
       <r>    5.4808    1.0000 </r>
       <r>    8.2520    1.0000 </r>
       <r>    9.2697    1.0000 </r>
       <r>   10.0533    1.0000 </r>
       <r>   11.7812    1.0000 </r>
       <r>   12.9341    1.0000 </r>
       <r>   26.3105    0.0000 </r>
       <r>   30.2324    0.0000 </r>
       <r>   32.6955    0.0000 </r>
       <r>   34.6433    0.0000 </r>
       <r>   38.9650    0.0000 </r>
       <r>   39.8539    0.0000 </r>
       <r>   41.8018    0.0000 </r>
       <r>   45.2273    0.0000 </r>
       <r>   50.7993    0.0000 </r>
       <r>   52.7600    0.0000 </r>
       <r>   53.0575    0.0000 </r>
       <r>   53.7991    0.0000 </r>
       <r>   57.0163    0.0000 </r>
       <r>   61.4200    0.0000 </r>
       <r>   63.1541    0.0000 </r>
      </set>
      <set comment="kpoint 14">
       <r>  -39.8629    1.0000 </r>
       <r>  -39.4942    1.0000 </r>
       <r>  -39.4564    1.0000 </r>
       <r>    5.8966    1.0000 </r>
       <r>    8.7959    1.0000 </r>
       <r>    9.4379    1.0000 </r>
       <r>    9.8122    1.0000 </r>
       <r>   13.0114    1.0000 </r>
       <r>   14.2529    0.0000 </r>
       <r>   22.4391    0.0000 </r>
       <r>   28.9435    0.0000 </r>
       <r>   31.5737    0.0000 </r>
       <r>   33.8636    0.0000 </r>
       <r>   39.7821    0.0000 </r>
       <r>   42.3176    0.0000 </r>
       <r>   43.2807    0.0000 </r>
       <r>   45.5722    0.0000 </r>
       <r>   52.2482    0.0000 </r>
       <r>   52.5381    0.0000 </r>
       <r>   53.8045    0.0000 </r>
       <r>   54.5467    0.0000 </r>
       <r>   58.0930    0.0000 </r>
       <r>   59.6647    0.0000 </r>
       <r>   61.4672    0.0000 </r>
      </set>
      <set comment="kpoint 15">
       <r>  -39.9247    1.0000 </r>
       <r>  -39.5114    1.0000 </r>
       <r>  -39.4648    1.0000 </r>
       <r>    5.9087    1.0000 </r>
       <r>    8.6093    1.0000 </r>
       <r>    9.5984    1.0000 </r>
       <r>   10.5911    1.0000 </r>
       <r>   13.3578    0.9124 </r>
       <r>   15.9176    0.0000 </r>
       <r>   19.5748    0.0000 </r>
       <r>   28.3816    0.0000 </r>
       <r>   31.2363    0.0000 </r>
       <r>   32.3774    0.0000 </r>
       <r>   41.6430    0.0000 </r>
       <r>   42.4615    0.0000 </r>
       <r>   45.4300    0.0000 </r>
       <r>   47.8472    0.0000 </r>
       <r>   50.1367    0.0000 </r>
       <r>   52.0297    0.0000 </r>
       <r>   53.7997    0.0000 </r>
       <r>   54.8305    0.0000 </r>
       <r>   56.2828    0.0000 </r>
       <r>   60.5329    0.0000 </r>
       <r>   62.4544    0.0000 </r>
      </set>
      <set comment="kpoint 16">
       <r>  -39.8909    1.0000 </r>
       <r>  -39.5133    1.0000 </r>
       <r>  -39.4504    1.0000 </r>
       <r>    5.9410    1.0000 </r>
       <r>    8.7378    1.0000 </r>
       <r>    9.6304    1.0000 </r>
       <r>   10.0971    1.0000 </r>
       <r>   12.8058    1.0000 </r>
       <r>   15.0692    0.0000 </r>
       <r>   21.3329    0.0000 </r>
       <r>   28.6396    0.0000 </r>
       <r>   30.9781    0.0000 </r>
       <r>   33.8241    0.0000 </r>
       <r>   39.7438    0.0000 </r>
       <r>   42.5261    0.0000 </r>
       <r>   44.4700    0.0000 </r>
       <r>   47.4451    0.0000 </r>
       <r>   51.4362    0.0000 </r>
       <r>   52.5013    0.0000 </r>
       <r>   53.3263    0.0000 </r>
       <r>   53.8061    0.0000 </r>
       <r>   57.9999    0.0000 </r>
       <r>   60.3711    0.0000 </r>
       <r>   61.3583    0.0000 </r>
      </set>
      <set comment="kpoint 17">
       <r>  -39.7764    1.0000 </r>
       <r>  -39.4946    1.0000 </r>
       <r>  -39.4228    1.0000 </r>
       <r>    5.7600    1.0000 </r>
       <r>    8.6390    1.0000 </r>
       <r>    9.1468    1.0000 </r>
       <r>    9.9162    1.0000 </r>
       <r>   11.6942    1.0000 </r>
       <r>   13.6595    0.0000 </r>
       <r>   25.0634    0.0000 </r>
       <r>   29.6470    0.0000 </r>
       <r>   31.9244    0.0000 </r>
       <r>   35.6035    0.0000 </r>
       <r>   37.7418    0.0000 </r>
       <r>   41.2669    0.0000 </r>
       <r>   42.7941    0.0000 </r>
       <r>   45.4090    0.0000 </r>
       <r>   51.0519    0.0000 </r>
       <r>   51.4916    0.0000 </r>
       <r>   53.8036    0.0000 </r>
       <r>   55.0897    0.0000 </r>
       <r>   57.5589    0.0000 </r>
       <r>   60.7931    0.0000 </r>
       <r>   61.9312    0.0000 </r>
      </set>
      <set comment="kpoint 18">
       <r>  -39.6264    1.0000 </r>
       <r>  -39.4554    1.0000 </r>
       <r>  -39.3950    1.0000 </r>
       <r>    4.7367    1.0000 </r>
       <r>    8.2434    1.0000 </r>
       <r>    9.5782    1.0000 </r>
       <r>   10.0799    1.0000 </r>
       <r>   10.8339    1.0000 </r>
       <r>   12.4748    1.0000 </r>
       <r>   28.2857    0.0000 </r>
       <r>   30.5342    0.0000 </r>
       <r>   33.2895    0.0000 </r>
       <r>   34.4972    0.0000 </r>
       <r>   38.1439    0.0000 </r>
       <r>   41.3985    0.0000 </r>
       <r>   42.3737    0.0000 </r>
       <r>   44.8674    0.0000 </r>
       <r>   48.2538    0.0000 </r>
       <r>   51.2479    0.0000 </r>
       <r>   52.7556    0.0000 </r>
       <r>   53.7978    0.0000 </r>
       <r>   58.9084    0.0000 </r>
       <r>   60.0986    0.0000 </r>
       <r>   64.1286    0.0000 </r>
      </set>
      <set comment="kpoint 19">
       <r>  -39.5030    1.0000 </r>
       <r>  -39.4029    1.0000 </r>
       <r>  -39.3784    1.0000 </r>
       <r>    3.5832    1.0000 </r>
       <r>    8.5832    1.0000 </r>
       <r>    9.6319    1.0000 </r>
       <r>    9.6543    1.0000 </r>
       <r>   11.0177    1.0000 </r>
       <r>   11.7944    1.0000 </r>
       <r>   29.5671    0.0000 </r>
       <r>   30.0379    0.0000 </r>
       <r>   33.5239    0.0000 </r>
       <r>   35.1175    0.0000 </r>
       <r>   39.0203    0.0000 </r>
       <r>   41.8408    0.0000 </r>
       <r>   44.1585    0.0000 </r>
       <r>   44.7587    0.0000 </r>
       <r>   46.3341    0.0000 </r>
       <r>   52.1424    0.0000 </r>
       <r>   53.2523    0.0000 </r>
       <r>   53.8032    0.0000 </r>
       <r>   55.6982    0.0000 </r>
       <r>   58.7418    0.0000 </r>
       <r>   64.9489    0.0000 </r>
      </set>
      <set comment="kpoint 20">
       <r>  -39.6166    1.0000 </r>
       <r>  -39.4544    1.0000 </r>
       <r>  -39.4538    1.0000 </r>
       <r>    4.9522    1.0000 </r>
       <r>    7.6627    1.0000 </r>
       <r>    9.9195    1.0000 </r>
       <r>   10.6059    1.0000 </r>
       <r>   10.8625    1.0000 </r>
       <r>   12.3199    1.0000 </r>
       <r>   30.2943    0.0000 </r>
       <r>   31.6895    0.0000 </r>
       <r>   31.9652    0.0000 </r>
       <r>   32.5893    0.0000 </r>
       <r>   37.3525    0.0000 </r>
       <r>   40.4576    0.0000 </r>
       <r>   40.7533    0.0000 </r>
       <r>   47.5911    0.0000 </r>
       <r>   48.3974    0.0000 </r>
       <r>   49.6174    0.0000 </r>
       <r>   53.7869    0.0000 </r>
       <r>   55.8970    0.0000 </r>
       <r>   56.7631    0.0000 </r>
       <r>   58.4917    0.0000 </r>
       <r>   68.1785    0.0000 </r>
      </set>
      <set comment="kpoint 21">
       <r>  -39.7206    1.0000 </r>
       <r>  -39.5036    1.0000 </r>
       <r>  -39.4767    1.0000 </r>
       <r>    5.8655    1.0000 </r>
       <r>    7.3265    1.0000 </r>
       <r>    9.4893    1.0000 </r>
       <r>   11.1192    1.0000 </r>
       <r>   11.8000    1.0000 </r>
       <r>   12.9856    1.0000 </r>
       <r>   28.0221    0.0000 </r>
       <r>   30.1246    0.0000 </r>
       <r>   31.1553    0.0000 </r>
       <r>   33.6807    0.0000 </r>
       <r>   36.5392    0.0000 </r>
       <r>   40.6803    0.0000 </r>
       <r>   42.0054    0.0000 </r>
       <r>   47.2403    0.0000 </r>
       <r>   47.6105    0.0000 </r>
       <r>   52.4023    0.0000 </r>
       <r>   53.7988    0.0000 </r>
       <r>   55.6590    0.0000 </r>
       <r>   57.6981    0.0000 </r>
       <r>   59.3407    0.0000 </r>
       <r>   66.0348    0.0000 </r>
      </set>
      <set comment="kpoint 22">
       <r>  -39.8201    1.0000 </r>
       <r>  -39.5526    1.0000 </r>
       <r>  -39.5003    1.0000 </r>
       <r>    6.4081    1.0000 </r>
       <r>    7.6444    1.0000 </r>
       <r>    9.1065    1.0000 </r>
       <r>   10.9124    1.0000 </r>
       <r>   13.1678    1.0000 </r>
       <r>   14.5877    0.0000 </r>
       <r>   23.8308    0.0000 </r>
       <r>   29.3744    0.0000 </r>
       <r>   29.5247    0.0000 </r>
       <r>   33.6339    0.0000 </r>
       <r>   38.8397    0.0000 </r>
       <r>   41.3952    0.0000 </r>
       <r>   43.5412    0.0000 </r>
       <r>   46.5069    0.0000 </r>
       <r>   49.0410    0.0000 </r>
       <r>   52.3478    0.0000 </r>
       <r>   53.7996    0.0000 </r>
       <r>   55.8539    0.0000 </r>
       <r>   59.1987    0.0000 </r>
       <r>   59.8483    0.0000 </r>
       <r>   63.3443    0.0000 </r>
      </set>
      <set comment="kpoint 23">
       <r>  -39.8695    1.0000 </r>
       <r>  -39.6023    1.0000 </r>
       <r>  -39.5031    1.0000 </r>
       <r>    6.5757    1.0000 </r>
       <r>    8.0026    1.0000 </r>
       <r>    9.3543    1.0000 </r>
       <r>   10.6060    1.0000 </r>
       <r>   13.4071    0.4847 </r>
       <r>   17.3332    0.0000 </r>
       <r>   20.0616    0.0000 </r>
       <r>   28.1465    0.0000 </r>
       <r>   29.7074    0.0000 </r>
       <r>   32.4871    0.0000 </r>
       <r>   40.6901    0.0000 </r>
       <r>   42.7554    0.0000 </r>
       <r>   44.0008    0.0000 </r>
       <r>   47.1957    0.0000 </r>
       <r>   50.9364    0.0000 </r>
       <r>   51.9330    0.0000 </r>
       <r>   53.8021    0.0000 </r>
       <r>   54.8403    0.0000 </r>
       <r>   57.5264    0.0000 </r>
       <r>   60.4027    0.0000 </r>
       <r>   62.9680    0.0000 </r>
      </set>
      <set comment="kpoint 24">
       <r>  -39.8547    1.0000 </r>
       <r>  -39.6307    1.0000 </r>
       <r>  -39.4835    1.0000 </r>
       <r>    6.8282    1.0000 </r>
       <r>    8.1110    1.0000 </r>
       <r>    9.3434    1.0000 </r>
       <r>   10.4493    1.0000 </r>
       <r>   12.7404    1.0000 </r>
       <r>   17.1250    0.0000 </r>
       <r>   20.9303    0.0000 </r>
       <r>   27.1148    0.0000 </r>
       <r>   30.5514    0.0000 </r>
       <r>   32.8462    0.0000 </r>
       <r>   39.5361    0.0000 </r>
       <r>   41.8978    0.0000 </r>
       <r>   45.5483    0.0000 </r>
       <r>   49.3876    0.0000 </r>
       <r>   50.5737    0.0000 </r>
       <r>   52.8551    0.0000 </r>
       <r>   53.5492    0.0000 </r>
       <r>   53.8034    0.0000 </r>
       <r>   55.5091    0.0000 </r>
       <r>   59.9261    0.0000 </r>
       <r>   62.1882    0.0000 </r>
      </set>
      <set comment="kpoint 25">
       <r>  -39.7986    1.0000 </r>
       <r>  -39.6070    1.0000 </r>
       <r>  -39.4508    1.0000 </r>
       <r>    6.9463    1.0000 </r>
       <r>    8.2750    1.0000 </r>
       <r>    8.5588    1.0000 </r>
       <r>   10.5604    1.0000 </r>
       <r>   11.6456    1.0000 </r>
       <r>   15.4193    0.0000 </r>
       <r>   24.2439    0.0000 </r>
       <r>   27.3607    0.0000 </r>
       <r>   30.9275    0.0000 </r>
       <r>   35.4872    0.0000 </r>
       <r>   36.5207    0.0000 </r>
       <r>   42.0748    0.0000 </r>
       <r>   46.0322    0.0000 </r>
       <r>   46.7374    0.0000 </r>
       <r>   48.6993    0.0000 </r>
       <r>   51.8961    0.0000 </r>
       <r>   53.8036    0.0000 </r>
       <r>   55.7127    0.0000 </r>
       <r>   58.9514    0.0000 </r>
       <r>   59.7249    0.0000 </r>
       <r>   60.8417    0.0000 </r>
      </set>
      <set comment="kpoint 26">
       <r>  -39.7350    1.0000 </r>
       <r>  -39.5252    1.0000 </r>
       <r>  -39.4191    1.0000 </r>
       <r>    5.9807    1.0000 </r>
       <r>    8.1068    1.0000 </r>
       <r>    9.1141    1.0000 </r>
       <r>   10.4001    1.0000 </r>
       <r>   11.0300    1.0000 </r>
       <r>   13.8039    0.0000 </r>
       <r>   26.3174    0.0000 </r>
       <r>   29.5662    0.0000 </r>
       <r>   31.7312    0.0000 </r>
       <r>   34.4818    0.0000 </r>
       <r>   38.2071    0.0000 </r>
       <r>   41.9965    0.0000 </r>
       <r>   43.3318    0.0000 </r>
       <r>   44.4695    0.0000 </r>
       <r>   49.0592    0.0000 </r>
       <r>   51.2354    0.0000 </r>
       <r>   53.8038    0.0000 </r>
       <r>   55.0388    0.0000 </r>
       <r>   59.2345    0.0000 </r>
       <r>   61.3737    0.0000 </r>
       <r>   61.9938    0.0000 </r>
      </set>
      <set comment="kpoint 27">
       <r>  -39.6684    1.0000 </r>
       <r>  -39.4356    1.0000 </r>
       <r>  -39.4016    1.0000 </r>
       <r>    4.8174    1.0000 </r>
       <r>    8.4707    1.0000 </r>
       <r>    9.5466    1.0000 </r>
       <r>    9.7977    1.0000 </r>
       <r>   11.3228    1.0000 </r>
       <r>   12.3672    1.0000 </r>
       <r>   27.2130    0.0000 </r>
       <r>   30.2145    0.0000 </r>
       <r>   34.3031    0.0000 </r>
       <r>   35.4192    0.0000 </r>
       <r>   38.3774    0.0000 </r>
       <r>   39.5160    0.0000 </r>
       <r>   41.0273    0.0000 </r>
       <r>   46.6061    0.0000 </r>
       <r>   49.3405    0.0000 </r>
       <r>   52.4171    0.0000 </r>
       <r>   52.8980    0.0000 </r>
       <r>   53.7987    0.0000 </r>
       <r>   56.8731    0.0000 </r>
       <r>   60.0575    0.0000 </r>
       <r>   64.4543    0.0000 </r>
      </set>
      <set comment="kpoint 28">
       <r>  -39.7791    1.0000 </r>
       <r>  -39.5259    1.0000 </r>
       <r>  -39.5219    1.0000 </r>
       <r>    5.9638    1.0000 </r>
       <r>    6.7810    1.0000 </r>
       <r>   10.5439    1.0000 </r>
       <r>   11.9406    1.0000 </r>
       <r>   12.4080    1.0000 </r>
       <r>   12.9640    1.0000 </r>
       <r>   27.9383    0.0000 </r>
       <r>   28.6636    0.0000 </r>
       <r>   29.7259    0.0000 </r>
       <r>   33.5573    0.0000 </r>
       <r>   34.9712    0.0000 </r>
       <r>   42.5960    0.0000 </r>
       <r>   43.0634    0.0000 </r>
       <r>   45.3093    0.0000 </r>
       <r>   49.2336    0.0000 </r>
       <r>   52.2920    0.0000 </r>
       <r>   53.8055    0.0000 </r>
       <r>   58.1951    0.0000 </r>
       <r>   58.3995    0.0000 </r>
       <r>   58.8197    0.0000 </r>
       <r>   63.9181    0.0000 </r>
      </set>
      <set comment="kpoint 29">
       <r>  -39.8431    1.0000 </r>
       <r>  -39.5713    1.0000 </r>
       <r>  -39.5446    1.0000 </r>
       <r>    6.1076    1.0000 </r>
       <r>    6.6264    1.0000 </r>
       <r>   10.6898    1.0000 </r>
       <r>   12.3840    1.0000 </r>
       <r>   13.1877    1.0000 </r>
       <r>   14.5217    0.0000 </r>
       <r>   25.0080    0.0000 </r>
       <r>   27.0214    0.0000 </r>
       <r>   28.0193    0.0000 </r>
       <r>   34.5493    0.0000 </r>
       <r>   36.4255    0.0000 </r>
       <r>   42.2820    0.0000 </r>
       <r>   45.1080    0.0000 </r>
       <r>   46.5382    0.0000 </r>
       <r>   49.8600    0.0000 </r>
       <r>   50.9986    0.0000 </r>
       <r>   53.8022    0.0000 </r>
       <r>   56.6901    0.0000 </r>
       <r>   59.1045    0.0000 </r>
       <r>   60.6116    0.0000 </r>
       <r>   61.5363    0.0000 </r>
      </set>
      <set comment="kpoint 30">
       <r>  -39.8565    1.0000 </r>
       <r>  -39.6437    1.0000 </r>
       <r>  -39.5471    1.0000 </r>
       <r>    6.3379    1.0000 </r>
       <r>    7.0469    1.0000 </r>
       <r>   10.2221    1.0000 </r>
       <r>   11.9213    1.0000 </r>
       <r>   13.5632    0.0000 </r>
       <r>   17.5919    0.0000 </r>
       <r>   21.3258    0.0000 </r>
       <r>   26.0230    0.0000 </r>
       <r>   27.6184    0.0000 </r>
       <r>   34.4925    0.0000 </r>
       <r>   39.2041    0.0000 </r>
       <r>   41.5076    0.0000 </r>
       <r>   44.7347    0.0000 </r>
       <r>   48.9399    0.0000 </r>
       <r>   50.5546    0.0000 </r>
       <r>   51.2460    0.0000 </r>
       <r>   53.7976    0.0000 </r>
       <r>   55.5496    0.0000 </r>
       <r>   57.5739    0.0000 </r>
       <r>   59.9229    0.0000 </r>
       <r>   61.1372    0.0000 </r>
      </set>
      <set comment="kpoint 31">
       <r>  -39.8021    1.0000 </r>
       <r>  -39.7302    1.0000 </r>
       <r>  -39.5246    1.0000 </r>
       <r>    6.7655    1.0000 </r>
       <r>    7.7336    1.0000 </r>
       <r>    9.4736    1.0000 </r>
       <r>   11.4045    1.0000 </r>
       <r>   13.0181    1.0000 </r>
       <r>   18.6348    0.0000 </r>
       <r>   21.2788    0.0000 </r>
       <r>   24.2651    0.0000 </r>
       <r>   29.3516    0.0000 </r>
       <r>   33.6495    0.0000 </r>
       <r>   40.3177    0.0000 </r>
       <r>   42.2920    0.0000 </r>
       <r>   42.6998    0.0000 </r>
       <r>   50.4093    0.0000 </r>
       <r>   50.8503    0.0000 </r>
       <r>   53.7968    0.0000 </r>
       <r>   53.9091    0.0000 </r>
       <r>   54.9502    0.0000 </r>
       <r>   55.9709    0.0000 </r>
       <r>   58.7803    0.0000 </r>
       <r>   61.1681    0.0000 </r>
      </set>
      <set comment="kpoint 32">
       <r>  -39.8062    1.0000 </r>
       <r>  -39.6910    1.0000 </r>
       <r>  -39.4874    1.0000 </r>
       <r>    7.2059    1.0000 </r>
       <r>    8.1269    1.0000 </r>
       <r>    8.7584    1.0000 </r>
       <r>   10.8534    1.0000 </r>
       <r>   12.3529    1.0000 </r>
       <r>   17.0011    0.0000 </r>
       <r>   22.8524    0.0000 </r>
       <r>   25.1423    0.0000 </r>
       <r>   30.9375    0.0000 </r>
       <r>   33.3759    0.0000 </r>
       <r>   38.5295    0.0000 </r>
       <r>   41.7052    0.0000 </r>
       <r>   45.3463    0.0000 </r>
       <r>   49.2616    0.0000 </r>
       <r>   52.0733    0.0000 </r>
       <r>   52.8666    0.0000 </r>
       <r>   53.2695    0.0000 </r>
       <r>   53.7995    0.0000 </r>
       <r>   56.2260    0.0000 </r>
       <r>   58.0491    0.0000 </r>
       <r>   62.2867    0.0000 </r>
      </set>
      <set comment="kpoint 33">
       <r>  -39.8415    1.0000 </r>
       <r>  -39.5639    1.0000 </r>
       <r>  -39.4508    1.0000 </r>
       <r>    6.4254    1.0000 </r>
       <r>    8.5708    1.0000 </r>
       <r>    9.1127    1.0000 </r>
       <r>   10.1048    1.0000 </r>
       <r>   12.2070    1.0000 </r>
       <r>   15.3194    0.0000 </r>
       <r>   22.7778    0.0000 </r>
       <r>   28.6130    0.0000 </r>
       <r>   30.4209    0.0000 </r>
       <r>   34.7052    0.0000 </r>
       <r>   37.9279    0.0000 </r>
       <r>   42.2880    0.0000 </r>
       <r>   45.3821    0.0000 </r>
       <r>   46.5861    0.0000 </r>
       <r>   50.5778    0.0000 </r>
       <r>   52.0397    0.0000 </r>
       <r>   53.8018    0.0000 </r>
       <r>   54.2349    0.0000 </r>
       <r>   58.3943    0.0000 </r>
       <r>   59.8744    0.0000 </r>
       <r>   61.7909    0.0000 </r>
      </set>
      <set comment="kpoint 34">
       <r>  -39.8309    1.0000 </r>
       <r>  -39.4614    1.0000 </r>
       <r>  -39.4301    1.0000 </r>
       <r>    5.5325    1.0000 </r>
       <r>    9.1518    1.0000 </r>
       <r>    9.4713    1.0000 </r>
       <r>    9.5936    1.0000 </r>
       <r>   12.3862    1.0000 </r>
       <r>   13.3888    0.6837 </r>
       <r>   23.6532    0.0000 </r>
       <r>   28.9003    0.0000 </r>
       <r>   32.9546    0.0000 </r>
       <r>   35.3344    0.0000 </r>
       <r>   38.7113    0.0000 </r>
       <r>   40.9935    0.0000 </r>
       <r>   41.7822    0.0000 </r>
       <r>   47.0866    0.0000 </r>
       <r>   51.8130    0.0000 </r>
       <r>   53.1849    0.0000 </r>
       <r>   53.8007    0.0000 </r>
       <r>   54.8433    0.0000 </r>
       <r>   56.5049    0.0000 </r>
       <r>   60.1830    0.0000 </r>
       <r>   61.6977    0.0000 </r>
      </set>
      <set comment="kpoint 35">
       <r>  -39.8935    1.0000 </r>
       <r>  -39.5776    1.0000 </r>
       <r>  -39.5698    1.0000 </r>
       <r>    5.7264    1.0000 </r>
       <r>    6.2174    1.0000 </r>
       <r>   12.6755    1.0000 </r>
       <r>   13.0838    1.0000 </r>
       <r>   13.6150    0.0000 </r>
       <r>   14.5483    0.0000 </r>
       <r>   24.3699    0.0000 </r>
       <r>   25.9093    0.0000 </r>
       <r>   25.9094    0.0000 </r>
       <r>   34.1231    0.0000 </r>
       <r>   37.1785    0.0000 </r>
       <r>   42.5905    0.0000 </r>
       <r>   47.0458    0.0000 </r>
       <r>   47.5230    0.0000 </r>
       <r>   49.6562    0.0000 </r>
       <r>   51.5847    0.0000 </r>
       <r>   53.8014    0.0000 </r>
       <r>   57.1485    0.0000 </r>
       <r>   57.2441    0.0000 </r>
       <r>   58.7321    0.0000 </r>
       <r>   59.4487    0.0000 </r>
      </set>
      <set comment="kpoint 36">
       <r>  -39.9027    1.0000 </r>
       <r>  -39.6076    1.0000 </r>
       <r>  -39.5786    1.0000 </r>
       <r>    5.8159    1.0000 </r>
       <r>    6.2919    1.0000 </r>
       <r>   12.1154    1.0000 </r>
       <r>   12.9851    1.0000 </r>
       <r>   13.8523    0.0000 </r>
       <r>   16.8316    0.0000 </r>
       <r>   22.2791    0.0000 </r>
       <r>   24.8856    0.0000 </r>
       <r>   25.7118    0.0000 </r>
       <r>   35.2319    0.0000 </r>
       <r>   37.6300    0.0000 </r>
       <r>   41.8944    0.0000 </r>
       <r>   47.0491    0.0000 </r>
       <r>   49.7867    0.0000 </r>
       <r>   50.1867    0.0000 </r>
       <r>   51.9065    0.0000 </r>
       <r>   53.8006    0.0000 </r>
       <r>   55.4211    0.0000 </r>
       <r>   56.6989    0.0000 </r>
       <r>   56.9402    0.0000 </r>
       <r>   58.6608    0.0000 </r>
      </set>
      <set comment="kpoint 37">
       <r>  -39.8587    1.0000 </r>
       <r>  -39.6693    1.0000 </r>
       <r>  -39.5567    1.0000 </r>
       <r>    6.2507    1.0000 </r>
       <r>    6.9258    1.0000 </r>
       <r>   10.6465    1.0000 </r>
       <r>   12.2008    1.0000 </r>
       <r>   13.5477    0.0000 </r>
       <r>   18.9978    0.0000 </r>
       <r>   20.5497    0.0000 </r>
       <r>   24.5663    0.0000 </r>
       <r>   27.2035    0.0000 </r>
       <r>   35.0012    0.0000 </r>
       <r>   39.4004    0.0000 </r>
       <r>   41.2493    0.0000 </r>
       <r>   44.5500    0.0000 </r>
       <r>   50.4144    0.0000 </r>
       <r>   50.5608    0.0000 </r>
       <r>   52.6234    0.0000 </r>
       <r>   53.7995    0.0000 </r>
       <r>   54.2548    0.0000 </r>
       <r>   57.7751    0.0000 </r>
       <r>   58.0901    0.0000 </r>
       <r>   60.6354    0.0000 </r>
      </set>
      <set comment="kpoint 38">
       <r>  -39.8428    1.0000 </r>
       <r>  -39.6685    1.0000 </r>
       <r>  -39.5173    1.0000 </r>
       <r>    6.7355    1.0000 </r>
       <r>    7.7952    1.0000 </r>
       <r>    9.4066    1.0000 </r>
       <r>   11.0663    1.0000 </r>
       <r>   13.2283    1.0000 </r>
       <r>   19.0977    0.0000 </r>
       <r>   19.3603    0.0000 </r>
       <r>   26.2699    0.0000 </r>
       <r>   29.4556    0.0000 </r>
       <r>   33.0607    0.0000 </r>
       <r>   40.5367    0.0000 </r>
       <r>   42.4359    0.0000 </r>
       <r>   43.3616    0.0000 </r>
       <r>   49.0600    0.0000 </r>
       <r>   50.6241    0.0000 </r>
       <r>   52.7891    0.0000 </r>
       <r>   53.8015    0.0000 </r>
       <r>   55.2745    0.0000 </r>
       <r>   56.5891    0.0000 </r>
       <r>   59.7806    0.0000 </r>
       <r>   62.1225    0.0000 </r>
      </set>
      <set comment="kpoint 39">
       <r>  -39.8982    1.0000 </r>
       <r>  -39.5659    1.0000 </r>
       <r>  -39.4758    1.0000 </r>
       <r>    6.3387    1.0000 </r>
       <r>    8.3146    1.0000 </r>
       <r>    9.9787    1.0000 </r>
       <r>    9.9932    1.0000 </r>
       <r>   13.1393    1.0000 </r>
       <r>   16.9786    0.0000 </r>
       <r>   19.5963    0.0000 </r>
       <r>   28.4941    0.0000 </r>
       <r>   30.3373    0.0000 </r>
       <r>   32.3868    0.0000 </r>
       <r>   40.8352    0.0000 </r>
       <r>   42.1409    0.0000 </r>
       <r>   45.8485    0.0000 </r>
       <r>   48.6635    0.0000 </r>
       <r>   49.7138    0.0000 </r>
       <r>   52.5583    0.0000 </r>
       <r>   53.8039    0.0000 </r>
       <r>   54.4872    0.0000 </r>
       <r>   55.1161    0.0000 </r>
       <r>   60.7811    0.0000 </r>
       <r>   62.3670    0.0000 </r>
      </set>
      <set comment="kpoint 40">
       <r>  -39.9299    1.0000 </r>
       <r>  -39.4740    1.0000 </r>
       <r>  -39.4500    1.0000 </r>
       <r>    5.5977    1.0000 </r>
       <r>    8.9014    1.0000 </r>
       <r>    9.3355    1.0000 </r>
       <r>   11.0809    1.0000 </r>
       <r>   13.2725    0.9999 </r>
       <r>   14.6127    0.0000 </r>
       <r>   20.2851    0.0000 </r>
       <r>   27.9806    0.0000 </r>
       <r>   32.0351    0.0000 </r>
       <r>   33.0700    0.0000 </r>
       <r>   41.4811    0.0000 </r>
       <r>   42.6929    0.0000 </r>
       <r>   44.0887    0.0000 </r>
       <r>   48.3697    0.0000 </r>
       <r>   50.7852    0.0000 </r>
       <r>   51.3565    0.0000 </r>
       <r>   53.8028    0.0000 </r>
       <r>   55.5186    0.0000 </r>
       <r>   57.9624    0.0000 </r>
       <r>   60.5184    0.0000 </r>
       <r>   61.2412    0.0000 </r>
      </set>
      <set comment="kpoint 41">
       <r>  -39.9183    1.0000 </r>
       <r>  -39.5885    1.0000 </r>
       <r>  -39.5809    1.0000 </r>
       <r>    5.6119    1.0000 </r>
       <r>    6.0989    1.0000 </r>
       <r>   13.2682    0.9999 </r>
       <r>   13.2956    0.9991 </r>
       <r>   13.8751    0.0000 </r>
       <r>   15.5440    0.0000 </r>
       <r>   22.9578    0.0000 </r>
       <r>   25.0565    0.0000 </r>
       <r>   25.2419    0.0000 </r>
       <r>   34.4599    0.0000 </r>
       <r>   37.6836    0.0000 </r>
       <r>   42.2221    0.0000 </r>
       <r>   48.1617    0.0000 </r>
       <r>   49.6812    0.0000 </r>
       <r>   49.8121    0.0000 </r>
       <r>   52.3226    0.0000 </r>
       <r>   53.8023    0.0000 </r>
       <r>   54.4218    0.0000 </r>
       <r>   54.9869    0.0000 </r>
       <r>   58.4967    0.0000 </r>
       <r>   59.6269    0.0000 </r>
      </set>
      <set comment="kpoint 42">
       <r>  -39.8821    1.0000 </r>
       <r>  -39.5947    1.0000 </r>
       <r>  -39.5668    1.0000 </r>
       <r>    5.9333    1.0000 </r>
       <r>    6.4053    1.0000 </r>
       <r>   11.5415    1.0000 </r>
       <r>   12.8359    1.0000 </r>
       <r>   13.5922    0.0000 </r>
       <r>   15.7589    0.0000 </r>
       <r>   23.4584    0.0000 </r>
       <r>   25.7273    0.0000 </r>
       <r>   26.4965    0.0000 </r>
       <r>   34.9103    0.0000 </r>
       <r>   37.2018    0.0000 </r>
       <r>   42.1285    0.0000 </r>
       <r>   46.5980    0.0000 </r>
       <r>   47.8369    0.0000 </r>
       <r>   50.0405    0.0000 </r>
       <r>   51.4067    0.0000 </r>
       <r>   53.8048    0.0000 </r>
       <r>   56.4934    0.0000 </r>
       <r>   57.2160    0.0000 </r>
       <r>   58.8235    0.0000 </r>
       <r>   59.6294    0.0000 </r>
      </set>
      <set comment="kpoint 43">
       <r>  -39.8447    1.0000 </r>
       <r>  -39.6009    1.0000 </r>
       <r>  -39.5278    1.0000 </r>
       <r>    6.4399    1.0000 </r>
       <r>    7.2956    1.0000 </r>
       <r>    9.6124    1.0000 </r>
       <r>   11.4437    1.0000 </r>
       <r>   13.4830    0.0145 </r>
       <r>   15.9886    0.0000 </r>
       <r>   22.4756    0.0000 </r>
       <r>   27.8289    0.0000 </r>
       <r>   28.4461    0.0000 </r>
       <r>   33.8694    0.0000 </r>
       <r>   38.9781    0.0000 </r>
       <r>   41.6488    0.0000 </r>
       <r>   44.4116    0.0000 </r>
       <r>   47.7843    0.0000 </r>
       <r>   49.5565    0.0000 </r>
       <r>   51.1884    0.0000 </r>
       <r>   53.8044    0.0000 </r>
       <r>   55.8191    0.0000 </r>
       <r>   58.6361    0.0000 </r>
       <r>   60.8856    0.0000 </r>
       <r>   62.9327    0.0000 </r>
      </set>
      <set comment="kpoint 44">
       <r>  -39.8764    1.0000 </r>
       <r>  -39.5417    1.0000 </r>
       <r>  -39.4825    1.0000 </r>
       <r>    6.2691    1.0000 </r>
       <r>    8.3683    1.0000 </r>
       <r>    9.3704    1.0000 </r>
       <r>   10.1634    1.0000 </r>
       <r>   13.3755    0.8039 </r>
       <r>   15.5961    0.0000 </r>
       <r>   21.2035    0.0000 </r>
       <r>   29.0200    0.0000 </r>
       <r>   30.4075    0.0000 </r>
       <r>   32.7148    0.0000 </r>
       <r>   40.4889    0.0000 </r>
       <r>   43.1042    0.0000 </r>
       <r>   43.8935    0.0000 </r>
       <r>   45.6606    0.0000 </r>
       <r>   51.6872    0.0000 </r>
       <r>   51.9371    0.0000 </r>
       <r>   53.8031    0.0000 </r>
       <r>   54.3667    0.0000 </r>
       <r>   58.4482    0.0000 </r>
       <r>   60.0162    0.0000 </r>
       <r>   62.8283    0.0000 </r>
      </set>
      <set comment="kpoint 45">
       <r>  -39.8457    1.0000 </r>
       <r>  -39.5556    1.0000 </r>
       <r>  -39.5496    1.0000 </r>
       <r>    5.8959    1.0000 </r>
       <r>    6.4488    1.0000 </r>
       <r>   11.6291    1.0000 </r>
       <r>   12.6027    1.0000 </r>
       <r>   13.2854    0.9997 </r>
       <r>   13.4011    0.5524 </r>
       <r>   26.1874    0.0000 </r>
       <r>   27.1103    0.0000 </r>
       <r>   27.6096    0.0000 </r>
       <r>   33.6709    0.0000 </r>
       <r>   36.2299    0.0000 </r>
       <r>   43.1293    0.0000 </r>
       <r>   44.9747    0.0000 </r>
       <r>   45.5452    0.0000 </r>
       <r>   50.3583    0.0000 </r>
       <r>   50.9095    0.0000 </r>
       <r>   53.8045    0.0000 </r>
       <r>   58.5339    0.0000 </r>
       <r>   58.9129    0.0000 </r>
       <r>   60.4001    0.0000 </r>
       <r>   60.6351    0.0000 </r>
      </set>
      <set comment="kpoint 46">
       <r>  -39.7873    1.0000 </r>
       <r>  -39.5393    1.0000 </r>
       <r>  -39.5137    1.0000 </r>
       <r>    6.1755    1.0000 </r>
       <r>    6.9412    1.0000 </r>
       <r>    9.8779    1.0000 </r>
       <r>   11.7593    1.0000 </r>
       <r>   12.5742    1.0000 </r>
       <r>   13.5871    0.0000 </r>
       <r>   26.6190    0.0000 </r>
       <r>   28.5453    0.0000 </r>
       <r>   29.7372    0.0000 </r>
       <r>   34.4065    0.0000 </r>
       <r>   35.6993    0.0000 </r>
       <r>   41.7460    0.0000 </r>
       <r>   43.4122    0.0000 </r>
       <r>   46.5019    0.0000 </r>
       <r>   48.4360    0.0000 </r>
       <r>   52.1973    0.0000 </r>
       <r>   53.8063    0.0000 </r>
       <r>   56.9359    0.0000 </r>
       <r>   58.8522    0.0000 </r>
       <r>   59.5494    0.0000 </r>
       <r>   63.6104    0.0000 </r>
      </set>
      <set comment="kpoint 47">
       <r>  -39.7809    1.0000 </r>
       <r>  -39.5068    1.0000 </r>
       <r>  -39.4658    1.0000 </r>
       <r>    6.0769    1.0000 </r>
       <r>    7.9860    1.0000 </r>
       <r>    8.9998    1.0000 </r>
       <r>   10.4317    1.0000 </r>
       <r>   12.5257    1.0000 </r>
       <r>   13.6021    0.0000 </r>
       <r>   25.1758    0.0000 </r>
       <r>   30.0525    0.0000 </r>
       <r>   30.9952    0.0000 </r>
       <r>   34.0204    0.0000 </r>
       <r>   38.8623    0.0000 </r>
       <r>   40.7877    0.0000 </r>
       <r>   42.6236    0.0000 </r>
       <r>   45.2784    0.0000 </r>
       <r>   49.7554    0.0000 </r>
       <r>   53.0044    0.0000 </r>
       <r>   53.8004    0.0000 </r>
       <r>   55.9801    0.0000 </r>
       <r>   56.5368    0.0000 </r>
       <r>   60.3337    0.0000 </r>
       <r>   63.6527    0.0000 </r>
      </set>
      <set comment="kpoint 48">
       <r>  -39.7014    1.0000 </r>
       <r>  -39.4907    1.0000 </r>
       <r>  -39.4890    1.0000 </r>
       <r>    5.6683    1.0000 </r>
       <r>    7.1950    1.0000 </r>
       <r>    9.9310    1.0000 </r>
       <r>   11.2465    1.0000 </r>
       <r>   11.5556    1.0000 </r>
       <r>   12.6380    1.0000 </r>
       <r>   29.4802    0.0000 </r>
       <r>   30.3723    0.0000 </r>
       <r>   31.1845    0.0000 </r>
       <r>   33.4360    0.0000 </r>
       <r>   34.8921    0.0000 </r>
       <r>   41.2843    0.0000 </r>
       <r>   41.5528    0.0000 </r>
       <r>   46.6262    0.0000 </r>
       <r>   48.3105    0.0000 </r>
       <r>   52.2698    0.0000 </r>
       <r>   53.7926    0.0000 </r>
       <r>   56.3757    0.0000 </r>
       <r>   57.6786    0.0000 </r>
       <r>   58.2423    0.0000 </r>
       <r>   66.9104    0.0000 </r>
      </set>
      <set comment="kpoint 49">
       <r>  -39.6474    1.0000 </r>
       <r>  -39.4669    1.0000 </r>
       <r>  -39.4383    1.0000 </r>
       <r>    5.1487    1.0000 </r>
       <r>    7.7566    1.0000 </r>
       <r>    9.5883    1.0000 </r>
       <r>   10.5396    1.0000 </r>
       <r>   11.1342    1.0000 </r>
       <r>   12.5155    1.0000 </r>
       <r>   28.9026    0.0000 </r>
       <r>   31.1090    0.0000 </r>
       <r>   32.4589    0.0000 </r>
       <r>   33.1881    0.0000 </r>
       <r>   38.2358    0.0000 </r>
       <r>   40.0091    0.0000 </r>
       <r>   41.2329    0.0000 </r>
       <r>   46.4420    0.0000 </r>
       <r>   49.0202    0.0000 </r>
       <r>   50.5137    0.0000 </r>
       <r>   53.7825    0.0000 </r>
       <r>   54.0656    0.0000 </r>
       <r>   57.8630    0.0000 </r>
       <r>   59.7772    0.0000 </r>
       <r>   66.0114    0.0000 </r>
      </set>
      <set comment="kpoint 50">
       <r>  -39.5336    1.0000 </r>
       <r>  -39.4212    1.0000 </r>
       <r>  -39.4178    1.0000 </r>
       <r>    4.0936    1.0000 </r>
       <r>    8.1450    1.0000 </r>
       <r>    9.9746    1.0000 </r>
       <r>   10.0628    1.0000 </r>
       <r>   10.5974    1.0000 </r>
       <r>   12.0329    1.0000 </r>
       <r>   30.4372    0.0000 </r>
       <r>   30.6588    0.0000 </r>
       <r>   33.0468    0.0000 </r>
       <r>   33.4417    0.0000 </r>
       <r>   39.5789    0.0000 </r>
       <r>   40.6011    0.0000 </r>
       <r>   41.6216    0.0000 </r>
       <r>   46.4185    0.0000 </r>
       <r>   47.0633    0.0000 </r>
       <r>   50.4149    0.0000 </r>
       <r>   53.7931    0.0000 </r>
       <r>   55.2166    0.0000 </r>
       <r>   55.5838    0.0000 </r>
       <r>   58.7798    0.0000 </r>
       <r>   67.1537    0.0000 </r>
      </set>
      <set comment="kpoint 51">
       <r>  -39.4861    1.0000 </r>
       <r>  -39.3767    1.0000 </r>
       <r>  -39.3767    1.0000 </r>
       <r>    3.3132    1.0000 </r>
       <r>    8.8074    1.0000 </r>
       <r>    9.4812    1.0000 </r>
       <r>    9.4812    1.0000 </r>
       <r>   11.4400    1.0000 </r>
       <r>   11.4400    1.0000 </r>
       <r>   29.1455    0.0000 </r>
       <r>   29.9565    0.0000 </r>
       <r>   34.5964    0.0000 </r>
       <r>   34.5964    0.0000 </r>
       <r>   39.7800    0.0000 </r>
       <r>   42.6737    0.0000 </r>
       <r>   42.6737    0.0000 </r>
       <r>   43.9417    0.0000 </r>
       <r>   50.2829    0.0000 </r>
       <r>   50.2829    0.0000 </r>
       <r>   53.3882    0.0000 </r>
       <r>   53.8076    0.0000 </r>
       <r>   56.4604    0.0000 </r>
       <r>   56.4604    0.0000 </r>
       <r>   63.8578    0.0000 </r>
      </set>
      <set comment="kpoint 52">
       <r>  -39.5614    1.0000 </r>
       <r>  -39.4248    1.0000 </r>
       <r>  -39.3787    1.0000 </r>
       <r>    4.0657    1.0000 </r>
       <r>    8.4824    1.0000 </r>
       <r>    9.6448    1.0000 </r>
       <r>    9.7820    1.0000 </r>
       <r>   10.9272    1.0000 </r>
       <r>   12.0159    1.0000 </r>
       <r>   29.0605    0.0000 </r>
       <r>   30.0673    0.0000 </r>
       <r>   33.4915    0.0000 </r>
       <r>   36.6605    0.0000 </r>
       <r>   36.6870    0.0000 </r>
       <r>   41.8659    0.0000 </r>
       <r>   43.2143    0.0000 </r>
       <r>   45.7943    0.0000 </r>
       <r>   46.1556    0.0000 </r>
       <r>   51.3017    0.0000 </r>
       <r>   53.3603    0.0000 </r>
       <r>   53.8052    0.0000 </r>
[...]
       </set>
       <set comment="band 3">
        <r>  0.0000  0.4975  0.0000  0.4975  0.0000  0.0000  0.0000  0.0000  0.0000 </r>
       </set>
       <set comment="band 4">
        <r>  0.1494  0.0000  0.0067  0.0000  0.1955  0.1417  0.0047  0.1417  0.0000 </r>
       </set>
       <set comment="band 5">
        <r>  0.0001  0.0014  0.0000  0.0014  0.1230  0.0740  0.5356  0.0740  0.0000 </r>
       </set>
       <set comment="band 6">
        <r>  0.0000  0.0008  0.0000  0.0008  0.0000  0.1831  0.0000  0.1831  0.4757 </r>
       </set>
       <set comment="band 7">
        <r>  0.0363  0.0279  0.0284  0.0279  0.3605  0.0078  0.0667  0.0078  0.0000 </r>
       </set>
       <set comment="band 8">
        <r>  0.0000  0.0001  0.0000  0.0001  0.0000  0.2716  0.0000  0.2716  0.4107 </r>
       </set>
       <set comment="band 9">
        <r>  0.0360  0.0158  0.0314  0.0158  0.0919  0.1480  0.2445  0.1480  0.0000 </r>
       </set>
       <set comment="band 10">
        <r>  0.3015  0.0218  0.0139  0.0218  0.1104  0.0962  0.0035  0.0962  0.0000 </r>
       </set>
       <set comment="band 11">
        <r>  0.0023  0.0031  0.0107  0.0031  0.0220  0.0000  0.0226  0.0000  0.0000 </r>
       </set>
       <set comment="band 12">
        <r>  0.0000  0.1171  0.0000  0.1171  0.0000  0.0132  0.0000  0.0132  0.0134 </r>
       </set>
       <set comment="band 13">
        <r>  0.0162  0.0330  0.1357  0.0330  0.0491  0.0060  0.0381  0.0060  0.0000 </r>
       </set>
       <set comment="band 14">
        <r>  0.0000  0.0037  0.0000  0.0037  0.0000  0.0305  0.0000  0.0305  0.1799 </r>
       </set>
       <set comment="band 15">
        <r>  0.0043  0.0214  0.0025  0.0214  0.0232  0.0256  0.1566  0.0256  0.0000 </r>
       </set>
       <set comment="band 16">
        <r>  0.0403  0.0193  0.0008  0.0193  0.1077  0.0069  0.1004  0.0069  0.0000 </r>
       </set>
       <set comment="band 17">
        <r>  0.1054  0.0437  0.1275  0.0437  0.0130  0.0351  0.0001  0.0351  0.0000 </r>
       </set>
       <set comment="band 18">
        <r>  0.0386  0.0024  0.0805  0.0024  0.0162  0.0392  0.0003  0.0392  0.0000 </r>
       </set>
       <set comment="band 19">
        <r>  0.0000  0.0942  0.0000  0.0942  0.0000  0.0514  0.0000  0.0514  0.1034 </r>
       </set>
       <set comment="band 20">
        <r>  6.2898  0.0000  0.0000  0.0000  0.0000  0.0000  0.0000  0.0000  0.0000 </r>
       </set>
       <set comment="band 21">
        <r>  0.0000  0.1443  0.0000  0.1443  0.0000  0.0166  0.0000  0.0166  0.0061 </r>
       </set>
       <set comment="band 22">
        <r>  0.0005  0.0086  0.0911  0.0086  0.0230  0.0032  0.0483  0.0032  0.0000 </r>
       </set>
       <set comment="band 23">
        <r>  0.0028  0.0019  0.0312  0.0019  0.1295  0.0056  0.0001  0.0056  0.0000 </r>
       </set>
       <set comment="band 24">
        <r>  0.1169  0.0026  0.0019  0.0026  0.1092  0.0048  0.0003  0.0048  0.0000 </r>
       </set>
      </set>
      <set comment="kpoint 106">
       <set comment="band 1">
        <r>  0.0000  0.2960  0.4036  0.2818  0.0000  0.0000  0.0000  0.0000  0.0000 </r>
       </set>
       <set comment="band 2">
        <r>  0.0000  0.0039  0.3665  0.6217  0.0000  0.0000  0.0000  0.0000  0.0000 </r>
       </set>
       <set comment="band 3">
        <r>  0.0000  0.6907  0.2181  0.0858  0.0000  0.0000  0.0000  0.0000  0.0000 </r>
       </set>
       <set comment="band 4">
        <r>  0.1136  0.0004  0.0083  0.0038  0.2273  0.1908  0.0067  0.1068  0.0012 </r>
       </set>
       <set comment="band 5">
        <r>  0.0000  0.0069  0.0002  0.0003  0.0621  0.1291  0.4438  0.0013  0.1206 </r>
       </set>
       <set comment="band 6">
        <r>  0.0087  0.0139  0.0125  0.0235  0.1747  0.1766  0.1439  0.0750  0.0560 </r>
       </set>
       <set comment="band 7">
        <r>  0.0041  0.0066  0.0143  0.0017  0.1703  0.0031  0.0345  0.1704  0.3783 </r>
       </set>
       <set comment="band 8">
        <r>  0.0008  0.0002  0.0016  0.0007  0.0864  0.0839  0.0699  0.4493  0.2412 </r>
       </set>
       <set comment="band 9">
        <r>  0.0640  0.0235  0.0450  0.0233  0.0255  0.2719  0.1353  0.0129  0.0613 </r>
       </set>
       <set comment="band 10">
        <r>  0.3226  0.0143  0.0081  0.0264  0.1264  0.0534  0.0061  0.1020  0.0177 </r>
       </set>
       <set comment="band 11">
        <r>  0.0002  0.0066  0.0073  0.0331  0.0362  0.0159  0.0558  0.0054  0.0232 </r>
       </set>
       <set comment="band 12">
        <r>  0.0343  0.0093  0.0811  0.1175  0.0248  0.0135  0.0180  0.0355  0.0263 </r>
       </set>
       <set comment="band 13">
        <r>  0.0036  0.1431  0.0590  0.0055  0.0153  0.0014  0.0401  0.0001  0.0002 </r>
       </set>
       <set comment="band 14">
        <r>  0.0003  0.0025  0.0051  0.0184  0.0297  0.0522  0.0026  0.0123  0.1013 </r>
       </set>
       <set comment="band 15">
        <r>  0.0004  0.0001  0.0054  0.0029  0.0868  0.0063  0.1390  0.0171  0.0002 </r>
       </set>
       <set comment="band 16">
        <r>  0.1201  0.0194  0.0002  0.0042  0.0350  0.0051  0.0085  0.0559  0.0013 </r>
       </set>
       <set comment="band 17">
        <r>  0.0848  0.1012  0.0615  0.0275  0.0043  0.0436  0.0266  0.0001  0.0465 </r>
       </set>
       <set comment="band 18">
        <r>  0.0053  0.0804  0.0650  0.0255  0.0043  0.0227  0.0011  0.0232  0.0372 </r>
       </set>
       <set comment="band 19">
        <r>  0.0357  0.1084  0.0301  0.0878  0.0002  0.0254  0.0450  0.0006  0.0506 </r>
       </set>
       <set comment="band 20">
        <r>  0.0001  0.0018  0.0038  0.0140  0.0001  0.0757  0.0107  0.0049  0.0017 </r>
       </set>
       <set comment="band 21">
        <r>  6.2780  0.0001  0.0000  0.0001  0.0000  0.0000  0.0000  0.0000  0.0001 </r>
       </set>
       <set comment="band 22">
        <r>  0.0012  0.0009  0.0188  0.0044  0.0623  0.0013  0.0108  0.0001  0.0127 </r>
       </set>
       <set comment="band 23">
        <r>  0.0204  0.0169  0.0393  0.0028  0.0233  0.0000  0.0049  0.0313  0.0435 </r>
       </set>
       <set comment="band 24">
        <r>  0.0099  0.0057  0.0814  0.0343  0.0294  0.0552  0.0035  0.0049  0.0100 </r>
       </set>
      </set>
      <set comment="kpoint 107">
       <set comment="band 1">
        <r>  0.0000  0.2463  0.3549  0.3819  0.0000  0.0000  0.0000  0.0000  0.0000 </r>
       </set>
       <set comment="band 2">
        <r>  0.0000  0.0516  0.3592  0.5779  0.0001  0.0000  0.0000  0.0000  0.0000 </r>
       </set>
       <set comment="band 3">
        <r>  0.0000  0.6926  0.2739  0.0269  0.0000  0.0000  0.0000  0.0000  0.0000 </r>
       </set>
       <set comment="band 4">
        <r>  0.0599  0.0000  0.0073  0.0061  0.0857  0.4038  0.0287  0.0377  0.0712 </r>
       </set>
       <set comment="band 5">
        <r>  0.0062  0.0152  0.0070  0.0012  0.1039  0.0046  0.3422  0.0176  0.1878 </r>
       </set>
       <set comment="band 6">
        <r>  0.0002  0.0086  0.0123  0.0277  0.3716  0.2078  0.0133  0.0312  0.0131 </r>
       </set>
       <set comment="band 7">
        <r>  0.0019  0.0003  0.0046  0.0023  0.0072  0.0005  0.2877  0.1396  0.4044 </r>
       </set>
       <set comment="band 8">
        <r>  0.0059  0.0000  0.0000  0.0005  0.1517  0.0300  0.0596  0.6033  0.0807 </r>
       </set>
       <set comment="band 9">
        <r>  0.2160  0.0193  0.0481  0.0134  0.0005  0.2156  0.0675  0.0159  0.0106 </r>
       </set>
       <set comment="band 10">
        <r>  0.1930  0.0151  0.0144  0.0686  0.1553  0.0001  0.0254  0.0780  0.0728 </r>
       </set>
       <set comment="band 11">
        <r>  0.0697  0.0168  0.0391  0.1197  0.0631  0.0064  0.0130  0.0402  0.1073 </r>
       </set>
       <set comment="band 12">
        <r>  0.0124  0.0435  0.1060  0.0001  0.0012  0.0502  0.1480  0.0030  0.0025 </r>
       </set>
       <set comment="band 13">
        <r>  0.0010  0.1131  0.0090  0.0054  0.0049  0.0458  0.0070  0.0000  0.0064 </r>
       </set>
       <set comment="band 14">
        <r>  0.0016  0.0001  0.0028  0.0110  0.0767  0.0482  0.0044  0.0077  0.0302 </r>
       </set>
       <set comment="band 15">
        <r>  0.0001  0.0001  0.0016  0.0111  0.0313  0.0147  0.0345  0.0138  0.0043 </r>
       </set>
       <set comment="band 16">
        <r>  0.1484  0.0810  0.0073  0.0016  0.0234  0.0177  0.0004  0.0047  0.0303 </r>
       </set>
       <set comment="band 17">
        <r>  0.0973  0.1337  0.0016  0.0004  0.0005  0.0697  0.0273  0.0060  0.0284 </r>
       </set>
       <set comment="band 18">
        <r>  0.0146  0.0003  0.0439  0.0238  0.0008  0.0148  0.0001  0.0242  0.0819 </r>
       </set>
       <set comment="band 19">
        <r>  6.2854  0.0000  0.0000  0.0000  0.0000  0.0000  0.0000  0.0000  0.0000 </r>
       </set>
       <set comment="band 20">
        <r>  0.0051  0.0383  0.0798  0.0003  0.0063  0.0332  0.0993  0.0024  0.0000 </r>
       </set>
       <set comment="band 21">
        <r>  0.0010  0.0241  0.0007  0.0362  0.0285  0.0094  0.0086  0.0056  0.0371 </r>
       </set>
       <set comment="band 22">
        <r>  0.0008  0.0210  0.0198  0.0012  0.0007  0.0313  0.0317  0.0020  0.0024 </r>
       </set>
       <set comment="band 23">
        <r>  0.0082  0.0000  0.0426  0.0574  0.0230  0.0289  0.0021  0.0194  0.0129 </r>
       </set>
       <set comment="band 24">
        <r>  0.0090  0.0062  0.0414  0.0054  0.0036  0.0012  0.0150  0.0157  0.0279 </r>
       </set>
      </set>
      <set comment="kpoint 108">
       <set comment="band 1">
        <r>  0.0000  0.2818  0.4179  0.2818  0.0000  0.0000  0.0000  0.0000  0.0000 </r>
       </set>
       <set comment="band 2">
        <r>  0.0000  0.2110  0.5692  0.2110  0.0000  0.0000  0.0000  0.0000  0.0000 </r>
       </set>
       <set comment="band 3">
        <r>  0.0000  0.4971  0.0000  0.4971  0.0000  0.0000  0.0000  0.0000  0.0000 </r>
       </set>
       <set comment="band 4">
        <r>  0.0931  0.0015  0.0077  0.0015  0.3440  0.0952  0.0395  0.0952  0.0000 </r>
       </set>
       <set comment="band 5">
        <r>  0.0014  0.0081  0.0004  0.0081  0.0068  0.0645  0.5707  0.0645  0.0000 </r>
       </set>
       <set comment="band 6">
        <r>  0.0074  0.0150  0.0300  0.0150  0.3070  0.1254  0.0330  0.1254  0.0000 </r>
       </set>
       <set comment="band 7">
        <r>  0.0000  0.0018  0.0000  0.0018  0.0000  0.1412  0.0000  0.1412  0.5632 </r>
       </set>
       <set comment="band 8">
        <r>  0.0000  0.0001  0.0000  0.0001  0.0000  0.3198  0.0000  0.3198  0.3085 </r>
       </set>
       <set comment="band 9">
        <r>  0.0001  0.0399  0.0664  0.0399  0.1026  0.0562  0.1786  0.0562  0.0000 </r>
       </set>
       <set comment="band 10">
        <r>  0.4040  0.0036  0.0014  0.0036  0.1046  0.1122  0.0030  0.1122  0.0000 </r>
       </set>
       <set comment="band 11">
        <r>  0.0268  0.0093  0.0904  0.0093  0.0005  0.0315  0.1317  0.0315  0.0000 </r>
       </set>
       <set comment="band 12">
        <r>  0.0249  0.0349  0.0435  0.0349  0.0910  0.0050  0.0001  0.0050  0.0000 </r>
       </set>
       <set comment="band 13">
        <r>  0.0000  0.1207  0.0000  0.1207  0.0000  0.0026  0.0000  0.0026  0.0758 </r>
       </set>
       <set comment="band 14">
        <r>  0.0000  0.0022  0.0000  0.0022  0.0000  0.0518  0.0000  0.0518  0.0983 </r>
       </set>
       <set comment="band 15">
        <r>  0.0015  0.0014  0.0273  0.0014  0.1019  0.0000  0.0910  0.0000  0.0000 </r>
       </set>
       <set comment="band 16">
        <r>  0.1762  0.0351  0.0131  0.0351  0.0017  0.0194  0.0448  0.0194  0.0000 </r>
       </set>
       <set comment="band 17">
        <r>  0.0271  0.0397  0.0126  0.0397  0.0194  0.0274  0.0141  0.0274  0.0000 </r>
       </set>
       <set comment="band 18">
        <r>  0.0272  0.0044  0.0512  0.0044  0.0807  0.0073  0.0810  0.0073  0.0000 </r>
       </set>
       <set comment="band 19">
        <r>  0.0000  0.0714  0.0000  0.0714  0.0000  0.0128  0.0000  0.0128  0.0505 </r>
       </set>
       <set comment="band 20">
        <r>  0.0000  0.1263  0.0000  0.1263  0.0000  0.0080  0.0000  0.0080  0.0896 </r>
       </set>
       <set comment="band 21">
        <r>  6.2851  0.0000  0.0000  0.0000  0.0000  0.0000  0.0000  0.0000  0.0000 </r>
       </set>
       <set comment="band 22">
        <r>  0.0007  0.0031  0.0281  0.0031  0.0604  0.0037  0.0059  0.0037  0.0000 </r>
       </set>
       <set comment="band 23">
        <r>  0.0477  0.0080  0.0284  0.0080  0.1013  0.0216  0.0001  0.0216  0.0000 </r>
       </set>
       <set comment="band 24">
        <r>  0.0000  0.0434  0.0000  0.0434  0.0000  0.0113  0.0000  0.0113  0.0403 </r>
       </set>
      </set>
      <set comment="kpoint 109">
       <set comment="band 1">
        <r>  0.0000  0.3266  0.3266  0.3266  0.0000  0.0000  0.0000  0.0000  0.0000 </r>
       </set>
       <set comment="band 2">
        <r>  0.0000  0.4124  0.5681  0.0150  0.0000  0.0000  0.0000  0.0000  0.0000 </r>
       </set>
       <set comment="band 3">
        <r>  0.0000  0.2513  0.0955  0.6487  0.0000  0.0000  0.0000  0.0000  0.0000 </r>
       </set>
       <set comment="band 4">
        <r>  0.1508  0.0003  0.0003  0.0003  0.1659  0.1659  0.0000  0.1659  0.0000 </r>
       </set>
       <set comment="band 5">
        <r>  0.0000  0.0000  0.0000  0.0000  0.0000  0.1747  0.0000  0.1747  0.4901 </r>
       </set>
       <set comment="band 6">
        <r>  0.0000  0.0000  0.0000  0.0000  0.2330  0.0583  0.4901  0.0582  0.0000 </r>
       </set>
       <set comment="band 7">
        <r>  0.0306  0.0608  0.0608  0.0608  0.0185  0.0185  0.0000  0.0185  0.0000 </r>
       </set>
       <set comment="band 8">
        <r>  0.0000  0.0001  0.0000  0.0001  0.0000  0.2811  0.0000  0.2812  0.3876 </r>
       </set>
       <set comment="band 9">
        <r>  0.0000  0.0000  0.0002  0.0000  0.3749  0.0938  0.3876  0.0937  0.0000 </r>
       </set>
       <set comment="band 10">
        <r>  0.3552  0.0078  0.0078  0.0078  0.1277  0.1277  0.0000  0.1277  0.0000 </r>
       </set>
       <set comment="band 11">
        <r>  0.0008  0.0045  0.0045  0.0045  0.0016  0.0016  0.0000  0.0016  0.0000 </r>
       </set>
       <set comment="band 12">
        <r>  0.0000  0.1044  0.0002  0.1127  0.0000  0.0037  0.0000  0.0034  0.0008 </r>
       </set>
       <set comment="band 13">
        <r>  0.0000  0.0405  0.1447  0.0321  0.0047  0.0010  0.0008  0.0013  0.0000 </r>
       </set>
       <set comment="band 14">
        <r>  0.0000  0.0031  0.0000  0.0031  0.0000  0.0506  0.0000  0.0512  0.2943 </r>
       </set>
       <set comment="band 15">
        <r>  0.0000  0.0010  0.0041  0.0010  0.0678  0.0173  0.2943  0.0166  0.0000 </r>
       </set>
       <set comment="band 16">
        <r>  0.0884  0.0068  0.0068  0.0068  0.0588  0.0588  0.0000  0.0588  0.0000 </r>
       </set>
       <set comment="band 17">
        <r>  0.0000  0.1724  0.0000  0.1696  0.0000  0.0162  0.0000  0.0165  0.0209 </r>
       </set>
       <set comment="band 18">
        <r>  0.0000  0.0556  0.2280  0.0584  0.0218  0.0056  0.0209  0.0053  0.0000 </r>
       </set>
       <set comment="band 19">
        <r>  0.0477  0.0265  0.0265  0.0265  0.0260  0.0260  0.0000  0.0260  0.0000 </r>
       </set>
       <set comment="band 20">
        <r>  6.2991  0.0000  0.0000  0.0000  0.0000  0.0000  0.0000  0.0000  0.0000 </r>
       </set>
       <set comment="band 21">
        <r>  0.0000  0.0569  0.0138  0.1245  0.0042  0.0374  0.0006  0.0171  0.0054 </r>
       </set>
       <set comment="band 22">
        <r>  0.0000  0.0732  0.1163  0.0057  0.0350  0.0017  0.0054  0.0220  0.0006 </r>
       </set>
       <set comment="band 23">
        <r>  0.1593  0.0001  0.0001  0.0001  0.0111  0.0111  0.0000  0.0111  0.0000 </r>
       </set>
       <set comment="band 24">
        <r>  0.0000  0.0030  0.0007  0.0067  0.0206  0.1836  0.0008  0.0838  0.0071 </r>
       </set>
      </set>
      <set comment="kpoint 110">
       <set comment="band 1">
        <r>  0.0000  0.3268  0.3268  0.3263  0.0000  0.0000  0.0000  0.0000  0.0000 </r>
       </set>
       <set comment="band 2">
        <r>  0.0000  0.1655  0.1655  0.6631  0.0000  0.0000  0.0000  0.0000  0.0000 </r>
       </set>
       <set comment="band 3">
        <r>  0.0000  0.4976  0.4976  0.0000  0.0000  0.0000  0.0000  0.0000  0.0000 </r>
       </set>
       <set comment="band 4">
        <r>  0.1331  0.0011  0.0011  0.0024  0.1603  0.1985  0.0001  0.1603  0.0003 </r>
       </set>
       <set comment="band 5">
        <r>  0.0000  0.0013  0.0013  0.0001  0.0558  0.1786  0.1291  0.0558  0.3874 </r>
       </set>
       <set comment="band 6">
        <r>  0.0000  0.0004  0.0004  0.0000  0.1620  0.0000  0.3869  0.1620  0.1290 </r>
       </set>
       <set comment="band 7">
        <r>  0.0011  0.0334  0.0334  0.0340  0.0740  0.1877  0.0279  0.0740  0.0838 </r>
       </set>
       <set comment="band 8">
        <r>  0.0000  0.0001  0.0001  0.0000  0.2957  0.0000  0.2672  0.2957  0.0891 </r>
       </set>
       <set comment="band 9">
        <r>  0.0075  0.0335  0.0335  0.0351  0.0287  0.2316  0.0593  0.0287  0.1779 </r>
       </set>
       <set comment="band 10">
        <r>  0.3898  0.0007  0.0007  0.0047  0.1389  0.1153  0.0008  0.1389  0.0024 </r>
       </set>
       <set comment="band 11">
        <r>  0.0000  0.0020  0.0020  0.0107  0.0060  0.0090  0.0050  0.0060  0.0150 </r>
       </set>
       <set comment="band 12">
        <r>  0.0126  0.0389  0.0389  0.1382  0.0160  0.0081  0.0041  0.0160  0.0122 </r>
       </set>
       <set comment="band 13">
        <r>  0.0000  0.1119  0.1119  0.0000  0.0000  0.0000  0.0228  0.0000  0.0076 </r>
       </set>
       <set comment="band 14">
        <r>  0.0008  0.0001  0.0001  0.0189  0.0015  0.0919  0.0507  0.0015  0.1520 </r>
       </set>
       <set comment="band 15">
        <r>  0.0000  0.0023  0.0023  0.0000  0.0637  0.0000  0.1836  0.0637  0.0612 </r>
       </set>
       <set comment="band 16">
        <r>  0.1214  0.0003  0.0003  0.0018  0.0790  0.0259  0.0023  0.0790  0.0069 </r>
       </set>
       <set comment="band 17">
        <r>  0.0172  0.0914  0.0914  0.0541  0.0003  0.0062  0.0059  0.0003  0.0176 </r>
       </set>
       <set comment="band 18">
        <r>  0.0430  0.0002  0.0002  0.1349  0.0006  0.0495  0.0149  0.0006  0.0448 </r>
       </set>
       <set comment="band 19">
        <r>  0.0000  0.1774  0.1774  0.0000  0.0002  0.0000  0.0306  0.0002  0.0102 </r>
       </set>
       <set comment="band 20">
        <r>  6.2907  0.0000  0.0000  0.0000  0.0000  0.0000  0.0000  0.0000  0.0000 </r>
       </set>
       <set comment="band 21">
        <r>  0.0050  0.0088  0.0088  0.0317  0.0067  0.0758  0.0001  0.0067  0.0003 </r>
       </set>
       <set comment="band 22">
        <r>  0.0000  0.0221  0.0221  0.0000  0.0444  0.0000  0.0054  0.0444  0.0018 </r>
       </set>
       <set comment="band 23">
        <r>  0.0840  0.0019  0.0019  0.0041  0.0068  0.1357  0.0005  0.0068  0.0014 </r>
       </set>
       <set comment="band 24">
        <r>  0.0000  0.0639  0.0639  0.0000  0.0501  0.0000  0.0013  0.0501  0.0004 </r>
       </set>
      </set>
     </set>
    </set>
   </array>
  </projected>
 </calculation>
 <structure name="finalpos" >
  <crystal>
   <varray name="basis" >
    <v>       0.00000000       1.91948317       1.91948317 </v>
    <v>       1.91948317       0.00000000       1.91948317 </v>
    <v>       1.91948317       1.91948317       0.00000000 </v>
   </varray>
   <i name="volume">     14.14434764 </i>
   <varray name="rec_basis" >
    <v>      -0.26048679       0.26048679       0.26048679 </v>
    <v>       0.26048679      -0.26048679       0.26048679 </v>
    <v>       0.26048679       0.26048679      -0.26048679 </v>
   </varray>
  </crystal>
  <varray name="positions" >
   <v>       0.00000000       0.00000000       0.00000000 </v>
  </varray>
 </structure>
</modeling>
