   2   2   0   0
  0.2137190E+02  0.2470000E-09  0.2470000E-09  0.8090000E-09  0.5000000E-15
  1.000000000000000E-004
  CAR 
 Co fcc                                  
     21.97569154     -5.00513736  301      3.01947178      1.00000000
     -5.005  0.0000E+00  0.0000E+00  0.0000E+00  0.0000E+00
     -4.915  0.0000E+00  0.0000E+00  0.0000E+00  0.0000E+00
     -4.825  0.0000E+00  0.0000E+00  0.0000E+00  0.0000E+00
     -4.735  0.0000E+00  0.0000E+00  0.0000E+00  0.0000E+00
     -4.645 -0.1099E-29  0.0000E+00 -0.9882E-31  0.0000E+00
     -4.555 -0.1371E-26  0.0000E+00 -0.1234E-27  0.0000E+00
     -4.466 -0.1128E-23  0.0000E+00 -0.1016E-24  0.0000E+00
     -4.376 -0.6184E-21 -0.2592E-28 -0.5571E-22 -0.2332E-29
     -4.286 -0.2255E-18 -0.2676E-25 -0.2034E-19 -0.2409E-26
     -4.196 -0.5473E-16 -0.1839E-22 -0.4942E-17 -0.1656E-23
     -4.106 -0.8544E-14 -0.8403E-20 -0.7734E-15 -0.7574E-21
     -4.016 -0.9125E-12 -0.2553E-17 -0.8284E-13 -0.2304E-18
     -3.926 -0.6462E-10 -0.4983E-15 -0.5895E-11 -0.4504E-16
     -3.836 -0.3032E-08 -0.6671E-13 -0.2786E-09 -0.6045E-14
     -3.746 -0.9400E-07 -0.5899E-11 -0.8732E-08 -0.5366E-12
     -3.656 -0.1916E-05 -0.3453E-09 -0.1811E-06 -0.3160E-10
     -3.566 -0.2548E-04 -0.1336E-07 -0.2472E-05 -0.1233E-08
     -3.476 -0.2171E-03 -0.3405E-06 -0.2200E-04 -0.3185E-07
     -3.386 -0.1144E-02 -0.5685E-05 -0.1249E-03 -0.5432E-06
     -3.296 -0.3369E-02 -0.6158E-04 -0.4278E-03 -0.6082E-05
     -3.206 -0.3285E-02 -0.4235E-03 -0.7233E-03 -0.4417E-04
     -3.116  0.1142E-01 -0.1753E-02  0.3034E-03 -0.2019E-03
     -3.027  0.4797E-01 -0.3647E-02  0.4617E-02 -0.5299E-03
     -2.937  0.8596E-01  0.5287E-03  0.1235E-01 -0.4823E-03
     -2.847  0.9927E-01  0.2292E-01  0.2128E-01  0.1579E-02
     -2.757  0.9550E-01  0.5984E-01  0.2986E-01  0.6961E-02
     -2.667  0.9585E-01  0.8272E-01  0.3848E-01  0.1440E-01
     -2.577  0.9418E-01  0.7882E-01  0.4696E-01  0.2149E-01
     -2.487  0.6780E-01  0.6668E-01  0.5305E-01  0.2749E-01
     -2.397  0.1939E-01  0.5860E-01  0.5480E-01  0.3276E-01
     -2.307 -0.2282E-01  0.6036E-01  0.5274E-01  0.3818E-01
     -2.217 -0.1419E-01  0.7043E-01  0.5147E-01  0.4452E-01
     -2.127  0.1180E+00  0.6060E-01  0.6208E-01  0.4997E-01
     -2.037  0.3760E+00  0.2099E-01  0.9590E-01  0.5186E-01
     -1.947  0.6036E+00  0.1218E-01  0.1502E+00  0.5295E-01
     -1.857  0.6882E+00  0.1270E+00  0.2121E+00  0.6437E-01
     -1.767  0.6977E+00  0.3474E+00  0.2748E+00  0.9561E-01
     -1.678  0.6514E+00  0.4954E+00  0.3334E+00  0.1402E+00
     -1.588  0.4613E+00  0.4801E+00  0.3749E+00  0.1833E+00
     -1.498  0.1843E+00  0.4065E+00  0.3915E+00  0.2199E+00
     -1.408 -0.9302E-02  0.3563E+00  0.3906E+00  0.2520E+00
     -1.318 -0.7691E-01  0.3685E+00  0.3837E+00  0.2851E+00
     -1.228 -0.2978E-01  0.4394E+00  0.3810E+00  0.3246E+00
     -1.138  0.2301E+00  0.4230E+00  0.4017E+00  0.3627E+00
     -1.048  0.7600E+00  0.2540E+00  0.4701E+00  0.3855E+00
     -0.958  0.1356E+01  0.7201E-01  0.5920E+00  0.3920E+00
     -0.868  0.1553E+01 -0.9769E-02  0.7316E+00  0.3911E+00
     -0.778  0.1033E+01 -0.1646E-01  0.8246E+00  0.3896E+00
     -0.688  0.4220E+00 -0.6515E-02  0.8625E+00  0.3890E+00
     -0.598  0.1063E+01 -0.1545E-02  0.9581E+00  0.3889E+00
     -0.508  0.3068E+01 -0.1384E-02  0.1234E+01  0.3888E+00
     -0.418  0.4493E+01 -0.6487E-02  0.1638E+01  0.3882E+00
     -0.328  0.4243E+01 -0.2010E-01  0.2020E+01  0.3864E+00
     -0.239  0.3725E+01 -0.2560E-01  0.2355E+01  0.3841E+00
     -0.149  0.3707E+01  0.4001E-01  0.2688E+01  0.3877E+00
     -0.059  0.3519E+01  0.2255E+00  0.3005E+01  0.4080E+00
      0.031  0.3403E+01  0.4852E+00  0.3311E+01  0.4516E+00
      0.121  0.3628E+01  0.8180E+00  0.3637E+01  0.5252E+00
      0.211  0.3316E+01  0.1342E+01  0.3935E+01  0.6459E+00
      0.301  0.2380E+01  0.1956E+01  0.4149E+01  0.8218E+00
      0.391  0.2074E+01  0.2165E+01  0.4336E+01  0.1017E+01
      0.481  0.2576E+01  0.1612E+01  0.4567E+01  0.1162E+01
      0.571  0.2747E+01  0.6572E+00  0.4814E+01  0.1221E+01
      0.661  0.2973E+01 -0.3613E-01  0.5082E+01  0.1217E+01
      0.751  0.4861E+01 -0.9912E-01  0.5519E+01  0.1208E+01
      0.841  0.7483E+01  0.7105E+00  0.6192E+01  0.1272E+01
      0.931  0.7923E+01  0.2100E+01  0.6905E+01  0.1461E+01
      1.021  0.6354E+01  0.2709E+01  0.7476E+01  0.1705E+01
      1.111  0.5447E+01  0.1790E+01  0.7966E+01  0.1866E+01
      1.200  0.5318E+01  0.4581E+00  0.8444E+01  0.1907E+01
      1.290  0.4800E+01 -0.1567E+00  0.8876E+01  0.1893E+01
      1.380  0.4284E+01 -0.1182E+00  0.9261E+01  0.1882E+01
      1.470  0.3740E+01  0.2360E+00  0.9598E+01  0.1904E+01
      1.560  0.2460E+01  0.9738E+00  0.9819E+01  0.1991E+01
      1.650  0.9498E+00  0.2481E+01  0.9904E+01  0.2214E+01
      1.740  0.1928E+00  0.4675E+01  0.9922E+01  0.2635E+01
      1.830  0.2902E+00  0.6267E+01  0.9948E+01  0.3198E+01
      1.920  0.8450E+00  0.5891E+01  0.1002E+02  0.3728E+01
      2.010  0.1505E+01  0.3847E+01  0.1016E+02  0.4074E+01
      2.100  0.1834E+01  0.1932E+01  0.1032E+02  0.4248E+01
      2.190  0.1608E+01  0.1550E+01  0.1047E+02  0.4387E+01
      2.280  0.1136E+01  0.2163E+01  0.1057E+02  0.4582E+01
      2.370  0.9307E+00  0.2267E+01  0.1065E+02  0.4786E+01
      2.460  0.1203E+01  0.1730E+01  0.1076E+02  0.4941E+01
      2.549  0.1483E+01  0.1791E+01  0.1090E+02  0.5102E+01
      2.639  0.1208E+01  0.2921E+01  0.1100E+02  0.5365E+01
      2.729  0.6055E+00  0.4034E+01  0.1106E+02  0.5728E+01
      2.819  0.1900E+00  0.4107E+01  0.1108E+02  0.6097E+01
      2.909  0.3425E-01  0.3784E+01  0.1108E+02  0.6437E+01
      2.999 -0.8457E-02  0.4268E+01  0.1108E+02  0.6821E+01
      3.089 -0.1387E-01  0.5355E+01  0.1108E+02  0.7303E+01
      3.179 -0.7690E-02  0.5720E+01  0.1108E+02  0.7817E+01
      3.269 -0.3455E-02  0.4937E+01  0.1108E+02  0.8261E+01
      3.359 -0.5142E-02  0.4188E+01  0.1108E+02  0.8638E+01
      3.449 -0.8941E-02  0.4266E+01  0.1108E+02  0.9022E+01
      3.539  0.6640E-02  0.4301E+01  0.1108E+02  0.9408E+01
      3.629  0.7059E-01  0.3444E+01  0.1108E+02  0.9718E+01
      3.719  0.1513E+00  0.2321E+01  0.1110E+02  0.9927E+01
      3.809  0.1553E+00  0.1721E+01  0.1111E+02  0.1008E+02
      3.899  0.7174E-01  0.1698E+01  0.1112E+02  0.1023E+02
      3.988  0.1476E-01  0.2218E+01  0.1112E+02  0.1043E+02
      4.078  0.8855E-01  0.2639E+01  0.1113E+02  0.1067E+02
      4.168  0.2683E+00  0.2018E+01  0.1115E+02  0.1085E+02
      4.258  0.3779E+00  0.7690E+00  0.1118E+02  0.1092E+02
      4.348  0.2848E+00 -0.1816E-01  0.1121E+02  0.1092E+02
      4.438  0.1003E+00 -0.7574E-01  0.1122E+02  0.1091E+02
      4.528 -0.4138E-02  0.3218E+00  0.1122E+02  0.1094E+02
      4.618 -0.1833E-01  0.7829E+00  0.1122E+02  0.1101E+02
      4.708 -0.1096E-01  0.8357E+00  0.1122E+02  0.1109E+02
      4.798 -0.1931E-01  0.4480E+00  0.1121E+02  0.1113E+02
      4.888 -0.4729E-01  0.1076E+00  0.1121E+02  0.1114E+02
      4.978 -0.3371E-01  0.1100E+00  0.1121E+02  0.1115E+02
      5.068  0.1879E+00  0.2782E+00  0.1122E+02  0.1117E+02
      5.158  0.6891E+00  0.3552E+00  0.1128E+02  0.1120E+02
      5.248  0.1188E+01  0.3457E+00  0.1139E+02  0.1124E+02
      5.338  0.1409E+01  0.3532E+00  0.1152E+02  0.1127E+02
      5.427  0.1466E+01  0.3573E+00  0.1165E+02  0.1130E+02
      5.517  0.1369E+01  0.3328E+00  0.1177E+02  0.1133E+02
      5.607  0.9906E+00  0.2892E+00  0.1186E+02  0.1136E+02
      5.697  0.6844E+00  0.1925E+00  0.1192E+02  0.1137E+02
      5.787  0.7732E+00  0.5302E-01  0.1199E+02  0.1138E+02
      5.877  0.9033E+00 -0.1227E-01  0.1207E+02  0.1138E+02
      5.967  0.7253E+00  0.1769E+00  0.1214E+02  0.1139E+02
      6.057  0.3988E+00  0.7060E+00  0.1218E+02  0.1146E+02
      6.147  0.2085E+00  0.1263E+01  0.1219E+02  0.1157E+02
      6.237  0.2438E+00  0.1407E+01  0.1222E+02  0.1170E+02
      6.327  0.3268E+00  0.1195E+01  0.1225E+02  0.1180E+02
      6.417  0.2542E+00  0.9039E+00  0.1227E+02  0.1189E+02
      6.507  0.1024E+00  0.6765E+00  0.1228E+02  0.1195E+02
      6.597  0.5525E-01  0.6750E+00  0.1228E+02  0.1201E+02
      6.687  0.1250E+00  0.8310E+00  0.1229E+02  0.1208E+02
      6.776  0.2249E+00  0.8863E+00  0.1231E+02  0.1216E+02
      6.866  0.3158E+00  0.7441E+00  0.1234E+02  0.1223E+02
      6.956  0.3561E+00  0.4520E+00  0.1237E+02  0.1227E+02
      7.046  0.3359E+00  0.1902E+00  0.1241E+02  0.1229E+02
      7.136  0.3314E+00  0.1096E+00  0.1244E+02  0.1230E+02
      7.226  0.3142E+00  0.1180E+00  0.1246E+02  0.1231E+02
      7.316  0.2396E+00  0.1180E+00  0.1248E+02  0.1232E+02
      7.406  0.2364E+00  0.2002E+00  0.1251E+02  0.1233E+02
      7.496  0.3106E+00  0.3910E+00  0.1253E+02  0.1237E+02
      7.586  0.2743E+00  0.5248E+00  0.1256E+02  0.1242E+02
      7.676  0.1397E+00  0.4611E+00  0.1257E+02  0.1246E+02
      7.766  0.9528E-01  0.2475E+00  0.1258E+02  0.1248E+02
      7.856  0.1440E+00  0.9242E-01  0.1259E+02  0.1249E+02
      7.946  0.1377E+00  0.1497E+00  0.1261E+02  0.1250E+02
      8.036  0.5180E-01  0.2975E+00  0.1261E+02  0.1253E+02
      8.126 -0.1338E-02  0.2957E+00  0.1261E+02  0.1256E+02
      8.215  0.7359E-01  0.1590E+00  0.1262E+02  0.1257E+02
      8.305  0.2480E+00  0.9670E-01  0.1264E+02  0.1258E+02
      8.395  0.3416E+00  0.1369E+00  0.1267E+02  0.1259E+02
      8.485  0.2390E+00  0.1323E+00  0.1269E+02  0.1260E+02
      8.575  0.6936E-01  0.6165E-01  0.1270E+02  0.1261E+02
      8.665 -0.1921E-01  0.6983E-01  0.1270E+02  0.1262E+02
      8.755 -0.3462E-01  0.2169E+00  0.1269E+02  0.1263E+02
      8.845 -0.2463E-02  0.3363E+00  0.1269E+02  0.1266E+02
      8.935  0.1148E+00  0.2642E+00  0.1270E+02  0.1269E+02
      9.025  0.2895E+00  0.9382E-01  0.1273E+02  0.1270E+02
      9.115  0.4063E+00 -0.5800E-02  0.1276E+02  0.1270E+02
      9.205  0.4623E+00 -0.2496E-01  0.1281E+02  0.1269E+02
      9.295  0.5391E+00 -0.2612E-01  0.1285E+02  0.1269E+02
      9.385  0.5711E+00 -0.5520E-02  0.1291E+02  0.1269E+02
      9.475  0.4445E+00  0.1015E+00  0.1295E+02  0.1270E+02
      9.565  0.2604E+00  0.2961E+00  0.1297E+02  0.1273E+02
      9.654  0.2661E+00  0.4586E+00  0.1299E+02  0.1277E+02
      9.744  0.6049E+00  0.4764E+00  0.1305E+02  0.1281E+02
      9.834  0.1137E+01  0.3321E+00  0.1315E+02  0.1284E+02
      9.924  0.1435E+01  0.1523E+00  0.1328E+02  0.1285E+02
     10.014  0.1237E+01  0.2128E+00  0.1339E+02  0.1287E+02
     10.104  0.7646E+00  0.6237E+00  0.1346E+02  0.1293E+02
     10.194  0.3569E+00  0.1074E+01  0.1349E+02  0.1303E+02
     10.284  0.1494E+00  0.1199E+01  0.1350E+02  0.1313E+02
     10.374  0.1303E+00  0.1057E+01  0.1352E+02  0.1323E+02
     10.464  0.1720E+00  0.8907E+00  0.1353E+02  0.1331E+02
     10.554  0.1446E+00  0.7364E+00  0.1355E+02  0.1338E+02
     10.644  0.1259E+00  0.5508E+00  0.1356E+02  0.1343E+02
     10.734  0.3081E+00  0.3859E+00  0.1358E+02  0.1346E+02
     10.824  0.6154E+00  0.2847E+00  0.1364E+02  0.1349E+02
     10.914  0.7081E+00  0.2199E+00  0.1370E+02  0.1351E+02
     11.003  0.5308E+00  0.2010E+00  0.1375E+02  0.1352E+02
     11.093  0.3479E+00  0.3178E+00  0.1378E+02  0.1355E+02
     11.183  0.3472E+00  0.5943E+00  0.1381E+02  0.1361E+02
     11.273  0.6328E+00  0.7577E+00  0.1387E+02  0.1367E+02
     11.363  0.1019E+01  0.5535E+00  0.1396E+02  0.1372E+02
     11.453  0.1036E+01  0.2350E+00  0.1406E+02  0.1374E+02
     11.543  0.6668E+00  0.1521E+00  0.1412E+02  0.1376E+02
     11.633  0.3829E+00  0.2564E+00  0.1415E+02  0.1378E+02
     11.723  0.4272E+00  0.3772E+00  0.1419E+02  0.1382E+02
     11.813  0.6660E+00  0.5747E+00  0.1425E+02  0.1387E+02
     11.903  0.9452E+00  0.9508E+00  0.1433E+02  0.1395E+02
     11.993  0.1199E+01  0.1220E+01  0.1444E+02  0.1406E+02
     12.083  0.1249E+01  0.1031E+01  0.1455E+02  0.1415E+02
     12.173  0.9623E+00  0.5846E+00  0.1464E+02  0.1421E+02
     12.263  0.5610E+00  0.2645E+00  0.1469E+02  0.1423E+02
     12.353  0.3206E+00  0.1603E+00  0.1472E+02  0.1425E+02
     12.442  0.2227E+00  0.3107E+00  0.1474E+02  0.1427E+02
     12.532  0.3160E+00  0.7547E+00  0.1477E+02  0.1434E+02
     12.622  0.7316E+00  0.1216E+01  0.1483E+02  0.1445E+02
     12.712  0.1099E+01  0.1273E+01  0.1493E+02  0.1457E+02
     12.802  0.9290E+00  0.9708E+00  0.1502E+02  0.1465E+02
     12.892  0.4509E+00  0.7725E+00  0.1506E+02  0.1472E+02
     12.982  0.1705E+00  0.8009E+00  0.1507E+02  0.1479E+02
     13.072  0.1079E+00  0.8302E+00  0.1508E+02  0.1487E+02
     13.162  0.6628E-01  0.8661E+00  0.1509E+02  0.1495E+02
     13.252  0.7138E-01  0.8700E+00  0.1509E+02  0.1502E+02
     13.342  0.2046E+00  0.6046E+00  0.1511E+02  0.1508E+02
     13.432  0.3306E+00  0.2005E+00  0.1514E+02  0.1510E+02
     13.522  0.2682E+00 -0.2073E-01  0.1517E+02  0.1510E+02
     13.612  0.8851E-01 -0.5151E-01  0.1517E+02  0.1509E+02
     13.702 -0.8754E-02 -0.3353E-01  0.1517E+02  0.1509E+02
     13.792  0.5920E-01  0.1603E-01  0.1518E+02  0.1509E+02
     13.881  0.2234E+00  0.1532E+00  0.1520E+02  0.1510E+02
     13.971  0.3322E+00  0.3056E+00  0.1523E+02  0.1513E+02
     14.061  0.3719E+00  0.2885E+00  0.1526E+02  0.1516E+02
     14.151  0.4811E+00  0.1299E+00  0.1531E+02  0.1517E+02
     14.241  0.6563E+00  0.1293E+00  0.1536E+02  0.1518E+02
     14.331  0.7913E+00  0.4285E+00  0.1544E+02  0.1522E+02
     14.421  0.7793E+00  0.7043E+00  0.1551E+02  0.1528E+02
     14.511  0.5239E+00  0.5900E+00  0.1555E+02  0.1533E+02
     14.601  0.1737E+00  0.2671E+00  0.1557E+02  0.1536E+02
     14.691 -0.2317E-01  0.1500E+00  0.1557E+02  0.1537E+02
     14.781 -0.5260E-01  0.3240E+00  0.1556E+02  0.1540E+02
     14.871  0.1024E-01  0.5895E+00  0.1556E+02  0.1545E+02
     14.961  0.1624E+00  0.6580E+00  0.1558E+02  0.1551E+02
     15.051  0.3201E+00  0.4342E+00  0.1561E+02  0.1555E+02
     15.141  0.3115E+00  0.2073E+00  0.1563E+02  0.1557E+02
     15.230  0.1499E+00  0.2246E+00  0.1565E+02  0.1559E+02
     15.320  0.1697E-01  0.3142E+00  0.1565E+02  0.1562E+02
     15.410 -0.1771E-01  0.2413E+00  0.1565E+02  0.1564E+02
     15.500 -0.9891E-02  0.7989E-01  0.1565E+02  0.1565E+02
     15.590 -0.2455E-02 -0.7657E-02  0.1565E+02  0.1565E+02
     15.680 -0.3514E-03 -0.1598E-01  0.1565E+02  0.1565E+02
     15.770 -0.3172E-04 -0.5940E-02  0.1565E+02  0.1565E+02
     15.860 -0.1410E-04 -0.1154E-02  0.1565E+02  0.1565E+02
     15.950 -0.1628E-03 -0.1342E-03  0.1565E+02  0.1565E+02
     16.040 -0.1344E-02 -0.1017E-04  0.1565E+02  0.1565E+02
     16.130 -0.6614E-02 -0.8237E-05  0.1565E+02  0.1565E+02
     16.220 -0.1662E-01 -0.1104E-03  0.1564E+02  0.1565E+02
     16.310 -0.4071E-02 -0.9871E-03  0.1564E+02  0.1565E+02
     16.400  0.9366E-01 -0.5327E-02  0.1565E+02  0.1565E+02
     16.490  0.2636E+00 -0.1538E-01  0.1568E+02  0.1564E+02
     16.580  0.3385E+00 -0.1110E-01  0.1571E+02  0.1564E+02
     16.669  0.2290E+00  0.6815E-01  0.1573E+02  0.1565E+02
     16.759  0.8671E-01  0.2368E+00  0.1573E+02  0.1567E+02
     16.849  0.3999E-01  0.3547E+00  0.1574E+02  0.1570E+02
     16.939  0.3862E-01  0.2936E+00  0.1574E+02  0.1573E+02
     17.029  0.2220E-01  0.1405E+00  0.1574E+02  0.1574E+02
     17.119  0.2896E-02  0.3501E-01  0.1574E+02  0.1574E+02
     17.209 -0.3286E-02 -0.2324E-02  0.1574E+02  0.1574E+02
     17.299 -0.3838E-02 -0.7260E-02  0.1574E+02  0.1574E+02
     17.389 -0.9299E-02 -0.4148E-02  0.1574E+02  0.1574E+02
     17.479 -0.1780E-01 -0.3378E-02  0.1574E+02  0.1574E+02
     17.569  0.9429E-02 -0.9557E-02  0.1574E+02  0.1574E+02
     17.659  0.1323E+00 -0.1779E-01  0.1575E+02  0.1574E+02
     17.749  0.2990E+00  0.1302E-01  0.1578E+02  0.1574E+02
     17.839  0.3265E+00  0.1410E+00  0.1581E+02  0.1575E+02
     17.929  0.1724E+00  0.3056E+00  0.1582E+02  0.1578E+02
     18.019  0.1201E-01  0.3251E+00  0.1583E+02  0.1581E+02
     18.108 -0.7977E-02  0.1738E+00  0.1583E+02  0.1583E+02
     18.198  0.1457E+00  0.2503E-01  0.1584E+02  0.1583E+02
     18.288  0.3861E+00 -0.3031E-01  0.1587E+02  0.1583E+02
     18.378  0.4841E+00 -0.2981E-01  0.1592E+02  0.1582E+02
     18.468  0.3267E+00  0.2795E-01  0.1595E+02  0.1583E+02
     18.558  0.9825E-01  0.1942E+00  0.1595E+02  0.1584E+02
     18.648 -0.7396E-02  0.4106E+00  0.1595E+02  0.1588E+02
     18.738 -0.2981E-02  0.4796E+00  0.1595E+02  0.1592E+02
     18.828  0.2056E-01  0.3208E+00  0.1596E+02  0.1595E+02
     18.918  0.2149E-01  0.1031E+00  0.1596E+02  0.1596E+02
     19.008  0.8561E-02 -0.6646E-02  0.1596E+02  0.1596E+02
     19.098 -0.6565E-04 -0.1949E-01  0.1596E+02  0.1596E+02
     19.188 -0.1424E-02 -0.8044E-02  0.1596E+02  0.1596E+02
     19.278 -0.6087E-03 -0.1782E-02  0.1596E+02  0.1596E+02
     19.368 -0.2074E-03 -0.2770E-03  0.1596E+02  0.1596E+02
     19.457 -0.6789E-03 -0.3414E-03  0.1596E+02  0.1596E+02
     19.547 -0.3276E-02 -0.1932E-02  0.1596E+02  0.1596E+02
     19.637 -0.8278E-02 -0.6477E-02  0.1596E+02  0.1596E+02
     19.727 -0.2172E-02 -0.7645E-02  0.1596E+02  0.1596E+02
     19.817  0.4648E-01  0.2194E-01  0.1596E+02  0.1596E+02
     19.907  0.1321E+00  0.1001E+00  0.1597E+02  0.1597E+02
     19.997  0.1708E+00  0.1677E+00  0.1599E+02  0.1598E+02
     20.087  0.1136E+00  0.1435E+00  0.1600E+02  0.1600E+02
     20.177  0.3106E-01  0.5844E-01  0.1600E+02  0.1600E+02
     20.267 -0.6042E-02  0.1751E-02  0.1600E+02  0.1600E+02
     20.357 -0.7282E-02 -0.8732E-02  0.1600E+02  0.1600E+02
     20.447 -0.2420E-02 -0.3963E-02  0.1600E+02  0.1600E+02
     20.537 -0.4339E-03 -0.8752E-03  0.1600E+02  0.1600E+02
     20.627 -0.4707E-04 -0.1137E-03  0.1600E+02  0.1600E+02
     20.717 -0.3221E-05 -0.9208E-05  0.1600E+02  0.1600E+02
     20.807 -0.1420E-06 -0.4772E-06  0.1600E+02  0.1600E+02
     20.896 -0.4072E-08 -0.1604E-07  0.1600E+02  0.1600E+02
     20.986 -0.7657E-10 -0.3528E-09  0.1600E+02  0.1600E+02
     21.076 -0.9480E-12 -0.5101E-11  0.1600E+02  0.1600E+02
     21.166 -0.7818E-14 -0.4866E-13  0.1600E+02  0.1600E+02
     21.256  0.0000E+00 -0.3086E-15  0.1600E+02  0.1600E+02
     21.346  0.0000E+00  0.0000E+00  0.1600E+02  0.1600E+02
     21.436  0.0000E+00  0.0000E+00  0.1600E+02  0.1600E+02
     21.526  0.0000E+00  0.0000E+00  0.1600E+02  0.1600E+02
     21.616  0.0000E+00  0.0000E+00  0.1600E+02  0.1600E+02
     21.706  0.0000E+00  0.0000E+00  0.1600E+02  0.1600E+02
     21.796  0.0000E+00  0.0000E+00  0.1600E+02  0.1600E+02
     21.886  0.0000E+00  0.0000E+00  0.1600E+02  0.1600E+02
     21.976  0.0000E+00  0.0000E+00  0.1600E+02  0.1600E+02
