    2    2    1    2
  0.2137190E+02  0.2470000E-09  0.2470000E-09  0.8090000E-09  0.5000000E-15
  1.000000000000000E-004
  CAR 
 Co fcc                                  
     18     21     16
 
  0.0000000E+00  0.0000000E+00  0.0000000E+00  0.6944444E-02
      1         -3.005137       -2.774604   1.000000   1.000000
      2         -2.545244       -2.130869   1.000000   1.000000
      3         -0.294169        1.493381   1.000000   1.000000
      4          0.716784        2.180986   1.000000   1.000000
      5          0.716784        2.567292   1.000000   1.003150
      6          0.717647        2.567293   1.000000   1.003150
      7          0.717647        2.568507   1.000000   1.003225
      8          0.729433        2.568508   1.000000   1.003225
      9          1.422380        2.702634   1.000000   1.023798
     10          1.422380        3.846763   1.000000  -0.000000
     11          1.425344        3.846763   1.000000  -0.000000
     12          1.425344        3.850730   1.000000  -0.000000
     13          2.135335        3.850731   1.000000  -0.000000
     14          6.411689        6.700367  -0.000000  -0.000000
     15         10.843655       11.197277   0.000000   0.000000
     16         18.799821       18.785240   0.000000   0.000000
 
  0.1666667E+00 -0.1387779E-16  0.0000000E+00  0.4166667E-01
      1         -2.039850       -1.780767   1.000000   1.000000
      2         -1.649324       -1.143008   1.000000   1.000000
      3         -0.002408        1.847645   1.000000   1.000000
      4          0.478207        1.986476   1.000000   1.000000
      5          0.487519        2.248816   1.000000   1.000000
      6          0.521803        2.265408   1.000000   1.000001
      7          0.801507        2.913878   1.000000   0.885071
      8          0.994052        2.946514   1.000000   0.787118
      9          1.126421        3.024476   1.000000   0.478831
     10          1.127301        3.025787   1.000000   0.473293
     11          1.341863        3.750568   1.000000  -0.000002
     12          1.348139        3.759348   1.000000  -0.000001
     13          3.726806        4.673071  -0.000003  -0.000000
     14          7.846454        8.392888  -0.000000  -0.000000
     15         11.469387       11.737427   0.000000   0.000000
     16         19.942224       19.975692   0.000000   0.000000
 
  0.3333333E+00 -0.2775558E-16  0.0000000E+00  0.4166667E-01
      1         -0.904961        0.178971   1.000000   1.000000
      2         -0.856099        0.404274   1.000000   1.000000
      3         -0.200881        1.624750   1.000000   1.000000
      4         -0.041030        1.968918   1.000000   1.000000
      5          0.618970        2.388962   1.000000   1.000039
      6          0.783902        2.763565   1.000000   1.035029
      7          1.183942        2.843541   1.000000   1.007714
      8          1.194659        3.537405   1.000000  -0.000769
      9          1.769797        3.562664   1.000000  -0.000418
     10          2.024582        3.577955   1.000000  -0.000284
     11          2.025070        4.042274   1.000000  -0.000000
     12          2.701872        4.043075   1.023621  -0.000000
     13          6.698817        7.169230  -0.000000  -0.000000
     14         11.072247       11.686866   0.000000   0.000000
     15         13.011086       13.193830   0.000000   0.000000
     16         14.215803       14.712455   0.000000   0.000000
 
  0.5000000E+00 -0.5551115E-16  0.0000000E+00  0.2083333E-01
      1         -1.044528        0.351021   1.000000   1.000000
      2         -1.041575        0.365468   1.000000   1.000000
      3         -0.443204        1.482905   1.000000   1.000000
      4         -0.376525        1.596423   1.000000   1.000000
      5          0.934749        3.187501   1.000000   0.000383
      6          1.029354        3.328609   1.000000  -0.025577
      7          1.106183        3.470434   1.000000  -0.003225
      8          1.118806        3.488528   1.000000  -0.002247
      9          2.523416        4.619271   1.001264  -0.000000
     10          2.523429        4.619289   1.001264  -0.000000
     11          5.237115        5.266478  -0.000000  -0.000000
     12          5.590681        5.644807  -0.000000  -0.000000
     13          9.218610       10.095128   0.000000   0.000000
     14         10.037443       10.739162   0.000000   0.000000
     15         10.440464       10.964589   0.000000   0.000000
     16         11.576598       11.849695   0.000000   0.000000
 
  0.1666667E+00  0.1666667E+00  0.0000000E+00  0.4166667E-01
      1         -0.530336       -0.033895   1.000000   1.000000
      2         -0.394122        0.492856   1.000000   1.000000
      3          0.014065        1.763552   1.000000   1.000000
      4          0.105286        1.769917   1.000000   1.000000
      5          0.109347        1.776236   1.000000   1.000000
      6          0.222784        2.266196   1.000000   1.000001
      7          0.514279        2.442772   1.000000   1.000177
      8          1.127686        3.227775   1.000000  -0.028917
      9          1.135493        3.486673   1.000000  -0.002334
     10          1.219903        3.498520   1.000000  -0.001825
     11          2.186525        4.006155   1.000000  -0.000000
     12          2.576211        4.140674   1.003739  -0.000000
     13          5.801730        6.388974  -0.000000  -0.000000
     14         10.148974       10.784614   0.000000   0.000000
     15         12.775843       12.913027   0.000000   0.000000
     16         18.267812       18.596878   0.000000   0.000000
 
  0.3333333E+00  0.1666667E+00  0.0000000E+00  0.8333333E-01
      1         -0.474529        0.947909   1.000000   1.000000
      2         -0.468058        0.982871   1.000000   1.000000
      3         -0.241989        1.701663   1.000000   1.000000
      4         -0.153555        1.868793   1.000000   1.000000
      5          0.826171        2.658734   1.000000   1.014290
      6          0.838547        2.729542   1.000000   1.029826
      7          0.852094        3.123496   1.000000   0.119051
      8          0.875776        3.128609   1.000000   0.105849
      9          1.359717        3.142707   1.000000   0.072859
     10          1.521888        3.452937   1.000000  -0.004488
     11          5.158049        6.108766  -0.000000  -0.000000
     12          5.977745        6.784061  -0.000000  -0.000000
     13          9.400160        9.759796   0.000000   0.000000
     14         11.324188       11.947231   0.000000   0.000000
     15         12.348772       12.993705   0.000000   0.000000
     16         13.404016       13.972639   0.000000   0.000000
 
  0.3333333E+00  0.3333333E+00  0.0000000E+00  0.1388889E-01
      1          0.173747        1.908785   1.000000   1.000000
      2          0.210428        1.939696   1.000000   1.000000
      3          0.210428        1.939696   1.000000   1.000000
      4          0.249347        1.977542   1.000000   1.000000
      5          0.443590        2.266129   1.000000   1.000001
      6          0.458917        2.327888   1.000000   1.000006
      7          0.458917        2.327888   1.000000   1.000006
      8          0.480032        2.394536   1.000000   1.000046
      9          0.963696        3.320021   1.000000  -0.027529
     10          0.963696        3.320021   1.000000  -0.027529
     11          9.682470       10.210502   0.000000   0.000000
     12          9.937586       10.508608   0.000000   0.000000
     13          9.937586       10.508608   0.000000   0.000000
     14         10.588866       11.205306   0.000000   0.000000
     15         12.041361       12.798655   0.000000   0.000000
     16         12.041362       12.798656   0.000000   0.000000
 
  0.0000000E+00  0.0000000E+00  0.2500000E+00  0.1388889E-01
      1         -2.940406       -2.693598   1.000000   1.000000
      2         -2.614471       -2.241352   1.000000   1.000000
      3         -0.228784        1.523272   1.000000   1.000000
      4          0.387556        1.869364   1.000000   1.000000
      5          0.716904        2.567460   1.000000   1.003160
      6          0.716904        2.567461   1.000000   1.003160
      7          0.717564        2.568383   1.000000   1.003218
      8          0.717564        2.568384   1.000000   1.003218
      9          1.422884        3.376125   1.000000  -0.015083
     10          1.422884        3.847438   1.000000  -0.000000
     11          1.424945        3.847439   1.000000  -0.000000
     12          1.424945        3.850189   1.000000  -0.000000
     13          2.805876        3.850190   1.030819  -0.000000
     14          5.579218        5.931922  -0.000000  -0.000000
     15         11.944721       12.245352   0.000000   0.000000
     16         16.851535       16.987617   0.000000   0.000000
 
  0.1666667E+00 -0.1387779E-16  0.2500000E+00  0.8333333E-01
      1         -1.982013       -1.700726   1.000000   1.000000
      2         -1.704654       -1.252841   1.000000   1.000000
      3          0.048409        1.856887   1.000000   1.000000
      4          0.414421        1.946566   1.000000   1.000000
      5          0.487174        2.253677   1.000000   1.000000
      6          0.489079        2.264180   1.000000   1.000001
      7          0.808317        2.927738   1.000000   0.846561
      8          0.910471        2.946814   1.000000   0.786103
      9          1.126568        3.024699   1.000000   0.477888
     10          1.127177        3.025607   1.000000   0.474055
     11          1.342775        3.751836   1.000000  -0.000001
     12          1.347216        3.758056   1.000000  -0.000001
     13          4.228510        5.064765  -0.000000  -0.000000
     14          6.912726        7.482621  -0.000000  -0.000000
     15         12.689609       12.955508   0.000000   0.000000
     16         17.761743       17.937097   0.000000   0.000000
 
  0.3333333E+00 -0.2775558E-16  0.2500000E+00  0.8333333E-01
      1         -0.897835        0.211024   1.000000   1.000000
      2         -0.863291        0.370194   1.000000   1.000000
      3         -0.183470        1.657857   1.000000   1.000000
      4         -0.073435        1.879318   1.000000   1.000000
      5          0.659130        2.540883   1.000000   1.001843
      6          0.771415        2.765396   1.000000   1.035156
      7          1.185452        2.851015   1.000000   1.000089
      8          1.193073        3.343559   1.000000  -0.022123
      9          1.863353        3.564834   1.000000  -0.000396
     10          2.024682        3.575695   1.000000  -0.000301
     11          2.024996        4.042428   1.000000  -0.000000
     12          2.506494        4.042957   1.000862  -0.000000
     13          7.167662        7.636286  -0.000000  -0.000000
     14          9.900026       10.384017   0.000000   0.000000
     15         13.919363       14.385315   0.000000   0.000000
     16         14.395962       14.874132   0.000000   0.000000
 
  0.5000000E+00 -0.5551115E-16  0.2500000E+00  0.4166667E-01
      1         -1.044256        0.352855   1.000000   1.000000
      2         -1.042109        0.363146   1.000000   1.000000
      3         -0.434750        1.497152   1.000000   1.000000
      4         -0.387662        1.577090   1.000000   1.000000
      5          0.951560        3.217210   1.000000  -0.023913
      6          1.018694        3.319393   1.000000  -0.027669
      7          1.107995        3.473047   1.000000  -0.003065
      8          1.116934        3.485858   1.000000  -0.002373
      9          2.523408        4.619265   1.001264  -0.000000
     10          2.523438        4.619303   1.001265  -0.000000
     11          5.279574        5.300903  -0.000000  -0.000000
     12          5.529290        5.569794  -0.000000  -0.000000
     13          9.220978       10.086174   0.000000   0.000000
     14          9.628194       10.373005   0.000000   0.000000
     15         11.072315       11.552069   0.000000   0.000000
     16         11.771872       12.052781   0.000000   0.000000
 
  0.1666667E+00  0.1666667E+00  0.2500000E+00  0.8333333E-01
      1         -0.508697        0.032923   1.000000   1.000000
      2         -0.412617        0.402238   1.000000   1.000000
      3          0.032057        1.764520   1.000000   1.000000
      4          0.105876        1.768644   1.000000   1.000000
      5          0.108890        1.834055   1.000000   1.000000
      6          0.163865        2.136270   1.000000   1.000000
      7          0.638359        2.602438   1.000000   1.006013
      8          1.122153        3.109722   1.000000   0.157839
      9          1.132198        3.488619   1.000000  -0.002243
     10          1.134359        3.496766   1.000000  -0.001894
     11          2.210694        4.012132   1.000000  -0.000000
     12          2.460904        4.090827   1.000284  -0.000000
     13          6.284092        6.860625  -0.000000  -0.000000
     14          9.036720        9.584558   0.000000   0.000000
     15         14.163516       14.399508   0.000000   0.000000
     16         18.345785       18.699739   0.000000   0.000000
 
  0.3333333E+00  0.1666667E+00  0.2500000E+00  0.1666667E+00
      1         -0.473937        0.952596   1.000000   1.000000
      2         -0.469464        0.977262   1.000000   1.000000
      3         -0.230502        1.721692   1.000000   1.000000
      4         -0.168377        1.838064   1.000000   1.000000
      5          0.827565        2.679448   1.000000   1.018542
      6          0.844192        2.726418   1.000000   1.029169
      7          0.852068        3.119136   1.000000   0.130825
      8          0.875363        3.137492   1.000000   0.084478
      9          1.382928        3.180736   1.000000   0.008353
     10          1.498161        3.406393   1.000000  -0.009819
     11          5.241427        6.168710  -0.000000  -0.000000
     12          5.802115        6.623738  -0.000000  -0.000000
     13          9.832730       10.202603   0.000000   0.000000
     14         11.364252       11.953089   0.000000   0.000000
     15         12.104406       12.691252   0.000000   0.000000
     16         12.665546       13.218989   0.000000   0.000000
 
  0.3333333E+00  0.3333333E+00  0.2500000E+00  0.2777778E-01
      1          0.183597        1.916612   1.000000   1.000000
      2          0.209016        1.940703   1.000000   1.000000
      3          0.209016        1.940703   1.000000   1.000000
      4          0.236678        1.964299   1.000000   1.000000
      5          0.450612        2.288019   1.000000   1.000001
      6          0.460112        2.325318   1.000000   1.000005
      7          0.460112        2.325318   1.000000   1.000005
      8          0.475931        2.377962   1.000000   1.000028
      9          0.964353        3.322561   1.000000  -0.026958
     10          0.964353        3.322561   1.000000  -0.026958
     11          9.786889       10.321553   0.000000   0.000000
     12          9.962814       10.526259   0.000000   0.000000
     13          9.962815       10.526260   0.000000   0.000000
     14         10.415594       11.007020   0.000000   0.000000
     15         11.792386       12.492524   0.000000   0.000000
     16         11.792386       12.492525   0.000000   0.000000
 
  0.0000000E+00  0.0000000E+00  0.5000000E+00  0.6944444E-02
      1         -2.779812       -2.481878   1.000000   1.000000
      2         -2.779812       -2.481878   1.000000   1.000000
      3         -0.011673        1.630312   1.000000   1.000000
      4         -0.011673        1.630312   1.000000   1.000000
      5          0.717229        2.567907   1.000000   1.003188
      6          0.717229        2.567907   1.000000   1.003188
      7          0.717230        2.567908   1.000000   1.003188
      8          0.717230        2.567908   1.000000   1.003188
      9          1.423976        3.848881   1.000000  -0.000000
     10          1.423976        3.848881   1.000000  -0.000000
     11          1.423976        3.848881   1.000000  -0.000000
     12          1.423976        3.848881   1.000000  -0.000000
     13          4.119121        4.578628  -0.000000  -0.000000
     14          4.119121        4.578628  -0.000000  -0.000000
     15         14.210842       14.436397   0.000000   0.000000
     16         14.210842       14.436397   0.000000   0.000000
 
  0.1666667E+00 -0.1387779E-16  0.5000000E+00  0.4166667E-01
      1         -1.842159       -1.491299   1.000000   1.000000
      2         -1.842159       -1.491299   1.000000   1.000000
      3          0.203956        1.888804   1.000000   1.000000
      4          0.203956        1.888804   1.000000   1.000000
      5          0.486878        2.260163   1.000000   1.000001
      6          0.486878        2.260163   1.000000   1.000001
      7          0.835166        2.942766   1.000000   0.799617
      8          0.835166        2.942766   1.000000   0.799617
      9          1.126840        3.025119   1.000000   0.476117
     10          1.126840        3.025119   1.000000   0.476117
     11          1.345004        3.754949   1.000000  -0.000001
     12          1.345004        3.754949   1.000000  -0.000001
     13          5.430033        6.102470  -0.000000  -0.000000
     14          5.430033        6.102470  -0.000000  -0.000000
     15         15.046702       15.278722   0.000000   0.000000
     16         15.046702       15.278722   0.000000   0.000000
 
  0.3333333E+00 -0.2775558E-16  0.5000000E+00  0.4166667E-01
      1         -0.880605        0.289596   1.000000   1.000000
      2         -0.880605        0.289596   1.000000   1.000000
      3         -0.135347        1.749326   1.000000   1.000000
      4         -0.135347        1.749326   1.000000   1.000000
      5          0.728320        2.741005   1.000000   1.032049
      6          0.728320        2.741005   1.000000   1.032049
      7          1.189296        2.988803   1.000000   0.628092
      8          1.189296        2.988803   1.000000   0.628092
      9          2.024843        3.570305   1.000000  -0.000345
     10          2.024843        3.570305   1.000000  -0.000345
     11          2.138366        4.042700   1.000000  -0.000000
     12          2.138366        4.042700   1.000000  -0.000000
     13          8.346845        8.810721  -0.000000   0.000000
     14          8.346845        8.810721  -0.000000   0.000000
     15         14.384049       14.939973   0.000000   0.000000
     16         14.384049       14.939973   0.000000   0.000000
 
  0.5000000E+00 -0.5551115E-16  0.5000000E+00  0.2083333E-01
      1         -1.043380        0.357660   1.000000   1.000000
      2         -1.043380        0.357660   1.000000   1.000000
      3         -0.412493        1.534644   1.000000   1.000000
      4         -0.412493        1.534644   1.000000   1.000000
      5          0.988200        3.278448   1.000000  -0.034770
      6          0.988200        3.278448   1.000000  -0.034770
      7          1.112466        3.479448   1.000000  -0.002701
      8          1.112466        3.479448   1.000000  -0.002701
      9          2.523401        4.619254   1.001264  -0.000000
     10          2.523401        4.619254   1.001264  -0.000000
     11          5.394983        5.415251  -0.000000  -0.000000
     12          5.394983        5.415251  -0.000000  -0.000000
     13          9.320874       10.144549   0.000000   0.000000
     14          9.320874       10.144549   0.000000   0.000000
     15         11.783710       12.146125   0.000000   0.000000
     16         11.783710       12.146125   0.000000   0.000000
 
  0.1666667E+00  0.1666667E+00  0.5000000E+00  0.4166667E-01
      1         -0.459082        0.206264   1.000000   1.000000
      2         -0.459082        0.206264   1.000000   1.000000
      3          0.083820        1.766673   1.000000   1.000000
      4          0.083820        1.766673   1.000000   1.000000
      5          0.107913        1.969530   1.000000   1.000000
      6          0.107913        1.969530   1.000000   1.000000
      7          0.888656        2.856299   1.000000   0.993996
      8          0.888656        2.856299   1.000000   0.993996
      9          1.131698        3.492642   1.000000  -0.002065
     10          1.131698        3.492642   1.000000  -0.002065
     11          2.296900        4.035539   1.000002  -0.000000
     12          2.296900        4.035539   1.000002  -0.000000
     13          7.481335        8.031140  -0.000000  -0.000000
     14          7.481335        8.031140  -0.000000  -0.000000
     15         16.523983       16.808427   0.000000   0.000000
     16         16.523983       16.808427   0.000000   0.000000
 
  0.3333333E+00  0.1666667E+00  0.5000000E+00  0.8333333E-01
      1         -0.472076        0.964495   1.000000   1.000000
      2         -0.472076        0.964495   1.000000   1.000000
      3         -0.201066        1.774863   1.000000   1.000000
      4         -0.201066        1.774863   1.000000   1.000000
      5          0.835295        2.711041   1.000000   1.025740
      6          0.835295        2.711041   1.000000   1.025740
      7          0.867645        3.127737   1.000000   0.108055
      8          0.867645        3.127737   1.000000   0.108055
      9          1.440395        3.292690   1.000000  -0.032937
     10          1.440395        3.292690   1.000000  -0.032937
     11          5.480377        6.352035  -0.000000  -0.000000
     12          5.480377        6.352035  -0.000000  -0.000000
     13         10.833496       11.236212   0.000000   0.000000
     14         10.833496       11.236212   0.000000   0.000000
     15         11.962600       12.587980   0.000000   0.000000
     16         11.962600       12.587980   0.000000   0.000000
 
  0.3333333E+00  0.3333333E+00  0.5000000E+00  0.1388889E-01
      1          0.207526        1.937920   1.000000   1.000000
      2          0.207526        1.937920   1.000000   1.000000
      3          0.208721        1.941688   1.000000   1.000000
      4          0.208721        1.941688   1.000000   1.000000
      5          0.461253        2.322623   1.000000   1.000005
      6          0.461253        2.322623   1.000000   1.000005
      7          0.464606        2.335317   1.000000   1.000007
      8          0.464606        2.335317   1.000000   1.000007
      9          0.965152        3.325211   1.000000  -0.026356
     10          0.965152        3.325211   1.000000  -0.026356
     11          9.990399       10.545271   0.000000   0.000000
     12          9.990399       10.545271   0.000000   0.000000
     13         10.069380       10.625045   0.000000   0.000000
     14         10.069380       10.625045   0.000000   0.000000
     15         11.607288       12.292971   0.000000   0.000000
     16         11.607288       12.292971   0.000000   0.000000
