<?xml version="1.0" encoding="ISO-8859-1"?>
<modeling>
 <generator>
  <i name="program" type="string">vasp </i>
  <i name="version" type="string">6.3.2  </i>
  <i name="subversion" type="string">27Jun22 (build Aug 12 2022 00:53:59) complex                          parallel </i>
  <i name="platform" type="string">tv2STD </i>
  <i name="date" type="string">2024 11 30 </i>
  <i name="time" type="string">15:14:20 </i>
 </generator>
 <incar>
  <i type="string" name="SYSTEM">Co fcc</i>
  <i type="int" name="ISTART">     0</i>
  <i type="string" name="PREC">Accurate      normal | accurate</i>
  <i type="string" name="ALGO">Normal     Normal, Fast, Very_Fast</i>
  <i type="logical" name="ADDGRID"> F  </i>
  <i type="int" name="ISPIN">     2</i>
  <i type="int" name="ICHARG">     2</i>
  <i type="int" name="INIWAV">     1</i>
  <i type="int" name="NELM">   100</i>
  <i type="int" name="IBRION">    -1</i>
  <i name="EDIFF">      0.00000100</i>
  <i name="EDIFFG">     -0.02000000</i>
  <i type="int" name="NSW">     0</i>
  <i type="int" name="ISIF">     2</i>
  <i type="int" name="ISYM">     1</i>
  <i name="ENCUT">    425.00000000</i>
  <v name="MAGMOM">      3.00000000      3.00000000</v>
  <i type="logical" name="LREAL"> F  </i>
  <i type="int" name="ISMEAR">     1</i>
  <i name="SIGMA">      0.20000000</i>
  <i type="int" name="NWRITE">     2</i>
  <i type="logical" name="LWAVE"> F  </i>
  <i type="logical" name="LCHARG"> F  </i>
 </incar>
 <primitive_cell>
  <structure name="primitive_cell" >
   <crystal>
    <varray name="basis" >
     <v>       2.47000000       0.00000000       0.00000000 </v>
     <v>      -1.23500000       2.13908275       0.00000000 </v>
     <v>       0.00000000       0.00000000       8.09000000 </v>
    </varray>
    <i name="volume">     42.74379318 </i>
    <varray name="rec_basis" >
     <v>       0.40485830       0.23374505       0.00000000 </v>
     <v>       0.00000000       0.46749010       0.00000000 </v>
     <v>       0.00000000       0.00000000       0.12360939 </v>
    </varray>
   </crystal>
   <varray name="positions" >
    <v>       0.00000000       0.00000000       0.00000000 </v>
    <v>       0.33333333       0.66666667       0.50000000 </v>
   </varray>
  </structure>
  <varray name="primitive_index" >
   <v type="int" >        1 </v>
   <v type="int" >        2 </v>
  </varray>
 </primitive_cell>
 <kpoints>
  <generation param="Gamma">
   <v type="int" name="divisions">       6        6        4 </v>
   <v name="usershift">      0.00000000       0.00000000       0.00000000 </v>
   <v name="genvec1">      0.16666667       0.00000000       0.00000000 </v>
   <v name="genvec2">      0.00000000       0.16666667       0.00000000 </v>
   <v name="genvec3">      0.00000000       0.00000000       0.25000000 </v>
   <v name="shift">      0.00000000       0.00000000       0.00000000 </v>
  </generation>
  <varray name="kpointlist" >
   <v>       0.00000000       0.00000000       0.00000000 </v>
   <v>       0.16666667      -0.00000000       0.00000000 </v>
   <v>       0.33333333      -0.00000000       0.00000000 </v>
   <v>       0.50000000      -0.00000000       0.00000000 </v>
   <v>       0.16666667       0.16666667       0.00000000 </v>
   <v>       0.33333333       0.16666667       0.00000000 </v>
   <v>       0.33333333       0.33333333       0.00000000 </v>
   <v>       0.00000000       0.00000000       0.25000000 </v>
   <v>       0.16666667      -0.00000000       0.25000000 </v>
   <v>       0.33333333      -0.00000000       0.25000000 </v>
   <v>       0.50000000      -0.00000000       0.25000000 </v>
   <v>       0.16666667       0.16666667       0.25000000 </v>
   <v>       0.33333333       0.16666667       0.25000000 </v>
   <v>       0.33333333       0.33333333       0.25000000 </v>
   <v>       0.00000000       0.00000000       0.50000000 </v>
   <v>       0.16666667      -0.00000000       0.50000000 </v>
   <v>       0.33333333      -0.00000000       0.50000000 </v>
   <v>       0.50000000      -0.00000000       0.50000000 </v>
   <v>       0.16666667       0.16666667       0.50000000 </v>
   <v>       0.33333333       0.16666667       0.50000000 </v>
   <v>       0.33333333       0.33333333       0.50000000 </v>
  </varray>
  <varray name="weights" >
   <v>       0.00694444 </v>
   <v>       0.04166667 </v>
   <v>       0.04166667 </v>
   <v>       0.02083333 </v>
   <v>       0.04166667 </v>
   <v>       0.08333333 </v>
   <v>       0.01388889 </v>
   <v>       0.01388889 </v>
   <v>       0.08333333 </v>
   <v>       0.08333333 </v>
   <v>       0.04166667 </v>
   <v>       0.08333333 </v>
   <v>       0.16666667 </v>
   <v>       0.02777778 </v>
   <v>       0.00694444 </v>
   <v>       0.04166667 </v>
   <v>       0.04166667 </v>
   <v>       0.02083333 </v>
   <v>       0.04166667 </v>
   <v>       0.08333333 </v>
   <v>       0.01388889 </v>
  </varray>
 </kpoints>
 <parameters>
  <separator name="general" >
   <i type="string" name="SYSTEM">Co fcc</i>
   <i type="logical" name="LCOMPAT"> F  </i>
  </separator>
  <separator name="electronic" >
   <i type="string" name="PREC">accura</i>
   <i name="ENMAX">    425.00000000</i>
   <i name="ENAUG">    477.81800000</i>
   <i name="EDIFF">      0.00000100</i>
   <i type="int" name="IALGO">    38</i>
   <i type="int" name="IWAVPR">    10</i>
   <i type="int" name="NBANDS">    16</i>
   <i type="int" name="NBANDSLOW">    -1</i>
   <i type="int" name="NBANDSHIGH">    -1</i>
   <i name="NELECT">     18.00000000</i>
   <i type="int" name="TURBO">     0</i>
   <i type="int" name="IRESTART">     0</i>
   <i type="int" name="NREBOOT">     0</i>
   <i type="int" name="NMIN">     0</i>
   <i name="EREF">      0.00000000</i>
   <separator name="electronic smearing" >
    <i type="int" name="ISMEAR">     1</i>
    <i name="SIGMA">      0.20000000</i>
    <i name="KSPACING">      0.50000000</i>
    <i type="logical" name="KGAMMA"> T  </i>
    <i type="logical" name="KBLOWUP"> T  </i>
   </separator>
   <separator name="electronic projectors" >
    <i type="logical" name="LREAL"> F  </i>
    <v name="ROPT">      0.00000000</v>
    <i type="int" name="LMAXPAW">  -100</i>
    <i type="int" name="LMAXMIX">     2</i>
    <i type="logical" name="NLSPLINE"> F  </i>
   </separator>
   <separator name="electronic startup" >
    <i type="int" name="ISTART">     0</i>
    <i type="int" name="ICHARG">     2</i>
    <i type="int" name="INIWAV">     1</i>
   </separator>
   <separator name="electronic spin" >
    <i type="int" name="ISPIN">     2</i>
    <i type="logical" name="LNONCOLLINEAR"> F  </i>
    <v name="MAGMOM">      3.00000000      3.00000000</v>
    <i name="NUPDOWN">     -1.00000000</i>
    <i type="logical" name="LSORBIT"> F  </i>
    <v name="SAXIS">      0.00000000      0.00000000      1.00000000</v>
    <i type="logical" name="LSPIRAL"> F  </i>
    <v name="QSPIRAL">      0.00000000      0.00000000      0.00000000</v>
    <i type="logical" name="LZEROZ"> F  </i>
   </separator>
   <separator name="electronic exchange-correlation" >
    <i type="logical" name="LASPH"> F  </i>
    <i type="logical" name="LMETAGGA"> F  </i>
   </separator>
   <separator name="electronic convergence" >
    <i type="int" name="NELM">   100</i>
    <i type="int" name="NELMDL">    -5</i>
    <i type="int" name="NELMIN">     2</i>
    <i name="ENINI">    425.00000000</i>
    <separator name="electronic convergence detail" >
     <i type="logical" name="LDIAG"> T  </i>
     <i type="logical" name="LSUBROT"> F  </i>
     <i name="WEIMIN">      0.00000000</i>
     <i name="EBREAK">      0.00000002</i>
     <i name="DEPER">      0.30000000</i>
     <i type="int" name="NRMM">     4</i>
     <i name="TIME">      0.40000000</i>
    </separator>
   </separator>
   <separator name="electronic mixer" >
    <i name="AMIX">      0.40000000</i>
    <i name="BMIX">      1.00000000</i>
    <i name="AMIN">      0.10000000</i>
    <i name="AMIX_MAG">      1.60000000</i>
    <i name="BMIX_MAG">      1.00000000</i>
    <separator name="electronic mixer details" >
     <i type="int" name="IMIX">     4</i>
     <i type="logical" name="MIXFIRST"> F  </i>
     <i type="int" name="MAXMIX">   -45</i>
     <i name="WC">    100.00000000</i>
     <i type="int" name="INIMIX">     1</i>
     <i type="int" name="MIXPRE">     1</i>
     <i type="int" name="MREMOVE">     5</i>
    </separator>
   </separator>
   <separator name="electronic dipolcorrection" >
    <i type="logical" name="LDIPOL"> F  </i>
    <i type="logical" name="LMONO"> F  </i>
    <i type="int" name="IDIPOL">     0</i>
    <i name="EPSILON">      1.00000000</i>
    <v name="DIPOL">   -100.00000000   -100.00000000   -100.00000000</v>
    <i name="EFIELD">      0.00000000</i>
   </separator>
  </separator>
  <separator name="grids" >
   <i type="int" name="NGX">    18</i>
   <i type="int" name="NGY">    18</i>
   <i type="int" name="NGZ">    54</i>
   <i type="int" name="NGXF">    36</i>
   <i type="int" name="NGYF">    36</i>
   <i type="int" name="NGZF">   108</i>
   <i type="logical" name="ADDGRID"> F  </i>
  </separator>
  <separator name="ionic" >
   <i type="int" name="NSW">     0</i>
   <i type="int" name="IBRION">    -1</i>
   <i type="int" name="MDALGO">     0</i>
   <i type="int" name="ISIF">     2</i>
   <i name="PSTRESS">      0.00000000</i>
   <i name="EDIFFG">     -0.02000000</i>
   <i type="int" name="NFREE">     0</i>
   <i name="POTIM">      0.50000000</i>
   <i name="SMASS">     -3.00000000</i>
   <i name="SCALEE">      1.00000000</i>
  </separator>
  <separator name="ionic md" >
   <i name="TEBEG">      0.00010000</i>
   <i name="TEEND">      0.00010000</i>
   <i type="int" name="NBLOCK">     1</i>
   <i type="int" name="KBLOCK">     1</i>
   <i type="int" name="NPACO">   256</i>
   <i name="APACO">     10.00000000</i>
  </separator>
  <separator name="symmetry" >
   <i type="int" name="ISYM">     1</i>
   <i name="SYMPREC">      0.00001000</i>
  </separator>
  <separator name="dos" >
   <i type="int" name="LORBIT">     0</i>
   <v name="RWIGS">     -1.00000000</v>
   <i type="int" name="NEDOS">   301</i>
   <i name="EMIN">     10.00000000</i>
   <i name="EMAX">    -10.00000000</i>
   <i name="EFERMI">      0.00000000</i>
  </separator>
  <separator name="writing" >
   <i type="int" name="NWRITE">     2</i>
   <i type="logical" name="LWAVE"> F  </i>
   <i type="logical" name="LDOWNSAMPLE"> F  </i>
   <i type="logical" name="LCHARG"> F  </i>
   <i type="logical" name="LPARD"> F  </i>
   <i type="logical" name="LVTOT"> F  </i>
   <i type="logical" name="LVHAR"> F  </i>
   <i type="logical" name="LELF"> F  </i>
   <i type="logical" name="LOPTICS"> F  </i>
   <v name="STM">      0.00000000      0.00000000      0.00000000      0.00000000      0.00000000      0.00000000      0.00000000</v>
  </separator>
  <separator name="performance" >
   <i type="int" name="NPAR">     4</i>
   <i type="int" name="NSIM">     4</i>
   <i type="int" name="NBLK">    -1</i>
   <i type="logical" name="LPLANE"> T  </i>
   <i type="logical" name="LSCALAPACK"> T  </i>
   <i type="logical" name="LSCAAWARE"> F  </i>
   <i type="logical" name="LSCALU"> F  </i>
   <i type="logical" name="LASYNC"> F  </i>
   <i type="logical" name="LORBITALREAL"> F  </i>
  </separator>
  <separator name="miscellaneous" >
   <i type="int" name="IDIOT">     3</i>
   <i type="int" name="PHON_NSTRUCT">    -1</i>
   <i type="logical" name="LMUSIC"> F  </i>
   <v name="POMASS">     58.93300000</v>
   <v name="DARWINR">      0.00000000</v>
   <v name="DARWINV">      1.00000000</v>
   <i type="logical" name="LCORR"> T  </i>
  </separator>
  <i type="logical" name="GGA_COMPAT"> T  </i>
  <i type="logical" name="LBERRY"> F  </i>
  <i type="int" name="ICORELEVEL">     0</i>
  <i type="logical" name="LDAU"> F  </i>
  <i type="int" name="I_CONSTRAINED_M">     0</i>
  <separator name="electronic exchange-correlation" >
   <i type="string" name="GGA">--</i>
   <i type="int" name="VOSKOWN">     0</i>
   <i type="logical" name="LHFCALC"> F  </i>
   <i type="string" name="PRECFOCK"></i>
   <i type="logical" name="LSYMGRAD"> F  </i>
   <i type="logical" name="LHFONE"> F  </i>
   <i type="logical" name="LRHFCALC"> F  </i>
   <i type="logical" name="LTHOMAS"> F  </i>
   <i type="logical" name="LMODELHF"> F  </i>
   <i type="logical" name="LFOCKACE"> F  </i>
   <i name="ENCUT4O">     -1.00000000</i>
   <i type="int" name="EXXOEP">     0</i>
   <i type="int" name="FOURORBIT">     0</i>
   <i name="AEXX">      0.00000000</i>
   <i name="HFALPHA">      0.00000000</i>
   <i name="MCALPHA">      0.00000000</i>
   <i name="ALDAX">      1.00000000</i>
   <i name="AGGAX">      1.00000000</i>
   <i name="ALDAC">      1.00000000</i>
   <i name="AGGAC">      1.00000000</i>
   <i type="int" name="NKREDX">     1</i>
   <i type="int" name="NKREDY">     1</i>
   <i type="int" name="NKREDZ">     1</i>
   <i type="logical" name="SHIFTRED"> F  </i>
   <i type="logical" name="ODDONLY"> F  </i>
   <i type="logical" name="EVENONLY"> F  </i>
   <i type="int" name="LMAXFOCK">     0</i>
   <i type="int" name="NMAXFOCKAE">     0</i>
   <i type="logical" name="LFOCKAEDFT"> F  </i>
   <i name="HFSCREEN">      0.00000000</i>
   <i name="HFSCREENC">      0.00000000</i>
   <i type="int" name="NBANDSGWLOW">     0</i>
  </separator>
  <separator name="vdW DFT" >
   <i type="logical" name="LUSE_VDW"> F  </i>
   <i name="Zab_VDW">     -0.84910000</i>
   <i name="PARAM1">      0.12340000</i>
   <i name="PARAM2">      1.00000000</i>
   <i name="PARAM3">      0.00000000</i>
  </separator>
  <separator name="model GW" >
   <i type="int" name="MODEL_GW">     0</i>
   <i name="MODEL_EPS0">     12.82313795</i>
   <i name="MODEL_ALPHA">      1.00000000</i>
  </separator>
  <separator name="linear response parameters" >
   <i type="logical" name="LEPSILON"> F  </i>
   <i type="logical" name="LRPA"> F  </i>
   <i type="logical" name="LNABLA"> F  </i>
   <i type="logical" name="LVEL"> F  </i>
   <i name="CSHIFT">      0.10000000</i>
   <i name="OMEGAMAX">     -1.00000000</i>
   <i name="DEG_THRESHOLD">      0.00200000</i>
   <i name="RTIME">     -0.10000000</i>
   <i name="WPLASMAI">      0.00000000</i>
   <v name="DFIELD">      0.00000000      0.00000000      0.00000000</v>
   <v name="WPLASMA">      0.00000000      0.00000000      0.00000000      0.00000000      0.00000000      0.00000000      0.00000000      0.00000000      0.00000000</v>
  </separator>
  <separator name="orbital magnetization" >
   <i type="logical" name="NUCIND"> F  </i>
   <v name="MAGPOS">      0.00000000      0.00000000      0.00000000</v>
   <i type="logical" name="LNICSALL"> T  </i>
   <i type="logical" name="ORBITALMAG"> F  </i>
   <i type="logical" name="LMAGBLOCH"> F  </i>
   <i type="logical" name="LCHIMAG"> F  </i>
   <i type="logical" name="LGAUGE"> T  </i>
   <i type="int" name="MAGATOM">     0</i>
   <v name="MAGDIPOL">      0.00000000      0.00000000      0.00000000</v>
   <v name="AVECCONST">      0.00000000      0.00000000      0.00000000</v>
  </separator>
  <separator name="response functions" >
   <i type="logical" name="LFINITE_TEMPERATURE"> F  </i>
   <i type="logical" name="LADDER"> F  </i>
   <i type="logical" name="LRPAFORCE"> F  </i>
   <i type="logical" name="LFXC"> F  </i>
   <i type="logical" name="LHARTREE"> T  </i>
   <i type="int" name="IBSE">     0</i>
   <v type="int" name="KPOINT">    -1     0     0     0</v>
   <i type="logical" name="LTCTC"> F  </i>
   <i type="logical" name="LTCTE"> F  </i>
   <i type="logical" name="LTETE"> F  </i>
   <i type="logical" name="LTRIPLET"> F  </i>
   <i type="logical" name="LFXCEPS"> F  </i>
   <i type="logical" name="LFXHEG"> F  </i>
   <i type="int" name="NATURALO">     2</i>
   <i type="logical" name="LHOLEGF"> F  </i>
   <i type="logical" name="L2ORDER"> F  </i>
   <i type="logical" name="LDMP1"> F  </i>
   <i type="logical" name="LMP2LT"> F  </i>
   <i type="logical" name="LSMP2LT"> F  </i>
   <i type="logical" name="LGWLF"> F  </i>
   <i name="ENCUTGW">     -2.00000000</i>
   <i name="ENCUTGWSOFT">     -2.00000000</i>
   <i name="ENCUTLF">     -1.00000000</i>
   <i type="logical" name="LESF_SPLINES"> F  </i>
   <i type="int" name="LMAXMP2">    -1</i>
   <i name="SCISSOR">      0.00000000</i>
   <i type="int" name="NOMEGA">     0</i>
   <i type="int" name="NOMEGAR">     0</i>
   <i type="int" name="NBANDSGW">    -1</i>
   <i type="int" name="NBANDSO">    -1</i>
   <i type="int" name="NBANDSV">    -1</i>
   <i type="int" name="NELMGW">     1</i>
   <i type="int" name="NELMHF">     1</i>
   <i type="int" name="DIM">     3</i>
   <i type="int" name="IESPILON">     4</i>
   <i type="int" name="ANTIRES">     0</i>
   <i name="OMEGAMAX">    -30.00000000</i>
   <i name="OMEGAMIN">    -30.00000000</i>
   <i name="OMEGATL">   -200.00000000</i>
   <i type="int" name="OMEGAGRID">     0</i>
   <i name="CSHIFT">     -0.10000000</i>
   <i type="logical" name="LSELFENERGY"> F  </i>
   <i type="logical" name="LSPECTRAL"> F  </i>
   <i type="logical" name="LSPECTRALGW"> F  </i>
   <i type="logical" name="LSINGLES"> F  </i>
   <i type="logical" name="LFERMIGW"> F  </i>
   <i type="logical" name="ODDONLYGW"> F  </i>
   <i type="logical" name="EVENONLYGW"> F  </i>
   <i type="int" name="NKREDLFX">     1</i>
   <i type="int" name="NKREDLFY">     1</i>
   <i type="int" name="NKREDLFZ">     1</i>
   <i type="int" name="MAXMEM">  2800</i>
   <i type="int" name="TELESCOPE">     0</i>
   <i type="int" name="NTAUPAR">    -1</i>
   <i type="int" name="NOMEGAPAR">    -1</i>
   <i name="DAMP_NEWTON">      0.80000001</i>
   <i name="LAMBDA">      1.00000000</i>
  </separator>
  <separator name="External order field" >
   <i name="OFIELD_KAPPA">      0.00000000</i>
   <v name="OFIELD_K">      0.00000000      0.00000000      0.00000000</v>
   <i name="OFIELD_Q6_NEAR">      0.00000000</i>
   <i name="OFIELD_Q6_FAR">      0.00000000</i>
   <i name="OFIELD_A">      0.00000000</i>
  </separator>
  <separator name="optional k-points parameters" >
   <i type="int" name="KPOINTS_OPT_MODE">     1</i>
   <i type="logical" name="LKPOINTS_OPT"> F  </i>
  </separator>
 </parameters>
 <atominfo>
  <atoms>       2 </atoms>
  <types>       1 </types>
  <array name="atoms" >
   <dimension dim="1">ion</dimension>
   <field type="string">element</field>
   <field type="int">atomtype</field>
   <set>
    <rc><c>Co</c><c>   1</c></rc>
    <rc><c>Co</c><c>   1</c></rc>
   </set>
  </array>
  <array name="atomtypes" >
   <dimension dim="1">type</dimension>
   <field type="int">atomspertype</field>
   <field type="string">element</field>
   <field>mass</field>
   <field>valence</field>
   <field type="string">pseudopotential</field>
   <set>
    <rc><c>   2</c><c>Co</c><c>     58.93300000</c><c>      9.00000000</c><c>  PAW_PBE Co 02Aug2007                  </c></rc>
   </set>
  </array>
 </atominfo>
 <structure name="initialpos" >
  <crystal>
   <varray name="basis" >
    <v>       2.47000000       0.00000000       0.00000000 </v>
    <v>      -1.23500000       2.13908275       0.00000000 </v>
    <v>       0.00000000       0.00000000       8.09000000 </v>
   </varray>
   <i name="volume">     42.74379318 </i>
   <varray name="rec_basis" >
    <v>       0.40485830       0.23374505       0.00000000 </v>
    <v>       0.00000000       0.46749010       0.00000000 </v>
    <v>       0.00000000       0.00000000       0.12360939 </v>
   </varray>
  </crystal>
  <varray name="positions" >
   <v>       0.00000000       0.00000000       0.00000000 </v>
   <v>       0.33333333       0.66666667       0.50000000 </v>
  </varray>
 </structure>
 <calculation>
  <scstep>
   <time name="dav">    0.15    0.15</time>
   <time name="total">    0.16    0.16</time>
   <energy>
    <i name="alphaZ">     39.63868225 </i>
    <i name="ewald">  -1054.56880693 </i>
    <i name="hartreedc">   -595.60964207 </i>
    <i name="XCdc">     33.36921949 </i>
    <i name="pawpsdc">   1439.98163886 </i>
    <i name="pawaedc">  -1545.88690193 </i>
    <i name="eentropy">     -0.00640233 </i>
    <i name="bandstr">    135.77824300 </i>
    <i name="atom">   1626.72322989 </i>
    <i name="e_fr_energy">     79.41926024 </i>
    <i name="e_wo_entrp">     79.42566257 </i>
    <i name="e_0_energy">     79.42139435 </i>
   </energy>
  </scstep>
  <scstep>
   <time name="dav">    0.14    0.14</time>
   <time name="total">    0.14    0.14</time>
   <energy>
    <i name="e_fr_energy">    -10.47887642 </i>
    <i name="e_wo_entrp">    -10.47612858 </i>
    <i name="e_0_energy">    -10.47796047 </i>
   </energy>
  </scstep>
  <scstep>
   <time name="dav">    0.17    0.17</time>
   <time name="total">    0.17    0.17</time>
   <energy>
    <i name="e_fr_energy">    -12.72029457 </i>
    <i name="e_wo_entrp">    -12.71251742 </i>
    <i name="e_0_energy">    -12.71770218 </i>
   </energy>
  </scstep>
  <scstep>
   <time name="dav">    0.17    0.17</time>
   <time name="total">    0.17    0.17</time>
   <energy>
    <i name="e_fr_energy">    -12.75937488 </i>
    <i name="e_wo_entrp">    -12.75159576 </i>
    <i name="e_0_energy">    -12.75678184 </i>
   </energy>
  </scstep>
  <scstep>
   <time name="dav">    0.16    0.16</time>
   <time name="total">    0.19    0.20</time>
   <energy>
    <i name="e_fr_energy">    -12.75972976 </i>
    <i name="e_wo_entrp">    -12.75194317 </i>
    <i name="e_0_energy">    -12.75713423 </i>
   </energy>
  </scstep>
  <scstep>
   <time name="dav">    0.15    0.15</time>
   <time name="total">    0.19    0.19</time>
   <energy>
    <i name="e_fr_energy">    -12.67327118 </i>
    <i name="e_wo_entrp">    -12.68142341 </i>
    <i name="e_0_energy">    -12.67598859 </i>
   </energy>
  </scstep>
  <scstep>
   <time name="dav">    0.15    0.15</time>
   <time name="total">    0.20    0.20</time>
   <energy>
    <i name="e_fr_energy">    -11.18838974 </i>
    <i name="e_wo_entrp">    -11.18032086 </i>
    <i name="e_0_energy">    -11.18570011 </i>
   </energy>
  </scstep>
  <scstep>
   <time name="dav">    0.16    0.16</time>
   <time name="total">    0.22    0.22</time>
   <energy>
    <i name="e_fr_energy">    -11.21682929 </i>
    <i name="e_wo_entrp">    -11.20578911 </i>
    <i name="e_0_energy">    -11.21314923 </i>
   </energy>
  </scstep>
  <scstep>
   <time name="dav">    0.16    0.16</time>
   <time name="total">    0.21    0.21</time>
   <energy>
    <i name="e_fr_energy">    -11.23726178 </i>
    <i name="e_wo_entrp">    -11.23068898 </i>
    <i name="e_0_energy">    -11.23507084 </i>
   </energy>
  </scstep>
  <scstep>
   <time name="dav">    0.16    0.16</time>
   <time name="total">    0.20    0.20</time>
   <energy>
    <i name="e_fr_energy">    -11.23973528 </i>
    <i name="e_wo_entrp">    -11.23692037 </i>
    <i name="e_0_energy">    -11.23879697 </i>
   </energy>
  </scstep>
  <scstep>
   <time name="dav">    0.16    0.16</time>
   <time name="total">    0.21    0.21</time>
   <energy>
    <i name="e_fr_energy">    -11.23588225 </i>
    <i name="e_wo_entrp">    -11.23039122 </i>
    <i name="e_0_energy">    -11.23405191 </i>
   </energy>
  </scstep>
  <scstep>
   <time name="dav">    0.16    0.16</time>
   <time name="total">    0.20    0.20</time>
   <energy>
    <i name="e_fr_energy">    -11.23535315 </i>
    <i name="e_wo_entrp">    -11.23006529 </i>
    <i name="e_0_energy">    -11.23359053 </i>
   </energy>
  </scstep>
  <scstep>
   <time name="dav">    0.15    0.15</time>
   <time name="total">    0.20    0.20</time>
   <energy>
    <i name="e_fr_energy">    -11.23563859 </i>
    <i name="e_wo_entrp">    -11.23067940 </i>
    <i name="e_0_energy">    -11.23398552 </i>
   </energy>
  </scstep>
  <scstep>
   <time name="dav">    0.16    0.16</time>
   <time name="total">    0.20    0.20</time>
   <energy>
    <i name="e_fr_energy">    -11.23576583 </i>
    <i name="e_wo_entrp">    -11.23100425 </i>
    <i name="e_0_energy">    -11.23417863 </i>
   </energy>
  </scstep>
  <scstep>
   <time name="dav">    0.16    0.16</time>
   <time name="total">    0.20    0.21</time>
   <energy>
    <i name="e_fr_energy">    -11.23577302 </i>
    <i name="e_wo_entrp">    -11.23107356 </i>
    <i name="e_0_energy">    -11.23420653 </i>
   </energy>
  </scstep>
  <scstep>
   <time name="dav">    0.15    0.15</time>
   <time name="total">    0.19    0.19</time>
   <energy>
    <i name="e_fr_energy">    -11.23578298 </i>
    <i name="e_wo_entrp">    -11.23120328 </i>
    <i name="e_0_energy">    -11.23425642 </i>
   </energy>
  </scstep>
  <scstep>
   <time name="dav">    0.13    0.14</time>
   <time name="total">    0.15    0.15</time>
   <energy>
    <i name="alphaZ">     39.63868225 </i>
    <i name="ewald">  -1054.56880693 </i>
    <i name="hartreedc">   -566.53603525 </i>
    <i name="XCdc">     31.45215102 </i>
    <i name="pawpsdc">   1612.52892821 </i>
    <i name="pawaedc">  -1718.44357467 </i>
    <i name="eentropy">     -0.00454379 </i>
    <i name="bandstr">     17.97418543 </i>
    <i name="atom">   1626.72322989 </i>
    <i name="e_fr_energy">    -11.23578383 </i>
    <i name="e_wo_entrp">    -11.23124004 </i>
    <i name="e_0_energy">    -11.23426924 </i>
   </energy>
  </scstep>
  <structure>
   <crystal>
    <varray name="basis" >
     <v>       2.47000000       0.00000000       0.00000000 </v>
     <v>      -1.23500000       2.13908275       0.00000000 </v>
     <v>       0.00000000       0.00000000       8.09000000 </v>
    </varray>
    <i name="volume">     42.74379318 </i>
    <varray name="rec_basis" >
     <v>       0.40485830       0.23374505       0.00000000 </v>
     <v>       0.00000000       0.46749010       0.00000000 </v>
     <v>       0.00000000       0.00000000       0.12360939 </v>
    </varray>
   </crystal>
   <varray name="positions" >
    <v>       0.00000000       0.00000000       0.00000000 </v>
    <v>       0.33333333       0.66666667       0.50000000 </v>
   </varray>
  </structure>
  <varray name="forces" >
   <v>      -0.00000000      -0.00000000       0.00000000 </v>
   <v>       0.00000000       0.00000000       0.00000000 </v>
  </varray>
  <varray name="stress" >
   <v>    -108.98295665       0.00000000      -0.00000000 </v>
   <v>       0.00000000    -108.98295665       0.00000000 </v>
   <v>       0.00000000      -0.00000000     -49.73117149 </v>
  </varray>
  <energy>
   <i name="e_fr_energy">    -11.23578383 </i>
   <i name="e_wo_entrp">    -11.23124004 </i>
   <i name="e_0_energy">    -11.23426924 </i>
  </energy>
  <time name="totalsc">    3.31    3.33</time>
  <eigenvalues>
   <array>
    <dimension dim="1">band</dimension>
    <dimension dim="2">kpoint</dimension>
    <dimension dim="3">spin</dimension>
    <field>eigene</field>
    <field>occ</field>
    <set>
     <set comment="spin 1">
      <set comment="kpoint 1">
       <r>   -3.0051    1.0000 </r>
       <r>   -2.5452    1.0000 </r>
       <r>   -0.2942    1.0000 </r>
       <r>    0.7168    1.0000 </r>
       <r>    0.7168    1.0000 </r>
       <r>    0.7176    1.0000 </r>
       <r>    0.7176    1.0000 </r>
       <r>    0.7294    1.0000 </r>
       <r>    1.4224    1.0000 </r>
       <r>    1.4224    1.0000 </r>
       <r>    1.4253    1.0000 </r>
       <r>    1.4253    1.0000 </r>
       <r>    2.1353    1.0000 </r>
       <r>    6.4117   -0.0000 </r>
       <r>   10.8437    0.0000 </r>
       <r>   18.7998    0.0000 </r>
      </set>
      <set comment="kpoint 2">
       <r>   -2.0398    1.0000 </r>
       <r>   -1.6493    1.0000 </r>
       <r>   -0.0024    1.0000 </r>
       <r>    0.4782    1.0000 </r>
       <r>    0.4875    1.0000 </r>
       <r>    0.5218    1.0000 </r>
       <r>    0.8015    1.0000 </r>
       <r>    0.9941    1.0000 </r>
       <r>    1.1264    1.0000 </r>
       <r>    1.1273    1.0000 </r>
       <r>    1.3419    1.0000 </r>
       <r>    1.3481    1.0000 </r>
       <r>    3.7268   -0.0000 </r>
       <r>    7.8465   -0.0000 </r>
       <r>   11.4694    0.0000 </r>
       <r>   19.9422    0.0000 </r>
      </set>
      <set comment="kpoint 3">
       <r>   -0.9050    1.0000 </r>
       <r>   -0.8561    1.0000 </r>
       <r>   -0.2009    1.0000 </r>
       <r>   -0.0410    1.0000 </r>
       <r>    0.6190    1.0000 </r>
       <r>    0.7839    1.0000 </r>
       <r>    1.1839    1.0000 </r>
       <r>    1.1947    1.0000 </r>
       <r>    1.7698    1.0000 </r>
       <r>    2.0246    1.0000 </r>
       <r>    2.0251    1.0000 </r>
       <r>    2.7019    1.0236 </r>
       <r>    6.6988   -0.0000 </r>
       <r>   11.0722    0.0000 </r>
       <r>   13.0111    0.0000 </r>
       <r>   14.2158    0.0000 </r>
      </set>
      <set comment="kpoint 4">
       <r>   -1.0445    1.0000 </r>
       <r>   -1.0416    1.0000 </r>
       <r>   -0.4432    1.0000 </r>
       <r>   -0.3765    1.0000 </r>
       <r>    0.9347    1.0000 </r>
       <r>    1.0294    1.0000 </r>
       <r>    1.1062    1.0000 </r>
       <r>    1.1188    1.0000 </r>
       <r>    2.5234    1.0013 </r>
       <r>    2.5234    1.0013 </r>
       <r>    5.2371   -0.0000 </r>
       <r>    5.5907   -0.0000 </r>
       <r>    9.2186    0.0000 </r>
       <r>   10.0374    0.0000 </r>
       <r>   10.4405    0.0000 </r>
       <r>   11.5766    0.0000 </r>
      </set>
      <set comment="kpoint 5">
       <r>   -0.5303    1.0000 </r>
       <r>   -0.3941    1.0000 </r>
       <r>    0.0141    1.0000 </r>
       <r>    0.1053    1.0000 </r>
       <r>    0.1093    1.0000 </r>
       <r>    0.2228    1.0000 </r>
       <r>    0.5143    1.0000 </r>
       <r>    1.1277    1.0000 </r>
       <r>    1.1355    1.0000 </r>
       <r>    1.2199    1.0000 </r>
       <r>    2.1865    1.0000 </r>
       <r>    2.5762    1.0037 </r>
       <r>    5.8017   -0.0000 </r>
       <r>   10.1490    0.0000 </r>
       <r>   12.7758    0.0000 </r>
       <r>   18.2678    0.0000 </r>
      </set>
      <set comment="kpoint 6">
       <r>   -0.4745    1.0000 </r>
       <r>   -0.4681    1.0000 </r>
       <r>   -0.2420    1.0000 </r>
       <r>   -0.1536    1.0000 </r>
       <r>    0.8262    1.0000 </r>
       <r>    0.8385    1.0000 </r>
       <r>    0.8521    1.0000 </r>
       <r>    0.8758    1.0000 </r>
       <r>    1.3597    1.0000 </r>
       <r>    1.5219    1.0000 </r>
       <r>    5.1580   -0.0000 </r>
       <r>    5.9777   -0.0000 </r>
       <r>    9.4002    0.0000 </r>
       <r>   11.3242    0.0000 </r>
       <r>   12.3488    0.0000 </r>
       <r>   13.4040    0.0000 </r>
      </set>
      <set comment="kpoint 7">
       <r>    0.1737    1.0000 </r>
       <r>    0.2104    1.0000 </r>
       <r>    0.2104    1.0000 </r>
       <r>    0.2493    1.0000 </r>
       <r>    0.4436    1.0000 </r>
       <r>    0.4589    1.0000 </r>
       <r>    0.4589    1.0000 </r>
       <r>    0.4800    1.0000 </r>
       <r>    0.9637    1.0000 </r>
       <r>    0.9637    1.0000 </r>
       <r>    9.6825    0.0000 </r>
       <r>    9.9376    0.0000 </r>
       <r>    9.9376    0.0000 </r>
       <r>   10.5889    0.0000 </r>
       <r>   12.0414    0.0000 </r>
       <r>   12.0414    0.0000 </r>
      </set>
      <set comment="kpoint 8">
       <r>   -2.9404    1.0000 </r>
       <r>   -2.6145    1.0000 </r>
       <r>   -0.2288    1.0000 </r>
       <r>    0.3876    1.0000 </r>
       <r>    0.7169    1.0000 </r>
       <r>    0.7169    1.0000 </r>
       <r>    0.7176    1.0000 </r>
       <r>    0.7176    1.0000 </r>
       <r>    1.4229    1.0000 </r>
       <r>    1.4229    1.0000 </r>
       <r>    1.4249    1.0000 </r>
       <r>    1.4249    1.0000 </r>
       <r>    2.8059    1.0308 </r>
       <r>    5.5792   -0.0000 </r>
       <r>   11.9447    0.0000 </r>
       <r>   16.8515    0.0000 </r>
      </set>
      <set comment="kpoint 9">
       <r>   -1.9820    1.0000 </r>
       <r>   -1.7047    1.0000 </r>
       <r>    0.0484    1.0000 </r>
       <r>    0.4144    1.0000 </r>
       <r>    0.4872    1.0000 </r>
       <r>    0.4891    1.0000 </r>
       <r>    0.8083    1.0000 </r>
       <r>    0.9105    1.0000 </r>
       <r>    1.1266    1.0000 </r>
       <r>    1.1272    1.0000 </r>
       <r>    1.3428    1.0000 </r>
       <r>    1.3472    1.0000 </r>
       <r>    4.2285   -0.0000 </r>
       <r>    6.9127   -0.0000 </r>
       <r>   12.6896    0.0000 </r>
       <r>   17.7617    0.0000 </r>
      </set>
      <set comment="kpoint 10">
       <r>   -0.8978    1.0000 </r>
       <r>   -0.8633    1.0000 </r>
       <r>   -0.1835    1.0000 </r>
       <r>   -0.0734    1.0000 </r>
       <r>    0.6591    1.0000 </r>
       <r>    0.7714    1.0000 </r>
       <r>    1.1855    1.0000 </r>
       <r>    1.1931    1.0000 </r>
       <r>    1.8634    1.0000 </r>
       <r>    2.0247    1.0000 </r>
       <r>    2.0250    1.0000 </r>
       <r>    2.5065    1.0009 </r>
       <r>    7.1677   -0.0000 </r>
       <r>    9.9000    0.0000 </r>
       <r>   13.9194    0.0000 </r>
       <r>   14.3960    0.0000 </r>
      </set>
      <set comment="kpoint 11">
       <r>   -1.0443    1.0000 </r>
       <r>   -1.0421    1.0000 </r>
       <r>   -0.4348    1.0000 </r>
       <r>   -0.3877    1.0000 </r>
       <r>    0.9516    1.0000 </r>
       <r>    1.0187    1.0000 </r>
       <r>    1.1080    1.0000 </r>
       <r>    1.1169    1.0000 </r>
       <r>    2.5234    1.0013 </r>
       <r>    2.5234    1.0013 </r>
       <r>    5.2796   -0.0000 </r>
       <r>    5.5293   -0.0000 </r>
       <r>    9.2210    0.0000 </r>
       <r>    9.6282    0.0000 </r>
       <r>   11.0723    0.0000 </r>
       <r>   11.7719    0.0000 </r>
      </set>
      <set comment="kpoint 12">
       <r>   -0.5087    1.0000 </r>
       <r>   -0.4126    1.0000 </r>
       <r>    0.0321    1.0000 </r>
       <r>    0.1059    1.0000 </r>
       <r>    0.1089    1.0000 </r>
       <r>    0.1639    1.0000 </r>
       <r>    0.6384    1.0000 </r>
       <r>    1.1222    1.0000 </r>
       <r>    1.1322    1.0000 </r>
       <r>    1.1344    1.0000 </r>
       <r>    2.2107    1.0000 </r>
       <r>    2.4609    1.0003 </r>
       <r>    6.2841   -0.0000 </r>
       <r>    9.0367    0.0000 </r>
       <r>   14.1635    0.0000 </r>
       <r>   18.3458    0.0000 </r>
      </set>
      <set comment="kpoint 13">
       <r>   -0.4739    1.0000 </r>
       <r>   -0.4695    1.0000 </r>
       <r>   -0.2305    1.0000 </r>
       <r>   -0.1684    1.0000 </r>
       <r>    0.8276    1.0000 </r>
       <r>    0.8442    1.0000 </r>
       <r>    0.8521    1.0000 </r>
       <r>    0.8754    1.0000 </r>
       <r>    1.3829    1.0000 </r>
       <r>    1.4982    1.0000 </r>
       <r>    5.2414   -0.0000 </r>
       <r>    5.8021   -0.0000 </r>
       <r>    9.8327    0.0000 </r>
       <r>   11.3643    0.0000 </r>
       <r>   12.1044    0.0000 </r>
       <r>   12.6655    0.0000 </r>
      </set>
      <set comment="kpoint 14">
       <r>    0.1836    1.0000 </r>
       <r>    0.2090    1.0000 </r>
       <r>    0.2090    1.0000 </r>
       <r>    0.2367    1.0000 </r>
       <r>    0.4506    1.0000 </r>
       <r>    0.4601    1.0000 </r>
       <r>    0.4601    1.0000 </r>
       <r>    0.4759    1.0000 </r>
       <r>    0.9644    1.0000 </r>
       <r>    0.9644    1.0000 </r>
       <r>    9.7869    0.0000 </r>
       <r>    9.9628    0.0000 </r>
       <r>    9.9628    0.0000 </r>
       <r>   10.4156    0.0000 </r>
       <r>   11.7924    0.0000 </r>
       <r>   11.7924    0.0000 </r>
      </set>
      <set comment="kpoint 15">
       <r>   -2.7798    1.0000 </r>
       <r>   -2.7798    1.0000 </r>
       <r>   -0.0117    1.0000 </r>
       <r>   -0.0117    1.0000 </r>
       <r>    0.7172    1.0000 </r>
       <r>    0.7172    1.0000 </r>
       <r>    0.7172    1.0000 </r>
       <r>    0.7172    1.0000 </r>
       <r>    1.4240    1.0000 </r>
       <r>    1.4240    1.0000 </r>
       <r>    1.4240    1.0000 </r>
       <r>    1.4240    1.0000 </r>
       <r>    4.1191   -0.0000 </r>
       <r>    4.1191   -0.0000 </r>
       <r>   14.2108    0.0000 </r>
       <r>   14.2108    0.0000 </r>
      </set>
      <set comment="kpoint 16">
       <r>   -1.8422    1.0000 </r>
       <r>   -1.8422    1.0000 </r>
       <r>    0.2040    1.0000 </r>
       <r>    0.2040    1.0000 </r>
       <r>    0.4869    1.0000 </r>
       <r>    0.4869    1.0000 </r>
       <r>    0.8352    1.0000 </r>
       <r>    0.8352    1.0000 </r>
       <r>    1.1268    1.0000 </r>
       <r>    1.1268    1.0000 </r>
       <r>    1.3450    1.0000 </r>
       <r>    1.3450    1.0000 </r>
       <r>    5.4300   -0.0000 </r>
       <r>    5.4300   -0.0000 </r>
       <r>   15.0467    0.0000 </r>
       <r>   15.0467    0.0000 </r>
      </set>
      <set comment="kpoint 17">
       <r>   -0.8806    1.0000 </r>
       <r>   -0.8806    1.0000 </r>
       <r>   -0.1353    1.0000 </r>
       <r>   -0.1353    1.0000 </r>
       <r>    0.7283    1.0000 </r>
       <r>    0.7283    1.0000 </r>
       <r>    1.1893    1.0000 </r>
       <r>    1.1893    1.0000 </r>
       <r>    2.0248    1.0000 </r>
       <r>    2.0248    1.0000 </r>
       <r>    2.1384    1.0000 </r>
       <r>    2.1384    1.0000 </r>
       <r>    8.3468   -0.0000 </r>
       <r>    8.3468   -0.0000 </r>
       <r>   14.3840    0.0000 </r>
       <r>   14.3840    0.0000 </r>
      </set>
      <set comment="kpoint 18">
       <r>   -1.0434    1.0000 </r>
       <r>   -1.0434    1.0000 </r>
       <r>   -0.4125    1.0000 </r>
       <r>   -0.4125    1.0000 </r>
       <r>    0.9882    1.0000 </r>
       <r>    0.9882    1.0000 </r>
       <r>    1.1125    1.0000 </r>
       <r>    1.1125    1.0000 </r>
       <r>    2.5234    1.0013 </r>
       <r>    2.5234    1.0013 </r>
       <r>    5.3950   -0.0000 </r>
       <r>    5.3950   -0.0000 </r>
       <r>    9.3209    0.0000 </r>
       <r>    9.3209    0.0000 </r>
       <r>   11.7837    0.0000 </r>
       <r>   11.7837    0.0000 </r>
      </set>
      <set comment="kpoint 19">
       <r>   -0.4591    1.0000 </r>
       <r>   -0.4591    1.0000 </r>
       <r>    0.0838    1.0000 </r>
       <r>    0.0838    1.0000 </r>
       <r>    0.1079    1.0000 </r>
       <r>    0.1079    1.0000 </r>
       <r>    0.8887    1.0000 </r>
       <r>    0.8887    1.0000 </r>
       <r>    1.1317    1.0000 </r>
       <r>    1.1317    1.0000 </r>
       <r>    2.2969    1.0000 </r>
       <r>    2.2969    1.0000 </r>
       <r>    7.4813   -0.0000 </r>
       <r>    7.4813   -0.0000 </r>
       <r>   16.5240    0.0000 </r>
       <r>   16.5240    0.0000 </r>
      </set>
      <set comment="kpoint 20">
       <r>   -0.4721    1.0000 </r>
       <r>   -0.4721    1.0000 </r>
       <r>   -0.2011    1.0000 </r>
       <r>   -0.2011    1.0000 </r>
       <r>    0.8353    1.0000 </r>
       <r>    0.8353    1.0000 </r>
       <r>    0.8676    1.0000 </r>
       <r>    0.8676    1.0000 </r>
       <r>    1.4404    1.0000 </r>
       <r>    1.4404    1.0000 </r>
       <r>    5.4804   -0.0000 </r>
       <r>    5.4804   -0.0000 </r>
       <r>   10.8335    0.0000 </r>
       <r>   10.8335    0.0000 </r>
       <r>   11.9626    0.0000 </r>
       <r>   11.9626    0.0000 </r>
      </set>
      <set comment="kpoint 21">
       <r>    0.2075    1.0000 </r>
       <r>    0.2075    1.0000 </r>
       <r>    0.2087    1.0000 </r>
       <r>    0.2087    1.0000 </r>
       <r>    0.4613    1.0000 </r>
       <r>    0.4613    1.0000 </r>
       <r>    0.4646    1.0000 </r>
       <r>    0.4646    1.0000 </r>
       <r>    0.9652    1.0000 </r>
       <r>    0.9652    1.0000 </r>
       <r>    9.9904    0.0000 </r>
       <r>    9.9904    0.0000 </r>
       <r>   10.0694    0.0000 </r>
       <r>   10.0694    0.0000 </r>
       <r>   11.6073    0.0000 </r>
       <r>   11.6073    0.0000 </r>
      </set>
     </set>
     <set comment="spin 2">
      <set comment="kpoint 1">
       <r>   -2.7746    1.0000 </r>
       <r>   -2.1309    1.0000 </r>
       <r>    1.4934    1.0000 </r>
       <r>    2.1810    1.0000 </r>
       <r>    2.5673    1.0031 </r>
       <r>    2.5673    1.0032 </r>
       <r>    2.5685    1.0032 </r>
       <r>    2.5685    1.0032 </r>
       <r>    2.7026    1.0238 </r>
       <r>    3.8468   -0.0000 </r>
       <r>    3.8468   -0.0000 </r>
       <r>    3.8507   -0.0000 </r>
       <r>    3.8507   -0.0000 </r>
       <r>    6.7004   -0.0000 </r>
       <r>   11.1973    0.0000 </r>
       <r>   18.7852    0.0000 </r>
      </set>
      <set comment="kpoint 2">
       <r>   -1.7808    1.0000 </r>
       <r>   -1.1430    1.0000 </r>
       <r>    1.8476    1.0000 </r>
       <r>    1.9865    1.0000 </r>
       <r>    2.2488    1.0000 </r>
       <r>    2.2654    1.0000 </r>
       <r>    2.9139    0.8851 </r>
       <r>    2.9465    0.7871 </r>
       <r>    3.0245    0.4788 </r>
       <r>    3.0258    0.4733 </r>
       <r>    3.7506   -0.0000 </r>
       <r>    3.7593   -0.0000 </r>
       <r>    4.6731   -0.0000 </r>
       <r>    8.3929   -0.0000 </r>
       <r>   11.7374    0.0000 </r>
       <r>   19.9757    0.0000 </r>
      </set>
      <set comment="kpoint 3">
       <r>    0.1790    1.0000 </r>
       <r>    0.4043    1.0000 </r>
       <r>    1.6248    1.0000 </r>
       <r>    1.9689    1.0000 </r>
       <r>    2.3890    1.0000 </r>
       <r>    2.7636    1.0350 </r>
       <r>    2.8435    1.0077 </r>
       <r>    3.5374   -0.0008 </r>
       <r>    3.5627   -0.0004 </r>
       <r>    3.5780   -0.0003 </r>
       <r>    4.0423   -0.0000 </r>
       <r>    4.0431   -0.0000 </r>
       <r>    7.1692   -0.0000 </r>
       <r>   11.6869    0.0000 </r>
       <r>   13.1938    0.0000 </r>
       <r>   14.7125    0.0000 </r>
      </set>
      <set comment="kpoint 4">
       <r>    0.3510    1.0000 </r>
       <r>    0.3655    1.0000 </r>
       <r>    1.4829    1.0000 </r>
       <r>    1.5964    1.0000 </r>
       <r>    3.1875    0.0004 </r>
       <r>    3.3286   -0.0256 </r>
       <r>    3.4704   -0.0032 </r>
       <r>    3.4885   -0.0022 </r>
       <r>    4.6193   -0.0000 </r>
       <r>    4.6193   -0.0000 </r>
       <r>    5.2665   -0.0000 </r>
       <r>    5.6448   -0.0000 </r>
       <r>   10.0951    0.0000 </r>
       <r>   10.7392    0.0000 </r>
       <r>   10.9646    0.0000 </r>
       <r>   11.8497    0.0000 </r>
      </set>
      <set comment="kpoint 5">
       <r>   -0.0339    1.0000 </r>
       <r>    0.4929    1.0000 </r>
       <r>    1.7636    1.0000 </r>
       <r>    1.7699    1.0000 </r>
       <r>    1.7762    1.0000 </r>
       <r>    2.2662    1.0000 </r>
       <r>    2.4428    1.0002 </r>
       <r>    3.2278   -0.0289 </r>
       <r>    3.4867   -0.0023 </r>
       <r>    3.4985   -0.0018 </r>
       <r>    4.0062   -0.0000 </r>
       <r>    4.1407   -0.0000 </r>
       <r>    6.3890   -0.0000 </r>
       <r>   10.7846    0.0000 </r>
       <r>   12.9130    0.0000 </r>
       <r>   18.5969    0.0000 </r>
      </set>
      <set comment="kpoint 6">
       <r>    0.9479    1.0000 </r>
       <r>    0.9829    1.0000 </r>
       <r>    1.7017    1.0000 </r>
       <r>    1.8688    1.0000 </r>
       <r>    2.6587    1.0143 </r>
       <r>    2.7295    1.0298 </r>
       <r>    3.1235    0.1191 </r>
       <r>    3.1286    0.1058 </r>
       <r>    3.1427    0.0729 </r>
       <r>    3.4529   -0.0045 </r>
       <r>    6.1088   -0.0000 </r>
       <r>    6.7841   -0.0000 </r>
       <r>    9.7598    0.0000 </r>
       <r>   11.9472    0.0000 </r>
       <r>   12.9937    0.0000 </r>
       <r>   13.9726    0.0000 </r>
      </set>
      <set comment="kpoint 7">
       <r>    1.9088    1.0000 </r>
       <r>    1.9397    1.0000 </r>
       <r>    1.9397    1.0000 </r>
       <r>    1.9775    1.0000 </r>
       <r>    2.2661    1.0000 </r>
       <r>    2.3279    1.0000 </r>
       <r>    2.3279    1.0000 </r>
       <r>    2.3945    1.0000 </r>
       <r>    3.3200   -0.0275 </r>
       <r>    3.3200   -0.0275 </r>
       <r>   10.2105    0.0000 </r>
       <r>   10.5086    0.0000 </r>
       <r>   10.5086    0.0000 </r>
       <r>   11.2053    0.0000 </r>
       <r>   12.7987    0.0000 </r>
       <r>   12.7987    0.0000 </r>
      </set>
      <set comment="kpoint 8">
       <r>   -2.6936    1.0000 </r>
       <r>   -2.2414    1.0000 </r>
       <r>    1.5233    1.0000 </r>
       <r>    1.8694    1.0000 </r>
       <r>    2.5675    1.0032 </r>
       <r>    2.5675    1.0032 </r>
       <r>    2.5684    1.0032 </r>
       <r>    2.5684    1.0032 </r>
       <r>    3.3761   -0.0151 </r>
       <r>    3.8474   -0.0000 </r>
       <r>    3.8474   -0.0000 </r>
       <r>    3.8502   -0.0000 </r>
       <r>    3.8502   -0.0000 </r>
       <r>    5.9319   -0.0000 </r>
       <r>   12.2454    0.0000 </r>
       <r>   16.9876    0.0000 </r>
      </set>
      <set comment="kpoint 9">
       <r>   -1.7007    1.0000 </r>
       <r>   -1.2528    1.0000 </r>
       <r>    1.8569    1.0000 </r>
       <r>    1.9466    1.0000 </r>
       <r>    2.2537    1.0000 </r>
       <r>    2.2642    1.0000 </r>
       <r>    2.9277    0.8466 </r>
       <r>    2.9468    0.7861 </r>
       <r>    3.0247    0.4779 </r>
       <r>    3.0256    0.4741 </r>
       <r>    3.7518   -0.0000 </r>
       <r>    3.7581   -0.0000 </r>
       <r>    5.0648   -0.0000 </r>
       <r>    7.4826   -0.0000 </r>
       <r>   12.9555    0.0000 </r>
       <r>   17.9371    0.0000 </r>
      </set>
      <set comment="kpoint 10">
       <r>    0.2110    1.0000 </r>
       <r>    0.3702    1.0000 </r>
       <r>    1.6579    1.0000 </r>
       <r>    1.8793    1.0000 </r>
       <r>    2.5409    1.0018 </r>
       <r>    2.7654    1.0352 </r>
       <r>    2.8510    1.0001 </r>
       <r>    3.3436   -0.0221 </r>
       <r>    3.5648   -0.0004 </r>
       <r>    3.5757   -0.0003 </r>
       <r>    4.0424   -0.0000 </r>
       <r>    4.0430   -0.0000 </r>
       <r>    7.6363   -0.0000 </r>
       <r>   10.3840    0.0000 </r>
       <r>   14.3853    0.0000 </r>
       <r>   14.8741    0.0000 </r>
      </set>
      <set comment="kpoint 11">
       <r>    0.3529    1.0000 </r>
       <r>    0.3631    1.0000 </r>
       <r>    1.4972    1.0000 </r>
       <r>    1.5771    1.0000 </r>
       <r>    3.2172   -0.0239 </r>
       <r>    3.3194   -0.0277 </r>
       <r>    3.4730   -0.0031 </r>
       <r>    3.4859   -0.0024 </r>
       <r>    4.6193   -0.0000 </r>
       <r>    4.6193   -0.0000 </r>
       <r>    5.3009   -0.0000 </r>
       <r>    5.5698   -0.0000 </r>
       <r>   10.0862    0.0000 </r>
       <r>   10.3730    0.0000 </r>
       <r>   11.5521    0.0000 </r>
       <r>   12.0528    0.0000 </r>
      </set>
      <set comment="kpoint 12">
       <r>    0.0329    1.0000 </r>
       <r>    0.4022    1.0000 </r>
       <r>    1.7645    1.0000 </r>
       <r>    1.7686    1.0000 </r>
       <r>    1.8341    1.0000 </r>
       <r>    2.1363    1.0000 </r>
       <r>    2.6024    1.0060 </r>
       <r>    3.1097    0.1578 </r>
       <r>    3.4886   -0.0022 </r>
       <r>    3.4968   -0.0019 </r>
       <r>    4.0121   -0.0000 </r>
       <r>    4.0908   -0.0000 </r>
       <r>    6.8606   -0.0000 </r>
       <r>    9.5846    0.0000 </r>
       <r>   14.3995    0.0000 </r>
       <r>   18.6997    0.0000 </r>
      </set>
      <set comment="kpoint 13">
       <r>    0.9526    1.0000 </r>
       <r>    0.9773    1.0000 </r>
       <r>    1.7217    1.0000 </r>
       <r>    1.8381    1.0000 </r>
       <r>    2.6794    1.0185 </r>
       <r>    2.7264    1.0292 </r>
       <r>    3.1191    0.1308 </r>
       <r>    3.1375    0.0845 </r>
       <r>    3.1807    0.0084 </r>
       <r>    3.4064   -0.0098 </r>
       <r>    6.1687   -0.0000 </r>
       <r>    6.6237   -0.0000 </r>
       <r>   10.2026    0.0000 </r>
       <r>   11.9531    0.0000 </r>
       <r>   12.6913    0.0000 </r>
       <r>   13.2190    0.0000 </r>
      </set>
      <set comment="kpoint 14">
       <r>    1.9166    1.0000 </r>
       <r>    1.9407    1.0000 </r>
       <r>    1.9407    1.0000 </r>
       <r>    1.9643    1.0000 </r>
       <r>    2.2880    1.0000 </r>
       <r>    2.3253    1.0000 </r>
       <r>    2.3253    1.0000 </r>
       <r>    2.3780    1.0000 </r>
       <r>    3.3226   -0.0270 </r>
       <r>    3.3226   -0.0270 </r>
       <r>   10.3216    0.0000 </r>
       <r>   10.5263    0.0000 </r>
       <r>   10.5263    0.0000 </r>
       <r>   11.0070    0.0000 </r>
       <r>   12.4925    0.0000 </r>
       <r>   12.4925    0.0000 </r>
      </set>
      <set comment="kpoint 15">
       <r>   -2.4819    1.0000 </r>
       <r>   -2.4819    1.0000 </r>
       <r>    1.6303    1.0000 </r>
       <r>    1.6303    1.0000 </r>
       <r>    2.5679    1.0032 </r>
       <r>    2.5679    1.0032 </r>
       <r>    2.5679    1.0032 </r>
       <r>    2.5679    1.0032 </r>
       <r>    3.8489   -0.0000 </r>
       <r>    3.8489   -0.0000 </r>
       <r>    3.8489   -0.0000 </r>
       <r>    3.8489   -0.0000 </r>
       <r>    4.5786   -0.0000 </r>
       <r>    4.5786   -0.0000 </r>
       <r>   14.4364    0.0000 </r>
       <r>   14.4364    0.0000 </r>
      </set>
      <set comment="kpoint 16">
       <r>   -1.4913    1.0000 </r>
       <r>   -1.4913    1.0000 </r>
       <r>    1.8888    1.0000 </r>
       <r>    1.8888    1.0000 </r>
       <r>    2.2602    1.0000 </r>
       <r>    2.2602    1.0000 </r>
       <r>    2.9428    0.7996 </r>
       <r>    2.9428    0.7996 </r>
       <r>    3.0251    0.4761 </r>
       <r>    3.0251    0.4761 </r>
       <r>    3.7549   -0.0000 </r>
       <r>    3.7549   -0.0000 </r>
       <r>    6.1025   -0.0000 </r>
       <r>    6.1025   -0.0000 </r>
       <r>   15.2787    0.0000 </r>
       <r>   15.2787    0.0000 </r>
      </set>
      <set comment="kpoint 17">
       <r>    0.2896    1.0000 </r>
       <r>    0.2896    1.0000 </r>
       <r>    1.7493    1.0000 </r>
       <r>    1.7493    1.0000 </r>
       <r>    2.7410    1.0320 </r>
       <r>    2.7410    1.0320 </r>
       <r>    2.9888    0.6281 </r>
       <r>    2.9888    0.6281 </r>
       <r>    3.5703   -0.0003 </r>
       <r>    3.5703   -0.0003 </r>
       <r>    4.0427   -0.0000 </r>
       <r>    4.0427   -0.0000 </r>
       <r>    8.8107    0.0000 </r>
       <r>    8.8107    0.0000 </r>
       <r>   14.9400    0.0000 </r>
       <r>   14.9400    0.0000 </r>
      </set>
      <set comment="kpoint 18">
       <r>    0.3577    1.0000 </r>
       <r>    0.3577    1.0000 </r>
       <r>    1.5346    1.0000 </r>
       <r>    1.5346    1.0000 </r>
       <r>    3.2784   -0.0348 </r>
       <r>    3.2784   -0.0348 </r>
       <r>    3.4794   -0.0027 </r>
       <r>    3.4794   -0.0027 </r>
       <r>    4.6193   -0.0000 </r>
       <r>    4.6193   -0.0000 </r>
       <r>    5.4153   -0.0000 </r>
       <r>    5.4153   -0.0000 </r>
       <r>   10.1445    0.0000 </r>
       <r>   10.1445    0.0000 </r>
       <r>   12.1461    0.0000 </r>
       <r>   12.1461    0.0000 </r>
      </set>
      <set comment="kpoint 19">
       <r>    0.2063    1.0000 </r>
       <r>    0.2063    1.0000 </r>
       <r>    1.7667    1.0000 </r>
       <r>    1.7667    1.0000 </r>
       <r>    1.9695    1.0000 </r>
       <r>    1.9695    1.0000 </r>
       <r>    2.8563    0.9940 </r>
       <r>    2.8563    0.9940 </r>
       <r>    3.4926   -0.0021 </r>
       <r>    3.4926   -0.0021 </r>
       <r>    4.0355   -0.0000 </r>
       <r>    4.0355   -0.0000 </r>
       <r>    8.0311   -0.0000 </r>
       <r>    8.0311   -0.0000 </r>
       <r>   16.8084    0.0000 </r>
       <r>   16.8084    0.0000 </r>
      </set>
      <set comment="kpoint 20">
       <r>    0.9645    1.0000 </r>
       <r>    0.9645    1.0000 </r>
       <r>    1.7749    1.0000 </r>
       <r>    1.7749    1.0000 </r>
       <r>    2.7110    1.0257 </r>
       <r>    2.7110    1.0257 </r>
       <r>    3.1277    0.1081 </r>
       <r>    3.1277    0.1081 </r>
       <r>    3.2927   -0.0329 </r>
       <r>    3.2927   -0.0329 </r>
       <r>    6.3520   -0.0000 </r>
       <r>    6.3520   -0.0000 </r>
       <r>   11.2362    0.0000 </r>
       <r>   11.2362    0.0000 </r>
       <r>   12.5880    0.0000 </r>
       <r>   12.5880    0.0000 </r>
      </set>
      <set comment="kpoint 21">
       <r>    1.9379    1.0000 </r>
       <r>    1.9379    1.0000 </r>
       <r>    1.9417    1.0000 </r>
       <r>    1.9417    1.0000 </r>
       <r>    2.3226    1.0000 </r>
       <r>    2.3226    1.0000 </r>
       <r>    2.3353    1.0000 </r>
       <r>    2.3353    1.0000 </r>
       <r>    3.3252   -0.0264 </r>
       <r>    3.3252   -0.0264 </r>
       <r>   10.5453    0.0000 </r>
       <r>   10.5453    0.0000 </r>
       <r>   10.6250    0.0000 </r>
       <r>   10.6250    0.0000 </r>
       <r>   12.2930    0.0000 </r>
       <r>   12.2930    0.0000 </r>
      </set>
     </set>
    </set>
   </array>
  </eigenvalues>
  <separator name="orbital magnetization" >
   <v name="MAGDIPOLOUT">      0.00000000      0.00000000      0.00000000</v>
  </separator>
  <dos>
   <i name="efermi">      3.01947178 </i>
   <total>
    <array>
     <dimension dim="1">gridpoints</dimension>
     <dimension dim="2">spin</dimension>
     <field>energy</field>
     <field>total</field>
     <field>integrated</field>
     <set>
      <set comment="spin 1">
       <r>    -5.0051     0.0000     0.0000 </r>
       <r>    -4.9152     0.0000     0.0000 </r>
       <r>    -4.8253     0.0000     0.0000 </r>
       <r>    -4.7353     0.0000     0.0000 </r>
       <r>    -4.6454    -0.0000    -0.0000 </r>
       <r>    -4.5555    -0.0000    -0.0000 </r>
       <r>    -4.4655    -0.0000    -0.0000 </r>
       <r>    -4.3756    -0.0000    -0.0000 </r>
       <r>    -4.2856    -0.0000    -0.0000 </r>
       <r>    -4.1957    -0.0000    -0.0000 </r>
       <r>    -4.1058    -0.0000    -0.0000 </r>
       <r>    -4.0158    -0.0000    -0.0000 </r>
       <r>    -3.9259    -0.0000    -0.0000 </r>
       <r>    -3.8360    -0.0000    -0.0000 </r>
       <r>    -3.7460    -0.0000    -0.0000 </r>
       <r>    -3.6561    -0.0000    -0.0000 </r>
       <r>    -3.5662    -0.0000    -0.0000 </r>
       <r>    -3.4762    -0.0002    -0.0000 </r>
       <r>    -3.3863    -0.0011    -0.0001 </r>
       <r>    -3.2964    -0.0034    -0.0004 </r>
       <r>    -3.2064    -0.0033    -0.0007 </r>
       <r>    -3.1165     0.0114     0.0003 </r>
       <r>    -3.0265     0.0480     0.0046 </r>
       <r>    -2.9366     0.0860     0.0123 </r>
       <r>    -2.8467     0.0993     0.0213 </r>
       <r>    -2.7567     0.0955     0.0299 </r>
       <r>    -2.6668     0.0958     0.0385 </r>
       <r>    -2.5769     0.0942     0.0470 </r>
       <r>    -2.4869     0.0678     0.0531 </r>
       <r>    -2.3970     0.0194     0.0548 </r>
       <r>    -2.3071    -0.0228     0.0527 </r>
       <r>    -2.2171    -0.0142     0.0515 </r>
       <r>    -2.1272     0.1180     0.0621 </r>
       <r>    -2.0372     0.3760     0.0959 </r>
       <r>    -1.9473     0.6036     0.1502 </r>
       <r>    -1.8574     0.6882     0.2121 </r>
       <r>    -1.7674     0.6977     0.2748 </r>
       <r>    -1.6775     0.6514     0.3334 </r>
       <r>    -1.5876     0.4613     0.3749 </r>
       <r>    -1.4976     0.1843     0.3915 </r>
       <r>    -1.4077    -0.0093     0.3906 </r>
       <r>    -1.3178    -0.0769     0.3837 </r>
       <r>    -1.2278    -0.0298     0.3810 </r>
       <r>    -1.1379     0.2301     0.4017 </r>
       <r>    -1.0479     0.7600     0.4701 </r>
       <r>    -0.9580     1.3557     0.5920 </r>
       <r>    -0.8681     1.5526     0.7316 </r>
       <r>    -0.7781     1.0334     0.8246 </r>
       <r>    -0.6882     0.4220     0.8625 </r>
       <r>    -0.5983     1.0630     0.9581 </r>
       <r>    -0.5083     3.0680     1.2341 </r>
       <r>    -0.4184     4.4930     1.6381 </r>
       <r>    -0.3285     4.2426     2.0197 </r>
       <r>    -0.2385     3.7253     2.3547 </r>
       <r>    -0.1486     3.7072     2.6882 </r>
       <r>    -0.0587     3.5189     3.0046 </r>
       <r>     0.0313     3.4033     3.3107 </r>
       <r>     0.1212     3.6275     3.6370 </r>
       <r>     0.2112     3.3155     3.9351 </r>
       <r>     0.3011     2.3804     4.1492 </r>
       <r>     0.3910     2.0736     4.3357 </r>
       <r>     0.4810     2.5760     4.5674 </r>
       <r>     0.5709     2.7469     4.8144 </r>
       <r>     0.6608     2.9732     5.0818 </r>
       <r>     0.7508     4.8614     5.5191 </r>
       <r>     0.8407     7.4827     6.1920 </r>
       <r>     0.9306     7.9232     6.9046 </r>
       <r>     1.0206     6.3538     7.4760 </r>
       <r>     1.1105     5.4470     7.9659 </r>
       <r>     1.2005     5.3180     8.4442 </r>
       <r>     1.2904     4.8001     8.8759 </r>
       <r>     1.3803     4.2844     9.2612 </r>
       <r>     1.4703     3.7398     9.5976 </r>
       <r>     1.5602     2.4600     9.8188 </r>
       <r>     1.6501     0.9498     9.9042 </r>
       <r>     1.7401     0.1928     9.9216 </r>
       <r>     1.8300     0.2902     9.9477 </r>
       <r>     1.9199     0.8450    10.0237 </r>
       <r>     2.0099     1.5046    10.1590 </r>
       <r>     2.0998     1.8337    10.3239 </r>
       <r>     2.1898     1.6082    10.4685 </r>
       <r>     2.2797     1.1359    10.5707 </r>
       <r>     2.3696     0.9307    10.6544 </r>
       <r>     2.4596     1.2031    10.7626 </r>
       <r>     2.5495     1.4835    10.8960 </r>
       <r>     2.6394     1.2084    11.0047 </r>
       <r>     2.7294     0.6055    11.0592 </r>
       <r>     2.8193     0.1900    11.0762 </r>
       <r>     2.9092     0.0342    11.0793 </r>
       <r>     2.9992    -0.0085    11.0786 </r>
       <r>     3.0891    -0.0139    11.0773 </r>
       <r>     3.1790    -0.0077    11.0766 </r>
       <r>     3.2690    -0.0035    11.0763 </r>
       <r>     3.3589    -0.0051    11.0759 </r>
       <r>     3.4489    -0.0089    11.0750 </r>
       <r>     3.5388     0.0066    11.0756 </r>
       <r>     3.6287     0.0706    11.0820 </r>
       <r>     3.7187     0.1513    11.0956 </r>
       <r>     3.8086     0.1553    11.1096 </r>
       <r>     3.8985     0.0717    11.1160 </r>
       <r>     3.9885     0.0148    11.1173 </r>
       <r>     4.0784     0.0885    11.1253 </r>
       <r>     4.1683     0.2683    11.1494 </r>
       <r>     4.2583     0.3779    11.1834 </r>
       <r>     4.3482     0.2848    11.2090 </r>
       <r>     4.4382     0.1003    11.2181 </r>
       <r>     4.5281    -0.0041    11.2177 </r>
       <r>     4.6180    -0.0183    11.2160 </r>
       <r>     4.7080    -0.0110    11.2150 </r>
       <r>     4.7979    -0.0193    11.2133 </r>
       <r>     4.8878    -0.0473    11.2091 </r>
       <r>     4.9778    -0.0337    11.2060 </r>
       <r>     5.0677     0.1879    11.2229 </r>
       <r>     5.1576     0.6891    11.2849 </r>
       <r>     5.2476     1.1882    11.3918 </r>
       <r>     5.3375     1.4091    11.5185 </r>
       <r>     5.4274     1.4661    11.6503 </r>
       <r>     5.5174     1.3691    11.7735 </r>
       <r>     5.6073     0.9906    11.8626 </r>
       <r>     5.6973     0.6844    11.9241 </r>
       <r>     5.7872     0.7732    11.9937 </r>
       <r>     5.8771     0.9033    12.0749 </r>
       <r>     5.9671     0.7253    12.1401 </r>
       <r>     6.0570     0.3988    12.1760 </r>
       <r>     6.1469     0.2085    12.1947 </r>
       <r>     6.2369     0.2438    12.2167 </r>
       <r>     6.3268     0.3268    12.2461 </r>
       <r>     6.4167     0.2542    12.2689 </r>
       <r>     6.5067     0.1024    12.2781 </r>
       <r>     6.5966     0.0553    12.2831 </r>
       <r>     6.6866     0.1250    12.2943 </r>
       <r>     6.7765     0.2249    12.3146 </r>
       <r>     6.8664     0.3158    12.3430 </r>
       <r>     6.9564     0.3561    12.3750 </r>
       <r>     7.0463     0.3359    12.4052 </r>
       <r>     7.1362     0.3314    12.4350 </r>
       <r>     7.2262     0.3142    12.4633 </r>
       <r>     7.3161     0.2396    12.4848 </r>
       <r>     7.4060     0.2364    12.5061 </r>
       <r>     7.4960     0.3106    12.5340 </r>
       <r>     7.5859     0.2743    12.5587 </r>
       <r>     7.6759     0.1397    12.5713 </r>
       <r>     7.7658     0.0953    12.5798 </r>
       <r>     7.8557     0.1440    12.5928 </r>
       <r>     7.9457     0.1377    12.6052 </r>
       <r>     8.0356     0.0518    12.6098 </r>
       <r>     8.1255    -0.0013    12.6097 </r>
       <r>     8.2155     0.0736    12.6163 </r>
       <r>     8.3054     0.2480    12.6386 </r>
       <r>     8.3953     0.3416    12.6693 </r>
       <r>     8.4853     0.2390    12.6908 </r>
       <r>     8.5752     0.0694    12.6971 </r>
       <r>     8.6651    -0.0192    12.6954 </r>
       <r>     8.7551    -0.0346    12.6922 </r>
       <r>     8.8450    -0.0025    12.6920 </r>
       <r>     8.9350     0.1148    12.7023 </r>
       <r>     9.0249     0.2895    12.7284 </r>
       <r>     9.1148     0.4063    12.7649 </r>
       <r>     9.2048     0.4623    12.8065 </r>
       <r>     9.2947     0.5391    12.8550 </r>
       <r>     9.3846     0.5711    12.9063 </r>
       <r>     9.4746     0.4445    12.9463 </r>
       <r>     9.5645     0.2604    12.9697 </r>
       <r>     9.6544     0.2661    12.9937 </r>
       <r>     9.7444     0.6049    13.0481 </r>
       <r>     9.8343     1.1373    13.1504 </r>
       <r>     9.9243     1.4352    13.2794 </r>
       <r>    10.0142     1.2366    13.3907 </r>
       <r>    10.1041     0.7646    13.4594 </r>
       <r>    10.1941     0.3569    13.4915 </r>
       <r>    10.2840     0.1494    13.5050 </r>
       <r>    10.3739     0.1303    13.5167 </r>
       <r>    10.4639     0.1720    13.5321 </r>
       <r>    10.5538     0.1446    13.5451 </r>
       <r>    10.6437     0.1259    13.5565 </r>
       <r>    10.7337     0.3081    13.5842 </r>
       <r>    10.8236     0.6154    13.6395 </r>
       <r>    10.9136     0.7081    13.7032 </r>
       <r>    11.0035     0.5308    13.7510 </r>
       <r>    11.0934     0.3479    13.7823 </r>
       <r>    11.1834     0.3472    13.8135 </r>
       <r>    11.2733     0.6328    13.8704 </r>
       <r>    11.3632     1.0194    13.9621 </r>
       <r>    11.4532     1.0360    14.0552 </r>
       <r>    11.5431     0.6668    14.1152 </r>
       <r>    11.6330     0.3829    14.1496 </r>
       <r>    11.7230     0.4272    14.1881 </r>
       <r>    11.8129     0.6660    14.2480 </r>
       <r>    11.9028     0.9452    14.3330 </r>
       <r>    11.9928     1.1987    14.4408 </r>
       <r>    12.0827     1.2492    14.5531 </r>
       <r>    12.1727     0.9623    14.6397 </r>
       <r>    12.2626     0.5610    14.6901 </r>
       <r>    12.3525     0.3206    14.7190 </r>
       <r>    12.4425     0.2227    14.7390 </r>
       <r>    12.5324     0.3160    14.7674 </r>
       <r>    12.6223     0.7316    14.8332 </r>
       <r>    12.7123     1.0994    14.9321 </r>
       <r>    12.8022     0.9290    15.0156 </r>
       <r>    12.8921     0.4509    15.0562 </r>
       <r>    12.9821     0.1705    15.0715 </r>
       <r>    13.0720     0.1079    15.0812 </r>
       <r>    13.1620     0.0663    15.0872 </r>
       <r>    13.2519     0.0714    15.0936 </r>
       <r>    13.3418     0.2046    15.1120 </r>
       <r>    13.4318     0.3306    15.1417 </r>
       <r>    13.5217     0.2682    15.1659 </r>
       <r>    13.6116     0.0885    15.1738 </r>
       <r>    13.7016    -0.0088    15.1730 </r>
       <r>    13.7915     0.0592    15.1783 </r>
       <r>    13.8814     0.2234    15.1984 </r>
       <r>    13.9714     0.3322    15.2283 </r>
       <r>    14.0613     0.3719    15.2618 </r>
       <r>    14.1513     0.4811    15.3050 </r>
       <r>    14.2412     0.6563    15.3641 </r>
       <r>    14.3311     0.7913    15.4352 </r>
       <r>    14.4211     0.7793    15.5053 </r>
       <r>    14.5110     0.5239    15.5524 </r>
       <r>    14.6009     0.1737    15.5680 </r>
       <r>    14.6909    -0.0232    15.5660 </r>
       <r>    14.7808    -0.0526    15.5612 </r>
       <r>    14.8707     0.0102    15.5622 </r>
       <r>    14.9607     0.1624    15.5768 </r>
       <r>    15.0506     0.3201    15.6055 </r>
       <r>    15.1405     0.3115    15.6336 </r>
       <r>    15.2305     0.1499    15.6470 </r>
       <r>    15.3204     0.0170    15.6486 </r>
       <r>    15.4104    -0.0177    15.6470 </r>
       <r>    15.5003    -0.0099    15.6461 </r>
       <r>    15.5902    -0.0025    15.6459 </r>
       <r>    15.6802    -0.0004    15.6458 </r>
       <r>    15.7701    -0.0000    15.6458 </r>
       <r>    15.8600    -0.0000    15.6458 </r>
       <r>    15.9500    -0.0002    15.6458 </r>
       <r>    16.0399    -0.0013    15.6457 </r>
       <r>    16.1298    -0.0066    15.6451 </r>
       <r>    16.2198    -0.0166    15.6436 </r>
       <r>    16.3097    -0.0041    15.6432 </r>
       <r>    16.3997     0.0937    15.6517 </r>
       <r>    16.4896     0.2636    15.6754 </r>
       <r>    16.5795     0.3385    15.7058 </r>
       <r>    16.6695     0.2290    15.7264 </r>
       <r>    16.7594     0.0867    15.7342 </r>
       <r>    16.8493     0.0400    15.7378 </r>
       <r>    16.9393     0.0386    15.7413 </r>
       <r>    17.0292     0.0222    15.7433 </r>
       <r>    17.1191     0.0029    15.7435 </r>
       <r>    17.2091    -0.0033    15.7432 </r>
       <r>    17.2990    -0.0038    15.7429 </r>
       <r>    17.3890    -0.0093    15.7421 </r>
       <r>    17.4789    -0.0178    15.7405 </r>
       <r>    17.5688     0.0094    15.7413 </r>
       <r>    17.6588     0.1323    15.7532 </r>
       <r>    17.7487     0.2990    15.7801 </r>
       <r>    17.8386     0.3265    15.8095 </r>
       <r>    17.9286     0.1724    15.8250 </r>
       <r>    18.0185     0.0120    15.8260 </r>
       <r>    18.1084    -0.0080    15.8253 </r>
       <r>    18.1984     0.1457    15.8384 </r>
       <r>    18.2883     0.3861    15.8732 </r>
       <r>    18.3782     0.4841    15.9167 </r>
       <r>    18.4682     0.3267    15.9461 </r>
       <r>    18.5581     0.0983    15.9549 </r>
       <r>    18.6481    -0.0074    15.9543 </r>
       <r>    18.7380    -0.0030    15.9540 </r>
       <r>    18.8279     0.0206    15.9558 </r>
       <r>    18.9179     0.0215    15.9578 </r>
       <r>    19.0078     0.0086    15.9585 </r>
       <r>    19.0977    -0.0001    15.9585 </r>
       <r>    19.1877    -0.0014    15.9584 </r>
       <r>    19.2776    -0.0006    15.9583 </r>
       <r>    19.3675    -0.0002    15.9583 </r>
       <r>    19.4575    -0.0007    15.9583 </r>
       <r>    19.5474    -0.0033    15.9580 </r>
       <r>    19.6374    -0.0083    15.9572 </r>
       <r>    19.7273    -0.0022    15.9570 </r>
       <r>    19.8172     0.0465    15.9612 </r>
       <r>    19.9072     0.1321    15.9731 </r>
       <r>    19.9971     0.1708    15.9884 </r>
       <r>    20.0870     0.1136    15.9987 </r>
       <r>    20.1770     0.0311    16.0015 </r>
       <r>    20.2669    -0.0060    16.0009 </r>
       <r>    20.3568    -0.0073    16.0003 </r>
       <r>    20.4468    -0.0024    16.0000 </r>
       <r>    20.5367    -0.0004    16.0000 </r>
       <r>    20.6267    -0.0000    16.0000 </r>
       <r>    20.7166    -0.0000    16.0000 </r>
       <r>    20.8065    -0.0000    16.0000 </r>
       <r>    20.8965    -0.0000    16.0000 </r>
       <r>    20.9864    -0.0000    16.0000 </r>
       <r>    21.0763    -0.0000    16.0000 </r>
       <r>    21.1663    -0.0000    16.0000 </r>
       <r>    21.2562     0.0000    16.0000 </r>
       <r>    21.3461     0.0000    16.0000 </r>
       <r>    21.4361     0.0000    16.0000 </r>
       <r>    21.5260     0.0000    16.0000 </r>
       <r>    21.6159     0.0000    16.0000 </r>
       <r>    21.7059     0.0000    16.0000 </r>
       <r>    21.7958     0.0000    16.0000 </r>
       <r>    21.8858     0.0000    16.0000 </r>
       <r>    21.9757     0.0000    16.0000 </r>
      </set>
      <set comment="spin 2">
       <r>    -5.0051     0.0000     0.0000 </r>
       <r>    -4.9152     0.0000     0.0000 </r>
       <r>    -4.8253     0.0000     0.0000 </r>
       <r>    -4.7353     0.0000     0.0000 </r>
       <r>    -4.6454     0.0000     0.0000 </r>
       <r>    -4.5555     0.0000     0.0000 </r>
       <r>    -4.4655     0.0000     0.0000 </r>
       <r>    -4.3756    -0.0000    -0.0000 </r>
       <r>    -4.2856    -0.0000    -0.0000 </r>
       <r>    -4.1957    -0.0000    -0.0000 </r>
       <r>    -4.1058    -0.0000    -0.0000 </r>
       <r>    -4.0158    -0.0000    -0.0000 </r>
       <r>    -3.9259    -0.0000    -0.0000 </r>
       <r>    -3.8360    -0.0000    -0.0000 </r>
       <r>    -3.7460    -0.0000    -0.0000 </r>
       <r>    -3.6561    -0.0000    -0.0000 </r>
       <r>    -3.5662    -0.0000    -0.0000 </r>
       <r>    -3.4762    -0.0000    -0.0000 </r>
       <r>    -3.3863    -0.0000    -0.0000 </r>
       <r>    -3.2964    -0.0001    -0.0000 </r>
       <r>    -3.2064    -0.0004    -0.0000 </r>
       <r>    -3.1165    -0.0018    -0.0002 </r>
       <r>    -3.0265    -0.0036    -0.0005 </r>
       <r>    -2.9366     0.0005    -0.0005 </r>
       <r>    -2.8467     0.0229     0.0016 </r>
       <r>    -2.7567     0.0598     0.0070 </r>
       <r>    -2.6668     0.0827     0.0144 </r>
       <r>    -2.5769     0.0788     0.0215 </r>
       <r>    -2.4869     0.0667     0.0275 </r>
       <r>    -2.3970     0.0586     0.0328 </r>
       <r>    -2.3071     0.0604     0.0382 </r>
       <r>    -2.2171     0.0704     0.0445 </r>
       <r>    -2.1272     0.0606     0.0500 </r>
       <r>    -2.0372     0.0210     0.0519 </r>
       <r>    -1.9473     0.0122     0.0530 </r>
       <r>    -1.8574     0.1270     0.0644 </r>
       <r>    -1.7674     0.3474     0.0956 </r>
       <r>    -1.6775     0.4954     0.1402 </r>
       <r>    -1.5876     0.4801     0.1833 </r>
       <r>    -1.4976     0.4065     0.2199 </r>
       <r>    -1.4077     0.3563     0.2520 </r>
       <r>    -1.3178     0.3685     0.2851 </r>
       <r>    -1.2278     0.4394     0.3246 </r>
       <r>    -1.1379     0.4230     0.3627 </r>
       <r>    -1.0479     0.2540     0.3855 </r>
       <r>    -0.9580     0.0720     0.3920 </r>
       <r>    -0.8681    -0.0098     0.3911 </r>
       <r>    -0.7781    -0.0165     0.3896 </r>
       <r>    -0.6882    -0.0065     0.3890 </r>
       <r>    -0.5983    -0.0015     0.3889 </r>
       <r>    -0.5083    -0.0014     0.3888 </r>
       <r>    -0.4184    -0.0065     0.3882 </r>
       <r>    -0.3285    -0.0201     0.3864 </r>
       <r>    -0.2385    -0.0256     0.3841 </r>
       <r>    -0.1486     0.0400     0.3877 </r>
       <r>    -0.0587     0.2255     0.4080 </r>
       <r>     0.0313     0.4852     0.4516 </r>
       <r>     0.1212     0.8180     0.5252 </r>
       <r>     0.2112     1.3422     0.6459 </r>
       <r>     0.3011     1.9560     0.8218 </r>
       <r>     0.3910     2.1653     1.0165 </r>
       <r>     0.4810     1.6123     1.1615 </r>
       <r>     0.5709     0.6572     1.2206 </r>
       <r>     0.6608    -0.0361     1.2174 </r>
       <r>     0.7508    -0.0991     1.2085 </r>
       <r>     0.8407     0.7105     1.2724 </r>
       <r>     0.9306     2.1002     1.4613 </r>
       <r>     1.0206     2.7093     1.7049 </r>
       <r>     1.1105     1.7898     1.8659 </r>
       <r>     1.2005     0.4581     1.9071 </r>
       <r>     1.2904    -0.1567     1.8930 </r>
       <r>     1.3803    -0.1182     1.8824 </r>
       <r>     1.4703     0.2360     1.9036 </r>
       <r>     1.5602     0.9738     1.9912 </r>
       <r>     1.6501     2.4810     2.2143 </r>
       <r>     1.7401     4.6746     2.6347 </r>
       <r>     1.8300     6.2669     3.1983 </r>
       <r>     1.9199     5.8907     3.7281 </r>
       <r>     2.0099     3.8468     4.0741 </r>
       <r>     2.0998     1.9316     4.2478 </r>
       <r>     2.1898     1.5496     4.3872 </r>
       <r>     2.2797     2.1633     4.5817 </r>
       <r>     2.3696     2.2666     4.7856 </r>
       <r>     2.4596     1.7300     4.9412 </r>
       <r>     2.5495     1.7908     5.1022 </r>
       <r>     2.6394     2.9211     5.3649 </r>
       <r>     2.7294     4.0340     5.7277 </r>
       <r>     2.8193     4.1073     6.0971 </r>
       <r>     2.9092     3.7838     6.4374 </r>
       <r>     2.9992     4.2676     6.8212 </r>
       <r>     3.0891     5.3552     7.3029 </r>
       <r>     3.1790     5.7196     7.8173 </r>
       <r>     3.2690     4.9372     8.2613 </r>
       <r>     3.3589     4.1882     8.6380 </r>
       <r>     3.4489     4.2662     9.0216 </r>
       <r>     3.5388     4.3015     9.4085 </r>
       <r>     3.6287     3.4441     9.7183 </r>
       <r>     3.7187     2.3210     9.9270 </r>
       <r>     3.8086     1.7207    10.0818 </r>
       <r>     3.8985     1.6980    10.2345 </r>
       <r>     3.9885     2.2182    10.4340 </r>
       <r>     4.0784     2.6387    10.6713 </r>
       <r>     4.1683     2.0178    10.8528 </r>
       <r>     4.2583     0.7690    10.9219 </r>
       <r>     4.3482    -0.0182    10.9203 </r>
       <r>     4.4382    -0.0757    10.9135 </r>
       <r>     4.5281     0.3218    10.9424 </r>
       <r>     4.6180     0.7829    11.0128 </r>
       <r>     4.7080     0.8357    11.0880 </r>
       <r>     4.7979     0.4480    11.1283 </r>
       <r>     4.8878     0.1076    11.1380 </r>
       <r>     4.9778     0.1100    11.1479 </r>
       <r>     5.0677     0.2782    11.1729 </r>
       <r>     5.1576     0.3552    11.2048 </r>
       <r>     5.2476     0.3457    11.2359 </r>
       <r>     5.3375     0.3532    11.2677 </r>
       <r>     5.4274     0.3573    11.2998 </r>
       <r>     5.5174     0.3328    11.3297 </r>
       <r>     5.6073     0.2892    11.3558 </r>
       <r>     5.6973     0.1925    11.3731 </r>
       <r>     5.7872     0.0530    11.3778 </r>
       <r>     5.8771    -0.0123    11.3767 </r>
       <r>     5.9671     0.1769    11.3926 </r>
       <r>     6.0570     0.7060    11.4561 </r>
       <r>     6.1469     1.2634    11.5698 </r>
       <r>     6.2369     1.4067    11.6963 </r>
       <r>     6.3268     1.1949    11.8037 </r>
       <r>     6.4167     0.9039    11.8850 </r>
       <r>     6.5067     0.6765    11.9459 </r>
       <r>     6.5966     0.6750    12.0066 </r>
       <r>     6.6866     0.8310    12.0813 </r>
       <r>     6.7765     0.8863    12.1610 </r>
       <r>     6.8664     0.7441    12.2280 </r>
       <r>     6.9564     0.4520    12.2686 </r>
       <r>     7.0463     0.1902    12.2857 </r>
       <r>     7.1362     0.1096    12.2956 </r>
       <r>     7.2262     0.1180    12.3062 </r>
       <r>     7.3161     0.1180    12.3168 </r>
       <r>     7.4060     0.2002    12.3348 </r>
       <r>     7.4960     0.3910    12.3700 </r>
       <r>     7.5859     0.5248    12.4172 </r>
       <r>     7.6759     0.4611    12.4586 </r>
       <r>     7.7658     0.2475    12.4809 </r>
       <r>     7.8557     0.0924    12.4892 </r>
       <r>     7.9457     0.1497    12.5027 </r>
       <r>     8.0356     0.2975    12.5294 </r>
       <r>     8.1255     0.2957    12.5560 </r>
       <r>     8.2155     0.1590    12.5703 </r>
       <r>     8.3054     0.0967    12.5790 </r>
       <r>     8.3953     0.1369    12.5913 </r>
       <r>     8.4853     0.1323    12.6032 </r>
       <r>     8.5752     0.0616    12.6088 </r>
       <r>     8.6651     0.0698    12.6151 </r>
       <r>     8.7551     0.2169    12.6346 </r>
       <r>     8.8450     0.3363    12.6648 </r>
       <r>     8.9350     0.2642    12.6886 </r>
       <r>     9.0249     0.0938    12.6970 </r>
       <r>     9.1148    -0.0058    12.6965 </r>
       <r>     9.2048    -0.0250    12.6942 </r>
       <r>     9.2947    -0.0261    12.6919 </r>
       <r>     9.3846    -0.0055    12.6914 </r>
       <r>     9.4746     0.1015    12.7005 </r>
       <r>     9.5645     0.2961    12.7272 </r>
       <r>     9.6544     0.4586    12.7684 </r>
       <r>     9.7444     0.4764    12.8112 </r>
       <r>     9.8343     0.3321    12.8411 </r>
       <r>     9.9243     0.1523    12.8548 </r>
       <r>    10.0142     0.2128    12.8739 </r>
       <r>    10.1041     0.6237    12.9300 </r>
       <r>    10.1941     1.0736    13.0266 </r>
       <r>    10.2840     1.1986    13.1344 </r>
       <r>    10.3739     1.0571    13.2295 </r>
       <r>    10.4639     0.8907    13.3096 </r>
       <r>    10.5538     0.7364    13.3758 </r>
       <r>    10.6437     0.5508    13.4253 </r>
       <r>    10.7337     0.3859    13.4600 </r>
       <r>    10.8236     0.2847    13.4857 </r>
       <r>    10.9136     0.2199    13.5054 </r>
       <r>    11.0035     0.2010    13.5235 </r>
       <r>    11.0934     0.3178    13.5521 </r>
       <r>    11.1834     0.5943    13.6055 </r>
       <r>    11.2733     0.7577    13.6737 </r>
       <r>    11.3632     0.5535    13.7235 </r>
       <r>    11.4532     0.2350    13.7446 </r>
       <r>    11.5431     0.1521    13.7583 </r>
       <r>    11.6330     0.2564    13.7813 </r>
       <r>    11.7230     0.3772    13.8152 </r>
       <r>    11.8129     0.5747    13.8669 </r>
       <r>    11.9028     0.9508    13.9524 </r>
       <r>    11.9928     1.2199    14.0622 </r>
       <r>    12.0827     1.0305    14.1548 </r>
       <r>    12.1727     0.5846    14.2074 </r>
       <r>    12.2626     0.2645    14.2312 </r>
       <r>    12.3525     0.1603    14.2456 </r>
       <r>    12.4425     0.3107    14.2736 </r>
       <r>    12.5324     0.7547    14.3414 </r>
       <r>    12.6223     1.2162    14.4508 </r>
       <r>    12.7123     1.2731    14.5653 </r>
       <r>    12.8022     0.9708    14.6526 </r>
       <r>    12.8921     0.7725    14.7221 </r>
       <r>    12.9821     0.8009    14.7941 </r>
       <r>    13.0720     0.8302    14.8688 </r>
       <r>    13.1620     0.8661    14.9467 </r>
       <r>    13.2519     0.8700    15.0249 </r>
       <r>    13.3418     0.6046    15.0793 </r>
       <r>    13.4318     0.2005    15.0973 </r>
       <r>    13.5217    -0.0207    15.0955 </r>
       <r>    13.6116    -0.0515    15.0908 </r>
       <r>    13.7016    -0.0335    15.0878 </r>
       <r>    13.7915     0.0160    15.0893 </r>
       <r>    13.8814     0.1532    15.1030 </r>
       <r>    13.9714     0.3056    15.1305 </r>
       <r>    14.0613     0.2885    15.1565 </r>
       <r>    14.1513     0.1299    15.1682 </r>
       <r>    14.2412     0.1293    15.1798 </r>
       <r>    14.3311     0.4285    15.2183 </r>
       <r>    14.4211     0.7043    15.2817 </r>
       <r>    14.5110     0.5900    15.3347 </r>
       <r>    14.6009     0.2671    15.3587 </r>
       <r>    14.6909     0.1500    15.3722 </r>
       <r>    14.7808     0.3240    15.4014 </r>
       <r>    14.8707     0.5895    15.4544 </r>
       <r>    14.9607     0.6580    15.5136 </r>
       <r>    15.0506     0.4342    15.5526 </r>
       <r>    15.1405     0.2073    15.5713 </r>
       <r>    15.2305     0.2246    15.5915 </r>
       <r>    15.3204     0.3142    15.6197 </r>
       <r>    15.4104     0.2413    15.6414 </r>
       <r>    15.5003     0.0799    15.6486 </r>
       <r>    15.5902    -0.0077    15.6479 </r>
       <r>    15.6802    -0.0160    15.6465 </r>
       <r>    15.7701    -0.0059    15.6460 </r>
       <r>    15.8600    -0.0012    15.6458 </r>
       <r>    15.9500    -0.0001    15.6458 </r>
       <r>    16.0399    -0.0000    15.6458 </r>
       <r>    16.1298    -0.0000    15.6458 </r>
       <r>    16.2198    -0.0001    15.6458 </r>
       <r>    16.3097    -0.0010    15.6457 </r>
       <r>    16.3997    -0.0053    15.6453 </r>
       <r>    16.4896    -0.0154    15.6439 </r>
       <r>    16.5795    -0.0111    15.6429 </r>
       <r>    16.6695     0.0682    15.6490 </r>
       <r>    16.7594     0.2368    15.6703 </r>
       <r>    16.8493     0.3547    15.7022 </r>
       <r>    16.9393     0.2936    15.7286 </r>
       <r>    17.0292     0.1405    15.7412 </r>
       <r>    17.1191     0.0350    15.7444 </r>
       <r>    17.2091    -0.0023    15.7442 </r>
       <r>    17.2990    -0.0073    15.7435 </r>
       <r>    17.3890    -0.0041    15.7431 </r>
       <r>    17.4789    -0.0034    15.7428 </r>
       <r>    17.5688    -0.0096    15.7420 </r>
       <r>    17.6588    -0.0178    15.7404 </r>
       <r>    17.7487     0.0130    15.7416 </r>
       <r>    17.8386     0.1410    15.7542 </r>
       <r>    17.9286     0.3056    15.7817 </r>
       <r>    18.0185     0.3251    15.8110 </r>
       <r>    18.1084     0.1738    15.8266 </r>
       <r>    18.1984     0.0250    15.8288 </r>
       <r>    18.2883    -0.0303    15.8261 </r>
       <r>    18.3782    -0.0298    15.8234 </r>
       <r>    18.4682     0.0280    15.8259 </r>
       <r>    18.5581     0.1942    15.8434 </r>
       <r>    18.6481     0.4106    15.8803 </r>
       <r>    18.7380     0.4796    15.9235 </r>
       <r>    18.8279     0.3208    15.9523 </r>
       <r>    18.9179     0.1031    15.9616 </r>
       <r>    19.0078    -0.0066    15.9610 </r>
       <r>    19.0977    -0.0195    15.9592 </r>
       <r>    19.1877    -0.0080    15.9585 </r>
       <r>    19.2776    -0.0018    15.9584 </r>
       <r>    19.3675    -0.0003    15.9583 </r>
       <r>    19.4575    -0.0003    15.9583 </r>
       <r>    19.5474    -0.0019    15.9581 </r>
       <r>    19.6374    -0.0065    15.9575 </r>
       <r>    19.7273    -0.0076    15.9569 </r>
       <r>    19.8172     0.0219    15.9588 </r>
       <r>    19.9072     0.1001    15.9678 </r>
       <r>    19.9971     0.1677    15.9829 </r>
       <r>    20.0870     0.1435    15.9958 </r>
       <r>    20.1770     0.0584    16.0011 </r>
       <r>    20.2669     0.0018    16.0012 </r>
       <r>    20.3568    -0.0087    16.0004 </r>
       <r>    20.4468    -0.0040    16.0001 </r>
       <r>    20.5367    -0.0009    16.0000 </r>
       <r>    20.6267    -0.0001    16.0000 </r>
       <r>    20.7166    -0.0000    16.0000 </r>
       <r>    20.8065    -0.0000    16.0000 </r>
       <r>    20.8965    -0.0000    16.0000 </r>
       <r>    20.9864    -0.0000    16.0000 </r>
       <r>    21.0763    -0.0000    16.0000 </r>
       <r>    21.1663    -0.0000    16.0000 </r>
       <r>    21.2562    -0.0000    16.0000 </r>
       <r>    21.3461     0.0000    16.0000 </r>
       <r>    21.4361     0.0000    16.0000 </r>
       <r>    21.5260     0.0000    16.0000 </r>
       <r>    21.6159     0.0000    16.0000 </r>
       <r>    21.7059     0.0000    16.0000 </r>
       <r>    21.7958     0.0000    16.0000 </r>
       <r>    21.8858     0.0000    16.0000 </r>
       <r>    21.9757     0.0000    16.0000 </r>
      </set>
     </set>
    </array>
   </total>
  </dos>
 </calculation>
 <structure name="finalpos" >
  <crystal>
   <varray name="basis" >
    <v>       2.47000000       0.00000000       0.00000000 </v>
    <v>      -1.23500000       2.13908275       0.00000000 </v>
    <v>       0.00000000       0.00000000       8.09000000 </v>
   </varray>
   <i name="volume">     42.74379318 </i>
   <varray name="rec_basis" >
    <v>       0.40485830       0.23374505       0.00000000 </v>
    <v>       0.00000000       0.46749010       0.00000000 </v>
    <v>       0.00000000       0.00000000       0.12360939 </v>
   </varray>
  </crystal>
  <varray name="positions" >
   <v>       0.00000000       0.00000000       0.00000000 </v>
   <v>       0.33333333       0.66666667       0.50000000 </v>
  </varray>
 </structure>
</modeling>
