Pt-hcc                                  
   1.00000000000000     
     2.768182    0.000000    0.000000
    -1.384091    2.397316    0.000000
     0.000000    0.000000    4.795811
   Pt
     2
Direct
  0.000000  0.000000  0.000000
  0.333333  0.666667  0.500000
 
   40   40   72
  278.59      278.25      276.62      272.05      262.53      246.41      223.22      193.98      161.07      127.68    
  96.955      71.205      51.495      37.587      28.301      22.016      17.732      14.960      13.272      12.380    
  12.098      12.380      13.272      14.960      17.732      22.018      28.298      37.589      51.494      71.206    
  96.955      127.68      161.07      193.98      223.22      246.41      262.53      272.05      276.62      278.25    
  278.25      278.25      277.26      274.13      266.98      253.98      234.07      207.53      176.13      142.75    
  110.61      82.449      59.951      43.464      32.214      24.702      19.545      16.106      13.944      12.693    
  12.126      12.125      12.694      13.942      16.108      19.542      24.704      32.214      43.463      59.952    
  82.449      110.61      142.75      176.13      207.52      234.07      253.98      266.98      274.13      277.26    
  276.62      277.27      276.62      274.13      268.34      257.52      240.33      216.51      187.20      154.79    
  122.32      92.746      68.154      49.443      36.282      27.467      21.448      17.338      14.677      13.053    
  12.193      11.922      12.193      13.053      14.676      17.338      21.449      27.465      36.285      49.441    
  68.155      92.745      122.32      154.79      187.20      216.51      240.33      257.52      268.34      274.13    
  272.05      274.14      274.14      272.05      266.98      257.52      242.36      220.95      193.91      163.12    
  131.27      101.26      75.422      55.057      40.267      30.185      23.345      18.604      15.445      13.450    
  12.293      11.767      11.766      12.294      13.449      15.446      18.602      23.347      30.183      40.268    
  55.056      75.422      101.26      131.27      163.12      193.91      220.95      242.36      257.52      266.98    
  262.53      267.01      268.38      267.01      262.52      253.98      240.33      220.95      196.16      167.36    
  136.86      107.32      81.121      59.809      43.852      32.705      25.128      19.834      16.216      13.863    
  12.422      11.653      11.412      11.653      12.423      13.862      16.217      19.832      25.128      32.706    
  43.851      59.810      81.121      107.32      136.86      167.36      196.16      220.95      240.33      253.98    
  246.41      254.02      257.58      257.58      254.02      246.41      234.07      216.50      193.91      167.36    
  138.76      110.47      84.753      63.258      46.705      34.840      26.680      20.949      16.943      14.271    
  12.567      11.575      11.119      11.119      11.575      12.568      14.270      16.944      20.949      26.680    
  34.841      46.704      63.258      84.752      110.47      138.76      167.36      193.91      216.51      234.07    
  223.22      234.10      240.38      242.43      240.38      234.10      223.22      207.53      187.20      163.12    
  136.86      110.47      85.999      65.070      48.544      36.397      27.891      21.870      17.579      14.645    
  12.716      11.526      10.881      10.680      10.881      11.526      12.716      14.645      17.578      21.872    
  27.890      36.397      48.543      65.071      85.998      110.47      136.86      163.12      187.20      207.52    
  193.98      207.54      216.55      221.01      221.01      216.55      207.55      193.98      176.13      154.79    
  131.27      107.32      84.753      65.070      49.179      37.218      28.664      22.529      18.075      14.958    
  12.853      11.497      10.694      10.322      10.322      10.694      11.497      12.853      14.958      18.074    
  22.529      28.664      37.218      49.179      65.071      84.752      107.32      131.27      154.79      176.13    
  161.07      176.13      187.21      193.94      196.20      193.94      187.21      176.13      161.07      142.75    
  122.33      101.26      81.122      63.258      48.543      37.219      28.930      22.872      18.390      15.183    
  12.964      11.484      10.551      10.040      9.8764      10.040      10.551      11.484      12.963      15.184    
  18.390      22.872      28.930      37.218      48.543      63.258      81.121      101.26      122.32      142.75    
  127.68      142.73      154.77      163.10      167.36      167.36      163.10      154.77      142.73      127.68    
  110.61      92.745      75.423      59.809      46.705      36.397      28.664      22.872      18.498      15.301    
  13.036      11.478      10.451      9.8289      9.5359      9.5358      9.8290      10.451      11.479      13.036    
  15.302      18.498      22.872      28.664      36.397      46.704      59.810      75.422      92.745      110.61    
  96.955      110.57      122.27      131.21      136.80      138.70      136.80      131.21      122.27      110.57    
  96.955      82.449      68.155      55.055      43.853      34.840      27.891      22.529      18.390      15.302    
  13.061      11.477      10.391      9.6885      9.2932      9.1666      9.2932      9.6886      10.390      11.478    
  13.060      15.302      18.390      22.529      27.890      34.841      43.851      55.056      68.155      82.449    
  71.206      82.405      92.665      101.16      107.21      110.35      110.35      107.21      101.16      92.665    
  82.405      71.206      59.951      49.442      40.269      32.704      26.681      21.870      18.075      15.183    
  13.036      11.477      10.371      9.6176      9.1481      8.9224      8.9225      9.1478      9.6181      10.371    
  11.478      13.036      15.184      18.074      21.872      26.680      32.706      40.268      49.441      59.952    
  51.494      59.902      68.062      75.292      80.966      84.583      85.825      84.583      80.967      75.293    
  68.062      59.902      51.494      43.465      36.283      30.183      25.130      20.948      17.580      14.957    
  12.964      11.479      10.391      9.6178      9.0993      8.8012      8.7031      8.8013      9.0990      9.6181    
  10.390      11.479      12.963      14.958      17.578      20.949      25.128      30.183      36.285      43.463    
  37.589      43.416      49.347      54.919      59.638      63.063      64.863      64.862      63.062      59.636    
  54.917      49.348      43.418      37.589      32.211      27.467      23.346      19.832      16.945      14.644    
  12.854      11.483      10.451      9.6880      9.1482      8.8008      8.6309      8.6305      8.8013      9.1478    
  9.6886      10.451      11.484      12.853      14.645      16.944      19.832      23.347      27.465      32.214    
  28.298      32.173      36.198      40.137      43.681      46.504      48.324      48.953      48.325      46.505    
  43.683      40.138      36.196      32.170      28.300      24.706      21.446      18.604      16.217      14.270    
  12.717      11.497      10.551      9.8289      9.2935      8.9225      8.7033      8.6309      8.7031      8.9225    
  9.2932      9.8290      10.551      11.497      12.716      14.270      16.217      18.602      21.449      24.704    
  22.018      24.671      27.391      30.071      32.555      34.658      36.191      37.000      37.000      36.190    
  34.657      32.553      30.070      27.394      24.672      22.015      19.543      17.340      15.445      13.862    
  12.568      11.525      10.694      10.040      9.5359      9.1663      8.9225      8.8008      8.8012      8.9224    
  9.1666      9.5358      10.040      10.694      11.526      12.568      13.862      15.446      17.338      19.542    
  17.732      19.516      21.390      23.256      25.003      26.522      27.708      28.466      28.727      28.467    
  27.709      26.523      25.005      23.255      21.388      19.516      17.734      16.107      14.675      13.450    
  12.423      11.575      10.882      10.322      9.8768      9.5359      9.2935      9.1482      9.0993      9.1481    
  9.2932      9.5359      9.8764      10.322      10.881      11.575      12.423      13.449      14.676      16.108    
  14.960      16.088      17.294      18.531      19.733      20.823      21.724      22.367      22.702      22.702    
  22.367      21.723      20.822      19.733      18.533      17.295      16.087      14.959      13.943      13.054    
  12.294      11.653      11.119      10.679      10.322      10.040      9.8289      9.6880      9.6178      9.6176    
  9.6885      9.8289      10.040      10.322      10.680      11.119      11.653      12.294      13.053      13.942    
  13.272      13.927      14.642      15.392      16.141      16.848      17.464      17.945      18.251      18.356    
  18.251      17.946      17.466      16.849      16.141      15.391      14.641      13.927      13.274      12.693    
  12.192      11.767      11.412      11.119      10.882      10.694      10.551      10.451      10.391      10.371    
  10.391      10.451      10.551      10.694      10.881      11.119      11.412      11.766      12.193      12.694    
  12.380      12.682      13.027      13.407      13.805      14.198      14.559      14.861      15.078      15.192    
  15.192      15.078      14.860      14.558      14.198      13.806      13.408      13.028      12.681      12.379    
  12.126      11.922      11.767      11.653      11.575      11.525      11.497      11.483      11.479      11.477    
  11.477      11.478      11.484      11.497      11.526      11.575      11.653      11.767      11.922      12.125    
  12.098      12.114      12.171      12.261      12.379      12.514      12.653      12.782      12.887      12.955    
  12.979      12.955      12.888      12.783      12.654      12.514      12.379      12.261      12.170      12.115    
  12.099      12.126      12.192      12.294      12.423      12.568      12.717      12.854      12.964      13.036    
  13.061      13.036      12.964      12.853      12.716      12.567      12.422      12.293      12.193      12.126    
  12.380      12.115      11.901      11.738      11.617      11.533      11.479      11.447      11.430      11.423    
  11.421      11.420      11.422      11.430      11.446      11.478      11.533      11.617      11.738      11.902    
  12.115      12.379      12.693      13.054      13.450      13.862      14.270      14.644      14.957      15.183    
  15.302      15.301      15.183      14.958      14.645      14.271      13.863      13.450      13.053      12.693    
  13.272      12.680      12.171      11.738      11.378      11.083      10.844      10.656      10.513      10.413    
  10.354      10.334      10.354      10.414      10.513      10.656      10.844      11.083      11.378      11.738    
  12.170      12.681      13.274      13.943      14.675      15.445      16.217      16.945      17.580      18.075    
  18.390      18.498      18.390      18.075      17.579      16.943      16.216      15.445      14.677      13.944    
  14.960      13.928      13.027      12.261      11.617      11.083      10.645      10.290      10.012      9.8041    
  9.6659      9.5968      9.5965      9.6657      9.8039      10.011      10.290      10.645      11.083      11.617    
  12.261      13.028      13.927      14.959      16.107      17.340      18.604      19.832      20.948      21.870    
  22.529      22.872      22.872      22.529      21.870      20.949      19.834      18.604      17.338      16.106    
  17.732      16.086      14.643      13.408      12.379      11.533      10.844      10.290      9.8511      9.5166    
  9.2796      9.1374      9.0905      9.1377      9.2797      9.5168      9.8516      10.290      10.844      11.533    
  12.379      13.408      14.641      16.087      17.734      19.543      21.446      23.346      25.130      26.681    
  27.891      28.664      28.930      28.664      27.891      26.680      25.128      23.345      21.448      19.545    
  22.016      19.518      17.293      15.391      13.806      12.514      11.479      10.656      10.012      9.5171    
  9.1554      8.9175      8.7987      8.7989      8.9173      9.1554      9.5168      10.011      10.656      11.478    
  12.514      13.806      15.391      17.295      19.516      22.015      24.706      27.467      30.183      32.704    
  34.840      36.397      37.219      37.218      36.397      34.840      32.705      30.185      27.467      24.702    
  28.301      24.669      21.390      18.533      16.140      14.199      12.653      11.446      10.513      9.8037    
  9.2796      8.9171      8.7038      8.6330      8.7036      8.9173      9.2797      9.8039      10.513      11.446    
  12.654      14.198      16.141      18.533      21.388      24.672      28.300      32.211      36.283      40.269    
  43.853      46.705      48.543      49.179      48.544      46.705      43.852      40.267      36.282      32.214    
  37.587      32.173      27.394      23.253      19.735      16.847      14.559      12.783      11.430      10.414    
  9.6657      9.1379      8.7987      8.6330      8.6330      8.7989      9.1377      9.6657      10.414      11.430    
  12.783      14.558      16.849      19.733      23.255      27.394      32.170      37.589      43.465      49.442    
  55.055      59.809      63.258      65.070      65.070      63.258      59.809      55.057      49.443      43.464    
  51.495      43.417      36.195      30.073      25.002      20.823      17.465      14.860      12.887      11.422    
  10.355      9.5961      9.0908      8.7987      8.7038      8.7987      9.0905      9.5965      10.354      11.422    
  12.888      14.860      17.466      20.822      25.005      30.070      36.196      43.418      51.494      59.951    
  68.155      75.423      81.122      84.753      85.999      84.753      81.121      75.422      68.154      59.951    
  71.205      59.902      49.349      40.136      32.555      26.523      21.723      17.946      15.078      12.956    
  11.420      10.335      9.5961      9.1379      8.9171      8.9175      9.1374      9.5968      10.334      11.420    
  12.955      15.078      17.946      21.723      26.523      32.553      40.138      49.348      59.902      71.206    
  82.449      92.745      101.26      107.32      110.47      110.47      107.32      101.26      92.746      82.449    
  96.955      82.405      68.060      54.919      43.682      34.657      27.709      22.366      18.251      15.192    
  12.980      11.420      10.355      9.6657      9.2796      9.1554      9.2796      9.6659      10.354      11.421    
  12.979      15.192      18.251      22.367      27.709      34.657      43.683      54.917      68.062      82.405    
  96.955      110.61      122.33      131.27      136.86      138.76      136.86      131.27      122.32      110.61    
  127.68      110.57      92.666      75.292      59.637      46.505      36.190      28.467      22.701      18.357    
  15.192      12.956      11.422      10.414      9.8037      9.5171      9.5166      9.8041      10.413      11.423    
  12.955      15.192      18.356      22.702      28.467      36.190      46.505      59.636      75.293      92.665    
  110.57      127.68      142.75      154.79      163.12      167.36      167.36      163.12      154.79      142.75    
  161.07      142.73      122.27      101.16      80.967      63.061      48.325      36.999      28.728      22.701    
  18.251      15.078      12.887      11.430      10.513      10.012      9.8511      10.012      10.513      11.430    
  12.887      15.078      18.251      22.702      28.727      37.000      48.325      63.062      80.967      101.16    
  122.27      142.73      161.07      176.13      187.20      193.91      196.16      193.91      187.20      176.13    
  193.98      176.13      154.77      131.21      107.21      84.584      64.862      48.954      36.999      28.467    
  22.366      17.946      14.860      12.783      11.446      10.656      10.290      10.290      10.656      11.447    
  12.782      14.861      17.945      22.367      28.466      37.000      48.953      64.862      84.583      107.21    
  131.21      154.77      176.13      193.98      207.53      216.50      220.95      220.95      216.51      207.53    
  223.22      207.54      187.21      163.10      136.80      110.35      85.825      64.862      48.325      36.190    
  27.709      21.723      17.465      14.559      12.653      11.479      10.844      10.645      10.844      11.479    
  12.653      14.559      17.464      21.724      27.708      36.191      48.324      64.863      85.825      110.35    
  136.80      163.10      187.21      207.55      223.22      234.07      240.33      242.36      240.33      234.07    
  246.41      234.10      216.55      193.94      167.36      138.70      110.35      84.584      63.061      46.505    
  34.657      26.523      20.823      16.847      14.199      12.514      11.533      11.083      11.083      11.533    
  12.514      14.198      16.848      20.823      26.522      34.658      46.504      63.063      84.583      110.35    
  138.70      167.36      193.94      216.55      234.10      246.41      253.98      257.52      257.52      253.98    
  262.53      254.02      240.38      221.01      196.20      167.36      136.80      107.21      80.967      59.637    
  43.682      32.555      25.002      19.735      16.140      13.806      12.379      11.617      11.378      11.617    
  12.379      13.805      16.141      19.733      25.003      32.555      43.681      59.638      80.966      107.21    
  136.80      167.36      196.20      221.01      240.38      254.02      262.52      266.98      268.34      266.98    
  272.05      267.01      257.58      242.43      221.01      193.94      163.10      131.21      101.16      75.292    
  54.919      40.136      30.073      23.253      18.533      15.391      13.408      12.261      11.738      11.738    
  12.261      13.407      15.392      18.531      23.256      30.071      40.137      54.919      75.292      101.16    
  131.21      163.10      193.94      221.01      242.43      257.58      267.01      272.05      274.13      274.13    
  276.62      274.14      268.38      257.58      240.38      216.55      187.21      154.77      122.27      92.666    
  68.060      49.349      36.195      27.394      21.390      17.293      14.643      13.027      12.171      11.901    
  12.171      13.027      14.642      17.294      21.390      27.391      36.198      49.347      68.062      92.665    
  122.27      154.77      187.21      216.55      240.38      257.58      268.38      274.14      276.62      277.26    
  278.25      277.27      274.14      267.01      254.02      234.10      207.54      176.13      142.73      110.57    
  82.405      59.902      43.417      32.173      24.669      19.518      16.086      13.928      12.680      12.115    
  12.114      12.682      13.927      16.088      19.516      24.671      32.173      43.416      59.902      82.405    
  110.57      142.73      176.13      207.54      234.10      254.02      267.01      274.14      277.27      278.25    
  278.44      278.03      276.19      271.33      261.47      245.05      221.66      192.34      159.49      126.29    
  95.823      70.358      50.907      37.203      28.049      21.838      17.604      14.863      13.194      12.311    
  12.033      12.311      13.194      14.863      17.603      21.840      28.046      37.205      50.907      70.358    
  95.823      126.29      159.49      192.34      221.66      245.05      261.47      271.33      276.19      278.03    
  278.03      278.03      276.90      273.51      266.06      252.74      232.57      205.90      174.51      141.26    
  109.35      81.468      59.246      42.991      31.907      24.492      19.393      15.996      13.857      12.620    
  12.059      12.058      12.621      13.856      15.997      19.391      24.495      31.907      42.990      59.247    
  81.467      109.35      141.26      174.51      205.90      232.57      252.74      266.06      273.51      276.90    
  276.19      276.91      276.19      273.51      267.46      256.35      238.89      214.90      185.55      153.23    
  120.97      91.652      67.341      48.881      35.914      27.223      21.274      17.211      14.580      12.975    
  12.124      11.856      12.124      12.975      14.580      17.212      21.274      27.221      35.917      48.880    
  67.342      91.651      120.97      153.23      185.55      214.90      238.89      256.35      267.46      273.51    
  271.33      273.53      273.53      271.33      266.06      256.35      240.95      219.37      192.26      161.53    
  129.85      100.08      74.518      54.415      39.838      29.904      23.148      18.462      15.339      13.366    
  12.222      11.701      11.701      12.223      13.365      15.340      18.460      23.151      29.902      39.840    
  54.414      74.519      100.08      129.85      161.53      192.26      219.37      240.95      256.35      266.06    
  261.47      266.09      267.51      266.09      261.47      252.74      238.89      219.37      194.51      165.76    
  135.40      106.09      80.151      59.101      43.369      32.387      24.910      19.676      16.100      13.773    
  12.349      11.587      11.349      11.587      12.349      13.773      16.101      19.675      24.911      32.387    
  43.368      59.102      80.150      106.09      135.40      165.76      194.51      219.37      238.89      252.74    
  245.05      252.78      256.41      256.41      252.78      245.05      232.57      214.90      192.27      165.76    
  137.29      109.21      83.741      62.504      46.179      34.490      26.443      20.778      16.818      14.176    
  12.491      11.509      11.057      11.058      11.509      12.492      14.175      16.819      20.778      26.442    
  34.491      46.178      62.504      83.740      109.21      137.29      165.76      192.26      214.90      232.57    
  221.66      232.61      238.96      241.03      238.96      232.61      221.66      205.90      185.55      161.53    
  135.40      109.21      84.973      64.292      47.991      36.022      27.638      21.688      17.446      14.545    
  12.637      11.460      10.821      10.622      10.821      11.460      12.637      14.545      17.445      21.689    
  27.637      36.023      47.990      64.293      84.972      109.21      135.40      161.53      185.55      205.90    
  192.34      205.92      214.96      219.44      219.44      214.96      205.92      192.34      174.51      153.23    
  129.85      106.09      83.741      64.292      48.616      36.831      28.401      22.339      17.936      14.854    
  12.773      11.431      10.635      10.266      10.266      10.635      11.431      12.772      14.855      17.935    
  22.339      28.400      36.832      48.616      64.293      83.740      106.09      129.85      153.23      174.51    
  159.49      174.51      185.58      192.31      194.56      192.31      185.58      174.51      159.49      141.26    
  120.97      100.08      80.151      62.503      47.990      36.832      28.662      22.678      18.247      15.077    
  12.881      11.417      10.493      9.9862      9.8239      9.9862      10.493      11.417      12.881      15.077    
  18.246      22.678      28.662      36.832      47.990      62.504      80.150      100.08      120.97      141.26    
  126.29      141.25      153.22      161.53      165.77      165.76      161.53      153.22      141.25      126.29    
  109.35      91.651      74.520      59.101      46.179      36.023      28.400      22.678      18.354      15.193    
  12.952      11.411      10.393      9.7765      9.4858      9.4857      9.7765      10.393      11.411      12.952    
  15.194      18.354      22.678      28.400      36.023      46.178      59.102      74.518      91.651      109.35    
  95.823      109.32      120.92      129.80      135.36      137.24      135.36      129.80      120.92      109.32    
  95.823      81.468      67.342      54.413      43.370      34.490      27.638      22.339      18.247      15.194    
  12.977      11.410      10.333      9.6369      9.2448      9.1191      9.2448      9.6370      10.333      11.410    
  12.977      15.194      18.247      22.339      27.637      34.491      43.368      54.414      67.342      81.467    
  70.358      81.428      91.581      99.993      105.99      109.10      109.10      105.99      99.992      91.581    
  81.429      70.358      59.246      48.880      39.840      32.386      26.444      21.688      17.936      15.077    
  12.952      11.409      10.314      9.5665      9.1007      8.8765      8.8768      9.1003      9.5671      10.313    
  11.410      12.952      15.077      17.935      21.689      26.442      32.388      39.839      48.880      59.247    
  50.907      59.202      67.258      74.402      80.012      83.590      84.818      83.590      80.013      74.403    
  67.257      59.201      50.906      42.992      35.915      29.902      24.912      20.777      17.447      14.854    
  12.882      11.411      10.333      9.5667      9.0522      8.7561      8.6587      8.7563      9.0519      9.5670    
  10.333      11.411      12.881      14.855      17.445      20.778      24.910      29.902      35.917      42.990    
  37.205      42.947      48.794      54.289      58.946      62.327      64.104      64.104      62.326      58.944    
  54.287      48.794      42.949      37.205      31.905      27.224      23.150      19.674      16.820      14.544    
  12.773      11.416      10.393      9.6365      9.1008      8.7558      8.5870      8.5866      8.7563      9.1004    
  9.6371      10.393      11.417      12.772      14.545      16.819      19.675      23.151      27.221      31.907    
  28.046      31.869      35.837      39.719      43.212      45.996      47.790      48.411      47.791      45.997    
  43.214      39.720      35.836      31.867      28.048      24.495      21.272      18.462      16.101      14.175    
  12.638      11.430      10.493      9.7765      9.2451      8.8766      8.6589      8.5869      8.6587      8.8766    
  9.2447      9.7765      10.493      11.431      12.637      14.175      16.101      18.460      21.274      24.495    
  21.840      24.464      27.154      29.799      32.250      34.323      35.835      36.632      36.632      35.834    
  34.322      32.248      29.799      27.157      24.465      21.837      19.392      17.213      15.339      13.773    
  12.492      11.459      10.635      9.9858      9.4858      9.1188      8.8767      8.7558      8.7562      8.8765    
  9.1192      9.4857      9.9863      10.635      11.460      12.492      13.773      15.340      17.212      19.391    
  17.603      19.368      21.222      23.068      24.797      26.299      27.471      28.220      28.478      28.220    
  27.472      26.300      24.798      23.067      21.219      19.368      17.605      15.996      14.579      13.366    
  12.349      11.509      10.822      10.266      9.8243      9.4858      9.2450      9.1008      9.0522      9.1006    
  9.2447      9.4858      9.8239      10.266      10.821      11.508      12.349      13.365      14.580      15.997    
  14.863      15.979      17.172      18.396      19.586      20.665      21.557      22.193      22.525      22.525    
  22.193      21.555      20.663      19.586      18.398      17.174      15.979      14.862      13.856      12.976    
  12.222      11.587      11.058      10.621      10.266      9.9858      9.7765      9.6365      9.5667      9.5666    
  9.6370      9.7764      9.9862      10.266      10.622      11.058      11.587      12.223      12.975      13.856    
  13.194      13.842      14.551      15.293      16.035      16.735      17.345      17.821      18.123      18.228    
  18.124      17.821      17.346      16.735      16.035      15.292      14.550      13.843      13.195      12.620    
  12.123      11.701      11.348      11.058      10.822      10.635      10.493      10.393      10.333      10.314    
  10.333      10.393      10.493      10.635      10.821      11.057      11.348      11.701      12.124      12.621    
  12.311      12.611      12.953      13.331      13.725      14.114      14.472      14.771      14.987      15.099    
  15.099      14.986      14.770      14.471      14.114      13.725      13.331      12.954      12.610      12.310    
  12.059      11.856      11.701      11.587      11.509      11.459      11.430      11.416      11.411      11.410    
  11.410      11.411      11.417      11.431      11.460      11.510      11.587      11.701      11.856      12.058    
  12.033      12.049      12.106      12.196      12.314      12.448      12.586      12.715      12.818      12.886    
  12.910      12.887      12.819      12.715      12.587      12.448      12.314      12.196      12.105      12.050    
  12.034      12.059      12.123      12.222      12.349      12.492      12.638      12.773      12.882      12.952    
  12.977      12.952      12.881      12.772      12.637      12.491      12.349      12.222      12.124      12.059    
  12.311      12.050      11.840      11.678      11.559      11.476      11.424      11.392      11.376      11.369    