   2   2   1   0
  0.1591300E+02  0.2768182E-09  0.2768182E-09  0.4795811E-09  0.5000000E-15
  1.000000000000000E-004
  CAR 
 Pt-hcc                                  
     35.61802381    -45.47039122  301     10.99042484      1.00000000
    -45.470  0.0000E+00  0.0000E+00
    -45.200  0.0000E+00  0.0000E+00
    -44.930  0.0000E+00  0.0000E+00
    -44.660  0.0000E+00  0.0000E+00
    -44.389  0.0000E+00  0.0000E+00
    -44.119  0.0000E+00  0.0000E+00
    -43.849  0.0000E+00  0.0000E+00
    -43.578  0.0000E+00  0.0000E+00
    -43.308  0.0000E+00  0.0000E+00
    -43.038  0.0000E+00  0.0000E+00
    -42.767  0.0000E+00  0.0000E+00
    -42.497  0.0000E+00  0.0000E+00
    -42.227  0.0000E+00  0.0000E+00
    -41.957  0.1311E-08  0.3543E-09
    -41.686  0.6970E-01  0.1884E-01
    -41.416  0.2435E+00  0.8467E-01
    -41.146  0.1307E+00  0.1200E+00
    -40.875  0.8738E-06  0.1200E+00
    -40.605  0.0000E+00  0.1200E+00
    -40.335  0.0000E+00  0.1200E+00
    -40.064  0.0000E+00  0.1200E+00
    -39.794  0.0000E+00  0.1200E+00
    -39.524  0.0000E+00  0.1200E+00
    -39.254  0.0000E+00  0.1200E+00
    -38.983  0.0000E+00  0.1200E+00
    -38.713  0.0000E+00  0.1200E+00
    -38.443  0.0000E+00  0.1200E+00
    -38.172  0.0000E+00  0.1200E+00
    -37.902  0.0000E+00  0.1200E+00
    -37.632  0.0000E+00  0.1200E+00
    -37.362  0.0000E+00  0.1200E+00
    -37.091  0.0000E+00  0.1200E+00
    -36.821  0.0000E+00  0.1200E+00
    -36.551  0.0000E+00  0.1200E+00
    -36.280  0.0000E+00  0.1200E+00
    -36.010  0.0000E+00  0.1200E+00
    -35.740  0.0000E+00  0.1200E+00
    -35.469  0.0000E+00  0.1200E+00
    -35.199  0.0000E+00  0.1200E+00
    -34.929  0.0000E+00  0.1200E+00
    -34.659  0.0000E+00  0.1200E+00
    -34.388  0.0000E+00  0.1200E+00
    -34.118  0.0000E+00  0.1200E+00
    -33.848  0.0000E+00  0.1200E+00
    -33.577  0.0000E+00  0.1200E+00
    -33.307  0.0000E+00  0.1200E+00
    -33.037  0.0000E+00  0.1200E+00
    -32.767  0.0000E+00  0.1200E+00
    -32.496  0.0000E+00  0.1200E+00
    -32.226  0.0000E+00  0.1200E+00
    -31.956  0.0000E+00  0.1200E+00
    -31.685  0.0000E+00  0.1200E+00
    -31.415  0.0000E+00  0.1200E+00
    -31.145  0.0000E+00  0.1200E+00
    -30.874  0.0000E+00  0.1200E+00
    -30.604  0.0000E+00  0.1200E+00
    -30.334  0.0000E+00  0.1200E+00
    -30.064  0.0000E+00  0.1200E+00
    -29.793  0.0000E+00  0.1200E+00
    -29.523  0.0000E+00  0.1200E+00
    -29.253  0.0000E+00  0.1200E+00
    -28.982  0.0000E+00  0.1200E+00
    -28.712  0.0000E+00  0.1200E+00
    -28.442  0.0000E+00  0.1200E+00
    -28.172  0.0000E+00  0.1200E+00
    -27.901  0.0000E+00  0.1200E+00
    -27.631  0.0000E+00  0.1200E+00
    -27.361  0.0000E+00  0.1200E+00
    -27.090  0.0000E+00  0.1200E+00
    -26.820  0.0000E+00  0.1200E+00
    -26.550  0.0000E+00  0.1200E+00
    -26.279  0.0000E+00  0.1200E+00
    -26.009  0.0000E+00  0.1200E+00
    -25.739  0.0000E+00  0.1200E+00
    -25.469  0.0000E+00  0.1200E+00
    -25.198  0.0000E+00  0.1200E+00
    -24.928  0.0000E+00  0.1200E+00
    -24.658  0.0000E+00  0.1200E+00
    -24.387  0.0000E+00  0.1200E+00
    -24.117  0.0000E+00  0.1200E+00
    -23.847  0.0000E+00  0.1200E+00
    -23.577  0.0000E+00  0.1200E+00
    -23.306  0.0000E+00  0.1200E+00
    -23.036  0.0000E+00  0.1200E+00
    -22.766  0.0000E+00  0.1200E+00
    -22.495  0.0000E+00  0.1200E+00
    -22.225  0.0000E+00  0.1200E+00
    -21.955  0.0000E+00  0.1200E+00
    -21.684  0.0000E+00  0.1200E+00
    -21.414  0.0000E+00  0.1200E+00
    -21.144  0.0000E+00  0.1200E+00
    -20.874  0.0000E+00  0.1200E+00
    -20.603  0.0000E+00  0.1200E+00
    -20.333  0.0000E+00  0.1200E+00
    -20.063  0.0000E+00  0.1200E+00
    -19.792  0.0000E+00  0.1200E+00
    -19.522  0.0000E+00  0.1200E+00
    -19.252  0.0000E+00  0.1200E+00
    -18.982  0.0000E+00  0.1200E+00
    -18.711  0.0000E+00  0.1200E+00
    -18.441  0.0000E+00  0.1200E+00
    -18.171  0.0000E+00  0.1200E+00
    -17.900  0.0000E+00  0.1200E+00
    -17.630  0.0000E+00  0.1200E+00
    -17.360  0.0000E+00  0.1200E+00
    -17.089  0.0000E+00  0.1200E+00
    -16.819  0.0000E+00  0.1200E+00
    -16.549  0.0000E+00  0.1200E+00
    -16.279  0.0000E+00  0.1200E+00
    -16.008  0.0000E+00  0.1200E+00
    -15.738  0.0000E+00  0.1200E+00
    -15.468  0.0000E+00  0.1200E+00
    -15.197  0.0000E+00  0.1200E+00
    -14.927  0.0000E+00  0.1200E+00
    -14.657  0.0000E+00  0.1200E+00
    -14.386  0.0000E+00  0.1200E+00
    -14.116  0.0000E+00  0.1200E+00
    -13.846  0.0000E+00  0.1200E+00
    -13.576  0.0000E+00  0.1200E+00
    -13.305  0.0000E+00  0.1200E+00
    -13.035  0.0000E+00  0.1200E+00
    -12.765  0.0000E+00  0.1200E+00
    -12.494  0.0000E+00  0.1200E+00
    -12.224  0.0000E+00  0.1200E+00
    -11.954  0.0000E+00  0.1200E+00
    -11.684  0.0000E+00  0.1200E+00
    -11.413  0.0000E+00  0.1200E+00
    -11.143  0.0000E+00  0.1200E+00
    -10.873  0.0000E+00  0.1200E+00
    -10.602  0.0000E+00  0.1200E+00
    -10.332  0.0000E+00  0.1200E+00
    -10.062  0.0000E+00  0.1200E+00
     -9.791  0.0000E+00  0.1200E+00
     -9.521  0.0000E+00  0.1200E+00
     -9.251  0.0000E+00  0.1200E+00
     -8.981  0.0000E+00  0.1200E+00
     -8.710  0.0000E+00  0.1200E+00
     -8.440  0.0000E+00  0.1200E+00
     -8.170  0.0000E+00  0.1200E+00
     -7.899  0.0000E+00  0.1200E+00
     -7.629  0.0000E+00  0.1200E+00
     -7.359  0.0000E+00  0.1200E+00
     -7.089  0.0000E+00  0.1200E+00
     -6.818  0.0000E+00  0.1200E+00
     -6.548  0.0000E+00  0.1200E+00
     -6.278  0.0000E+00  0.1200E+00
     -6.007  0.0000E+00  0.1200E+00
     -5.737  0.0000E+00  0.1200E+00
     -5.467  0.0000E+00  0.1200E+00
     -5.196  0.0000E+00  0.1200E+00
     -4.926  0.0000E+00  0.1200E+00
     -4.656  0.0000E+00  0.1200E+00
     -4.386  0.0000E+00  0.1200E+00
     -4.115  0.0000E+00  0.1200E+00
     -3.845  0.0000E+00  0.1200E+00
     -3.575  0.0000E+00  0.1200E+00
     -3.304  0.0000E+00  0.1200E+00
     -3.034  0.0000E+00  0.1200E+00
     -2.764  0.0000E+00  0.1200E+00
     -2.494  0.0000E+00  0.1200E+00
     -2.223  0.0000E+00  0.1200E+00
     -1.953  0.0000E+00  0.1200E+00
     -1.683  0.0000E+00  0.1200E+00
     -1.412  0.0000E+00  0.1200E+00
     -1.142  0.0000E+00  0.1200E+00
     -0.872  0.0000E+00  0.1200E+00
     -0.601  0.0000E+00  0.1200E+00
     -0.331  0.0000E+00  0.1200E+00
     -0.061  0.0000E+00  0.1200E+00
      0.209  0.0000E+00  0.1200E+00
      0.480  0.0000E+00  0.1200E+00
      0.750  0.0000E+00  0.1200E+00
      1.020  0.0000E+00  0.1200E+00
      1.291  0.1831E-05  0.1200E+00
      1.561  0.2693E-03  0.1201E+00
      1.831  0.8843E-03  0.1203E+00
      2.101  0.9720E-03  0.1206E+00
      2.372  0.1240E-02  0.1209E+00
      2.642  0.1748E-02  0.1214E+00
      2.912  0.3690E-02  0.1224E+00
      3.183  0.1270E-02  0.1227E+00
      3.453  0.1810E-02  0.1232E+00
      3.723  0.5136E-02  0.1246E+00
      3.994  0.5020E-02  0.1260E+00
      4.264  0.4331E-02  0.1271E+00
      4.534  0.1038E-01  0.1299E+00
      4.804  0.2387E-01  0.1364E+00
      5.075  0.2545E-01  0.1433E+00
      5.345  0.2226E-01  0.1493E+00
      5.615  0.1865E-01  0.1543E+00
      5.886  0.2284E-01  0.1605E+00
      6.156  0.3725E-01  0.1706E+00
      6.426  0.2801E-01  0.1781E+00
      6.696  0.3313E-01  0.1871E+00
      6.967  0.2787E-01  0.1946E+00
      7.237  0.2576E-01  0.2016E+00
      7.507  0.3538E-01  0.2112E+00
      7.778  0.3581E-01  0.2208E+00
      8.048  0.3652E-01  0.2307E+00
      8.318  0.3285E-01  0.2396E+00
      8.589  0.4143E-01  0.2508E+00
      8.859  0.3431E-01  0.2601E+00
      9.129  0.1592E-01  0.2644E+00
      9.399  0.2582E-01  0.2713E+00
      9.670  0.2538E-01  0.2782E+00
      9.940  0.2872E-01  0.2860E+00
     10.210  0.2361E-01  0.2923E+00
     10.481  0.2537E-01  0.2992E+00
     10.751  0.3529E-01  0.3087E+00
     11.021  0.4624E-01  0.3212E+00
     11.291  0.2659E-01  0.3284E+00
     11.562  0.1923E-01  0.3336E+00
     11.832  0.7291E-02  0.3356E+00
     12.102  0.4137E-02  0.3367E+00
     12.373  0.1609E-02  0.3371E+00
     12.643  0.8777E-03  0.3374E+00
     12.913  0.9008E-02  0.3398E+00
     13.184  0.1161E-01  0.3429E+00
     13.454  0.7201E-02  0.3449E+00
     13.724  0.1773E-02  0.3454E+00
     13.994  0.2415E-02  0.3460E+00
     14.265  0.7447E-02  0.3480E+00
     14.535  0.2393E-02  0.3487E+00
     14.805  0.7957E-02  0.3508E+00
     15.076  0.3917E-02  0.3519E+00
     15.346  0.4317E-02  0.3531E+00
     15.616  0.8969E-02  0.3555E+00
     15.887  0.5019E-02  0.3568E+00
     16.157  0.4795E-02  0.3581E+00
     16.427  0.3710E-02  0.3591E+00
     16.697  0.2885E-02  0.3599E+00
     16.968  0.1726E-02  0.3604E+00
     17.238  0.5329E-02  0.3618E+00
     17.508  0.9104E-02  0.3643E+00
     17.779  0.1092E-01  0.3672E+00
     18.049  0.7979E-02  0.3694E+00
     18.319  0.7789E-02  0.3715E+00
     18.589  0.7059E-02  0.3734E+00
     18.860  0.8289E-02  0.3757E+00
     19.130  0.4994E-02  0.3770E+00
     19.400  0.5159E-02  0.3784E+00
     19.671  0.6714E-02  0.3802E+00
     19.941  0.9816E-02  0.3829E+00
     20.211  0.9438E-02  0.3854E+00
     20.482  0.7283E-02  0.3874E+00
     20.752  0.2564E-02  0.3881E+00
     21.022  0.6737E-02  0.3899E+00
     21.292  0.1056E-01  0.3928E+00
     21.563  0.7321E-02  0.3947E+00
     21.833  0.3972E-02  0.3958E+00
     22.103  0.3880E-02  0.3969E+00
     22.374  0.1070E-01  0.3997E+00
     22.644  0.3556E-02  0.4007E+00
     22.914  0.3817E-02  0.4017E+00
     23.184  0.1152E-01  0.4049E+00
     23.455  0.1232E-01  0.4082E+00
     23.725  0.9654E-02  0.4108E+00
     23.995  0.6087E-02  0.4124E+00
     24.266  0.8267E-02  0.4147E+00
     24.536  0.3856E-02  0.4157E+00
     24.806  0.8029E-02  0.4179E+00
     25.077  0.1855E-01  0.4229E+00
     25.347  0.1926E-01  0.4281E+00
     25.617  0.1453E-01  0.4320E+00
     25.887  0.1618E-01  0.4364E+00
     26.158  0.1057E-01  0.4393E+00
     26.428  0.1166E-01  0.4424E+00
     26.698  0.1054E-01  0.4453E+00
     26.969  0.2089E-01  0.4509E+00
     27.239  0.1745E-01  0.4556E+00
     27.509  0.1164E-01  0.4588E+00
     27.779  0.1272E-01  0.4622E+00
     28.050  0.1373E-01  0.4659E+00
     28.320  0.8756E-02  0.4683E+00
     28.590  0.7362E-02  0.4703E+00
     28.861  0.6206E-02  0.4720E+00
     29.131  0.7612E-02  0.4740E+00
     29.401  0.2400E-02  0.4747E+00
     29.672  0.5904E-02  0.4763E+00
     29.942  0.4114E-02  0.4774E+00
     30.212  0.1601E-02  0.4778E+00
     30.482  0.5590E-02  0.4793E+00
     30.753  0.1068E-02  0.4796E+00
     31.023  0.7392E-03  0.4798E+00
     31.293  0.1115E-03  0.4798E+00
     31.564  0.4438E-03  0.4799E+00
     31.834  0.5027E-06  0.4800E+00
     32.104  0.1845E-03  0.4800E+00
     32.374  0.0000E+00  0.4800E+00
     32.645  0.0000E+00  0.4800E+00
     32.915  0.0000E+00  0.4800E+00
     33.185  0.0000E+00  0.4800E+00
     33.456  0.0000E+00  0.4800E+00
     33.726  0.0000E+00  0.4800E+00
     33.996  0.0000E+00  0.4800E+00
     34.267  0.0000E+00  0.4800E+00
     34.537  0.0000E+00  0.4800E+00
     34.807  0.0000E+00  0.4800E+00
     35.077  0.0000E+00  0.4800E+00
     35.348  0.0000E+00  0.4800E+00
     35.618  0.0000E+00  0.4800E+00
     35.61802381    -45.47039122  301     10.99042484      1.00000000
    -45.470  0.0000E+00  0.0000E+00  0.0000E+00  0.0000E+00  0.0000E+00  0.0000E+00  0.0000E+00  0.0000E+00  0.0000E+00
    -45.200  0.0000E+00  0.0000E+00  0.0000E+00  0.0000E+00  0.0000E+00  0.0000E+00  0.0000E+00  0.0000E+00  0.0000E+00
    -44.930  0.0000E+00  0.0000E+00  0.0000E+00  0.0000E+00  0.0000E+00  0.0000E+00  0.0000E+00  0.0000E+00  0.0000E+00
    -44.660  0.0000E+00  0.0000E+00  0.0000E+00  0.0000E+00  0.0000E+00  0.0000E+00  0.0000E+00  0.0000E+00  0.0000E+00
    -44.389  0.0000E+00  0.0000E+00  0.0000E+00  0.0000E+00  0.0000E+00  0.0000E+00  0.0000E+00  0.0000E+00  0.0000E+00
    -44.119  0.0000E+00  0.0000E+00  0.0000E+00  0.0000E+00  0.0000E+00  0.0000E+00  0.0000E+00  0.0000E+00  0.0000E+00
    -43.849  0.0000E+00  0.0000E+00  0.0000E+00  0.0000E+00  0.0000E+00  0.0000E+00  0.0000E+00  0.0000E+00  0.0000E+00
    -43.578  0.0000E+00  0.0000E+00  0.0000E+00  0.0000E+00  0.0000E+00  0.0000E+00  0.0000E+00  0.0000E+00  0.0000E+00
    -43.308  0.0000E+00  0.0000E+00  0.0000E+00  0.0000E+00  0.0000E+00  0.0000E+00  0.0000E+00  0.0000E+00  0.0000E+00
    -43.038  0.0000E+00  0.0000E+00  0.0000E+00  0.0000E+00  0.0000E+00  0.0000E+00  0.0000E+00  0.0000E+00  0.0000E+00
    -42.767  0.0000E+00  0.0000E+00  0.0000E+00  0.0000E+00  0.0000E+00  0.0000E+00  0.0000E+00  0.0000E+00  0.0000E+00
    -42.497  0.0000E+00  0.0000E+00  0.0000E+00  0.0000E+00  0.0000E+00  0.0000E+00  0.0000E+00  0.0000E+00  0.0000E+00
    -42.227  0.0000E+00  0.0000E+00  0.0000E+00  0.0000E+00  0.0000E+00  0.0000E+00  0.0000E+00  0.0000E+00  0.0000E+00
    -41.957  0.3119E-12  0.3156E-07  0.1330E-08  0.3156E-07  0.6764E-13  0.2152E-13  0.3323E-12  0.2152E-13  0.6764E-13
    -41.686  0.6603E-04  0.1677E+01  0.7971E-01  0.1677E+01  0.2988E-04  0.2575E-05  0.3737E-04  0.2575E-05  0.2988E-04
    -41.416  0.2074E-03  0.4968E+01  0.2128E+01  0.4968E+01  0.1389E-03  0.3226E-04  0.9446E-04  0.3226E-04  0.1389E-03
    -41.146  0.2219E-04  0.6836E+00  0.5122E+01  0.6836E+00  0.9318E-05  0.2745E-04  0.3140E-04  0.2745E-04  0.9318E-05
    -40.875  0.5921E-10  0.2262E-07  0.4342E-04  0.2262E-07  0.5054E-12  0.2319E-10  0.3659E-10  0.2319E-10  0.5054E-12
    -40.605  0.0000E+00  0.0000E+00  0.0000E+00  0.0000E+00  0.0000E+00  0.0000E+00  0.0000E+00  0.0000E+00  0.0000E+00
    -40.335  0.0000E+00  0.0000E+00  0.0000E+00  0.0000E+00  0.0000E+00  0.0000E+00  0.0000E+00  0.0000E+00  0.0000E+00
    -40.064  0.0000E+00  0.0000E+00  0.0000E+00  0.0000E+00  0.0000E+00  0.0000E+00  0.0000E+00  0.0000E+00  0.0000E+00
    -39.794  0.0000E+00  0.0000E+00  0.0000E+00  0.0000E+00  0.0000E+00  0.0000E+00  0.0000E+00  0.0000E+00  0.0000E+00
    -39.524  0.0000E+00  0.0000E+00  0.0000E+00  0.0000E+00  0.0000E+00  0.0000E+00  0.0000E+00  0.0000E+00  0.0000E+00
    -39.254  0.0000E+00  0.0000E+00  0.0000E+00  0.0000E+00  0.0000E+00  0.0000E+00  0.0000E+00  0.0000E+00  0.0000E+00
    -38.983  0.0000E+00  0.0000E+00  0.0000E+00  0.0000E+00  0.0000E+00  0.0000E+00  0.0000E+00  0.0000E+00  0.0000E+00
    -38.713  0.0000E+00  0.0000E+00  0.0000E+00  0.0000E+00  0.0000E+00  0.0000E+00  0.0000E+00  0.0000E+00  0.0000E+00
    -38.443  0.0000E+00  0.0000E+00  0.0000E+00  0.0000E+00  0.0000E+00  0.0000E+00  0.0000E+00  0.0000E+00  0.0000E+00
    -38.172  0.0000E+00  0.0000E+00  0.0000E+00  0.0000E+00  0.0000E+00  0.0000E+00  0.0000E+00  0.0000E+00  0.0000E+00
    -37.902  0.0000E+00  0.0000E+00  0.0000E+00  0.0000E+00  0.0000E+00  0.0000E+00  0.0000E+00  0.0000E+00  0.0000E+00
    -37.632  0.0000E+00  0.0000E+00  0.0000E+00  0.0000E+00  0.0000E+00  0.0000E+00  0.0000E+00  0.0000E+00  0.0000E+00
    -37.362  0.0000E+00  0.0000E+00  0.0000E+00  0.0000E+00  0.0000E+00  0.0000E+00  0.0000E+00  0.0000E+00  0.0000E+00
    -37.091  0.0000E+00  0.0000E+00  0.0000E+00  0.0000E+00  0.0000E+00  0.0000E+00  0.0000E+00  0.0000E+00  0.0000E+00
    -36.821  0.0000E+00  0.0000E+00  0.0000E+00  0.0000E+00  0.0000E+00  0.0000E+00  0.0000E+00  0.0000E+00  0.0000E+00
    -36.551  0.0000E+00  0.0000E+00  0.0000E+00  0.0000E+00  0.0000E+00  0.0000E+00  0.0000E+00  0.0000E+00  0.0000E+00
    -36.280  0.0000E+00  0.0000E+00  0.0000E+00  0.0000E+00  0.0000E+00  0.0000E+00  0.0000E+00  0.0000E+00  0.0000E+00
    -36.010  0.0000E+00  0.0000E+00  0.0000E+00  0.0000E+00  0.0000E+00  0.0000E+00  0.0000E+00  0.0000E+00  0.0000E+00
    -35.740  0.0000E+00  0.0000E+00  0.0000E+00  0.0000E+00  0.0000E+00  0.0000E+00  0.0000E+00  0.0000E+00  0.0000E+00
    -35.469  0.0000E+00  0.0000E+00  0.0000E+00  0.0000E+00  0.0000E+00  0.0000E+00  0.0000E+00  0.0000E+00  0.0000E+00
    -35.199  0.0000E+00  0.0000E+00  0.0000E+00  0.0000E+00  0.0000E+00  0.0000E+00  0.0000E+00  0.0000E+00  0.0000E+00
    -34.929  0.0000E+00  0.0000E+00  0.0000E+00  0.0000E+00  0.0000E+00  0.0000E+00  0.0000E+00  0.0000E+00  0.0000E+00
    -34.659  0.0000E+00  0.0000E+00  0.0000E+00  0.0000E+00  0.0000E+00  0.0000E+00  0.0000E+00  0.0000E+00  0.0000E+00
    -34.388  0.0000E+00  0.0000E+00  0.0000E+00  0.0000E+00  0.0000E+00  0.0000E+00  0.0000E+00  0.0000E+00  0.0000E+00
    -34.118  0.0000E+00  0.0000E+00  0.0000E+00  0.0000E+00  0.0000E+00  0.0000E+00  0.0000E+00  0.0000E+00  0.0000E+00
    -33.848  0.0000E+00  0.0000E+00  0.0000E+00  0.0000E+00  0.0000E+00  0.0000E+00  0.0000E+00  0.0000E+00  0.0000E+00
    -33.577  0.0000E+00  0.0000E+00  0.0000E+00  0.0000E+00  0.0000E+00  0.0000E+00  0.0000E+00  0.0000E+00  0.0000E+00
    -33.307  0.0000E+00  0.0000E+00  0.0000E+00  0.0000E+00  0.0000E+00  0.0000E+00  0.0000E+00  0.0000E+00  0.0000E+00
    -33.037  0.0000E+00  0.0000E+00  0.0000E+00  0.0000E+00  0.0000E+00  0.0000E+00  0.0000E+00  0.0000E+00  0.0000E+00
    -32.767  0.0000E+00  0.0000E+00  0.0000E+00  0.0000E+00  0.0000E+00  0.0000E+00  0.0000E+00  0.0000E+00  0.0000E+00
    -32.496  0.0000E+00  0.0000E+00  0.0000E+00  0.0000E+00  0.0000E+00  0.0000E+00  0.0000E+00  0.0000E+00  0.0000E+00
    -32.226  0.0000E+00  0.0000E+00  0.0000E+00  0.0000E+00  0.0000E+00  0.0000E+00  0.0000E+00  0.0000E+00  0.0000E+00
    -31.956  0.0000E+00  0.0000E+00  0.0000E+00  0.0000E+00  0.0000E+00  0.0000E+00  0.0000E+00  0.0000E+00  0.0000E+00
    -31.685  0.0000E+00  0.0000E+00  0.0000E+00  0.0000E+00  0.0000E+00  0.0000E+00  0.0000E+00  0.0000E+00  0.0000E+00
    -31.415  0.0000E+00  0.0000E+00  0.0000E+00  0.0000E+00  0.0000E+00  0.0000E+00  0.0000E+00  0.0000E+00  0.0000E+00
    -31.145  0.0000E+00  0.0000E+00  0.0000E+00  0.0000E+00  0.0000E+00  0.0000E+00  0.0000E+00  0.0000E+00  0.0000E+00
    -30.874  0.0000E+00  0.0000E+00  0.0000E+00  0.0000E+00  0.0000E+00  0.0000E+00  0.0000E+00  0.0000E+00  0.0000E+00
    -30.604  0.0000E+00  0.0000E+00  0.0000E+00  0.0000E+00  0.0000E+00  0.0000E+00  0.0000E+00  0.0000E+00  0.0000E+00
    -30.334  0.0000E+00  0.0000E+00  0.0000E+00  0.0000E+00  0.0000E+00  0.0000E+00  0.0000E+00  0.0000E+00  0.0000E+00
    -30.064  0.0000E+00  0.0000E+00  0.0000E+00  0.0000E+00  0.0000E+00  0.0000E+00  0.0000E+00  0.0000E+00  0.0000E+00
    -29.793  0.0000E+00  0.0000E+00  0.0000E+00  0.0000E+00  0.0000E+00  0.0000E+00  0.0000E+00  0.0000E+00  0.0000E+00
    -29.523  0.0000E+00  0.0000E+00  0.0000E+00  0.0000E+00  0.0000E+00  0.0000E+00  0.0000E+00  0.0000E+00  0.0000E+00
    -29.253  0.0000E+00  0.0000E+00  0.0000E+00  0.0000E+00  0.0000E+00  0.0000E+00  0.0000E+00  0.0000E+00  0.0000E+00
    -28.982  0.0000E+00  0.0000E+00  0.0000E+00  0.0000E+00  0.0000E+00  0.0000E+00  0.0000E+00  0.0000E+00  0.0000E+00
    -28.712  0.0000E+00  0.0000E+00  0.0000E+00  0.0000E+00  0.0000E+00  0.0000E+00  0.0000E+00  0.0000E+00  0.0000E+00
    -28.442  0.0000E+00  0.0000E+00  0.0000E+00  0.0000E+00  0.0000E+00  0.0000E+00  0.0000E+00  0.0000E+00  0.0000E+00
    -28.172  0.0000E+00  0.0000E+00  0.0000E+00  0.0000E+00  0.0000E+00  0.0000E+00  0.0000E+00  0.0000E+00  0.0000E+00
    -27.901  0.0000E+00  0.0000E+00  0.0000E+00  0.0000E+00  0.0000E+00  0.0000E+00  0.0000E+00  0.0000E+00  0.0000E+00
    -27.631  0.0000E+00  0.0000E+00  0.0000E+00  0.0000E+00  0.0000E+00  0.0000E+00  0.0000E+00  0.0000E+00  0.0000E+00
    -27.361  0.0000E+00  0.0000E+00  0.0000E+00  0.0000E+00  0.0000E+00  0.0000E+00  0.0000E+00  0.0000E+00  0.0000E+00
    -27.090  0.0000E+00  0.0000E+00  0.0000E+00  0.0000E+00  0.0000E+00  0.0000E+00  0.0000E+00  0.0000E+00  0.0000E+00
    -26.820  0.0000E+00  0.0000E+00  0.0000E+00  0.0000E+00  0.0000E+00  0.0000E+00  0.0000E+00  0.0000E+00  0.0000E+00
    -26.550  0.0000E+00  0.0000E+00  0.0000E+00  0.0000E+00  0.0000E+00  0.0000E+00  0.0000E+00  0.0000E+00  0.0000E+00
    -26.279  0.0000E+00  0.0000E+00  0.0000E+00  0.0000E+00  0.0000E+00  0.0000E+00  0.0000E+00  0.0000E+00  0.0000E+00
    -26.009  0.0000E+00  0.0000E+00  0.0000E+00  0.0000E+00  0.0000E+00  0.0000E+00  0.0000E+00  0.0000E+00  0.0000E+00
    -25.739  0.0000E+00  0.0000E+00  0.0000E+00  0.0000E+00  0.0000E+00  0.0000E+00  0.0000E+00  0.0000E+00  0.0000E+00
    -25.469  0.0000E+00  0.0000E+00  0.0000E+00  0.0000E+00  0.0000E+00  0.0000E+00  0.0000E+00  0.0000E+00  0.0000E+00
    -25.198  0.0000E+00  0.0000E+00  0.0000E+00  0.0000E+00  0.0000E+00  0.0000E+00  0.0000E+00  0.0000E+00  0.0000E+00
    -24.928  0.0000E+00  0.0000E+00  0.0000E+00  0.0000E+00  0.0000E+00  0.0000E+00  0.0000E+00  0.0000E+00  0.0000E+00
    -24.658  0.0000E+00  0.0000E+00  0.0000E+00  0.0000E+00  0.0000E+00  0.0000E+00  0.0000E+00  0.0000E+00  0.0000E+00
    -24.387  0.0000E+00  0.0000E+00  0.0000E+00  0.0000E+00  0.0000E+00  0.0000E+00  0.0000E+00  0.0000E+00  0.0000E+00
    -24.117  0.0000E+00  0.0000E+00  0.0000E+00  0.0000E+00  0.0000E+00  0.0000E+00  0.0000E+00  0.0000E+00  0.0000E+00
    -23.847  0.0000E+00  0.0000E+00  0.0000E+00  0.0000E+00  0.0000E+00  0.0000E+00  0.0000E+00  0.0000E+00  0.0000E+00
    -23.577  0.0000E+00  0.0000E+00  0.0000E+00  0.0000E+00  0.0000E+00  0.0000E+00  0.0000E+00  0.0000E+00  0.0000E+00
    -23.306  0.0000E+00  0.0000E+00  0.0000E+00  0.0000E+00  0.0000E+00  0.0000E+00  0.0000E+00  0.0000E+00  0.0000E+00
    -23.036  0.0000E+00  0.0000E+00  0.0000E+00  0.0000E+00  0.0000E+00  0.0000E+00  0.0000E+00  0.0000E+00  0.0000E+00
    -22.766  0.0000E+00  0.0000E+00  0.0000E+00  0.0000E+00  0.0000E+00  0.0000E+00  0.0000E+00  0.0000E+00  0.0000E+00
    -22.495  0.0000E+00  0.0000E+00  0.0000E+00  0.0000E+00  0.0000E+00  0.0000E+00  0.0000E+00  0.0000E+00  0.0000E+00
    -22.225  0.0000E+00  0.0000E+00  0.0000E+00  0.0000E+00  0.0000E+00  0.0000E+00  0.0000E+00  0.0000E+00  0.0000E+00
    -21.955  0.0000E+00  0.0000E+00  0.0000E+00  0.0000E+00  0.0000E+00  0.0000E+00  0.0000E+00  0.0000E+00  0.0000E+00
    -21.684  0.0000E+00  0.0000E+00  0.0000E+00  0.0000E+00  0.0000E+00  0.0000E+00  0.0000E+00  0.0000E+00  0.0000E+00
    -21.414  0.0000E+00  0.0000E+00  0.0000E+00  0.0000E+00  0.0000E+00  0.0000E+00  0.0000E+00  0.0000E+00  0.0000E+00
    -21.144  0.0000E+00  0.0000E+00  0.0000E+00  0.0000E+00  0.0000E+00  0.0000E+00  0.0000E+00  0.0000E+00  0.0000E+00
    -20.874  0.0000E+00  0.0000E+00  0.0000E+00  0.0000E+00  0.0000E+00  0.0000E+00  0.0000E+00  0.0000E+00  0.0000E+00
    -20.603  0.0000E+00  0.0000E+00  0.0000E+00  0.0000E+00  0.0000E+00  0.0000E+00  0.0000E+00  0.0000E+00  0.0000E+00
    -20.333  0.0000E+00  0.0000E+00  0.0000E+00  0.0000E+00  0.0000E+00  0.0000E+00  0.0000E+00  0.0000E+00  0.0000E+00
    -20.063  0.0000E+00  0.0000E+00  0.0000E+00  0.0000E+00  0.0000E+00  0.0000E+00  0.0000E+00  0.0000E+00  0.0000E+00
    -19.792  0.0000E+00  0.0000E+00  0.0000E+00  0.0000E+00  0.0000E+00  0.0000E+00  0.0000E+00  0.0000E+00  0.0000E+00
    -19.522  0.0000E+00  0.0000E+00  0.0000E+00  0.0000E+00  0.0000E+00  0.0000E+00  0.0000E+00  0.0000E+00  0.0000E+00
    -19.252  0.0000E+00  0.0000E+00  0.0000E+00  0.0000E+00  0.0000E+00  0.0000E+00  0.0000E+00  0.0000E+00  0.0000E+00
    -18.982  0.0000E+00  0.0000E+00  0.0000E+00  0.0000E+00  0.0000E+00  0.0000E+00  0.0000E+00  0.0000E+00  0.0000E+00
    -18.711  0.0000E+00  0.0000E+00  0.0000E+00  0.0000E+00  0.0000E+00  0.0000E+00  0.0000E+00  0.0000E+00  0.0000E+00
    -18.441  0.0000E+00  0.0000E+00  0.0000E+00  0.0000E+00  0.0000E+00  0.0000E+00  0.0000E+00  0.0000E+00  0.0000E+00
    -18.171  0.0000E+00  0.0000E+00  0.0000E+00  0.0000E+00  0.0000E+00  0.0000E+00  0.0000E+00  0.0000E+00  0.0000E+00
    -17.900  0.0000E+00  0.0000E+00  0.0000E+00  0.0000E+00  0.0000E+00  0.0000E+00  0.0000E+00  0.0000E+00  0.0000E+00
    -17.630  0.0000E+00  0.0000E+00  0.0000E+00  0.0000E+00  0.0000E+00  0.0000E+00  0.0000E+00  0.0000E+00  0.0000E+00
    -17.360  0.0000E+00  0.0000E+00  0.0000E+00  0.0000E+00  0.0000E+00  0.0000E+00  0.0000E+00  0.0000E+00  0.0000E+00
    -17.089  0.0000E+00  0.0000E+00  0.0000E+00  0.0000E+00  0.0000E+00  0.0000E+00  0.0000E+00  0.0000E+00  0.0000E+00
    -16.819  0.0000E+00  0.0000E+00  0.0000E+00  0.0000E+00  0.0000E+00  0.0000E+00  0.0000E+00  0.0000E+00  0.0000E+00
    -16.549  0.0000E+00  0.0000E+00  0.0000E+00  0.0000E+00  0.0000E+00  0.0000E+00  0.0000E+00  0.0000E+00  0.0000E+00
    -16.279  0.0000E+00  0.0000E+00  0.0000E+00  0.0000E+00  0.0000E+00  0.0000E+00  0.0000E+00  0.0000E+00  0.0000E+00
    -16.008  0.0000E+00  0.0000E+00  0.0000E+00  0.0000E+00  0.0000E+00  0.0000E+00  0.0000E+00  0.0000E+00  0.0000E+00
    -15.738  0.0000E+00  0.0000E+00  0.0000E+00  0.0000E+00  0.0000E+00  0.0000E+00  0.0000E+00  0.0000E+00  0.0000E+00
    -15.468  0.0000E+00  0.0000E+00  0.0000E+00  0.0000E+00  0.0000E+00  0.0000E+00  0.0000E+00  0.0000E+00  0.0000E+00
    -15.197  0.0000E+00  0.0000E+00  0.0000E+00  0.0000E+00  0.0000E+00  0.0000E+00  0.0000E+00  0.0000E+00  0.0000E+00
    -14.927  0.0000E+00  0.0000E+00  0.0000E+00  0.0000E+00  0.0000E+00  0.0000E+00  0.0000E+00  0.0000E+00  0.0000E+00
    -14.657  0.0000E+00  0.0000E+00  0.0000E+00  0.0000E+00  0.0000E+00  0.0000E+00  0.0000E+00  0.0000E+00  0.0000E+00
    -14.386  0.0000E+00  0.0000E+00  0.0000E+00  0.0000E+00  0.0000E+00  0.0000E+00  0.0000E+00  0.0000E+00  0.0000E+00
    -14.116  0.0000E+00  0.0000E+00  0.0000E+00  0.0000E+00  0.0000E+00  0.0000E+00  0.0000E+00  0.0000E+00  0.0000E+00
    -13.846  0.0000E+00  0.0000E+00  0.0000E+00  0.0000E+00  0.0000E+00  0.0000E+00  0.0000E+00  0.0000E+00  0.0000E+00
    -13.576  0.0000E+00  0.0000E+00  0.0000E+00  0.0000E+00  0.0000E+00  0.0000E+00  0.0000E+00  0.0000E+00  0.0000E+00
    -13.305  0.0000E+00  0.0000E+00  0.0000E+00  0.0000E+00  0.0000E+00  0.0000E+00  0.0000E+00  0.0000E+00  0.0000E+00
    -13.035  0.0000E+00  0.0000E+00  0.0000E+00  0.0000E+00  0.0000E+00  0.0000E+00  0.0000E+00  0.0000E+00  0.0000E+00
    -12.765  0.0000E+00  0.0000E+00  0.0000E+00  0.0000E+00  0.0000E+00  0.0000E+00  0.0000E+00  0.0000E+00  0.0000E+00
    -12.494  0.0000E+00  0.0000E+00  0.0000E+00  0.0000E+00  0.0000E+00  0.0000E+00  0.0000E+00  0.0000E+00  0.0000E+00
    -12.224  0.0000E+00  0.0000E+00  0.0000E+00  0.0000E+00  0.0000E+00  0.0000E+00  0.0000E+00  0.0000E+00  0.0000E+00
    -11.954  0.0000E+00  0.0000E+00  0.0000E+00  0.0000E+00  0.0000E+00  0.0000E+00  0.0000E+00  0.0000E+00  0.0000E+00
    -11.684  0.0000E+00  0.0000E+00  0.0000E+00  0.0000E+00  0.0000E+00  0.0000E+00  0.0000E+00  0.0000E+00  0.0000E+00
    -11.413  0.0000E+00  0.0000E+00  0.0000E+00  0.0000E+00  0.0000E+00  0.0000E+00  0.0000E+00  0.0000E+00  0.0000E+00
    -11.143  0.0000E+00  0.0000E+00  0.0000E+00  0.0000E+00  0.0000E+00  0.0000E+00  0.0000E+00  0.0000E+00  0.0000E+00
    -10.873  0.0000E+00  0.0000E+00  0.0000E+00  0.0000E+00  0.0000E+00  0.0000E+00  0.0000E+00  0.0000E+00  0.0000E+00
    -10.602  0.0000E+00  0.0000E+00  0.0000E+00  0.0000E+00  0.0000E+00  0.0000E+00  0.0000E+00  0.0000E+00  0.0000E+00
    -10.332  0.0000E+00  0.0000E+00  0.0000E+00  0.0000E+00  0.0000E+00  0.0000E+00  0.0000E+00  0.0000E+00  0.0000E+00
    -10.062  0.0000E+00  0.0000E+00  0.0000E+00  0.0000E+00  0.0000E+00  0.0000E+00  0.0000E+00  0.0000E+00  0.0000E+00
     -9.791  0.0000E+00  0.0000E+00  0.0000E+00  0.0000E+00  0.0000E+00  0.0000E+00  0.0000E+00  0.0000E+00  0.0000E+00
     -9.521  0.0000E+00  0.0000E+00  0.0000E+00  0.0000E+00  0.0000E+00  0.0000E+00  0.0000E+00  0.0000E+00  0.0000E+00
     -9.251  0.0000E+00  0.0000E+00  0.0000E+00  0.0000E+00  0.0000E+00  0.0000E+00  0.0000E+00  0.0000E+00  0.0000E+00
     -8.981  0.0000E+00  0.0000E+00  0.0000E+00  0.0000E+00  0.0000E+00  0.0000E+00  0.0000E+00  0.0000E+00  0.0000E+00
     -8.710  0.0000E+00  0.0000E+00  0.0000E+00  0.0000E+00  0.0000E+00  0.0000E+00  0.0000E+00  0.0000E+00  0.0000E+00
     -8.440  0.0000E+00  0.0000E+00  0.0000E+00  0.0000E+00  0.0000E+00  0.0000E+00  0.0000E+00  0.0000E+00  0.0000E+00
     -8.170  0.0000E+00  0.0000E+00  0.0000E+00  0.0000E+00  0.0000E+00  0.0000E+00  0.0000E+00  0.0000E+00  0.0000E+00
     -7.899  0.0000E+00  0.0000E+00  0.0000E+00  0.0000E+00  0.0000E+00  0.0000E+00  0.0000E+00  0.0000E+00  0.0000E+00
     -7.629  0.0000E+00  0.0000E+00  0.0000E+00  0.0000E+00  0.0000E+00  0.0000E+00  0.0000E+00  0.0000E+00  0.0000E+00
     -7.359  0.0000E+00  0.0000E+00  0.0000E+00  0.0000E+00  0.0000E+00  0.0000E+00  0.0000E+00  0.0000E+00  0.0000E+00
     -7.089  0.0000E+00  0.0000E+00  0.0000E+00  0.0000E+00  0.0000E+00  0.0000E+00  0.0000E+00  0.0000E+00  0.0000E+00
     -6.818  0.0000E+00  0.0000E+00  0.0000E+00  0.0000E+00  0.0000E+00  0.0000E+00  0.0000E+00  0.0000E+00  0.0000E+00
     -6.548  0.0000E+00  0.0000E+00  0.0000E+00  0.0000E+00  0.0000E+00  0.0000E+00  0.0000E+00  0.0000E+00  0.0000E+00
     -6.278  0.0000E+00  0.0000E+00  0.0000E+00  0.0000E+00  0.0000E+00  0.0000E+00  0.0000E+00  0.0000E+00  0.0000E+00
     -6.007  0.0000E+00  0.0000E+00  0.0000E+00  0.0000E+00  0.0000E+00  0.0000E+00  0.0000E+00  0.0000E+00  0.0000E+00
     -5.737  0.0000E+00  0.0000E+00  0.0000E+00  0.0000E+00  0.0000E+00  0.0000E+00  0.0000E+00  0.0000E+00  0.0000E+00
     -5.467  0.0000E+00  0.0000E+00  0.0000E+00  0.0000E+00  0.0000E+00  0.0000E+00  0.0000E+00  0.0000E+00  0.0000E+00
     -5.196  0.0000E+00  0.0000E+00  0.0000E+00  0.0000E+00  0.0000E+00  0.0000E+00  0.0000E+00  0.0000E+00  0.0000E+00
     -4.926  0.0000E+00  0.0000E+00  0.0000E+00  0.0000E+00  0.0000E+00  0.0000E+00  0.0000E+00  0.0000E+00  0.0000E+00
     -4.656  0.0000E+00  0.0000E+00  0.0000E+00  0.0000E+00  0.0000E+00  0.0000E+00  0.0000E+00  0.0000E+00  0.0000E+00
     -4.386  0.0000E+00  0.0000E+00  0.0000E+00  0.0000E+00  0.0000E+00  0.0000E+00  0.0000E+00  0.0000E+00  0.0000E+00
     -4.115  0.0000E+00  0.0000E+00  0.0000E+00  0.0000E+00  0.0000E+00  0.0000E+00  0.0000E+00  0.0000E+00  0.0000E+00
     -3.845  0.0000E+00  0.0000E+00  0.0000E+00  0.0000E+00  0.0000E+00  0.0000E+00  0.0000E+00  0.0000E+00  0.0000E+00
     -3.575  0.0000E+00  0.0000E+00  0.0000E+00  0.0000E+00  0.0000E+00  0.0000E+00  0.0000E+00  0.0000E+00  0.0000E+00
     -3.304  0.0000E+00  0.0000E+00  0.0000E+00  0.0000E+00  0.0000E+00  0.0000E+00  0.0000E+00  0.0000E+00  0.0000E+00