       N       E                     dE             d eps       ncg     rms          rms(c)
DAV:   1     0.139929802366E+03    0.13993E+03   -0.23074E+04  3384   0.126E+03
DAV:   2    -0.113485394697E+02   -0.15128E+03   -0.15028E+03  3480   0.274E+02
DAV:   3    -0.127459302861E+02   -0.13974E+01   -0.13936E+01  4896   0.337E+01
DAV:   4    -0.127491053061E+02   -0.31750E-02   -0.31743E-02  4440   0.125E+00
DAV:   5    -0.127491072842E+02   -0.19780E-05   -0.19787E-05  5016   0.272E-02    0.194E+01
DAV:   6    -0.120724724642E+02    0.67663E+00   -0.26816E+00  3504   0.101E+01    0.580E+00
DAV:   7    -0.120402838183E+02    0.32189E-01   -0.14072E-01  4656   0.196E+00    0.181E+00
DAV:   8    -0.120380516736E+02    0.22321E-02   -0.72013E-03  3624   0.912E-01    0.243E-01
DAV:   9    -0.120378844587E+02    0.16721E-03   -0.23413E-04  4512   0.101E-01    0.297E-02
DAV:  10    -0.120378990455E+02   -0.14587E-04   -0.10508E-05  3984   0.246E-02    0.103E-02
DAV:  11    -0.120378986714E+02    0.37411E-06   -0.12217E-06  3720   0.887E-03
   1 F= -.12037899E+02 E0= -.12035489E+02  d E =-.120379E+02
