PROCAR lm decomposed
# of k-points:   70         # of bands:   24         # of ions:    2

 k-point     1 :    0.00000000 0.00000000 0.00000000     weight = 0.00125000

band     1 # energy  -41.58045823 # occ.  2.00000000
 
ion      s     py     pz     px    dxy    dyz    dz2    dxz  x2-y2    tot
    1  0.000  0.000  0.492  0.000  0.000  0.000  0.000  0.000  0.000  0.492
    2  0.000  0.000  0.492  0.000  0.000  0.000  0.000  0.000  0.000  0.492
tot    0.000  0.000  0.983  0.000  0.000  0.000  0.000  0.000  0.000  0.983
 
band     2 # energy  -41.41768619 # occ.  2.00000000
 
ion      s     py     pz     px    dxy    dyz    dz2    dxz  x2-y2    tot
    1  0.000  0.124  0.000  0.373  0.000  0.000  0.000  0.000  0.000  0.498
    2  0.000  0.124  0.000  0.373  0.000  0.000  0.000  0.000  0.000  0.498
tot    0.000  0.249  0.000  0.747  0.000  0.000  0.000  0.000  0.000  0.995
 
band     3 # energy  -41.41768521 # occ.  2.00000000
 
ion      s     py     pz     px    dxy    dyz    dz2    dxz  x2-y2    tot
    1  0.000  0.373  0.000  0.124  0.000  0.000  0.000  0.000  0.000  0.498
    2  0.000  0.373  0.000  0.124  0.000  0.000  0.000  0.000  0.000  0.498
tot    0.000  0.747  0.000  0.249  0.000  0.000  0.000  0.000  0.000  0.995
 
band     4 # energy  -41.37814575 # occ.  2.00000000
 
ion      s     py     pz     px    dxy    dyz    dz2    dxz  x2-y2    tot
    1  0.000  0.125  0.000  0.374  0.000  0.000  0.000  0.000  0.000  0.498
    2  0.000  0.125  0.000  0.374  0.000  0.000  0.000  0.000  0.000  0.498
tot    0.000  0.249  0.000  0.747  0.000  0.000  0.000  0.000  0.000  0.997
 
band     5 # energy  -41.37814476 # occ.  2.00000000
 
ion      s     py     pz     px    dxy    dyz    dz2    dxz  x2-y2    tot
    1  0.000  0.374  0.000  0.125  0.000  0.000  0.000  0.000  0.000  0.498
    2  0.000  0.374  0.000  0.125  0.000  0.000  0.000  0.000  0.000  0.498
tot    0.000  0.747  0.000  0.249  0.000  0.000  0.000  0.000  0.000  0.997
 
band     6 # energy  -41.25888182 # occ.  2.00000000
 
ion      s     py     pz     px    dxy    dyz    dz2    dxz  x2-y2    tot
    1  0.000  0.000  0.498  0.000  0.000  0.000  0.000  0.000  0.000  0.498
    2  0.000  0.000  0.498  0.000  0.000  0.000  0.000  0.000  0.000  0.498
tot    0.000  0.000  0.995  0.000  0.000  0.000  0.000  0.000  0.000  0.995
 
band     7 # energy    1.36335466 # occ.  2.00000000
 
ion      s     py     pz     px    dxy    dyz    dz2    dxz  x2-y2    tot
    1  0.192  0.000  0.000  0.000  0.000  0.000  0.000  0.000  0.000  0.192
    2  0.192  0.000  0.000  0.000  0.000  0.000  0.000  0.000  0.000  0.192
tot    0.383  0.000  0.000  0.000  0.000  0.000  0.001  0.000  0.000  0.384
 
band     8 # energy    4.00967675 # occ.  2.00000000
 
ion      s     py     pz     px    dxy    dyz    dz2    dxz  x2-y2    tot
    1  0.081  0.000  0.000  0.000  0.000  0.000  0.231  0.000  0.000  0.312
    2  0.081  0.000  0.000  0.000  0.000  0.000  0.231  0.000  0.000  0.312
tot    0.161  0.000  0.000  0.000  0.000  0.000  0.462  0.000  0.000  0.623
 
band     9 # energy    7.12701010 # occ.  2.00000000
 
ion      s     py     pz     px    dxy    dyz    dz2    dxz  x2-y2    tot
    1  0.000  0.000  0.000  0.000  0.000  0.000  0.412  0.000  0.000  0.412
    2  0.000  0.000  0.000  0.000  0.000  0.000  0.412  0.000  0.000  0.412
tot    0.000  0.000  0.000  0.000  0.000  0.000  0.825  0.000  0.000  0.825
 
band    10 # energy    7.61762622 # occ.  2.00000000
 
ion      s     py     pz     px    dxy    dyz    dz2    dxz  x2-y2    tot
    1  0.000  0.000  0.000  0.000  0.105  0.000  0.000  0.000  0.316  0.422
    2  0.000  0.000  0.000  0.000  0.105  0.000  0.000  0.000  0.316  0.422
tot    0.000  0.000  0.000  0.000  0.211  0.000  0.000  0.000  0.632  0.843
 
band    11 # energy    7.61762694 # occ.  2.00000000
 
ion      s     py     pz     px    dxy    dyz    dz2    dxz  x2-y2    tot
    1  0.000  0.000  0.000  0.000  0.316  0.000  0.000  0.000  0.105  0.422
    2  0.000  0.000  0.000  0.000  0.316  0.000  0.000  0.000  0.105  0.422
tot    0.000  0.000  0.000  0.000  0.632  0.000  0.000  0.000  0.211  0.843
 
band    12 # energy    7.98040785 # occ.  2.00000000
 
ion      s     py     pz     px    dxy    dyz    dz2    dxz  x2-y2    tot
    1  0.000  0.000  0.000  0.000  0.108  0.000  0.000  0.000  0.323  0.431
    2  0.000  0.000  0.000  0.000  0.108  0.000  0.000  0.000  0.323  0.431
tot    0.000  0.000  0.000  0.000  0.216  0.000  0.000  0.000  0.647  0.863
 
band    13 # energy    7.98040860 # occ.  2.00000000
 
ion      s     py     pz     px    dxy    dyz    dz2    dxz  x2-y2    tot
    1  0.000  0.000  0.000  0.000  0.323  0.000  0.000  0.000  0.108  0.431
    2  0.000  0.000  0.000  0.000  0.323  0.000  0.000  0.000  0.108  0.431
tot    0.000  0.000  0.000  0.000  0.647  0.000  0.000  0.000  0.216  0.863
 
band    14 # energy    9.22106287 # occ.  2.00000000
 
ion      s     py     pz     px    dxy    dyz    dz2    dxz  x2-y2    tot
    1  0.000  0.000  0.000  0.000  0.000  0.111  0.000  0.333  0.000  0.444
    2  0.000  0.000  0.000  0.000  0.000  0.111  0.000  0.333  0.000  0.444
tot    0.000  0.000  0.000  0.000  0.000  0.222  0.000  0.665  0.000  0.887
 
band    15 # energy    9.22106309 # occ.  2.00000000
 
ion      s     py     pz     px    dxy    dyz    dz2    dxz  x2-y2    tot
    1  0.000  0.000  0.000  0.000  0.000  0.333  0.000  0.111  0.000  0.444
    2  0.000  0.000  0.000  0.000  0.000  0.333  0.000  0.111  0.000  0.444
tot    0.000  0.000  0.000  0.000  0.000  0.665  0.000  0.222  0.000  0.887
 
band    16 # energy   10.33089887 # occ.  2.00000000
 
ion      s     py     pz     px    dxy    dyz    dz2    dxz  x2-y2    tot
    1  0.000  0.000  0.084  0.000  0.000  0.000  0.000  0.000  0.000  0.084
    2  0.000  0.000  0.084  0.000  0.000  0.000  0.000  0.000  0.000  0.084
tot    0.000  0.000  0.168  0.000  0.000  0.000  0.000  0.000  0.000  0.168
 
band    17 # energy   10.78853059 # occ.  1.99999999
 
ion      s     py     pz     px    dxy    dyz    dz2    dxz  x2-y2    tot
    1  0.000  0.000  0.000  0.000  0.000  0.116  0.000  0.349  0.000  0.465
    2  0.000  0.000  0.000  0.000  0.000  0.116  0.000  0.349  0.000  0.465
tot    0.000  0.000  0.000  0.000  0.000  0.232  0.000  0.697  0.000  0.929
 
band    18 # energy   10.78853084 # occ.  1.99999999
 
ion      s     py     pz     px    dxy    dyz    dz2    dxz  x2-y2    tot
    1  0.000  0.000  0.000  0.000  0.000  0.349  0.000  0.116  0.000  0.465
    2  0.000  0.000  0.000  0.000  0.000  0.349  0.000  0.116  0.000  0.465
tot    0.000  0.000  0.000  0.000  0.000  0.697  0.000  0.232  0.000  0.929
 
band    19 # energy   15.64953868 # occ.  0.00000000
 
ion      s     py     pz     px    dxy    dyz    dz2    dxz  x2-y2    tot
    1  0.176  0.000  0.000  0.000  0.000  0.000  0.226  0.000  0.000  0.402
    2  0.176  0.000  0.000  0.000  0.000  0.000  0.226  0.000  0.000  0.402
tot    0.353  0.000  0.000  0.000  0.000  0.000  0.452  0.000  0.000  0.805
 
band    20 # energy   26.09433549 # occ.  0.00000000
 
ion      s     py     pz     px    dxy    dyz    dz2    dxz  x2-y2    tot
    1  0.003  0.000  0.000  0.000  0.000  0.000  0.002  0.000  0.000  0.005
    2  0.003  0.000  0.000  0.000  0.000  0.000  0.002  0.000  0.000  0.005
tot    0.006  0.000  0.000  0.000  0.000  0.000  0.004  0.000  0.000  0.011
 
band    21 # energy   26.70148544 # occ.  0.00000000
 
ion      s     py     pz     px    dxy    dyz    dz2    dxz  x2-y2    tot
    1  0.000  0.000  0.021  0.000  0.000  0.000  0.000  0.000  0.000  0.021
    2  0.000  0.000  0.021  0.000  0.000  0.000  0.000  0.000  0.000  0.021
tot    0.000  0.000  0.041  0.000  0.000  0.000  0.000  0.000  0.000  0.041
 
band    22 # energy   28.24316888 # occ.  0.00000000
 
ion      s     py     pz     px    dxy    dyz    dz2    dxz  x2-y2    tot
    1  0.000  0.000  0.000  0.000  0.000  0.000  0.017  0.000  0.000  0.017
    2  0.000  0.000  0.000  0.000  0.000  0.000  0.017  0.000  0.000  0.017
tot    0.001  0.000  0.000  0.000  0.000  0.000  0.033  0.000  0.000  0.034
 
band    23 # energy   31.93218652 # occ.  0.00000000
 
ion      s     py     pz     px    dxy    dyz    dz2    dxz  x2-y2    tot
    1  0.000  0.034  0.000  0.092  0.015  0.000  0.000  0.000  0.006  0.147
    2  0.000  0.034  0.000  0.092  0.015  0.000  0.000  0.000  0.006  0.147
tot    0.000  0.068  0.000  0.184  0.030  0.000  0.000  0.000  0.011  0.293
 
band    24 # energy   31.93218677 # occ.  0.00000000
 
ion      s     py     pz     px    dxy    dyz    dz2    dxz  x2-y2    tot
    1  0.000  0.092  0.000  0.034  0.006  0.000  0.000  0.000  0.015  0.147
    2  0.000  0.092  0.000  0.034  0.006  0.000  0.000  0.000  0.015  0.147
tot    0.000  0.184  0.000  0.068  0.011  0.000  0.000  0.000  0.030  0.293
 

 k-point     2 :    0.10000000 0.00000000 0.00000000     weight = 0.00750000

band     1 # energy  -41.56854844 # occ.  2.00000000
 
ion      s     py     pz     px    dxy    dyz    dz2    dxz  x2-y2    tot
    1  0.000  0.000  0.492  0.000  0.000  0.000  0.000  0.000  0.000  0.492
    2  0.000  0.000  0.492  0.000  0.000  0.000  0.000  0.000  0.000  0.492
tot    0.000  0.000  0.984  0.000  0.000  0.000  0.000  0.000  0.000  0.984
 
band     2 # energy  -41.45195888 # occ.  2.00000000
 
ion      s     py     pz     px    dxy    dyz    dz2    dxz  x2-y2    tot
    1  0.000  0.124  0.000  0.373  0.000  0.000  0.000  0.000  0.000  0.497
    2  0.000  0.124  0.000  0.373  0.000  0.000  0.000  0.000  0.000  0.497
tot    0.000  0.249  0.000  0.746  0.000  0.000  0.000  0.000  0.000  0.994
 
band     3 # energy  -41.42707653 # occ.  2.00000000
 
ion      s     py     pz     px    dxy    dyz    dz2    dxz  x2-y2    tot
    1  0.000  0.373  0.000  0.124  0.000  0.000  0.000  0.000  0.000  0.498
    2  0.000  0.373  0.000  0.124  0.000  0.000  0.000  0.000  0.000  0.498
tot    0.000  0.746  0.000  0.249  0.000  0.000  0.000  0.000  0.000  0.995
 
band     4 # energy  -41.41356127 # occ.  2.00000000
 
ion      s     py     pz     px    dxy    dyz    dz2    dxz  x2-y2    tot
    1  0.000  0.124  0.000  0.373  0.000  0.000  0.000  0.000  0.000  0.498
    2  0.000  0.124  0.000  0.373  0.000  0.000  0.000  0.000  0.000  0.498
tot    0.000  0.249  0.000  0.747  0.000  0.000  0.000  0.000  0.000  0.995
 
band     5 # energy  -41.38504908 # occ.  2.00000000
 
ion      s     py     pz     px    dxy    dyz    dz2    dxz  x2-y2    tot
    1  0.000  0.374  0.000  0.125  0.000  0.000  0.000  0.000  0.000  0.498
    2  0.000  0.374  0.000  0.125  0.000  0.000  0.000  0.000  0.000  0.498
tot    0.000  0.747  0.000  0.249  0.000  0.000  0.000  0.000  0.000  0.996
 
band     6 # energy  -41.26130594 # occ.  2.00000000
 
ion      s     py     pz     px    dxy    dyz    dz2    dxz  x2-y2    tot
    1  0.000  0.000  0.497  0.000  0.000  0.000  0.000  0.000  0.000  0.497
    2  0.000  0.000  0.497  0.000  0.000  0.000  0.000  0.000  0.000  0.497
tot    0.000  0.000  0.995  0.000  0.000  0.000  0.000  0.000  0.000  0.995
 
band     7 # energy    1.72159329 # occ.  2.00000000
 
ion      s     py     pz     px    dxy    dyz    dz2    dxz  x2-y2    tot
    1  0.188  0.001  0.000  0.002  0.000  0.000  0.000  0.000  0.000  0.190
    2  0.188  0.001  0.000  0.002  0.000  0.000  0.000  0.000  0.000  0.190
tot    0.375  0.001  0.000  0.003  0.001  0.000  0.000  0.000  0.000  0.381
 
band     8 # energy    4.33374691 # occ.  2.00000000
 
ion      s     py     pz     px    dxy    dyz    dz2    dxz  x2-y2    tot
    1  0.074  0.001  0.000  0.002  0.002  0.000  0.235  0.000  0.001  0.313
    2  0.074  0.001  0.000  0.002  0.002  0.000  0.235  0.000  0.001  0.313
tot    0.148  0.001  0.000  0.003  0.004  0.000  0.470  0.000  0.001  0.627
 
band     9 # energy    7.05904641 # occ.  2.00000000
 
ion      s     py     pz     px    dxy    dyz    dz2    dxz  x2-y2    tot
    1  0.000  0.000  0.000  0.000  0.116  0.000  0.253  0.000  0.039  0.408
    2  0.000  0.000  0.000  0.000  0.116  0.000  0.253  0.000  0.039  0.408
tot    0.000  0.000  0.000  0.001  0.232  0.000  0.505  0.000  0.077  0.816
 
band    10 # energy    7.63042209 # occ.  2.00000000
 
ion      s     py     pz     px    dxy    dyz    dz2    dxz  x2-y2    tot
    1  0.000  0.000  0.000  0.000  0.211  0.000  0.137  0.000  0.070  0.419
    2  0.000  0.000  0.000  0.000  0.211  0.000  0.137  0.000  0.070  0.419
tot    0.000  0.000  0.000  0.001  0.422  0.000  0.275  0.000  0.141  0.838
 
band    11 # energy    7.83498981 # occ.  2.00000000
 
ion      s     py     pz     px    dxy    dyz    dz2    dxz  x2-y2    tot
    1  0.002  0.000  0.000  0.000  0.298  0.000  0.025  0.000  0.099  0.424
    2  0.002  0.000  0.000  0.000  0.298  0.000  0.025  0.000  0.099  0.424
tot    0.003  0.000  0.000  0.001  0.596  0.000  0.050  0.000  0.199  0.848
 
band    12 # energy    7.89045066 # occ.  2.00000000
 
ion      s     py     pz     px    dxy    dyz    dz2    dxz  x2-y2    tot
    1  0.000  0.000  0.000  0.000  0.106  0.000  0.000  0.000  0.317  0.423
    2  0.000  0.000  0.000  0.000  0.106  0.000  0.000  0.000  0.317  0.423
tot    0.000  0.001  0.000  0.000  0.211  0.000  0.000  0.000  0.634  0.847
 
band    13 # energy    8.23937466 # occ.  2.00000000
 
ion      s     py     pz     px    dxy    dyz    dz2    dxz  x2-y2    tot
    1  0.000  0.000  0.000  0.000  0.108  0.000  0.000  0.000  0.324  0.433
    2  0.000  0.000  0.000  0.000  0.108  0.000  0.000  0.000  0.324  0.433
tot    0.000  0.001  0.000  0.000  0.216  0.000  0.000  0.000  0.649  0.866
 
band    14 # energy    8.65689804 # occ.  2.00000000
 
ion      s     py     pz     px    dxy    dyz    dz2    dxz  x2-y2    tot
    1  0.000  0.000  0.019  0.000  0.000  0.081  0.000  0.243  0.000  0.343
    2  0.000  0.000  0.019  0.000  0.000  0.081  0.000  0.243  0.000  0.343
tot    0.000  0.000  0.038  0.000  0.000  0.162  0.000  0.487  0.000  0.686
 
band    15 # energy    9.05343913 # occ.  2.00000000
 
ion      s     py     pz     px    dxy    dyz    dz2    dxz  x2-y2    tot
    1  0.000  0.000  0.000  0.000  0.000  0.329  0.000  0.110  0.000  0.439
    2  0.000  0.000  0.000  0.000  0.000  0.329  0.000  0.110  0.000  0.439
tot    0.000  0.000  0.000  0.000  0.000  0.659  0.000  0.220  0.000  0.878
 
band    16 # energy    9.20985528 # occ.  2.00000000
 
ion      s     py     pz     px    dxy    dyz    dz2    dxz  x2-y2    tot
    1  0.000  0.000  0.019  0.000  0.000  0.084  0.000  0.252  0.000  0.355
    2  0.000  0.000  0.019  0.000  0.000  0.084  0.000  0.252  0.000  0.355
tot    0.000  0.000  0.039  0.000  0.000  0.168  0.000  0.504  0.000  0.711
 
band    17 # energy   10.85074841 # occ.  1.99992206
 
ion      s     py     pz     px    dxy    dyz    dz2    dxz  x2-y2    tot
    1  0.000  0.000  0.000  0.000  0.000  0.350  0.000  0.117  0.000  0.467
    2  0.000  0.000  0.000  0.000  0.000  0.350  0.000  0.117  0.000  0.467
tot    0.000  0.000  0.000  0.000  0.000  0.701  0.000  0.234  0.000  0.935
 
band    18 # energy   12.55049568 # occ.  0.00000000
 
ion      s     py     pz     px    dxy    dyz    dz2    dxz  x2-y2    tot
    1  0.000  0.000  0.047  0.000  0.000  0.060  0.000  0.180  0.000  0.287
    2  0.000  0.000  0.047  0.000  0.000  0.060  0.000  0.180  0.000  0.287
tot    0.000  0.000  0.093  0.000  0.000  0.120  0.000  0.361  0.000  0.574
 
band    19 # energy   15.61467554 # occ.  0.00000000
 
ion      s     py     pz     px    dxy    dyz    dz2    dxz  x2-y2    tot
    1  0.177  0.000  0.000  0.001  0.002  0.000  0.218  0.000  0.001  0.398
    2  0.177  0.000  0.000  0.001  0.002  0.000  0.218  0.000  0.001  0.398
tot    0.355  0.000  0.000  0.001  0.003  0.000  0.435  0.000  0.001  0.795
 
band    20 # energy   26.51202759 # occ.  0.00000000
 
ion      s     py     pz     px    dxy    dyz    dz2    dxz  x2-y2    tot
    1  0.005  0.001  0.000  0.003  0.018  0.000  0.003  0.000  0.006  0.035
    2  0.005  0.001  0.000  0.003  0.018  0.000  0.003  0.000  0.006  0.035
tot    0.010  0.002  0.000  0.006  0.035  0.000  0.006  0.000  0.012  0.071
 
band    21 # energy   27.22298030 # occ.  0.00000000
 
ion      s     py     pz     px    dxy    dyz    dz2    dxz  x2-y2    tot
    1  0.000  0.000  0.018  0.000  0.000  0.002  0.000  0.005  0.000  0.025
    2  0.000  0.000  0.018  0.000  0.000  0.002  0.000  0.005  0.000  0.025
tot    0.000  0.000  0.036  0.000  0.000  0.004  0.000  0.011  0.000  0.050
 
band    22 # energy   28.54360048 # occ.  0.00000000
 
ion      s     py     pz     px    dxy    dyz    dz2    dxz  x2-y2    tot
    1  0.003  0.004  0.000  0.013  0.017  0.000  0.023  0.000  0.006  0.067
    2  0.003  0.004  0.000  0.013  0.017  0.000  0.023  0.000  0.006  0.067
tot    0.006  0.009  0.000  0.027  0.034  0.000  0.047  0.000  0.011  0.134
 
band    23 # energy   30.33608963 # occ.  0.00000000
 
ion      s     py     pz     px    dxy    dyz    dz2    dxz  x2-y2    tot
    1  0.006  0.023  0.000  0.068  0.010  0.000  0.001  0.000  0.003  0.111
    2  0.006  0.023  0.000  0.068  0.010  0.000  0.001  0.000  0.003  0.111
tot    0.013  0.045  0.000  0.136  0.020  0.000  0.002  0.000  0.007  0.222
 
band    24 # energy   30.43197326 # occ.  0.00000000
 
ion      s     py     pz     px    dxy    dyz    dz2    dxz  x2-y2    tot
    1  0.000  0.085  0.000  0.028  0.009  0.000  0.000  0.000  0.028  0.151
    2  0.000  0.085  0.000  0.028  0.009  0.000  0.000  0.000  0.028  0.151
tot    0.000  0.170  0.000  0.057  0.019  0.000  0.000  0.000  0.056  0.301
 

 k-point     3 :    0.20000000 0.00000000 0.00000000     weight = 0.00750000

band     1 # energy  -41.54347482 # occ.  2.00000000
 
ion      s     py     pz     px    dxy    dyz    dz2    dxz  x2-y2    tot
    1  0.000  0.124  0.000  0.372  0.000  0.000  0.000  0.000  0.000  0.496
    2  0.000  0.124  0.000  0.372  0.000  0.000  0.000  0.000  0.000  0.496
tot    0.000  0.248  0.000  0.743  0.000  0.000  0.000  0.000  0.000  0.991
 
band     2 # energy  -41.53685262 # occ.  2.00000000
 
ion      s     py     pz     px    dxy    dyz    dz2    dxz  x2-y2    tot
    1  0.000  0.000  0.492  0.000  0.000  0.000  0.000  0.000  0.000  0.493
    2  0.000  0.000  0.492  0.000  0.000  0.000  0.000  0.000  0.000  0.493
tot    0.000  0.000  0.985  0.000  0.000  0.000  0.000  0.000  0.000  0.985
 
band     3 # energy  -41.50579118 # occ.  2.00000000
 
ion      s     py     pz     px    dxy    dyz    dz2    dxz  x2-y2    tot
    1  0.000  0.124  0.000  0.372  0.000  0.000  0.000  0.000  0.000  0.496
    2  0.000  0.124  0.000  0.372  0.000  0.000  0.000  0.000  0.000  0.496
tot    0.000  0.248  0.000  0.744  0.000  0.000  0.000  0.000  0.000  0.992
 
band     4 # energy  -41.45337389 # occ.  2.00000000
 
ion      s     py     pz     px    dxy    dyz    dz2    dxz  x2-y2    tot
    1  0.000  0.373  0.000  0.124  0.000  0.000  0.000  0.000  0.000  0.497
    2  0.000  0.373  0.000  0.124  0.000  0.000  0.000  0.000  0.000  0.497
tot    0.000  0.746  0.000  0.249  0.000  0.000  0.000  0.000  0.000  0.994
 
band     5 # energy  -41.40407740 # occ.  2.00000000
 
ion      s     py     pz     px    dxy    dyz    dz2    dxz  x2-y2    tot
    1  0.000  0.373  0.000  0.124  0.000  0.000  0.000  0.000  0.000  0.498
    2  0.000  0.373  0.000  0.124  0.000  0.000  0.000  0.000  0.000  0.498
tot    0.000  0.747  0.000  0.249  0.000  0.000  0.000  0.000  0.000  0.996
 
band     6 # energy  -41.26975225 # occ.  2.00000000
 
ion      s     py     pz     px    dxy    dyz    dz2    dxz  x2-y2    tot
    1  0.000  0.000  0.497  0.000  0.000  0.000  0.000  0.000  0.000  0.497
    2  0.000  0.000  0.497  0.000  0.000  0.000  0.000  0.000  0.000  0.497
tot    0.000  0.000  0.995  0.000  0.000  0.000  0.000  0.000  0.000  0.995
 
band     7 # energy    2.69923453 # occ.  2.00000000
 
ion      s     py     pz     px    dxy    dyz    dz2    dxz  x2-y2    tot
    1  0.174  0.002  0.000  0.006  0.006  0.000  0.001  0.000  0.002  0.191
    2  0.174  0.002  0.000  0.006  0.006  0.000  0.001  0.000  0.002  0.191
tot    0.348  0.004  0.000  0.012  0.012  0.000  0.001  0.000  0.004  0.381
 
band     8 # energy    5.04733360 # occ.  2.00000000
 
ion      s     py     pz     px    dxy    dyz    dz2    dxz  x2-y2    tot
    1  0.050  0.001  0.000  0.004  0.039  0.000  0.221  0.000  0.013  0.328
    2  0.050  0.001  0.000  0.004  0.039  0.000  0.221  0.000  0.013  0.328
tot    0.100  0.003  0.000  0.008  0.078  0.000  0.442  0.000  0.026  0.655
 
band     9 # energy    6.83253149 # occ.  2.00000000
 
ion      s     py     pz     px    dxy    dyz    dz2    dxz  x2-y2    tot
    1  0.003  0.001  0.000  0.003  0.187  0.000  0.127  0.000  0.062  0.384
    2  0.003  0.001  0.000  0.003  0.187  0.000  0.127  0.000  0.062  0.384
tot    0.006  0.002  0.000  0.007  0.373  0.000  0.255  0.000  0.124  0.767
 
band    10 # energy    7.31252656 # occ.  2.00000000
 
ion      s     py     pz     px    dxy    dyz    dz2    dxz  x2-y2    tot
    1  0.000  0.000  0.018  0.000  0.000  0.076  0.000  0.227  0.000  0.320
    2  0.000  0.000  0.018  0.000  0.000  0.076  0.000  0.227  0.000  0.320
tot    0.000  0.000  0.035  0.000  0.000  0.151  0.000  0.453  0.000  0.639
 
band    11 # energy    7.35243594 # occ.  2.00000000
 
ion      s     py     pz     px    dxy    dyz    dz2    dxz  x2-y2    tot
    1  0.005  0.000  0.000  0.001  0.257  0.000  0.056  0.000  0.086  0.405
    2  0.005  0.000  0.000  0.001  0.257  0.000  0.056  0.000  0.086  0.405
tot    0.011  0.001  0.000  0.002  0.514  0.000  0.111  0.000  0.171  0.811
 
band    12 # energy    8.24480326 # occ.  2.00000000
 
ion      s     py     pz     px    dxy    dyz    dz2    dxz  x2-y2    tot
    1  0.004  0.001  0.000  0.002  0.109  0.000  0.269  0.000  0.036  0.420
    2  0.004  0.001  0.000  0.002  0.109  0.000  0.269  0.000  0.036  0.420
tot    0.007  0.001  0.000  0.003  0.219  0.000  0.537  0.000  0.073  0.841
 
band    13 # energy    8.66100669 # occ.  2.00000000
 
ion      s     py     pz     px    dxy    dyz    dz2    dxz  x2-y2    tot
    1  0.000  0.001  0.000  0.000  0.107  0.000  0.000  0.000  0.322  0.430
    2  0.000  0.001  0.000  0.000  0.107  0.000  0.000  0.000  0.322  0.430
tot    0.000  0.002  0.000  0.001  0.214  0.000  0.000  0.000  0.643  0.860
 
band    14 # energy    8.68081994 # occ.  2.00000000
 
ion      s     py     pz     px    dxy    dyz    dz2    dxz  x2-y2    tot
    1  0.000  0.000  0.000  0.000  0.000  0.323  0.000  0.108  0.000  0.430
    2  0.000  0.000  0.000  0.000  0.000  0.323  0.000  0.108  0.000  0.430
tot    0.000  0.000  0.000  0.000  0.000  0.646  0.000  0.215  0.000  0.861
 
band    15 # energy    8.70188255 # occ.  2.00000000
 
ion      s     py     pz     px    dxy    dyz    dz2    dxz  x2-y2    tot
    1  0.000  0.000  0.009  0.000  0.000  0.095  0.000  0.285  0.000  0.390
    2  0.000  0.000  0.009  0.000  0.000  0.095  0.000  0.285  0.000  0.390
tot    0.000  0.000  0.018  0.000  0.000  0.190  0.000  0.571  0.000  0.779
 
band    16 # energy    8.96636776 # occ.  2.00000000
 
ion      s     py     pz     px    dxy    dyz    dz2    dxz  x2-y2    tot
    1  0.000  0.001  0.000  0.000  0.109  0.000  0.000  0.000  0.328  0.439
    2  0.000  0.001  0.000  0.000  0.109  0.000  0.000  0.000  0.328  0.439
tot    0.000  0.002  0.000  0.001  0.219  0.000  0.000  0.000  0.657  0.878
 
band    17 # energy   10.94940542 # occ.  1.75403433
 
ion      s     py     pz     px    dxy    dyz    dz2    dxz  x2-y2    tot
    1  0.000  0.000  0.000  0.000  0.000  0.353  0.000  0.118  0.000  0.471
    2  0.000  0.000  0.000  0.000  0.000  0.353  0.000  0.118  0.000  0.471
tot    0.000  0.000  0.000  0.000  0.000  0.707  0.000  0.236  0.000  0.942
 
band    18 # energy   14.70759373 # occ.  0.00000000
 
ion      s     py     pz     px    dxy    dyz    dz2    dxz  x2-y2    tot
    1  0.000  0.000  0.060  0.000  0.000  0.050  0.000  0.150  0.000  0.260
    2  0.000  0.000  0.060  0.000  0.000  0.050  0.000  0.150  0.000  0.260
tot    0.000  0.000  0.120  0.000  0.000  0.100  0.000  0.300  0.000  0.520
 
band    19 # energy   15.55054286 # occ.  0.00000000
 
ion      s     py     pz     px    dxy    dyz    dz2    dxz  x2-y2    tot
    1  0.181  0.001  0.000  0.003  0.005  0.000  0.188  0.000  0.002  0.380
    2  0.181  0.001  0.000  0.003  0.005  0.000  0.188  0.000  0.002  0.380
tot    0.362  0.002  0.000  0.006  0.010  0.000  0.375  0.000  0.003  0.759
 
band    20 # energy   24.95115272 # occ.  0.00000000
 
ion      s     py     pz     px    dxy    dyz    dz2    dxz  x2-y2    tot
    1  0.027  0.016  0.000  0.049  0.052  0.000  0.026  0.000  0.017  0.188
    2  0.027  0.016  0.000  0.049  0.052  0.000  0.026  0.000  0.017  0.188
tot    0.053  0.033  0.000  0.099  0.104  0.000  0.052  0.000  0.035  0.375
 
band    21 # energy   27.82559865 # occ.  0.00000000
 
ion      s     py     pz     px    dxy    dyz    dz2    dxz  x2-y2    tot
    1  0.000  0.000  0.011  0.000  0.000  0.003  0.000  0.008  0.000  0.021
    2  0.000  0.000  0.011  0.000  0.000  0.003  0.000  0.008  0.000  0.021
tot    0.000  0.000  0.022  0.000  0.000  0.005  0.000  0.015  0.000  0.042
 
band    22 # energy   28.01557233 # occ.  0.00000000
 
ion      s     py     pz     px    dxy    dyz    dz2    dxz  x2-y2    tot
    1  0.000  0.080  0.000  0.027  0.011  0.000  0.000  0.000  0.032  0.150
    2  0.000  0.080  0.000  0.027  0.011  0.000  0.000  0.000  0.032  0.150
tot    0.000  0.161  0.000  0.054  0.022  0.000  0.000  0.000  0.065  0.301
 
band    23 # energy   28.93274291 # occ.  0.00000000
 
ion      s     py     pz     px    dxy    dyz    dz2    dxz  x2-y2    tot
    1  0.005  0.004  0.000  0.012  0.034  0.000  0.017  0.000  0.011  0.082
    2  0.005  0.004  0.000  0.012  0.034  0.000  0.017  0.000  0.011  0.082
tot    0.010  0.008  0.000  0.023  0.067  0.000  0.033  0.000  0.022  0.163
 
band    24 # energy   29.15046696 # occ.  0.00000000
 
ion      s     py     pz     px    dxy    dyz    dz2    dxz  x2-y2    tot
    1  0.000  0.000  0.003  0.000  0.000  0.016  0.000  0.047  0.000  0.066
    2  0.000  0.000  0.003  0.000  0.000  0.016  0.000  0.047  0.000  0.066
tot    0.000  0.000  0.007  0.000  0.000  0.031  0.000  0.094  0.000  0.132
 

 k-point     4 :    0.30000000 0.00000000 0.00000000     weight = 0.00750000

band     1 # energy  -41.65614025 # occ.  2.00000000
 
ion      s     py     pz     px    dxy    dyz    dz2    dxz  x2-y2    tot
    1  0.000  0.123  0.000  0.370  0.000  0.000  0.000  0.000  0.000  0.494
    2  0.000  0.123  0.000  0.370  0.000  0.000  0.000  0.000  0.000  0.494
tot    0.000  0.247  0.000  0.741  0.000  0.000  0.000  0.000  0.000  0.987
 
band     2 # energy  -41.61748814 # occ.  2.00000000
 
ion      s     py     pz     px    dxy    dyz    dz2    dxz  x2-y2    tot
    1  0.000  0.124  0.000  0.371  0.000  0.000  0.000  0.000  0.000  0.494
    2  0.000  0.124  0.000  0.371  0.000  0.000  0.000  0.000  0.000  0.494
tot    0.000  0.247  0.000  0.742  0.000  0.000  0.000  0.000  0.000  0.989
 
band     3 # energy  -41.49218035 # occ.  2.00000000
 
ion      s     py     pz     px    dxy    dyz    dz2    dxz  x2-y2    tot
    1  0.000  0.000  0.493  0.000  0.000  0.000  0.000  0.000  0.000  0.493
    2  0.000  0.000  0.493  0.000  0.000  0.000  0.000  0.000  0.000  0.493
tot    0.000  0.000  0.987  0.000  0.000  0.000  0.000  0.000  0.000  0.987
 
band     4 # energy  -41.48484507 # occ.  2.00000000
 
ion      s     py     pz     px    dxy    dyz    dz2    dxz  x2-y2    tot
    1  0.000  0.372  0.000  0.124  0.000  0.000  0.000  0.000  0.000  0.497
    2  0.000  0.372  0.000  0.124  0.000  0.000  0.000  0.000  0.000  0.497
tot    0.000  0.745  0.000  0.248  0.000  0.000  0.000  0.000  0.000  0.993
 
band     5 # energy  -41.42853709 # occ.  2.00000000
 
ion      s     py     pz     px    dxy    dyz    dz2    dxz  x2-y2    tot
    1  0.000  0.373  0.000  0.124  0.000  0.000  0.000  0.000  0.000  0.498
    2  0.000  0.373  0.000  0.124  0.000  0.000  0.000  0.000  0.000  0.498
tot    0.000  0.746  0.000  0.249  0.000  0.000  0.000  0.000  0.000  0.995
 
band     6 # energy  -41.28552873 # occ.  2.00000000
 
ion      s     py     pz     px    dxy    dyz    dz2    dxz  x2-y2    tot
    1  0.000  0.000  0.497  0.000  0.000  0.000  0.000  0.000  0.000  0.497
    2  0.000  0.000  0.497  0.000  0.000  0.000  0.000  0.000  0.000  0.497
tot    0.000  0.000  0.994  0.000  0.000  0.000  0.000  0.000  0.000  0.994
 
band     7 # energy    3.89953391 # occ.  2.00000000
 
ion      s     py     pz     px    dxy    dyz    dz2    dxz  x2-y2    tot
    1  0.137  0.003  0.000  0.008  0.048  0.000  0.006  0.000  0.016  0.218
    2  0.137  0.003  0.000  0.008  0.048  0.000  0.006  0.000  0.016  0.218
tot    0.275  0.006  0.000  0.017  0.096  0.000  0.012  0.000  0.032  0.436
 
band     8 # energy    5.17559755 # occ.  2.00000000
 
ion      s     py     pz     px    dxy    dyz    dz2    dxz  x2-y2    tot
    1  0.020  0.000  0.000  0.001  0.162  0.000  0.119  0.000  0.054  0.357
    2  0.020  0.000  0.000  0.001  0.162  0.000  0.119  0.000  0.054  0.357
tot    0.041  0.001  0.000  0.002  0.324  0.000  0.239  0.000  0.108  0.714
 
band     9 # energy    6.27063875 # occ.  2.00000000
 
ion      s     py     pz     px    dxy    dyz    dz2    dxz  x2-y2    tot
    1  0.000  0.000  0.011  0.000  0.000  0.079  0.000  0.238  0.000  0.328
    2  0.000  0.000  0.011  0.000  0.000  0.079  0.000  0.238  0.000  0.328
tot    0.000  0.000  0.021  0.000  0.000  0.159  0.000  0.477  0.000  0.657
 
band    10 # energy    7.09345339 # occ.  2.00000000
 
ion      s     py     pz     px    dxy    dyz    dz2    dxz  x2-y2    tot
    1  0.013  0.003  0.000  0.009  0.208  0.000  0.045  0.000  0.069  0.348
    2  0.013  0.003  0.000  0.009  0.208  0.000  0.045  0.000  0.069  0.348
tot    0.025  0.006  0.000  0.018  0.417  0.000  0.091  0.000  0.139  0.696
 
band    11 # energy    7.44602571 # occ.  2.00000000
 
ion      s     py     pz     px    dxy    dyz    dz2    dxz  x2-y2    tot