Co-hcc                                  
   1.00000000000000     
     2.464457    0.000000    0.000000
    -1.232229    2.134283    0.000000
     0.000000    0.000000    3.987391
   Co
     2
Direct
  0.000000  0.000000  0.000000
  0.333333  0.666667  0.500000
 
   32   32   56
 0.19861425334E+03 0.19427728424E+03 0.18185078286E+03 0.16294111597E+03 0.13978154256E+03
 0.11476511711E+03 0.90060102070E+02 0.67399813258E+02 0.48011032642E+02 0.32625451454E+02
 0.21472626373E+02 0.14291293847E+02 0.10346720032E+02 0.85706708636E+01 0.77682629586E+01
 0.72924027729E+01 0.71389144828E+01 0.72931574816E+01 0.77657903494E+01 0.85730646932E+01
 0.10346399684E+02 0.14290931730E+02 0.21472878315E+02 0.32625422944E+02 0.48011013838E+02
 0.67399921441E+02 0.90059995550E+02 0.11476535320E+03 0.13978136287E+03 0.16294123465E+03
 0.18185077677E+03 0.19427713337E+03 0.19427713337E+03 0.19427710228E+03 0.18589977584E+03
 0.17025494205E+03 0.14927836492E+03 0.12529598024E+03 0.10058591624E+03 0.77088249286E+02
 0.56269374642E+02 0.39101438778E+02 0.26062078532E+02 0.17134170323E+02 0.11808965753E+02
 0.91713970831E+01 0.80459142630E+01 0.74304583060E+01 0.71199060005E+01 0.71178185373E+01
 0.74327269052E+01 0.80454077005E+01 0.91699897721E+01 0.11810006096E+02 0.17133645786E+02
 0.26062311354E+02 0.39101229178E+02 0.56269371149E+02 0.77088214811E+02 0.10058579701E+03
 0.12529578124E+03 0.14927869166E+03 0.17025452917E+03 0.18590017036E+03 0.18185077677E+03
 0.18589571915E+03 0.18185105492E+03 0.17025460270E+03 0.15258683113E+03 0.13091215933E+03
 0.10745998383E+03 0.84269535950E+02 0.62991317636E+02 0.44810784061E+02 0.30436533524E+02
 0.20089152250E+02 0.13496107217E+02 0.99312913150E+01 0.83395832788E+01 0.75840848640E+01
 0.71270176511E+01 0.69809681716E+01 0.71275145974E+01 0.75819555346E+01 0.83422798951E+01
 0.99297460748E+01 0.13497129284E+02 0.20088571876E+02 0.30436897047E+02 0.44810815092E+02
 0.62991345642E+02 0.84269746396E+02 0.10746005706E+03 0.13091210992E+03 0.15258696619E+03
 0.17025452917E+03 0.16294123465E+03 0.17024356757E+03 0.17024357287E+03 0.16294100848E+03
 0.14927867850E+03 0.13091232914E+03 0.10985116054E+03 0.88095482767E+02 0.67387193479E+02
 0.49070694304E+02 0.34054944827E+02 0.22775209782E+02 0.15193677228E+02 0.10788970899E+02
 0.86731025523E+01 0.77302332832E+01 0.71599470298E+01 0.68776905210E+01 0.68756130777E+01
 0.71626454703E+01 0.77280970093E+01 0.86739236249E+01 0.10788646632E+02 0.15193359915E+02
 0.22775635802E+02 0.34054290775E+02 0.49071085392E+02 0.67386592945E+02 0.88095698715E+02
 0.10985107386E+03 0.13091210992E+03 0.14927869166E+03 0.13978136287E+03 0.14926095953E+03
 0.15256230032E+03 0.14926085042E+03 0.13978164227E+03 0.12529549289E+03 0.10746001116E+03
 0.88095437303E+02 0.68916093537E+02 0.51347536234E+02 0.36441781192E+02 0.24819955269E+02
 0.16648797403E+02 0.11620266269E+02 0.90257089269E+01 0.78625359967E+01 0.72057639788E+01
 0.68076494502E+01 0.66794745104E+01 0.68072373136E+01 0.72056101845E+01 0.78635128826E+01
 0.90245352596E+01 0.11621782642E+02 0.16647648785E+02 0.24821123553E+02 0.36440958446E+02
 0.51348585947E+02 0.68915569486E+02 0.88095698715E+02 0.10746005706E+03 0.12529578124E+03
 0.11476535320E+03 0.12527473298E+03 0.13087801435E+03 0.13087795567E+03 0.12527503439E+03
 0.11476521164E+03 0.10058602232E+03 0.84269874664E+02 0.67386701371E+02 0.51348159384E+02
 0.37275386315E+02 0.25924940022E+02 0.17630100124E+02 0.12281534079E+02 0.93466003603E+01
 0.79807779210E+01 0.72504258620E+01 0.67677024486E+01 0.65331645056E+01 0.65334502167E+01
 0.67680248330E+01 0.72494487999E+01 0.79818981840E+01 0.93452771875E+01 0.12282391742E+02
 0.17629018883E+02 0.25925754367E+02 0.37274355278E+02 0.51348585947E+02 0.67386592945E+02
 0.84269746396E+02 0.10058579701E+03 0.90059995550E+02 0.10056833764E+03 0.10742554743E+03
 0.10981005713E+03 0.10742525560E+03 0.10056796273E+03 0.90060060024E+02 0.77088143047E+02
 0.62990987865E+02 0.49071241685E+02 0.36441125587E+02 0.25925001629E+02 0.17976864560E+02
 0.12646666515E+02 0.95737704040E+01 0.80729311755E+01 0.72883954238E+01 0.67456674997E+01
 0.64350342862E+01 0.63305262596E+01 0.64345174287E+01 0.67466831960E+01 0.72873987246E+01
 0.80740061481E+01 0.95731521116E+01 0.12647637675E+02 0.17976267410E+02 0.25925754367E+02
 0.36440958446E+02 0.49071085392E+02 0.62991345642E+02 0.77088214811E+02 0.67399921441E+02
 0.77079780021E+02 0.84247652132E+02 0.88063952031E+02 0.88064231990E+02 0.84248225368E+02
 0.77080037285E+02 0.67399880442E+02 0.56269373243E+02 0.44811305474E+02 0.34054053225E+02
 0.24820869187E+02 0.17629807194E+02 0.12647049928E+02 0.96556650291E+01 0.81251445314E+01
 0.73119985489E+01 0.67369362610E+01 0.63724821993E+01 0.61954729548E+01 0.61964809223E+01
 0.63712031960E+01 0.67379929841E+01 0.73108693110E+01 0.81258524586E+01 0.96545850577E+01
 0.12647637675E+02 0.17629018883E+02 0.24821123553E+02 0.34054290775E+02 0.44810815092E+02
 0.56269371149E+02 0.48011013838E+02 0.56276834152E+02 0.62994432143E+02 0.67382972174E+02
 0.68908241022E+02 0.67382388487E+02 0.62993882142E+02 0.56276592724E+02 0.48011036713E+02
 0.39101355195E+02 0.30436062479E+02 0.22776375272E+02 0.16647680119E+02 0.12281791778E+02
 0.95733856556E+01 0.81251418384E+01 0.73203060453E+01 0.67337422280E+01 0.63392285070E+01
 0.61134801592E+01 0.60421894747E+01 0.61140137981E+01 0.63388687865E+01 0.67343620412E+01
 0.73200683516E+01 0.81258524586E+01 0.95731521116E+01 0.12282391742E+02 0.16647648785E+02
 0.22775635802E+02 0.30436897047E+02 0.39101229178E+02 0.32625422944E+02 0.39125897677E+02
 0.44845854906E+02 0.49107977815E+02 0.51384164166E+02 0.51384561799E+02 0.49108375853E+02
 0.44846644787E+02 0.39126012808E+02 0.32625446662E+02 0.26062190131E+02 0.20089517105E+02
 0.15192227770E+02 0.11621867819E+02 0.93460822363E+01 0.80734726458E+01 0.73119821408E+01
 0.67337847357E+01 0.63288545293E+01 0.60755958214E+01 0.59578903661E+01 0.59565625348E+01
 0.60764036839E+01 0.63277614466E+01 0.67343620412E+01 0.73108693110E+01 0.80740061481E+01
 0.93452771875E+01 0.11621782642E+02 0.15193359915E+02 0.20088571876E+02 0.26062311354E+02
 0.21472878315E+02 0.26103433293E+02 0.30505546759E+02 0.34138374893E+02 0.36531960301E+02
 0.37367475836E+02 0.36531872983E+02 0.34137722983E+02 0.30504765448E+02 0.26103262326E+02
 0.21472879532E+02 0.17133939187E+02 0.13495958017E+02 0.10790436817E+02 0.90237094773E+01
 0.79817241674E+01 0.72873541840E+01 0.67372841194E+01 0.63388894534E+01 0.60758677456E+01
 0.59302556406E+01 0.58841758319E+01 0.59303975072E+01 0.60764036839E+01 0.63388687865E+01
 0.67379929841E+01 0.72873987246E+01 0.79818981840E+01 0.90245352596E+01 0.10788646632E+02
 0.13497129284E+02 0.17133645786E+02 0.14290931730E+02 0.17187600073E+02 0.20184491439E+02
 0.22901977992E+02 0.24965586429E+02 0.26079152419E+02 0.26078723242E+02 0.24965857544E+02
 0.22902620983E+02 0.20185548220E+02 0.17187810969E+02 0.14290566292E+02 0.11809666027E+02
 0.99311276796E+01 0.86717265873E+01 0.78646582531E+01 0.72494456275E+01 0.67469054641E+01
 0.63720776178E+01 0.61138133185E+01 0.59577191097E+01 0.58834410957E+01 0.58841758319E+01
 0.59565625348E+01 0.61140137981E+01 0.63712031960E+01 0.67466831960E+01 0.72494487999E+01
 0.78635128826E+01 0.86739236249E+01 0.99297460748E+01 0.11810006096E+02 0.10346399684E+02
 0.11870575224E+02 0.13611731402E+02 0.15351333307E+02 0.16837098190E+02 0.17837257415E+02
 0.18190810458E+02 0.17837512412E+02 0.16837136283E+02 0.15350111721E+02 0.13610625209E+02
 0.11870240314E+02 0.10347959393E+02 0.91692932090E+01 0.83410889230E+01 0.77309326094E+01
 0.72036778498E+01 0.67687071676E+01 0.64334640934E+01 0.61961801058E+01 0.60414575295E+01
 0.59577191097E+01 0.59302556406E+01 0.59578903661E+01 0.60421894747E+01 0.61964809223E+01
 0.64345174287E+01 0.67680248330E+01 0.72056101845E+01 0.77280970093E+01 0.83422798951E+01
 0.91699897721E+01 0.85730646932E+01 0.92342194720E+01 0.10054836688E+02 0.10965765911E+02
 0.11840397322E+02 0.12529573173E+02 0.12909105538E+02 0.12909121001E+02 0.12529050525E+02
 0.11840557160E+02 0.10967484378E+02 0.10056236952E+02 0.92334838646E+01 0.85709356633E+01
 0.80481574766E+01 0.75811017995E+01 0.71608082732E+01 0.68087786912E+01 0.65330410886E+01
 0.63316852857E+01 0.61961801058E+01 0.61138133185E+01 0.60758677456E+01 0.60755958214E+01
 0.61134801592E+01 0.61954729548E+01 0.63305262596E+01 0.65334502167E+01 0.68072373136E+01
 0.71626454703E+01 0.75819555346E+01 0.80454077005E+01 0.77657903494E+01 0.81109374313E+01
 0.84707551971E+01 0.88586421009E+01 0.92581697894E+01 0.96163697479E+01 0.98676712159E+01
 0.99575904914E+01 0.98679391727E+01 0.96169208637E+01 0.92575598503E+01 0.88562911041E+01
 0.84697028410E+01 0.81136424426E+01 0.77658131230E+01 0.74302858354E+01 0.71293822264E+01
 0.68766265324E+01 0.66784441976E+01 0.65330410886E+01 0.64334640934E+01 0.63720776178E+01
 0.63388894534E+01 0.63288545293E+01 0.63392285070E+01 0.63724821993E+01 0.64350342862E+01
 0.65331645056E+01 0.66794745104E+01 0.68756130777E+01 0.71275145974E+01 0.74327269052E+01
 0.72931574816E+01 0.74986879339E+01 0.77119282377E+01 0.79165942794E+01 0.81058006120E+01
 0.82672180479E+01 0.83886289364E+01 0.84555264994E+01 0.84551303162E+01 0.83883099875E+01
 0.82668663976E+01 0.81070931652E+01 0.79193217926E+01 0.77110769471E+01 0.74962512359E+01
 0.72946626475E+01 0.71190541744E+01 0.69791610328E+01 0.68766265324E+01 0.68087786912E+01
 0.67687071676E+01 0.67469054641E+01 0.67372841194E+01 0.67337847357E+01 0.67337422280E+01
 0.67369362610E+01 0.67456674997E+01 0.67677024486E+01 0.68076494502E+01 0.68776905210E+01
 0.69809681716E+01 0.71178185373E+01 0.71389144828E+01 0.71841434800E+01 0.72583816422E+01
 0.73540074254E+01 0.74521373919E+01 0.75416676201E+01 0.76131130933E+01 0.76582928466E+01
 0.76744305192E+01 0.76588066019E+01 0.76134173190E+01 0.75413959363E+01 0.74503731425E+01
 0.73521452703E+01 0.72603000688E+01 0.71853524415E+01 0.71372808539E+01 0.71190541744E+01
 0.71293822264E+01 0.71608082732E+01 0.72036778498E+01 0.72494456275E+01 0.72873541840E+01
 0.73119821408E+01 0.73203060453E+01 0.73119985489E+01 0.72883954238E+01 0.72504258620E+01
 0.72057639788E+01 0.71599470298E+01 0.71270176511E+01 0.71199060005E+01 0.72924027729E+01
 0.71861771927E+01 0.71122332388E+01 0.70683474283E+01 0.70565509762E+01 0.70653527892E+01
 0.70831611635E+01 0.71018948610E+01 0.71123432432E+01 0.71123609712E+01 0.71011078309E+01
 0.70835231663E+01 0.70659771160E+01 0.70580459355E+01 0.70693360870E+01 0.71104105500E+01
 0.71853524415E+01 0.72946626475E+01 0.74302858354E+01 0.75811017995E+01 0.77309326094E+01
 0.78646582531E+01 0.79817241674E+01 0.80734726458E+01 0.81251418384E+01 0.81251445314E+01
 0.80729311755E+01 0.79807779210E+01 0.78625359967E+01 0.77302332832E+01 0.75840848640E+01
 0.74304583060E+01 0.77682629586E+01 0.74965068306E+01 0.72578658759E+01 0.70704891767E+01
 0.69295625260E+01 0.68342141972E+01 0.67775532801E+01 0.67460038714E+01 0.67326857548E+01
 0.67287005042E+01 0.67329778625E+01 0.67463410424E+01 0.67768190185E+01 0.68336467857E+01
 0.69287262172E+01 0.70693360870E+01 0.72603000688E+01 0.74962512359E+01 0.77658131230E+01
 0.80481574766E+01 0.83410889230E+01 0.86717265873E+01 0.90237094773E+01 0.93460822363E+01
 0.95733856556E+01 0.96556650291E+01 0.95737704040E+01 0.93466003603E+01 0.90257089269E+01
 0.86731025523E+01 0.83395832788E+01 0.80459142630E+01 0.85706708636E+01 0.81113747459E+01
 0.77140369552E+01 0.73512722691E+01 0.70569875167E+01 0.68337794291E+01 0.66758844515E+01
 0.65760488590E+01 0.65181036792E+01 0.64927703971E+01 0.64923310755E+01 0.65182946538E+01
 0.65757423450E+01 0.66769632815E+01 0.68336467857E+01 0.70580459355E+01 0.73521452703E+01
 0.77110769471E+01 0.81136424426E+01 0.85709356633E+01 0.91692932090E+01 0.99311276796E+01
 0.10790436817E+02 0.11621867819E+02 0.12281791778E+02 0.12647049928E+02 0.12646666515E+02
 0.12281534079E+02 0.11620266269E+02 0.10788970899E+02 0.99312913150E+01 0.91713970831E+01
 0.10346720032E+02 0.92356817456E+01 0.84680610169E+01 0.79188651287E+01 0.74521704688E+01
 0.70652439529E+01 0.67779621260E+01 0.65754899996E+01 0.64502639078E+01 0.63821152343E+01
 0.63617617117E+01 0.63821646981E+01 0.64500177191E+01 0.65757423450E+01 0.67768190185E+01
 0.70659771160E+01 0.74503731425E+01 0.79193217926E+01 0.84697028410E+01 0.92334838646E+01
 0.10347959393E+02 0.11809666027E+02 0.13495958017E+02 0.15192227770E+02 0.16647680119E+02
 0.17629807194E+02 0.17976864560E+02 0.17630100124E+02 0.16648797403E+02 0.15193677228E+02
 0.13496107217E+02 0.11808965753E+02 0.14291293847E+02 0.11869446492E+02 0.10056472762E+02
 0.88576107730E+01 0.81049744600E+01 0.75424133510E+01 0.70823363528E+01 0.67467445036E+01
 0.65178554526E+01 0.63824149355E+01 0.63192254697E+01 0.63197544119E+01 0.63821646981E+01
 0.65182946538E+01 0.67463410424E+01 0.70835231663E+01 0.75413959363E+01 0.81070931652E+01
 0.88562911041E+01 0.10056236952E+02 0.11870240314E+02 0.14290566292E+02 0.17133939187E+02
 0.20089517105E+02 0.22776375272E+02 0.24820869187E+02 0.25925001629E+02 0.25924940022E+02
 0.24819955269E+02 0.22775209782E+02 0.20089152250E+02 0.17134170323E+02 0.21472626373E+02
 0.17188240726E+02 0.13610621783E+02 0.10966174239E+02 0.92593414628E+01 0.82661953926E+01
 0.76140488885E+01 0.71011720858E+01 0.67329615421E+01 0.64924807716E+01 0.63619063512E+01
 0.63192254697E+01 0.63617617117E+01 0.64923310755E+01 0.67329778625E+01 0.71011078309E+01
 0.76134173190E+01 0.82668663976E+01 0.92575598503E+01 0.10967484378E+02 0.13610625209E+02
 0.17187810969E+02 0.21472879532E+02 0.26062190131E+02 0.30436062479E+02 0.34054053225E+02
 0.36441125587E+02 0.37275386315E+02 0.36441781192E+02 0.34054944827E+02 0.30436533524E+02
 0.26062078532E+02 0.32625451454E+02 0.26102967882E+02 0.20185226705E+02 0.15351425671E+02
 0.11839181992E+02 0.96172184592E+01 0.83880744619E+01 0.76585677210E+01 0.71124341055E+01
 0.67286106217E+01 0.64924807716E+01 0.63824149355E+01 0.63821152343E+01 0.64927703971E+01
 0.67287005042E+01 0.71123609712E+01 0.76588066019E+01 0.83883099875E+01 0.96169208637E+01
 0.11840557160E+02 0.15350111721E+02 0.20185548220E+02 0.26103262326E+02 0.32625446662E+02
 0.39101355195E+02 0.44811305474E+02 0.49071241685E+02 0.51348159384E+02 0.51347536234E+02
 0.49070694304E+02 0.44810784061E+02 0.39101438778E+02 0.48011032642E+02 0.39126345076E+02
 0.30505080734E+02 0.22901792130E+02 0.16837930242E+02 0.12529042271E+02 0.98679569323E+01
 0.84554068513E+01 0.76743156623E+01 0.71124341055E+01 0.67329615421E+01 0.65178554526E+01
 0.64502639078E+01 0.65181036792E+01 0.67326857548E+01 0.71123432432E+01 0.76744305192E+01
 0.84551303162E+01 0.98679391727E+01 0.12529050525E+02 0.16837136283E+02 0.22902620983E+02
 0.30504765448E+02 0.39126012808E+02 0.48011036713E+02 0.56269373243E+02 0.62990987865E+02
 0.67386701371E+02 0.68916093537E+02 0.67387193479E+02 0.62991317636E+02 0.56269374642E+02
 0.67399813258E+02 0.56276368285E+02 0.44846190181E+02 0.34138440388E+02 0.24964988460E+02
 0.17837713245E+02 0.12908994823E+02 0.99575551185E+01 0.84554068513E+01 0.76585677210E+01
 0.71011720858E+01 0.67467445036E+01 0.65754899996E+01 0.65760488590E+01 0.67460038714E+01
 0.71018948610E+01 0.76582928466E+01 0.84555264994E+01 0.99575904914E+01 0.12909121001E+02
 0.17837512412E+02 0.24965857544E+02 0.34137722983E+02 0.44846644787E+02 0.56276592724E+02
 0.67399880442E+02 0.77088143047E+02 0.84269874664E+02 0.88095437303E+02 0.88095482767E+02
 0.84269535950E+02 0.77088249286E+02 0.90060102070E+02 0.77080192698E+02 0.62994334132E+02
 0.49107840504E+02 0.36532600631E+02 0.26078687364E+02 0.18190886664E+02 0.12908994823E+02
 0.98679569323E+01 0.83880744619E+01 0.76140488885E+01 0.70823363528E+01 0.67779621260E+01
 0.66758844515E+01 0.67775532801E+01 0.70831611635E+01 0.76131130933E+01 0.83886289364E+01
 0.98676712159E+01 0.12909105538E+02 0.18190810458E+02 0.26078723242E+02 0.36531872983E+02
 0.49108375853E+02 0.62993882142E+02 0.77080037285E+02 0.90060060024E+02 0.10058602232E+03
 0.10746001116E+03 0.10985116054E+03 0.10745998383E+03 0.10058591624E+03 0.11476511711E+03
 0.10056796884E+03 0.84247725160E+02 0.67382948678E+02 0.51383715930E+02 0.37367747758E+02
 0.26078687364E+02 0.17837713245E+02 0.12529042271E+02 0.96172184592E+01 0.82661953926E+01
 0.75424133510E+01 0.70652439529E+01 0.68337794291E+01 0.68342141972E+01 0.70653527892E+01
 0.75416676201E+01 0.82672180479E+01 0.96163697479E+01 0.12529573173E+02 0.17837257415E+02
 0.26079152419E+02 0.37367475836E+02 0.51384561799E+02 0.67382388487E+02 0.84248225368E+02
 0.10056796273E+03 0.11476521164E+03 0.12529549289E+03 0.13091232914E+03 0.13091215933E+03
 0.12529598024E+03 0.13978154256E+03 0.12527487796E+03 0.10742586350E+03 0.88063537059E+02
 0.68909213749E+02 0.51383715930E+02 0.36532600631E+02 0.24964988460E+02 0.16837930242E+02
 0.11839181992E+02 0.92593414628E+01 0.81049744600E+01 0.74521704688E+01 0.70569875167E+01
 0.69295625260E+01 0.70565509762E+01 0.74521373919E+01 0.81058006120E+01 0.92581697894E+01
 0.11840397322E+02 0.16837098190E+02 0.24965586429E+02 0.36531960301E+02 0.51384164166E+02
 0.68908241022E+02 0.88064231990E+02 0.10742525560E+03 0.12527503439E+03 0.13978164227E+03
 0.14927867850E+03 0.15258683113E+03 0.14927836492E+03 0.16294111597E+03 0.14926095862E+03
 0.13087773722E+03 0.10981031197E+03 0.88063537059E+02 0.67382948678E+02 0.49107840504E+02
 0.34138440388E+02 0.22901792130E+02 0.15351425671E+02 0.10966174239E+02 0.88576107730E+01
 0.79188651287E+01 0.73512722691E+01 0.70704891767E+01 0.70683474283E+01 0.73540074254E+01
 0.79165942794E+01 0.88586421009E+01 0.10965765911E+02 0.15351333307E+02 0.22901977992E+02
 0.34138374893E+02 0.49107977815E+02 0.67382972174E+02 0.88063952031E+02 0.10981005713E+03
 0.13087795567E+03 0.14926085042E+03 0.16294100848E+03 0.17025460270E+03 0.17025494205E+03
 0.18185078286E+03 0.17024359810E+03 0.15256237162E+03 0.13087773722E+03 0.10742586350E+03
 0.84247725160E+02 0.62994334132E+02 0.44846190181E+02 0.30505080734E+02 0.20185226705E+02
 0.13610621783E+02 0.10056472762E+02 0.84680610169E+01 0.77140369552E+01 0.72578658759E+01
 0.71122332388E+01 0.72583816422E+01 0.77119282377E+01 0.84707551971E+01 0.10054836688E+02
 0.13611731402E+02 0.20184491439E+02 0.30505546759E+02 0.44845854906E+02 0.62994432143E+02
 0.84247652132E+02 0.10742554743E+03 0.13087801435E+03 0.15256230032E+03 0.17024357287E+03
 0.18185105492E+03 0.18589977584E+03 0.19427728424E+03 0.18589563195E+03 0.17024359810E+03
 0.14926095862E+03 0.12527487796E+03 0.10056796884E+03 0.77080192698E+02 0.56276368285E+02
 0.39126345076E+02 0.26102967882E+02 0.17188240726E+02 0.11869446492E+02 0.92356817456E+01
 0.81113747459E+01 0.74965068306E+01 0.71861771927E+01 0.71841434800E+01 0.74986879339E+01
 0.81109374313E+01 0.92342194720E+01 0.11870575224E+02 0.17187600073E+02 0.26103433293E+02
 0.39125897677E+02 0.56276834152E+02 0.77079780021E+02 0.10056833764E+03 0.12527473298E+03
 0.14926095953E+03 0.17024356757E+03 0.18589571915E+03 0.19427710228E+03 0.19489924194E+03
 0.19064798430E+03 0.17846392645E+03 0.15991741515E+03 0.13719183161E+03 0.11263273293E+03
 0.88370973077E+02 0.66115795377E+02 0.47081580425E+02 0.31993733227E+02 0.21077868460E+02
 0.14070553329E+02 0.10238441643E+02 0.85178126590E+01 0.77298299463E+01 0.72595130150E+01
 0.71081874465E+01 0.72601816853E+01 0.77274182662E+01 0.85203635114E+01 0.10237818226E+02
 0.14070414188E+02 0.21078148588E+02 0.31993830362E+02 0.47081544257E+02 0.66116094574E+02
 0.88370823000E+02 0.11263335654E+03 0.13719163149E+03 0.15991755659E+03 0.17846391525E+03
 0.19064758754E+03 0.19064768221E+03 0.19064735958E+03 0.18243417961E+03 0.16709074397E+03
 0.14651068598E+03 0.12297040027E+03 0.98705999253E+02 0.75627522152E+02 0.55184103268E+02
 0.38338436655E+02 0.25563568950E+02 0.16838586205E+02 0.11653716104E+02 0.90973567312E+01
 0.80024680769E+01 0.73936731129E+01 0.70876427092E+01 0.70852961337E+01 0.73962942691E+01
 0.80014415278E+01 0.90963866328E+01 0.11654571089E+02 0.16838128863E+02 0.25563459262E+02
 0.38338421242E+02 0.55183770158E+02 0.75627642031E+02 0.98705512978E+02 0.12297032065E+03
 0.14651071648E+03 0.16709063900E+03 0.18243437629E+03 0.17846418614E+03 0.18243071709E+03
 0.17846431572E+03 0.16709047386E+03 0.14975645345E+03 0.12848233810E+03 0.10545490966E+03
 0.82678214542E+02 0.61781037454E+02 0.43935630234E+02 0.29843470829E+02 0.19720279249E+02
 0.13290932971E+02 0.98299104520E+01 0.82874345742E+01 0.75439081461E+01 0.70927682677E+01
 0.69485610657E+01 0.70931833195E+01 0.75419304980E+01 0.82901619380E+01 0.98281809152E+01
 0.13292094140E+02 0.19719750315E+02 0.29844011438E+02 0.43935687753E+02 0.61781154305E+02
 0.82678590033E+02 0.10545492519E+03 0.12848242343E+03 0.14975660603E+03 0.16709027345E+03
 0.15991736184E+03 0.16708135458E+03 0.16708146475E+03 0.15991727186E+03 0.14651087102E+03
 0.12848290499E+03 0.10780225292E+03 0.86434734557E+02 0.66095723545E+02 0.48113362873E+02
 0.33386305542E+02 0.22343105309E+02 0.14941057142E+02 0.10657911095E+02 0.86085030543E+01
 0.76872205324E+01 0.71233998540E+01 0.68452028656E+01 0.68431084120E+01 0.71261320352E+01
 0.76848443965E+01 0.86096350912E+01 0.10657304834E+02 0.14940921750E+02 0.22343245566E+02
 0.33385630516E+02 0.48113611417E+02 0.66095063680E+02 0.86434868104E+02 0.10780230326E+03
 0.12848249957E+03 0.14651100589E+03 0.13719192059E+03 0.14649656482E+03 0.14973663092E+03
 0.14649636109E+03 0.13719207464E+03 0.12296958130E+03 0.10545499220E+03 0.86434487685E+02
 0.67596624698E+02 0.50346594404E+02 0.35724275926E+02 0.24340808607E+02 0.16357694274E+02
 0.11461913343E+02 0.89472343630E+01 0.78161478147E+01 0.71672018745E+01 0.67746618413E+01
 0.66482307048E+01 0.67742023403E+01 0.71672619222E+01 0.78169206336E+01 0.89462261072E+01
 0.11463428271E+02 0.16356546784E+02 0.24342165892E+02 0.35723531687E+02 0.50347798816E+02
 0.67596046399E+02 0.86434773753E+02 0.10545494340E+03 0.12296993688E+03 0.11263282773E+03
 0.12295396637E+03 0.12845577385E+03 0.12845602359E+03 0.12295403933E+03 0.11263329734E+03
 0.98705849890E+02 0.82678843830E+02 0.66095078960E+02 0.50347488427E+02 0.36540735220E+02
 0.25421471418E+02 0.17313180792E+02 0.12102700237E+02 0.92550942039E+01 0.79303609480E+01
 0.72099816998E+01 0.67342378875E+01 0.65024597752E+01 0.65033354759E+01 0.67338911024E+01
 0.72096030307E+01 0.79309171536E+01 0.92541593856E+01 0.12103107608E+02 0.17312470024E+02
 0.25421750733E+02 0.36539920456E+02 0.50347559104E+02 0.66095397743E+02 0.82678332113E+02
 0.98706136456E+02 0.88370886643E+02 0.98694290166E+02 0.10543018308E+03 0.10777261802E+03
 0.10542989728E+03 0.98693657964E+02 0.88370938167E+02 0.75627422821E+02 0.61780672367E+02
 0.48113899202E+02 0.35723516534E+02 0.25421187043E+02 0.17651413925E+02 0.12456523148E+02
 0.94736143379E+01 0.80184437960E+01 0.72469817605E+01 0.67111408054E+01 0.64049671106E+01
 0.63020010723E+01 0.64045184875E+01 0.67121275751E+01 0.72460209107E+01 0.80196477929E+01
 0.94729607369E+01 0.12457651014E+02 0.17650735888E+02 0.25422215900E+02 0.35723306231E+02
 0.48113742522E+02 0.61780947058E+02 0.75627483720E+02 0.66115745406E+02 0.75625363759E+02
 0.82667702298E+02 0.86417432438E+02 0.86417592869E+02 0.82668576386E+02 0.75625469922E+02
 0.66116018042E+02 0.55183937875E+02 0.43936265921E+02 0.33385318667E+02 0.24342123158E+02
 0.17312927714E+02 0.12457016092E+02 0.95521844518E+01 0.80685026282E+01 0.72697270898E+01
 0.67019061260E+01 0.63423267987E+01 0.61682466498E+01 0.61688897481E+01 0.63413751807E+01
 0.67026512361E+01 0.72687252956E+01 0.80689790044E+01 0.95512040668E+01 0.12457365488E+02
 0.17312290383E+02 0.24342105822E+02 0.33385784936E+02 0.43935609475E+02 0.55184213995E+02
 0.47081578194E+02 0.55197825942E+02 0.61795811349E+02 0.66107315601E+02 0.67605666924E+02
 0.66106545566E+02 0.61795347425E+02 0.55197450652E+02 0.47081561309E+02 0.38338445308E+02
 0.29842978395E+02 0.22344103797E+02 0.16356423486E+02 0.12102886005E+02 0.94731449601E+01
 0.80684389785E+01 0.72778816959E+01 0.66982077213E+01 0.63091832930E+01 0.60867208416E+01
 0.60165408314E+01 0.60872493737E+01 0.63088101955E+01 0.66989906729E+01 0.72776206519E+01
 0.80692942352E+01 0.94729310319E+01 0.12103602481E+02 0.16356291624E+02 0.22343406377E+02
 0.29843774485E+02 0.38338292636E+02 0.31993548626E+02 0.38368732828E+02 0.43982024122E+02
 0.48166472926E+02 0.50401597123E+02 0.50402229927E+02 0.48166750016E+02 0.43982961847E+02
 0.38368762172E+02 0.31993781241E+02 0.25563560501E+02 0.19720862362E+02 0.14939574227E+02
 0.11463677421E+02 0.92546206250E+01 0.80191464047E+01 0.72696863438E+01 0.66983845588E+01
 0.62986482081E+01 0.60491741641E+01 0.59329834670E+01 0.59319053057E+01 0.60497722673E+01
 0.62976432575E+01 0.66987428744E+01 0.72686578634E+01 0.80194296993E+01 0.92539123118E+01
 0.11463435633E+02 0.14941008739E+02 0.19719739469E+02 0.25563835666E+02 0.21078131410E+02
 0.25610039831E+02 0.29922700281E+02 0.33484695000E+02 0.35832251398E+02 0.36651980279E+02
 0.35832232090E+02 0.33483916510E+02 0.29921979949E+02 0.25609791139E+02 0.21078088237E+02
 0.16838240452E+02 0.13290805411E+02 0.10659380203E+02 0.89450928853E+01 0.79312265991E+01
 0.72458072248E+01 0.67022175196E+01 0.63087566773E+01 0.60494366142E+01 0.59057234956E+01
 0.58604068419E+01 0.59058536370E+01 0.60500711816E+01 0.63087590797E+01 0.67030175826E+01
 0.72459400900E+01 0.79314631418E+01 0.89459198308E+01 0.10657516760E+02 0.13291806071E+02
 0.16838051373E+02 0.14070321110E+02 0.16896309006E+02 0.19824816201E+02 0.22483002814E+02
 0.24503406221E+02 0.25594058278E+02 0.25593552527E+02 0.24503641627E+02 0.22483793889E+02
 0.19825774660E+02 0.16896625371E+02 0.14069990308E+02 0.11654478304E+02 0.98295325116E+01
 0.86073197688E+01 0.78182660760E+01 0.72091881723E+01 0.67124641323E+01 0.63420011576E+01
 0.60870829583E+01 0.59328813143E+01 0.58596682992E+01 0.58602965859E+01 0.59317166474E+01
 0.60871902335E+01 0.63411190901E+01 0.67120981398E+01 0.72091672985E+01 0.78171166540E+01
 0.86095334211E+01 0.98283587277E+01 0.11654758835E+02 0.10237873152E+02 0.11719283164E+02
 0.13414246086E+02 0.15110688944E+02 0.16560680197E+02 0.17537639357E+02 0.17883133004E+02
 0.17537928275E+02 0.16560736094E+02 0.15109321082E+02 0.13413214037E+02 0.11718886615E+02
 0.10239505139E+02 0.90953403430E+01 0.82891113123E+01 0.76876640485E+01 0.71652263629E+01
 0.67349360917E+01 0.64034065084E+01 0.61688178649E+01 0.60158034141E+01 0.59329194657E+01
 0.59057956002E+01 0.59332102768E+01 0.60165618203E+01 0.61691839901E+01 0.64045097714E+01
 0.67343649860E+01 0.71670277504E+01 0.76849842179E+01 0.82899459740E+01 0.90962370381E+01
 0.85202612951E+01 0.91637391182E+01 0.99603720171E+01 0.10844915760E+02 0.11695536381E+02
 0.12366328347E+02 0.12735811541E+02 0.12735899320E+02 0.12365757097E+02 0.11695731584E+02
 0.10846784491E+02 0.99617058352E+01 0.91627964132E+01 0.85183406147E+01 0.80044525754E+01
 0.75409253212E+01 0.71244203430E+01 0.67757132367E+01 0.65026284489E+01 0.63031389964E+01
 0.61687705751E+01 0.60870920967E+01 0.60493172198E+01 0.60489946442E+01 0.60866525630E+01
 0.61679996976E+01 0.63019624986E+01 0.65029088821E+01 0.67743892223E+01 0.71260395035E+01
 0.75420991722E+01 0.80016384122E+01 0.77274847223E+01 0.80703532475E+01 0.84249003651E+01
 0.88037627963E+01 0.91916645323E+01 0.95391925565E+01 0.97830416366E+01 0.98702595937E+01
 0.97832622320E+01 0.95397261821E+01 0.91909881595E+01 0.88012391434E+01 0.84242204272E+01
 0.80731008557E+01 0.77271973811E+01 0.73937973933E+01 0.70950076823E+01 0.68440916784E+01
 0.66472519785E+01 0.65026642090E+01 0.64034180380E+01 0.63420277793E+01 0.63088403115E+01
 0.62988634882E+01 0.63092158115E+01 0.63426095110E+01 0.64049699241E+01 0.65029221292E+01
 0.66480080627E+01 0.68432367038E+01 0.70929788852E+01 0.73961331448E+01 0.72601076808E+01
 0.74650254545E+01 0.76781696614E+01 0.78821809004E+01 0.80705366210E+01 0.82300030372E+01
 0.83491268144E+01 0.84145591282E+01 0.84141630300E+01 0.83488803045E+01 0.82297609952E+01
 0.80719135208E+01 0.78848092931E+01 0.76769585477E+01 0.74627631538E+01 0.72617858650E+01
 0.70866308587E+01 0.69468592087E+01 0.68440841301E+01 0.67756850249E+01 0.67349170137E+01
 0.67124450588E+01 0.67021263370E+01 0.66981768271E+01 0.66981676545E+01 0.67016309620E+01
 0.67111304436E+01 0.67337830819E+01 0.67748769351E+01 0.68450821222E+01 0.69487579517E+01
 0.70854648064E+01 0.71082885382E+01 0.71548409112E+01 0.72297215427E+01 0.73259599431E+01
 0.74243995808E+01 0.75143981305E+01 0.75861993555E+01 0.76313750945E+01 0.76475508310E+01
 0.76318698080E+01 0.75863445248E+01 0.75139492607E+01 0.74228023966E+01 0.73242665654E+01
 0.72318062081E+01 0.71559029316E+01 0.71065218958E+01 0.70866037714E+01 0.70950423179E+01
 0.71244214676E+01 0.71652725282E+01 0.72091801584E+01 0.72459254946E+01 0.72698669883E+01
 0.72779488500E+01 0.72699751665E+01 0.72470192096E+01 0.72104094182E+01 0.71670138680E+01
 0.71234935101E+01 0.70925984690E+01 0.70874469493E+01 0.72593959762E+01 0.71566502781E+01
 0.70857828394E+01 0.70442308317E+01 0.70342762386E+01 0.70440557972E+01 0.70623400946E+01
 0.70814877853E+01 0.70920283201E+01 0.70921141146E+01 0.70807474208E+01 0.70629904082E+01
 0.70446201703E+01 0.70355339300E+01 0.70451230515E+01 0.70838914728E+01 0.71558869846E+01
 0.72618288992E+01 0.73937468107E+01 0.75409401437E+01 0.76876019362E+01 0.78182900369E+01
 0.79310923822E+01 0.80189817073E+01 0.80683558774E+01 0.80682704986E+01 0.80183903998E+01
 0.79299491767E+01 0.78163198742E+01 0.76871428232E+01 0.75440619978E+01 0.73938848198E+01
 0.77299266630E+01 0.74629998837E+01 0.72293004616E+01 0.70463004616E+01 0.69086190251E+01
 0.68160020602E+01 0.67612230304E+01 0.67306829500E+01 0.67179599262E+01 0.67140807227E+01
 0.67181661501E+01 0.67308361041E+01 0.67604123995E+01 0.68155279365E+01 0.69080381827E+01
 0.70451433735E+01 0.72318018331E+01 0.74627404415E+01 0.77272276418E+01 0.80044580749E+01
 0.82891531026E+01 0.86073161299E+01 0.89452067801E+01 0.92548056445E+01 0.94732077392E+01
 0.95524369034E+01 0.94736474120E+01 0.92555262972E+01 0.89470419815E+01 0.86086010855E+01