   2   2   1   0
  0.1045232E+02  0.2464270E-09  0.2464270E-09  0.3974984E-09  0.5000000E-15
  1.000000000000000E-004
  CAR 
 Co-hcc                                  
     52.15956139     -0.73925451  301     10.77053806      1.00000000
     -0.739  0.0000E+00  0.0000E+00  0.0000E+00  0.0000E+00
     -0.563  0.0000E+00  0.0000E+00  0.0000E+00  0.0000E+00
     -0.387  0.0000E+00  0.0000E+00  0.0000E+00  0.0000E+00
     -0.210  0.0000E+00  0.0000E+00  0.0000E+00  0.0000E+00
     -0.034  0.0000E+00  0.0000E+00  0.0000E+00  0.0000E+00
      0.142  0.0000E+00  0.0000E+00  0.0000E+00  0.0000E+00
      0.319  0.0000E+00  0.0000E+00  0.0000E+00  0.0000E+00
      0.495  0.0000E+00  0.0000E+00  0.0000E+00  0.0000E+00
      0.671  0.0000E+00  0.0000E+00  0.0000E+00  0.0000E+00
      0.848  0.0000E+00  0.0000E+00  0.0000E+00  0.0000E+00
      1.024  0.0000E+00  0.0000E+00  0.0000E+00  0.0000E+00
      1.200  0.0000E+00  0.0000E+00  0.0000E+00  0.0000E+00
      1.377  0.8198E-20  0.5466E-20  0.1446E-20  0.9637E-21
      1.553  0.3704E-07  0.3312E-07  0.6531E-08  0.5840E-08
      1.729  0.4773E-04  0.4757E-04  0.8423E-05  0.8395E-05
      1.906  0.2156E-03  0.2087E-03  0.4643E-04  0.4520E-04
      2.082  0.5198E-03  0.5067E-03  0.1381E-03  0.1345E-03
      2.258  0.2600E-03  0.2778E-03  0.1839E-03  0.1835E-03
      2.435  0.3339E-03  0.3220E-03  0.2428E-03  0.2403E-03
      2.611  0.1250E-02  0.1213E-02  0.4633E-03  0.4542E-03
      2.787  0.5772E-03  0.5477E-03  0.5650E-03  0.5508E-03
      2.964  0.3593E-03  0.4011E-03  0.6284E-03  0.6216E-03
      3.140  0.6246E-03  0.6570E-03  0.7385E-03  0.7374E-03
      3.316  0.1393E-02  0.1102E-02  0.9842E-03  0.9317E-03
      3.493  0.1410E-02  0.1397E-02  0.1233E-02  0.1178E-02
      3.669  0.2354E-03  0.4645E-03  0.1274E-02  0.1260E-02
      3.845  0.1628E-02  0.9648E-03  0.1561E-02  0.1430E-02
      4.022  0.1624E-02  0.2274E-02  0.1848E-02  0.1831E-02
      4.198  0.6795E-03  0.1205E-03  0.1968E-02  0.1852E-02
      4.374  0.7773E-03  0.1198E-02  0.2105E-02  0.2064E-02
      4.551  0.2790E-02  0.1176E-02  0.2597E-02  0.2271E-02
      4.727  0.1870E-02  0.2877E-02  0.2926E-02  0.2778E-02
      4.903  0.2760E-02  0.1478E-02  0.3413E-02  0.3039E-02
      5.080  0.1422E-02  0.1826E-02  0.3664E-02  0.3361E-02
      5.256  0.2968E-02  0.1083E-02  0.4187E-02  0.3552E-02
      5.432  0.2971E-02  0.1858E-02  0.4711E-02  0.3880E-02
      5.609  0.1103E-01  0.2191E-02  0.6655E-02  0.4266E-02
      5.785  0.9399E-02  0.2713E-02  0.8312E-02  0.4744E-02
      5.961  0.1119E-01  0.3286E-02  0.1029E-01  0.5324E-02
      6.138  0.1415E-01  0.3462E-02  0.1278E-01  0.5934E-02
      6.314  0.1903E-01  0.4764E-02  0.1614E-01  0.6774E-02
      6.490  0.1581E-01  0.4296E-02  0.1892E-01  0.7532E-02
      6.667  0.1427E-01  0.7115E-02  0.2144E-01  0.8786E-02
      6.843  0.1689E-01  0.1014E-01  0.2442E-01  0.1057E-01
      7.019  0.1527E-01  0.8514E-02  0.2711E-01  0.1207E-01
      7.196  0.1986E-01  0.8614E-02  0.3061E-01  0.1359E-01
      7.372  0.2126E-01  0.9838E-02  0.3436E-01  0.1533E-01
      7.548  0.1757E-01  0.1582E-01  0.3746E-01  0.1812E-01
      7.725  0.9065E-02  0.1332E-01  0.3906E-01  0.2047E-01
      7.901  0.2301E-01  0.1133E-01  0.4312E-01  0.2246E-01
      8.077  0.2898E-01  0.1239E-01  0.4823E-01  0.2465E-01
      8.254  0.2431E-01  0.1395E-01  0.5251E-01  0.2711E-01
      8.430  0.2965E-01  0.1767E-01  0.5774E-01  0.3022E-01
      8.606  0.3054E-01  0.2093E-01  0.6313E-01  0.3391E-01
      8.783  0.2485E-01  0.1555E-01  0.6751E-01  0.3666E-01
      8.959  0.2057E-01  0.8262E-02  0.7114E-01  0.3811E-01
      9.135  0.1698E-01  0.7699E-02  0.7413E-01  0.3947E-01
      9.312  0.2068E-01  0.1759E-01  0.7778E-01  0.4257E-01
      9.488  0.1228E-01  0.2188E-01  0.7994E-01  0.4643E-01
      9.664  0.1666E-01  0.2190E-01  0.8288E-01  0.5029E-01
      9.841  0.2569E-01  0.2400E-01  0.8741E-01  0.5452E-01
     10.017  0.2989E-01  0.2724E-01  0.9268E-01  0.5933E-01
     10.193  0.4465E-01  0.2856E-01  0.1006E+00  0.6436E-01
     10.369  0.2174E-01  0.2091E-01  0.1044E+00  0.6805E-01
     10.546  0.1429E-02  0.1504E-01  0.1046E+00  0.7070E-01
     10.722  0.4878E-02  0.1701E-01  0.1055E+00  0.7370E-01
     10.898  0.5877E-02  0.1063E-01  0.1065E+00  0.7558E-01
     11.075  0.2304E-02  0.1803E-01  0.1069E+00  0.7876E-01
     11.251  0.2003E-02  0.9696E-02  0.1073E+00  0.8047E-01
     11.427  0.1647E-02  0.1373E-01  0.1076E+00  0.8289E-01
     11.604  0.6365E-03  0.2338E-01  0.1077E+00  0.8701E-01
     11.780  0.2870E-02  0.2146E-01  0.1082E+00  0.9079E-01
     11.956  0.4979E-02  0.3206E-01  0.1091E+00  0.9645E-01
     12.133  0.4953E-02  0.4043E-01  0.1100E+00  0.1036E+00
     12.309  0.3446E-02  0.1113E-01  0.1106E+00  0.1055E+00
     12.485  0.1265E-02  0.6572E-02  0.1108E+00  0.1067E+00
     12.662  0.1815E-02  0.3965E-02  0.1111E+00  0.1074E+00
     12.838  0.2061E-02  0.3202E-02  0.1115E+00  0.1080E+00
     13.014  0.2466E-02  0.3255E-02  0.1119E+00  0.1085E+00
     13.191  0.1303E-02  0.3125E-02  0.1121E+00  0.1091E+00
     13.367  0.3271E-02  0.4328E-02  0.1127E+00  0.1098E+00
     13.543  0.1725E-02  0.4587E-02  0.1130E+00  0.1107E+00
     13.720  0.2781E-02  0.2813E-02  0.1135E+00  0.1112E+00
     13.896  0.2874E-02  0.3368E-02  0.1140E+00  0.1117E+00
     14.072  0.5694E-03  0.2016E-02  0.1141E+00  0.1121E+00
     14.249  0.2603E-02  0.1209E-02  0.1146E+00  0.1123E+00
     14.425  0.1785E-02  0.4414E-02  0.1149E+00  0.1131E+00
     14.601  0.5482E-02  0.1375E-02  0.1159E+00  0.1133E+00
     14.778  0.1120E-02  0.2807E-02  0.1160E+00  0.1138E+00
     14.954  0.2117E-02  0.1690E-02  0.1164E+00  0.1141E+00
     15.130  0.1916E-02  0.2901E-02  0.1168E+00  0.1146E+00
     15.307  0.1740E-02  0.4025E-02  0.1171E+00  0.1153E+00
     15.483  0.9342E-03  0.3058E-02  0.1172E+00  0.1159E+00
     15.659  0.1866E-02  0.9727E-03  0.1176E+00  0.1161E+00
     15.836  0.6246E-03  0.1946E-02  0.1177E+00  0.1164E+00
     16.012  0.1298E-02  0.3335E-02  0.1179E+00  0.1170E+00
     16.188  0.7460E-03  0.1729E-02  0.1180E+00  0.1173E+00
     16.365  0.5112E-02  0.1060E-02  0.1189E+00  0.1175E+00
     16.541  0.2410E-02  0.1534E-02  0.1194E+00  0.1178E+00
     16.717  0.1160E-02  0.8181E-03  0.1196E+00  0.1179E+00
     16.894  0.6074E-03  0.1197E-02  0.1197E+00  0.1181E+00
     17.070  0.1236E-06  0.3176E-02  0.1197E+00  0.1187E+00
     17.246  0.1415E-03  0.3976E-02  0.1197E+00  0.1194E+00
     17.423  0.5235E-03  0.1127E-02  0.1198E+00  0.1196E+00
     17.599  0.1233E-02  0.5697E-03  0.1200E+00  0.1197E+00
     17.775  0.7081E-03  0.3998E-06  0.1201E+00  0.1197E+00
     17.952  0.7183E-03  0.1611E-04  0.1203E+00  0.1197E+00
     18.128  0.4715E-03  0.1124E-02  0.1203E+00  0.1199E+00
     18.304  0.1441E-02  0.5338E-03  0.1206E+00  0.1200E+00
     18.481  0.8056E-03  0.1328E-04  0.1207E+00  0.1200E+00
     18.657  0.4516E-02  0.1109E-02  0.1215E+00  0.1202E+00
     18.833  0.7464E-02  0.1032E-02  0.1228E+00  0.1203E+00
     19.010  0.3722E-02  0.1354E-02  0.1235E+00  0.1206E+00
     19.186  0.2144E-02  0.8346E-03  0.1239E+00  0.1207E+00
     19.362  0.4620E-02  0.4450E-02  0.1247E+00  0.1215E+00
     19.539  0.2907E-02  0.4888E-02  0.1252E+00  0.1224E+00
     19.715  0.4192E-02  0.5036E-02  0.1259E+00  0.1233E+00
     19.891  0.2047E-02  0.3471E-02  0.1263E+00  0.1239E+00
     20.068  0.3321E-02  0.4913E-02  0.1269E+00  0.1247E+00
     20.244  0.2190E-02  0.2444E-02  0.1273E+00  0.1252E+00
     20.420  0.3350E-02  0.4406E-02  0.1279E+00  0.1260E+00
     20.597  0.2611E-02  0.4126E-02  0.1283E+00  0.1267E+00
     20.773  0.3243E-02  0.1654E-02  0.1289E+00  0.1270E+00
     20.949  0.1652E-02  0.4635E-02  0.1292E+00  0.1278E+00
     21.126  0.5531E-02  0.1976E-02  0.1302E+00  0.1281E+00
     21.302  0.2931E-02  0.3113E-02  0.1307E+00  0.1287E+00
     21.478  0.3878E-02  0.2865E-02  0.1314E+00  0.1292E+00
     21.655  0.5781E-02  0.3388E-02  0.1324E+00  0.1298E+00
     21.831  0.1044E-02  0.4953E-02  0.1326E+00  0.1307E+00
     22.007  0.5001E-02  0.5144E-02  0.1335E+00  0.1316E+00
     22.184  0.5605E-02  0.4494E-02  0.1344E+00  0.1324E+00
     22.360  0.2119E-02  0.1317E-02  0.1348E+00  0.1326E+00
     22.536  0.3044E-02  0.5592E-02  0.1354E+00  0.1336E+00
     22.713  0.1789E-02  0.5275E-02  0.1357E+00  0.1345E+00
     22.889  0.3845E-02  0.3038E-02  0.1363E+00  0.1350E+00
     23.065  0.4905E-02  0.2482E-02  0.1372E+00  0.1355E+00
     23.242  0.2888E-02  0.2717E-02  0.1377E+00  0.1360E+00
     23.418  0.2679E-02  0.4110E-02  0.1382E+00  0.1367E+00
     23.594  0.9467E-03  0.4526E-02  0.1384E+00  0.1375E+00
     23.771  0.3594E-02  0.2108E-02  0.1390E+00  0.1379E+00
     23.947  0.3063E-02  0.2154E-02  0.1395E+00  0.1382E+00
     24.123  0.1201E-02  0.2793E-02  0.1397E+00  0.1387E+00
     24.300  0.2186E-02  0.2566E-02  0.1401E+00  0.1392E+00
     24.476  0.7008E-02  0.2741E-02  0.1414E+00  0.1397E+00
     24.652  0.1604E-02  0.1483E-02  0.1417E+00  0.1399E+00
     24.829  0.2802E-02  0.4556E-02  0.1421E+00  0.1407E+00
     25.005  0.5959E-03  0.4641E-02  0.1423E+00  0.1415E+00
     25.181  0.5481E-02  0.2387E-02  0.1432E+00  0.1420E+00
     25.357  0.5493E-02  0.1123E-02  0.1442E+00  0.1422E+00
     25.534  0.1803E-02  0.4183E-02  0.1445E+00  0.1429E+00
     25.710  0.2411E-02  0.5083E-02  0.1449E+00  0.1438E+00
     25.886  0.2984E-02  0.3546E-02  0.1455E+00  0.1444E+00
     26.063  0.3780E-02  0.1338E-02  0.1461E+00  0.1447E+00
     26.239  0.4398E-02  0.3742E-02  0.1469E+00  0.1453E+00
     26.415  0.4917E-02  0.4369E-02  0.1478E+00  0.1461E+00
     26.592  0.3960E-02  0.4055E-02  0.1485E+00  0.1468E+00
     26.768  0.6637E-02  0.5497E-02  0.1496E+00  0.1478E+00
     26.944  0.4854E-02  0.4434E-02  0.1505E+00  0.1486E+00
     27.121  0.2065E-02  0.5329E-02  0.1509E+00  0.1495E+00
     27.297  0.3126E-02  0.4475E-02  0.1514E+00  0.1503E+00
     27.473  0.2869E-02  0.3072E-02  0.1519E+00  0.1508E+00
     27.650  0.7015E-02  0.3814E-02  0.1531E+00  0.1515E+00
     27.826  0.1445E-02  0.3761E-02  0.1534E+00  0.1522E+00
     28.002  0.3549E-02  0.6474E-02  0.1540E+00  0.1533E+00
     28.179  0.8212E-02  0.9755E-03  0.1555E+00  0.1535E+00
     28.355  0.2992E-02  0.5420E-02  0.1560E+00  0.1544E+00
     28.531  0.3918E-02  0.6365E-02  0.1567E+00  0.1556E+00
     28.708  0.4296E-02  0.3289E-02  0.1575E+00  0.1561E+00
     28.884  0.4883E-02  0.4159E-02  0.1583E+00  0.1569E+00
     29.060  0.2181E-02  0.5491E-02  0.1587E+00  0.1578E+00
     29.237  0.4349E-02  0.3383E-02  0.1595E+00  0.1584E+00
     29.413  0.2896E-02  0.3698E-02  0.1600E+00  0.1591E+00
     29.589  0.3882E-02  0.3616E-02  0.1607E+00  0.1597E+00
     29.766  0.4745E-02  0.2783E-02  0.1615E+00  0.1602E+00
     29.942  0.4109E-02  0.3908E-02  0.1622E+00  0.1609E+00
     30.118  0.4477E-02  0.6184E-02  0.1630E+00  0.1620E+00
     30.295  0.4833E-02  0.3447E-02  0.1639E+00  0.1626E+00
     30.471  0.2847E-02  0.5781E-02  0.1644E+00  0.1636E+00
     30.647  0.5594E-02  0.2335E-02  0.1654E+00  0.1640E+00
     30.824  0.3819E-02  0.4777E-02  0.1660E+00  0.1649E+00
     31.000  0.3475E-02  0.6095E-02  0.1666E+00  0.1659E+00
     31.176  0.4676E-02  0.2679E-02  0.1675E+00  0.1664E+00
     31.353  0.4163E-02  0.5354E-02  0.1682E+00  0.1674E+00
     31.529  0.4132E-02  0.4521E-02  0.1689E+00  0.1682E+00
     31.705  0.4286E-02  0.4592E-02  0.1697E+00  0.1690E+00
     31.882  0.2631E-02  0.3315E-02  0.1701E+00  0.1696E+00
     32.058  0.3217E-02  0.3298E-02  0.1707E+00  0.1701E+00
     32.234  0.4825E-02  0.3539E-02  0.1716E+00  0.1708E+00
     32.411  0.2081E-02  0.3533E-02  0.1719E+00  0.1714E+00
     32.587  0.5133E-02  0.3718E-02  0.1728E+00  0.1720E+00
     32.763  0.3189E-02  0.4918E-02  0.1734E+00  0.1729E+00
     32.940  0.7326E-02  0.3495E-02  0.1747E+00  0.1735E+00
     33.116  0.4557E-02  0.5149E-02  0.1755E+00  0.1744E+00
     33.292  0.1977E-02  0.5383E-02  0.1758E+00  0.1754E+00
     33.469  0.3583E-02  0.3844E-02  0.1765E+00  0.1761E+00
     33.645  0.5021E-02  0.2594E-02  0.1774E+00  0.1765E+00
     33.821  0.5871E-02  0.5882E-02  0.1784E+00  0.1776E+00
     33.998  0.4537E-02  0.4059E-02  0.1792E+00  0.1783E+00
     34.174  0.4190E-02  0.3462E-02  0.1799E+00  0.1789E+00
     34.350  0.3325E-02  0.5092E-02  0.1805E+00  0.1798E+00
     34.527  0.1795E-02  0.3933E-02  0.1808E+00  0.1805E+00
     34.703  0.1382E-02  0.1285E-02  0.1811E+00  0.1807E+00
     34.879  0.6416E-02  0.3426E-02  0.1822E+00  0.1813E+00
     35.056  0.2987E-02  0.2850E-02  0.1827E+00  0.1818E+00
     35.232  0.3939E-02  0.5975E-02  0.1834E+00  0.1829E+00
     35.408  0.4489E-02  0.2721E-02  0.1842E+00  0.1833E+00
     35.585  0.1057E-01  0.3926E-02  0.1861E+00  0.1840E+00
     35.761  0.6637E-02  0.9439E-02  0.1873E+00  0.1857E+00
     35.937  0.3805E-02  0.6245E-02  0.1879E+00  0.1868E+00
     36.114  0.2825E-02  0.6741E-02  0.1884E+00  0.1880E+00
     36.290  0.6441E-02  0.2360E-02  0.1896E+00  0.1884E+00
     36.466  0.3946E-02  0.5823E-02  0.1903E+00  0.1894E+00
     36.643  0.4424E-02  0.4302E-02  0.1910E+00  0.1902E+00
     36.819  0.2863E-02  0.5181E-02  0.1915E+00  0.1911E+00
     36.995  0.2186E-02  0.2872E-02  0.1919E+00  0.1916E+00
     37.172  0.3049E-02  0.1833E-02  0.1925E+00  0.1919E+00
     37.348  0.3679E-02  0.4116E-02  0.1931E+00  0.1927E+00
     37.524  0.2716E-02  0.1374E-02  0.1936E+00  0.1929E+00
     37.701  0.2525E-02  0.4206E-02  0.1940E+00  0.1936E+00
     37.877  0.5829E-02  0.2554E-02  0.1951E+00  0.1941E+00
     38.053  0.4598E-02  0.5061E-02  0.1959E+00  0.1950E+00
     38.230  0.3653E-02  0.5146E-02  0.1965E+00  0.1959E+00
     38.406  0.6067E-02  0.2819E-02  0.1976E+00  0.1964E+00
     38.582  0.2073E-02  0.4807E-02  0.1980E+00  0.1972E+00
     38.759  0.4901E-02  0.4332E-02  0.1988E+00  0.1980E+00
     38.935  0.5658E-02  0.4521E-02  0.1998E+00  0.1988E+00
     39.111  0.3816E-02  0.3842E-02  0.2005E+00  0.1995E+00
     39.288  0.4940E-02  0.4072E-02  0.2014E+00  0.2002E+00
     39.464  0.2722E-02  0.5449E-02  0.2018E+00  0.2012E+00
     39.640  0.2534E-02  0.3490E-02  0.2023E+00  0.2018E+00
     39.817  0.6587E-02  0.2638E-02  0.2034E+00  0.2022E+00
     39.993  0.6041E-02  0.7077E-02  0.2045E+00  0.2035E+00
     40.169  0.4866E-02  0.4275E-02  0.2054E+00  0.2042E+00
     40.345  0.3626E-02  0.4773E-02  0.2060E+00  0.2051E+00
     40.522  0.3462E-02  0.5225E-02  0.2066E+00  0.2060E+00
     40.698  0.5018E-02  0.5128E-02  0.2075E+00  0.2069E+00
     40.874  0.1063E-02  0.3798E-02  0.2077E+00  0.2076E+00
     41.051  0.3250E-02  0.7758E-03  0.2083E+00  0.2077E+00
     41.227  0.6077E-02  0.3783E-02  0.2093E+00  0.2084E+00
     41.403  0.7004E-02  0.4323E-02  0.2106E+00  0.2091E+00
     41.580  0.5050E-02  0.6541E-02  0.2115E+00  0.2103E+00
     41.756  0.7621E-02  0.6498E-02  0.2128E+00  0.2114E+00
     41.932  0.3710E-02  0.6253E-02  0.2135E+00  0.2125E+00
     42.109  0.4917E-02  0.3491E-02  0.2143E+00  0.2132E+00
     42.285  0.2767E-02  0.6818E-02  0.2148E+00  0.2144E+00
     42.461  0.5392E-02  0.3008E-02  0.2158E+00  0.2149E+00
     42.638  0.4340E-02  0.4425E-02  0.2165E+00  0.2157E+00
     42.814  0.4849E-02  0.4108E-02  0.2174E+00  0.2164E+00
     42.990  0.2676E-02  0.5245E-02  0.2179E+00  0.2173E+00
     43.167  0.8150E-03  0.4029E-02  0.2180E+00  0.2180E+00
     43.343  0.2783E-02  0.1097E-02  0.2185E+00  0.2182E+00
     43.519  0.5050E-02  0.1633E-02  0.2194E+00  0.2185E+00
     43.696  0.6450E-02  0.4985E-02  0.2205E+00  0.2194E+00
     43.872  0.4536E-02  0.3917E-02  0.2213E+00  0.2201E+00
     44.048  0.8579E-02  0.5402E-02  0.2228E+00  0.2210E+00
     44.225  0.7397E-02  0.5932E-02  0.2241E+00  0.2221E+00
     44.401  0.4009E-02  0.1025E-01  0.2248E+00  0.2239E+00
     44.577  0.3144E-02  0.3504E-02  0.2254E+00  0.2245E+00
     44.754  0.5712E-02  0.2858E-02  0.2264E+00  0.2250E+00
     44.930  0.5208E-02  0.5437E-02  0.2273E+00  0.2260E+00
     45.106  0.3888E-02  0.5643E-02  0.2280E+00  0.2270E+00
     45.283  0.4853E-02  0.5276E-02  0.2289E+00  0.2279E+00
     45.459  0.8133E-02  0.5309E-02  0.2303E+00  0.2288E+00
     45.635  0.3920E-02  0.4702E-02  0.2310E+00  0.2297E+00
     45.812  0.1855E-02  0.6264E-02  0.2313E+00  0.2308E+00
     45.988  0.2601E-02  0.1974E-02  0.2318E+00  0.2311E+00
     46.164  0.5993E-02  0.6948E-03  0.2328E+00  0.2312E+00
     46.341  0.4522E-02  0.2934E-02  0.2336E+00  0.2317E+00
     46.517  0.5229E-02  0.4966E-02  0.2346E+00  0.2326E+00
     46.693  0.2654E-02  0.4957E-02  0.2350E+00  0.2335E+00
     46.870  0.4221E-02  0.3635E-02  0.2358E+00  0.2341E+00
     47.046  0.5587E-02  0.3611E-02  0.2368E+00  0.2348E+00
     47.222  0.6328E-02  0.4155E-03  0.2379E+00  0.2348E+00
     47.399  0.6858E-02  0.1616E-02  0.2391E+00  0.2351E+00
     47.575  0.2245E-02  0.3708E-02  0.2395E+00  0.2358E+00
     47.751  0.2026E-02  0.5045E-02  0.2398E+00  0.2367E+00
     47.928  0.4246E-03  0.3195E-02  0.2399E+00  0.2372E+00
     48.104  0.3366E-03  0.3869E-02  0.2400E+00  0.2379E+00
     48.280  0.1341E-03  0.2264E-02  0.2400E+00  0.2383E+00
     48.457  0.6278E-04  0.3670E-03  0.2400E+00  0.2384E+00
     48.633  0.4731E-11  0.3217E-02  0.2400E+00  0.2390E+00
     48.809  0.0000E+00  0.1834E-02  0.2400E+00  0.2393E+00
     48.986  0.0000E+00  0.1794E-02  0.2400E+00  0.2396E+00
     49.162  0.0000E+00  0.6611E-03  0.2400E+00  0.2397E+00
     49.338  0.0000E+00  0.5134E-03  0.2400E+00  0.2398E+00
     49.515  0.0000E+00  0.5453E-03  0.2400E+00  0.2399E+00
     49.691  0.0000E+00  0.2070E-04  0.2400E+00  0.2399E+00
     49.867  0.0000E+00  0.5697E-03  0.2400E+00  0.2400E+00
     50.044  0.0000E+00  0.4445E-06  0.2400E+00  0.2400E+00
     50.220  0.0000E+00  0.0000E+00  0.2400E+00  0.2400E+00
     50.396  0.0000E+00  0.0000E+00  0.2400E+00  0.2400E+00
     50.573  0.0000E+00  0.0000E+00  0.2400E+00  0.2400E+00
     50.749  0.0000E+00  0.0000E+00  0.2400E+00  0.2400E+00
     50.925  0.0000E+00  0.0000E+00  0.2400E+00  0.2400E+00
     51.102  0.0000E+00  0.0000E+00  0.2400E+00  0.2400E+00
     51.278  0.0000E+00  0.0000E+00  0.2400E+00  0.2400E+00
     51.454  0.0000E+00  0.0000E+00  0.2400E+00  0.2400E+00
     51.631  0.0000E+00  0.0000E+00  0.2400E+00  0.2400E+00
     51.807  0.0000E+00  0.0000E+00  0.2400E+00  0.2400E+00
     51.983  0.0000E+00  0.0000E+00  0.2400E+00  0.2400E+00
     52.160  0.0000E+00  0.0000E+00  0.2400E+00  0.2400E+00
     52.15956139     -0.73925451  301     10.77053806      1.00000000
     -0.739  0.0000E+00  0.0000E+00  0.0000E+00  0.0000E+00  0.0000E+00  0.0000E+00  0.0000E+00  0.0000E+00  0.0000E+00  0.0000E+00  0.0000E+00  0.0000E+00  0.0000E+00  0.0000E+00  0.0000E+00  0.0000E+00  0.0000E+00  0.0000E+00
     -0.563  0.0000E+00  0.0000E+00  0.0000E+00  0.0000E+00  0.0000E+00  0.0000E+00  0.0000E+00  0.0000E+00  0.0000E+00  0.0000E+00  0.0000E+00  0.0000E+00  0.0000E+00  0.0000E+00  0.0000E+00  0.0000E+00  0.0000E+00  0.0000E+00
     -0.387  0.0000E+00  0.0000E+00  0.0000E+00  0.0000E+00  0.0000E+00  0.0000E+00  0.0000E+00  0.0000E+00  0.0000E+00  0.0000E+00  0.0000E+00  0.0000E+00  0.0000E+00  0.0000E+00  0.0000E+00  0.0000E+00  0.0000E+00  0.0000E+00
     -0.210  0.0000E+00  0.0000E+00  0.0000E+00  0.0000E+00  0.0000E+00  0.0000E+00  0.0000E+00  0.0000E+00  0.0000E+00  0.0000E+00  0.0000E+00  0.0000E+00  0.0000E+00  0.0000E+00  0.0000E+00  0.0000E+00  0.0000E+00  0.0000E+00
     -0.034  0.0000E+00  0.0000E+00  0.0000E+00  0.0000E+00  0.0000E+00  0.0000E+00  0.0000E+00  0.0000E+00  0.0000E+00  0.0000E+00  0.0000E+00  0.0000E+00  0.0000E+00  0.0000E+00  0.0000E+00  0.0000E+00  0.0000E+00  0.0000E+00
      0.142  0.0000E+00  0.0000E+00  0.0000E+00  0.0000E+00  0.0000E+00  0.0000E+00  0.0000E+00  0.0000E+00  0.0000E+00  0.0000E+00  0.0000E+00  0.0000E+00  0.0000E+00  0.0000E+00  0.0000E+00  0.0000E+00  0.0000E+00  0.0000E+00
      0.319  0.0000E+00  0.0000E+00  0.0000E+00  0.0000E+00  0.0000E+00  0.0000E+00  0.0000E+00  0.0000E+00  0.0000E+00  0.0000E+00  0.0000E+00  0.0000E+00  0.0000E+00  0.0000E+00  0.0000E+00  0.0000E+00  0.0000E+00  0.0000E+00
      0.495  0.0000E+00  0.0000E+00  0.0000E+00  0.0000E+00  0.0000E+00  0.0000E+00  0.0000E+00  0.0000E+00  0.0000E+00  0.0000E+00  0.0000E+00  0.0000E+00  0.0000E+00  0.0000E+00  0.0000E+00  0.0000E+00  0.0000E+00  0.0000E+00
      0.671  0.0000E+00  0.0000E+00  0.0000E+00  0.0000E+00  0.0000E+00  0.0000E+00  0.0000E+00  0.0000E+00  0.0000E+00  0.0000E+00  0.0000E+00  0.0000E+00  0.0000E+00  0.0000E+00  0.0000E+00  0.0000E+00  0.0000E+00  0.0000E+00
      0.848  0.0000E+00  0.0000E+00  0.0000E+00  0.0000E+00  0.0000E+00  0.0000E+00  0.0000E+00  0.0000E+00  0.0000E+00  0.0000E+00  0.0000E+00  0.0000E+00  0.0000E+00  0.0000E+00  0.0000E+00  0.0000E+00  0.0000E+00  0.0000E+00
      1.024  0.0000E+00  0.0000E+00  0.0000E+00  0.0000E+00  0.0000E+00  0.0000E+00  0.0000E+00  0.0000E+00  0.0000E+00  0.0000E+00  0.0000E+00  0.0000E+00  0.0000E+00  0.0000E+00  0.0000E+00  0.0000E+00  0.0000E+00  0.0000E+00
      1.200  0.0000E+00  0.0000E+00  0.0000E+00  0.0000E+00  0.0000E+00  0.0000E+00  0.0000E+00  0.0000E+00  0.0000E+00  0.0000E+00  0.0000E+00  0.0000E+00  0.0000E+00  0.0000E+00  0.0000E+00  0.0000E+00  0.0000E+00  0.0000E+00
      1.377  0.3101E-18  0.2070E-18  0.7953E-35  0.1726E-34  0.7295E-33  0.1096E-32  0.7953E-35  0.1726E-34  0.1771E-32  0.4584E-32  0.3356E-35  0.8420E-35  0.1755E-23  0.1569E-23  0.3356E-35  0.8420E-35  0.1771E-32  0.4584E-32
      1.553  0.1401E-05  0.1254E-05  0.3593E-22  0.1046E-21  0.2082E-18  0.1461E-18  0.3593E-22  0.1046E-21  0.8003E-20  0.2778E-19  0.1516E-22  0.5103E-22  0.7930E-11  0.9506E-11  0.1516E-22  0.5103E-22  0.8003E-20  0.2778E-19
      1.729  0.1805E-02  0.1801E-02  0.9854E-11  0.7132E-11  0.1486E-06  0.1280E-06  0.9854E-11  0.7132E-11  0.1756E-12  0.9462E-13  0.1949E-19  0.7334E-19  0.1185E-07  0.1454E-07  0.1949E-19  0.7334E-19  0.1756E-12  0.9462E-13
      1.906  0.7995E-02  0.7751E-02  0.5146E-04  0.4874E-04  0.5583E-04  0.5608E-04  0.5146E-04  0.4874E-04  0.9168E-06  0.6465E-06  0.8721E-11  0.4290E-11  0.1543E-05  0.1125E-05  0.8721E-11  0.4290E-11  0.9168E-06  0.6465E-06
      2.082  0.1901E-01  0.1855E-01  0.2266E-03  0.2221E-03  0.1943E-03  0.1841E-03  0.2266E-03  0.2221E-03  0.4120E-05  0.2987E-05  0.6216E-05  0.4442E-05  0.1410E-05  0.1200E-05  0.6216E-05  0.4442E-05  0.4120E-05  0.2987E-05
      2.258  0.9445E-02  0.1011E-01  0.1092E-03  0.1187E-03  0.1632E-03  0.1707E-03  0.1092E-03  0.1187E-03  0.2007E-05  0.1609E-05  0.4581E-05  0.3759E-05  0.1420E-05  0.7429E-06  0.4581E-05  0.3759E-05  0.2007E-05  0.1609E-05
      2.435  0.1178E-01  0.1137E-01  0.3105E-03  0.2952E-03  0.1981E-03  0.2046E-03  0.3105E-03  0.2952E-03  0.1680E-04  0.1175E-04  0.5460E-07  0.1870E-07  0.2767E-04  0.1976E-04  0.5460E-07  0.1870E-07  0.1680E-04  0.1175E-04
      2.611  0.4326E-01  0.4206E-01  0.1122E-02  0.1085E-02  0.1555E-02  0.1538E-02  0.1122E-02  0.1085E-02  0.5817E-04  0.3982E-04  0.7761E-04  0.5604E-04  0.7692E-04  0.5249E-04  0.7761E-04  0.5604E-04  0.5817E-04  0.3982E-04
      2.787  0.1962E-01  0.1870E-01  0.9098E-03  0.8542E-03  0.2186E-03  0.2106E-03  0.9098E-03  0.8542E-03  0.8007E-04  0.5144E-04  0.3046E-04  0.1808E-04  0.4180E-04  0.3013E-04  0.3046E-04  0.1808E-04  0.8007E-04  0.5144E-04
      2.964  0.1204E-01  0.1351E-01  0.5549E-03  0.6491E-03  0.3028E-03  0.2662E-03  0.5549E-03  0.6491E-03  0.4903E-04  0.4083E-04  0.4369E-04  0.2935E-04  0.1769E-04  0.1519E-04  0.4369E-04  0.2935E-04  0.4903E-04  0.4083E-04
      3.140  0.2044E-01  0.2159E-01  0.6400E-03  0.6895E-03  0.1551E-02  0.1644E-02  0.6400E-03  0.6895E-03  0.4224E-04  0.3152E-04  0.1365E-03  0.1040E-03  0.1053E-03  0.6951E-04  0.1365E-03  0.1040E-03  0.4224E-04  0.3152E-04
      3.316  0.4414E-01  0.3515E-01  0.1942E-02  0.1487E-02  0.3451E-02  0.2931E-02  0.1942E-02  0.1487E-02  0.2408E-03  0.1160E-03  0.3030E-03  0.1967E-03  0.5067E-03  0.2361E-03  0.3030E-03  0.1967E-03  0.2408E-03  0.1160E-03
      3.493  0.4379E-01  0.4389E-01  0.3548E-02  0.3297E-02  0.9167E-03  0.1406E-02  0.3548E-02  0.3297E-02  0.5925E-03  0.3638E-03  0.2174E-03  0.1259E-03  0.4124E-03  0.3361E-03  0.2174E-03  0.1259E-03  0.5925E-03  0.3638E-03
      3.669  0.7162E-02  0.1444E-01  0.5298E-03  0.1253E-02  0.3731E-03  0.2638E-03  0.5298E-03  0.1253E-02  0.9236E-04  0.1437E-03  0.7004E-04  0.6229E-04  0.7916E-04  0.7818E-04  0.7004E-04  0.6229E-04  0.9236E-04  0.1437E-03
      3.845  0.4757E-01  0.2885E-01  0.3688E-02  0.1903E-02  0.3470E-02  0.2747E-02  0.3688E-02  0.1903E-02  0.8908E-03  0.2625E-03  0.8390E-03  0.2851E-03  0.5666E-03  0.3045E-03  0.8390E-03  0.2851E-03  0.8908E-03  0.2625E-03
      4.022  0.4661E-01  0.6644E-01  0.3389E-02  0.5583E-02  0.4407E-02  0.5120E-02  0.3389E-02  0.5583E-02  0.7760E-03  0.8284E-03  0.1119E-02  0.1036E-02  0.7624E-03  0.4002E-03  0.1119E-02  0.1036E-02  0.7760E-03  0.8284E-03
      4.198  0.1824E-01  0.3451E-02  0.8845E-03  0.5158E-04  0.3145E-02  0.7712E-03  0.8845E-03  0.5158E-04  0.3185E-03  0.5201E-05  0.4397E-03  0.2038E-04  0.1661E-02  0.2436E-03  0.4397E-03  0.2038E-04  0.3185E-03  0.5201E-05
      4.374  0.2075E-01  0.3304E-01  0.2078E-02  0.2182E-02  0.1744E-02  0.5092E-02  0.2078E-02  0.2182E-02  0.7394E-03  0.4688E-03  0.4762E-03  0.5727E-03  0.1032E-02  0.1428E-02  0.4762E-03  0.5727E-03  0.7394E-03  0.4688E-03
      4.551  0.7094E-01  0.3131E-01  0.8551E-02  0.4187E-02  0.5823E-02  0.1946E-02  0.8551E-02  0.4187E-02  0.3418E-02  0.8704E-03  0.2815E-02  0.6417E-03  0.2098E-02  0.5131E-03  0.2815E-02  0.6417E-03  0.3418E-02  0.8704E-03
      4.727  0.4552E-01  0.7495E-01  0.5150E-02  0.9110E-02  0.5052E-02  0.7321E-02  0.5150E-02  0.9110E-02  0.2655E-02  0.2408E-02  0.2074E-02  0.1679E-02  0.2800E-02  0.2133E-02  0.2074E-02  0.1679E-02  0.2655E-02  0.2408E-02
      4.903  0.6182E-01  0.3683E-01  0.7604E-02  0.4160E-02  0.6770E-02  0.5442E-02  0.7604E-02  0.4160E-02  0.5283E-02  0.1083E-02  0.5410E-02  0.1553E-02  0.3937E-02  0.1164E-02  0.5410E-02  0.1553E-02  0.5283E-02  0.1083E-02
      5.080  0.2849E-01  0.4361E-01  0.2952E-02  0.6222E-02  0.3730E-02  0.4300E-02  0.2952E-02  0.6222E-02  0.3883E-02  0.2295E-02  0.1453E-02  0.2387E-02  0.8833E-02  0.1193E-02  0.1453E-02  0.2387E-02  0.3883E-02  0.2295E-02
      5.256  0.5584E-01  0.2489E-01  0.6681E-02  0.3919E-02  0.1053E-01  0.1771E-02  0.6681E-02  0.3919E-02  0.6323E-02  0.2341E-02  0.1209E-01  0.5112E-03  0.2581E-02  0.2313E-02  0.1209E-01  0.5112E-03  0.6323E-02  0.2341E-02
      5.432  0.4730E-01  0.4066E-01  0.5350E-02  0.3710E-02  0.8904E-02  0.1091E-01  0.5350E-02  0.3710E-02  0.9502E-02  0.1293E-02  0.1137E-01  0.3245E-02  0.1404E-01  0.4473E-02  0.1137E-01  0.3245E-02  0.9502E-02  0.1293E-02
      5.609  0.1294E+00  0.4515E-01  0.1935E-01  0.6896E-02  0.8143E-02  0.7050E-02  0.1935E-01  0.6896E-02  0.6188E-01  0.3718E-02  0.5620E-01  0.5880E-02  0.6046E-01  0.9077E-03  0.5620E-01  0.5880E-02  0.6188E-01  0.3718E-02
      5.785  0.8151E-01  0.5518E-01  0.9857E-02  0.1003E-01  0.1147E-01  0.8680E-02  0.9857E-02  0.1003E-01  0.5484E-01  0.4741E-02  0.7468E-01  0.3238E-02  0.3727E-01  0.6906E-02  0.7468E-01  0.3238E-02  0.5484E-01  0.4741E-02
      5.961  0.7634E-01  0.6047E-01  0.1028E-01  0.1175E-01  0.1379E-01  0.6677E-02  0.1028E-01  0.1175E-01  0.7273E-01  0.1099E-01  0.7427E-01  0.4996E-02  0.8892E-01  0.9260E-02  0.7427E-01  0.4996E-02  0.7273E-01  0.1099E-01
      6.138  0.6933E-01  0.5746E-01  0.1215E-01  0.1074E-01  0.1556E-01  0.7869E-02  0.1215E-01  0.1074E-01  0.1308E+00  0.9860E-02  0.8908E-01  0.1001E-01  0.8061E-01  0.1386E-01  0.8908E-01  0.1001E-01  0.1308E+00  0.9860E-02
      6.314  0.6776E-01  0.6937E-01  0.1906E-01  0.1096E-01  0.1870E-01  0.1537E-01  0.1906E-01  0.1096E-01  0.1297E+00  0.1871E-01  0.1605E+00  0.2048E-01  0.1495E+00  0.1023E-01  0.1605E+00  0.2048E-01  0.1297E+00  0.1871E-01
      6.490  0.3463E-01  0.5477E-01  0.1338E-01  0.7390E-02  0.1655E-01  0.1245E-01  0.1338E-01  0.7390E-02  0.1104E+00  0.1415E-01  0.1422E+00  0.2152E-01  0.1317E+00  0.2597E-01  0.1422E+00  0.2152E-01  0.1104E+00  0.1415E-01
      6.667  0.2590E-01  0.6510E-01  0.1679E-01  0.6518E-02  0.1932E-01  0.9009E-02  0.1679E-01  0.6518E-02  0.8905E-01  0.4175E-01  0.1449E+00  0.4740E-01  0.1013E+00  0.4293E-01  0.1449E+00  0.4740E-01  0.8905E-01  0.4175E-01
      6.843  0.2321E-01  0.1018E+00  0.2279E-01  0.2445E-01  0.1516E-01  0.1624E-01  0.2279E-01  0.2445E-01  0.1272E+00  0.5740E-01  0.1221E+00  0.5560E-01  0.1923E+00  0.3680E-01  0.1221E+00  0.5560E-01  0.1272E+00  0.5740E-01
      7.019  0.1035E-01  0.6320E-01  0.1528E-01  0.1300E-01  0.1390E-01  0.1351E-01  0.1528E-01  0.1300E-01  0.1300E+00  0.4606E-01  0.1030E+00  0.5810E-01  0.1865E+00  0.5617E-01  0.1030E+00  0.5810E-01  0.1300E+00  0.4606E-01
      7.196  0.1114E-01  0.4746E-01  0.2581E-01  0.1102E-01  0.1658E-01  0.1560E-01  0.2581E-01  0.1102E-01  0.2129E+00  0.6884E-01  0.1119E+00  0.5499E-01  0.1889E+00  0.4108E-01  0.1119E+00  0.5499E-01  0.2129E+00  0.6884E-01
      7.372  0.1238E-01  0.4094E-01  0.2556E-01  0.1212E-01  0.1868E-01  0.1656E-01  0.2556E-01  0.1212E-01  0.2187E+00  0.7173E-01  0.1306E+00  0.6661E-01  0.2064E+00  0.7316E-01  0.1306E+00  0.6661E-01  0.2187E+00  0.7173E-01
      7.548  0.1160E-01  0.4411E-01  0.2347E-01  0.1990E-01  0.1870E-01  0.2237E-01  0.2347E-01  0.1990E-01  0.1964E+00  0.1062E+00  0.9658E-01  0.1419E+00  0.1518E+00  0.9701E-01  0.9658E-01  0.1419E+00  0.1964E+00  0.1062E+00
      7.725  0.4186E-02  0.1847E-01  0.8028E-02  0.1381E-01  0.9470E-02  0.2174E-01  0.8028E-02  0.1381E-01  0.1069E+00  0.6167E-01  0.4092E-01  0.1648E+00  0.1000E+00  0.7303E-01  0.4092E-01  0.1648E+00  0.1069E+00  0.6167E-01
      7.901  0.6869E-02  0.1276E-01  0.1710E-01  0.2079E-01  0.2119E-01  0.1318E-01  0.1710E-01  0.2079E-01  0.1400E+00  0.9046E-01  0.2364E+00  0.7682E-01  0.2735E+00  0.1064E+00  0.2364E+00  0.7682E-01  0.1400E+00  0.9046E-01
      8.077  0.1305E-01  0.8511E-02  0.2165E-01  0.2194E-01  0.2405E-01  0.1678E-01  0.2165E-01  0.2194E-01  0.1849E+00  0.1070E+00  0.3030E+00  0.7456E-01  0.3181E+00  0.1269E+00  0.3030E+00  0.7456E-01  0.1849E+00  0.1070E+00