   2   2   1   0
  0.9566424E+01  0.2392585E-09  0.2392585E-09  0.3859352E-09  0.5000000E-15
  1.000000000000000E-004
  CAR 
 Co-hcc                                  
     62.17800598     -0.34390853  301     12.17307694      1.00000000
     -0.344  0.0000E+00  0.0000E+00  0.0000E+00  0.0000E+00
     -0.136  0.0000E+00  0.0000E+00  0.0000E+00  0.0000E+00
      0.073  0.0000E+00  0.0000E+00  0.0000E+00  0.0000E+00
      0.281  0.0000E+00  0.0000E+00  0.0000E+00  0.0000E+00
      0.490  0.0000E+00  0.0000E+00  0.0000E+00  0.0000E+00
      0.698  0.0000E+00  0.0000E+00  0.0000E+00  0.0000E+00
      0.907  0.0000E+00  0.0000E+00  0.0000E+00  0.0000E+00
      1.115  0.0000E+00  0.0000E+00  0.0000E+00  0.0000E+00
      1.323  0.0000E+00  0.0000E+00  0.0000E+00  0.0000E+00
      1.532  0.0000E+00  0.0000E+00  0.0000E+00  0.0000E+00
      1.740  0.0000E+00  0.0000E+00  0.0000E+00  0.0000E+00
      1.949  0.0000E+00  0.0000E+00  0.0000E+00  0.0000E+00
      2.157  0.0000E+00  0.0000E+00  0.0000E+00  0.0000E+00
      2.365  0.3666E-08  0.1475E-08  0.7641E-09  0.3075E-09
      2.574  0.4120E-04  0.4061E-04  0.8587E-05  0.8464E-05
      2.782  0.2536E-03  0.2300E-03  0.6144E-04  0.5640E-04
      2.991  0.5473E-03  0.5492E-03  0.1755E-03  0.1708E-03
      3.199  0.9139E-04  0.1013E-03  0.1946E-03  0.1920E-03
      3.407  0.4313E-03  0.3627E-03  0.2844E-03  0.2676E-03
      3.616  0.1096E-02  0.1166E-02  0.5129E-03  0.5105E-03
      3.824  0.4972E-03  0.5075E-03  0.6165E-03  0.6162E-03
      4.033  0.5771E-03  0.5599E-03  0.7368E-03  0.7329E-03
      4.241  0.1045E-02  0.7279E-03  0.9546E-03  0.8846E-03
      4.449  0.1381E-02  0.1414E-02  0.1242E-02  0.1179E-02
      4.658  0.3064E-03  0.4039E-03  0.1306E-02  0.1263E-02
      4.866  0.2082E-02  0.1289E-02  0.1740E-02  0.1532E-02
      5.075  0.5284E-03  0.1515E-02  0.1850E-02  0.1848E-02
      5.283  0.1011E-02  0.6527E-03  0.2061E-02  0.1984E-02
      5.491  0.1856E-02  0.6582E-03  0.2447E-02  0.2121E-02
      5.700  0.2021E-02  0.2663E-02  0.2869E-02  0.2676E-02
      5.908  0.2721E-02  0.1666E-02  0.3436E-02  0.3023E-02
      6.117  0.1424E-02  0.1828E-02  0.3733E-02  0.3404E-02
      6.325  0.3039E-02  0.1056E-02  0.4366E-02  0.3624E-02
      6.534  0.9159E-02  0.2419E-02  0.6275E-02  0.4128E-02
      6.742  0.9284E-02  0.1986E-02  0.8210E-02  0.4542E-02
      6.950  0.1060E-01  0.3553E-02  0.1042E-01  0.5283E-02
      7.159  0.1204E-01  0.3929E-02  0.1293E-01  0.6102E-02
      7.367  0.2026E-01  0.6014E-02  0.1715E-01  0.7355E-02
      7.576  0.1196E-01  0.6811E-02  0.1964E-01  0.8775E-02
      7.784  0.1282E-01  0.8405E-02  0.2231E-01  0.1053E-01
      7.992  0.1626E-01  0.9702E-02  0.2570E-01  0.1255E-01
      8.201  0.1624E-01  0.9238E-02  0.2909E-01  0.1447E-01
      8.409  0.1616E-01  0.1431E-01  0.3245E-01  0.1746E-01
      8.618  0.1960E-01  0.1207E-01  0.3654E-01  0.1997E-01
      8.826  0.8009E-02  0.1069E-01  0.3821E-01  0.2220E-01
      9.034  0.1430E-01  0.1081E-01  0.4119E-01  0.2445E-01
      9.243  0.2409E-01  0.1279E-01  0.4621E-01  0.2712E-01
      9.451  0.2234E-01  0.1563E-01  0.5086E-01  0.3038E-01
      9.660  0.2530E-01  0.1916E-01  0.5614E-01  0.3437E-01
      9.868  0.2405E-01  0.1256E-01  0.6115E-01  0.3699E-01
     10.076  0.2468E-01  0.6848E-02  0.6629E-01  0.3841E-01
     10.285  0.1961E-01  0.8366E-02  0.7038E-01  0.4016E-01
     10.493  0.1445E-01  0.1839E-01  0.7339E-01  0.4399E-01
     10.702  0.1762E-01  0.2014E-01  0.7706E-01  0.4819E-01
     10.910  0.1154E-01  0.2166E-01  0.7947E-01  0.5270E-01
     11.118  0.1329E-01  0.2049E-01  0.8224E-01  0.5697E-01
     11.327  0.2262E-01  0.2513E-01  0.8695E-01  0.6221E-01
     11.535  0.2392E-01  0.2367E-01  0.9194E-01  0.6714E-01
     11.744  0.3638E-01  0.1312E-01  0.9952E-01  0.6987E-01
     11.952  0.2331E-01  0.1497E-01  0.1044E+00  0.7299E-01
     12.160  0.1720E-02  0.1005E-01  0.1047E+00  0.7509E-01
     12.369  0.5188E-02  0.1559E-01  0.1058E+00  0.7834E-01
     12.577  0.4643E-02  0.8747E-02  0.1068E+00  0.8016E-01
     12.786  0.2045E-02  0.1212E-01  0.1072E+00  0.8268E-01
     12.994  0.1459E-02  0.2039E-01  0.1075E+00  0.8693E-01
     13.203  0.6617E-03  0.1867E-01  0.1077E+00  0.9082E-01
     13.411  0.2612E-02  0.2836E-01  0.1082E+00  0.9673E-01
     13.619  0.3480E-02  0.3424E-01  0.1089E+00  0.1039E+00
     13.828  0.5067E-02  0.8718E-02  0.1100E+00  0.1057E+00
     14.036  0.3166E-02  0.5176E-02  0.1106E+00  0.1068E+00
     14.245  0.1200E-02  0.3302E-02  0.1109E+00  0.1075E+00
     14.453  0.2387E-02  0.2850E-02  0.1114E+00  0.1080E+00
     14.661  0.1604E-02  0.3615E-02  0.1117E+00  0.1088E+00
     14.870  0.1569E-02  0.2655E-02  0.1120E+00  0.1094E+00
     15.078  0.2310E-02  0.4020E-02  0.1125E+00  0.1102E+00
     15.287  0.2432E-02  0.3948E-02  0.1130E+00  0.1110E+00
     15.495  0.2077E-02  0.1504E-02  0.1135E+00  0.1113E+00
     15.703  0.2622E-02  0.3560E-02  0.1140E+00  0.1121E+00
     15.912  0.6949E-03  0.1105E-02  0.1142E+00  0.1123E+00
     16.120  0.2560E-02  0.3229E-02  0.1147E+00  0.1130E+00
     16.329  0.3368E-02  0.1762E-02  0.1154E+00  0.1133E+00
     16.537  0.2700E-02  0.2310E-02  0.1160E+00  0.1138E+00
     16.745  0.6282E-03  0.1660E-02  0.1161E+00  0.1142E+00
     16.954  0.2286E-02  0.2912E-02  0.1166E+00  0.1148E+00
     17.162  0.2422E-02  0.3503E-02  0.1171E+00  0.1155E+00
     17.371  0.1136E-02  0.2241E-02  0.1173E+00  0.1160E+00
     17.579  0.1331E-02  0.6085E-03  0.1176E+00  0.1161E+00
     17.787  0.9918E-03  0.2843E-02  0.1178E+00  0.1167E+00
     17.996  0.6259E-03  0.2543E-02  0.1179E+00  0.1172E+00
     18.204  0.1829E-02  0.1022E-02  0.1183E+00  0.1174E+00
     18.413  0.4233E-02  0.1542E-02  0.1192E+00  0.1178E+00
     18.621  0.1644E-02  0.6896E-03  0.1195E+00  0.1179E+00
     18.829  0.6709E-03  0.1348E-02  0.1197E+00  0.1182E+00
     19.038  0.1278E-04  0.3103E-02  0.1197E+00  0.1188E+00
     19.246  0.1536E-03  0.3159E-02  0.1197E+00  0.1195E+00
     19.455  0.6125E-03  0.6265E-03  0.1198E+00  0.1196E+00
     19.663  0.6498E-03  0.2614E-03  0.1200E+00  0.1197E+00
     19.872  0.3927E-03  0.1019E-05  0.1200E+00  0.1197E+00
     20.080  0.8601E-03  0.7060E-03  0.1202E+00  0.1198E+00
     20.288  0.9284E-03  0.7092E-03  0.1204E+00  0.1200E+00
     20.497  0.1018E-02  0.1579E-08  0.1206E+00  0.1200E+00
     20.705  0.1333E-02  0.2301E-03  0.1209E+00  0.1200E+00
     20.914  0.6202E-02  0.1501E-02  0.1222E+00  0.1203E+00
     21.122  0.4401E-02  0.1308E-02  0.1231E+00  0.1206E+00
     21.330  0.3132E-02  0.2280E-02  0.1238E+00  0.1211E+00
     21.539  0.3971E-02  0.2027E-02  0.1246E+00  0.1215E+00
     21.747  0.2460E-02  0.4208E-02  0.1251E+00  0.1224E+00
     21.956  0.4064E-02  0.5263E-02  0.1260E+00  0.1235E+00
     22.164  0.3630E-02  0.4778E-02  0.1267E+00  0.1245E+00
     22.372  0.1313E-02  0.2705E-02  0.1270E+00  0.1250E+00
     22.581  0.4036E-02  0.3999E-02  0.1278E+00  0.1259E+00
     22.789  0.1438E-02  0.4070E-02  0.1281E+00  0.1267E+00
     22.998  0.2857E-02  0.1471E-02  0.1287E+00  0.1270E+00
     23.206  0.2290E-02  0.3954E-02  0.1292E+00  0.1278E+00
     23.414  0.4607E-02  0.2088E-02  0.1302E+00  0.1283E+00
     23.623  0.2444E-02  0.2576E-02  0.1307E+00  0.1288E+00
     23.831  0.5685E-02  0.2321E-02  0.1319E+00  0.1293E+00
     24.040  0.3328E-02  0.4951E-02  0.1326E+00  0.1303E+00
     24.248  0.2083E-02  0.4214E-02  0.1330E+00  0.1312E+00
     24.456  0.6323E-02  0.5278E-02  0.1343E+00  0.1323E+00
     24.665  0.2026E-02  0.1870E-02  0.1347E+00  0.1327E+00
     24.873  0.3255E-02  0.5402E-02  0.1354E+00  0.1338E+00
     25.082  0.1926E-02  0.3953E-02  0.1358E+00  0.1346E+00
     25.290  0.4583E-02  0.3180E-02  0.1368E+00  0.1353E+00
     25.498  0.3170E-02  0.2302E-02  0.1374E+00  0.1358E+00
     25.707  0.2778E-02  0.3361E-02  0.1380E+00  0.1365E+00
     25.915  0.1584E-02  0.3516E-02  0.1383E+00  0.1372E+00
     26.124  0.2698E-02  0.3097E-02  0.1389E+00  0.1379E+00
     26.332  0.3274E-02  0.1773E-02  0.1396E+00  0.1382E+00
     26.541  0.1205E-02  0.2858E-02  0.1398E+00  0.1388E+00
     26.749  0.3169E-02  0.2714E-02  0.1405E+00  0.1394E+00
     26.957  0.4989E-02  0.2048E-02  0.1415E+00  0.1398E+00
     27.166  0.2104E-02  0.2619E-02  0.1420E+00  0.1404E+00
     27.374  0.1364E-02  0.5532E-02  0.1422E+00  0.1415E+00
     27.583  0.4383E-02  0.1674E-02  0.1432E+00  0.1419E+00
     27.791  0.5049E-02  0.2245E-02  0.1442E+00  0.1423E+00
     27.999  0.1730E-02  0.4711E-02  0.1446E+00  0.1433E+00
     28.208  0.2633E-02  0.4050E-02  0.1451E+00  0.1442E+00
     28.416  0.3354E-02  0.1924E-02  0.1458E+00  0.1446E+00
     28.625  0.1758E-02  0.3316E-02  0.1462E+00  0.1453E+00
     28.833  0.7407E-02  0.3550E-02  0.1477E+00  0.1460E+00
     29.041  0.3969E-02  0.3459E-02  0.1486E+00  0.1467E+00
     29.250  0.5306E-02  0.5478E-02  0.1497E+00  0.1479E+00
     29.458  0.3933E-02  0.5360E-02  0.1505E+00  0.1490E+00
     29.667  0.2924E-02  0.3900E-02  0.1511E+00  0.1498E+00
     29.875  0.2531E-02  0.3876E-02  0.1516E+00  0.1506E+00
     30.083  0.5138E-02  0.3202E-02  0.1527E+00  0.1513E+00
     30.292  0.3648E-02  0.4180E-02  0.1535E+00  0.1521E+00
     30.500  0.3381E-02  0.5689E-02  0.1542E+00  0.1533E+00
     30.709  0.5539E-02  0.1666E-02  0.1553E+00  0.1537E+00
     30.917  0.2988E-02  0.5621E-02  0.1559E+00  0.1548E+00
     31.125  0.5588E-02  0.4158E-02  0.1571E+00  0.1557E+00
     31.334  0.4022E-02  0.4081E-02  0.1579E+00  0.1566E+00
     31.542  0.3359E-02  0.6189E-02  0.1586E+00  0.1578E+00
     31.751  0.3039E-02  0.1865E-02  0.1593E+00  0.1582E+00
     31.959  0.2992E-02  0.4189E-02  0.1599E+00  0.1591E+00
     32.167  0.3610E-02  0.3091E-02  0.1606E+00  0.1598E+00
     32.376  0.5780E-02  0.3899E-02  0.1619E+00  0.1606E+00
     32.584  0.3055E-02  0.4771E-02  0.1625E+00  0.1616E+00
     32.793  0.5263E-02  0.4828E-02  0.1636E+00  0.1626E+00
     33.001  0.3283E-02  0.3957E-02  0.1643E+00  0.1634E+00
     33.210  0.3493E-02  0.3954E-02  0.1650E+00  0.1642E+00
     33.418  0.4955E-02  0.3453E-02  0.1660E+00  0.1649E+00
     33.626  0.4479E-02  0.4172E-02  0.1670E+00  0.1658E+00
     33.835  0.4121E-02  0.6807E-02  0.1678E+00  0.1672E+00
     34.043  0.3730E-02  0.3389E-02  0.1686E+00  0.1679E+00
     34.252  0.4409E-02  0.3890E-02  0.1695E+00  0.1687E+00
     34.460  0.2637E-02  0.3592E-02  0.1701E+00  0.1695E+00
     34.668  0.3074E-02  0.2496E-02  0.1707E+00  0.1700E+00
     34.877  0.3532E-02  0.3989E-02  0.1714E+00  0.1708E+00
     35.085  0.4844E-02  0.3444E-02  0.1725E+00  0.1716E+00
     35.294  0.3302E-02  0.3598E-02  0.1731E+00  0.1723E+00
     35.502  0.4196E-02  0.5279E-02  0.1740E+00  0.1734E+00
     35.710  0.5096E-02  0.3769E-02  0.1751E+00  0.1742E+00
     35.919  0.4033E-02  0.4412E-02  0.1759E+00  0.1751E+00
     36.127  0.2447E-02  0.4393E-02  0.1764E+00  0.1760E+00
     36.336  0.5356E-02  0.3140E-02  0.1775E+00  0.1767E+00
     36.544  0.3705E-02  0.4384E-02  0.1783E+00  0.1776E+00
     36.752  0.2706E-02  0.4167E-02  0.1789E+00  0.1785E+00
     36.961  0.4826E-02  0.2552E-02  0.1799E+00  0.1790E+00
     37.169  0.3188E-02  0.2052E-02  0.1806E+00  0.1794E+00
     37.378  0.1893E-02  0.5689E-02  0.1809E+00  0.1806E+00
     37.586  0.3346E-02  0.1377E-02  0.1816E+00  0.1809E+00
     37.794  0.4902E-02  0.4091E-02  0.1827E+00  0.1818E+00
     38.003  0.3383E-02  0.4370E-02  0.1834E+00  0.1827E+00
     38.211  0.4076E-02  0.4107E-02  0.1842E+00  0.1835E+00
     38.420  0.6613E-02  0.4549E-02  0.1856E+00  0.1845E+00
     38.628  0.6153E-02  0.4702E-02  0.1869E+00  0.1854E+00
     38.836  0.6263E-02  0.6714E-02  0.1882E+00  0.1868E+00
     39.045  0.3226E-02  0.4837E-02  0.1889E+00  0.1879E+00
     39.253  0.5549E-02  0.5991E-02  0.1900E+00  0.1891E+00
     39.462  0.3054E-02  0.3847E-02  0.1907E+00  0.1899E+00
     39.670  0.4186E-02  0.3619E-02  0.1915E+00  0.1907E+00
     39.879  0.1959E-02  0.4007E-02  0.1919E+00  0.1915E+00
     40.087  0.3724E-02  0.2082E-02  0.1927E+00  0.1919E+00
     40.295  0.1491E-02  0.4301E-02  0.1930E+00  0.1928E+00
     40.504  0.3543E-02  0.9680E-03  0.1938E+00  0.1930E+00
     40.712  0.4427E-02  0.4203E-02  0.1947E+00  0.1939E+00
     40.921  0.4041E-02  0.5041E-02  0.1955E+00  0.1950E+00
     41.129  0.2647E-02  0.3318E-02  0.1961E+00  0.1956E+00
     41.337  0.3674E-02  0.2771E-02  0.1968E+00  0.1962E+00
     41.546  0.5138E-02  0.2916E-02  0.1979E+00  0.1968E+00
     41.754  0.4198E-02  0.5186E-02  0.1988E+00  0.1979E+00
     41.963  0.4231E-02  0.3790E-02  0.1997E+00  0.1987E+00
     42.171  0.2653E-02  0.3244E-02  0.2002E+00  0.1994E+00
     42.379  0.6345E-02  0.2960E-02  0.2015E+00  0.2000E+00
     42.588  0.2483E-02  0.5208E-02  0.2021E+00  0.2011E+00
     42.796  0.5540E-02  0.5295E-02  0.2032E+00  0.2022E+00
     43.005  0.3315E-02  0.5397E-02  0.2039E+00  0.2033E+00
     43.213  0.4730E-02  0.2336E-02  0.2049E+00  0.2038E+00
     43.421  0.4666E-02  0.5755E-02  0.2059E+00  0.2050E+00
     43.630  0.6546E-02  0.5194E-02  0.2072E+00  0.2061E+00
     43.838  0.2264E-02  0.4377E-02  0.2077E+00  0.2070E+00
     44.047  0.1362E-02  0.3413E-02  0.2080E+00  0.2077E+00
     44.255  0.4419E-02  0.3759E-02  0.2089E+00  0.2085E+00
     44.463  0.3904E-02  0.2009E-02  0.2097E+00  0.2089E+00
     44.672  0.8168E-02  0.3393E-02  0.2114E+00  0.2096E+00
     44.880  0.4705E-02  0.7828E-02  0.2124E+00  0.2112E+00
     45.089  0.4833E-02  0.4498E-02  0.2134E+00  0.2122E+00
     45.297  0.5541E-02  0.6370E-02  0.2146E+00  0.2135E+00
     45.505  0.3418E-02  0.5016E-02  0.2153E+00  0.2145E+00
     45.714  0.3418E-02  0.3428E-02  0.2160E+00  0.2153E+00
     45.922  0.5181E-02  0.2842E-02  0.2171E+00  0.2159E+00
     46.131  0.4411E-02  0.5784E-02  0.2180E+00  0.2171E+00
     46.339  0.1174E-02  0.4642E-02  0.2182E+00  0.2180E+00
     46.548  0.1582E-02  0.1285E-02  0.2186E+00  0.2183E+00
     46.756  0.6343E-02  0.1508E-02  0.2199E+00  0.2186E+00
     46.964  0.4773E-02  0.4574E-02  0.2209E+00  0.2196E+00
     47.173  0.8619E-02  0.4204E-02  0.2227E+00  0.2204E+00
     47.381  0.7058E-02  0.5540E-02  0.2241E+00  0.2216E+00
     47.590  0.4935E-02  0.6095E-02  0.2252E+00  0.2229E+00
     47.798  0.7066E-02  0.5926E-02  0.2266E+00  0.2241E+00
     48.006  0.5762E-02  0.4874E-02  0.2278E+00  0.2251E+00
     48.215  0.1180E-01  0.5959E-02  0.2303E+00  0.2264E+00
     48.423  0.1154E-01  0.5194E-02  0.2327E+00  0.2274E+00
     48.632  0.2106E-01  0.7017E-02  0.2371E+00  0.2289E+00
     48.840  0.1621E-01  0.5492E-02  0.2405E+00  0.2300E+00
     49.048  0.1821E-01  0.6245E-02  0.2443E+00  0.2313E+00
     49.257  0.1324E-01  0.1894E-02  0.2470E+00  0.2317E+00
     49.465  0.1353E-01  0.3505E-02  0.2499E+00  0.2325E+00
     49.674  0.1035E-01  0.4477E-02  0.2520E+00  0.2334E+00
     49.882  0.7678E-02  0.5437E-02  0.2536E+00  0.2345E+00
     50.090  0.3470E-02  0.5693E-02  0.2543E+00  0.2357E+00
     50.299  0.4499E-02  0.5680E-02  0.2553E+00  0.2369E+00
     50.507  0.5225E-02  0.4602E-02  0.2564E+00  0.2379E+00
     50.716  0.3824E-02  0.2679E-02  0.2572E+00  0.2384E+00
     50.924  0.8568E-02  0.6073E-02  0.2589E+00  0.2397E+00
     51.132  0.4708E-02  0.6872E-02  0.2599E+00  0.2411E+00
     51.341  0.2910E-02  0.7777E-02  0.2605E+00  0.2427E+00
     51.549  0.6533E-02  0.9138E-02  0.2619E+00  0.2446E+00
     51.758  0.2311E-02  0.7008E-02  0.2624E+00  0.2461E+00
     51.966  0.3009E-02  0.1577E-01  0.2630E+00  0.2494E+00
     52.174  0.2759E-02  0.1731E-01  0.2636E+00  0.2530E+00
     52.383  0.3533E-02  0.2362E-01  0.2643E+00  0.2579E+00
     52.591  0.4483E-02  0.2004E-01  0.2652E+00  0.2621E+00
     52.800  0.6152E-02  0.7078E-02  0.2665E+00  0.2636E+00
     53.008  0.1730E-02  0.6799E-02  0.2669E+00  0.2650E+00
     53.217  0.3233E-02  0.3847E-02  0.2676E+00  0.2658E+00
     53.425  0.4810E-02  0.7508E-02  0.2686E+00  0.2674E+00
     53.633  0.3154E-02  0.6122E-02  0.2692E+00  0.2686E+00
     53.842  0.3874E-02  0.6318E-03  0.2700E+00  0.2688E+00
     54.050  0.4950E-02  0.3094E-02  0.2711E+00  0.2694E+00
     54.259  0.3984E-02  0.4727E-02  0.2719E+00  0.2704E+00
     54.467  0.2592E-02  0.3994E-02  0.2724E+00  0.2712E+00
     54.675  0.2591E-02  0.2869E-02  0.2730E+00  0.2718E+00
     54.884  0.1984E-02  0.1359E-02  0.2734E+00  0.2721E+00
     55.092  0.2321E-02  0.4291E-02  0.2739E+00  0.2730E+00
     55.301  0.4345E-02  0.3626E-02  0.2748E+00  0.2738E+00
     55.509  0.2806E-02  0.1736E-02  0.2754E+00  0.2741E+00
     55.717  0.3503E-02  0.4543E-02  0.2761E+00  0.2751E+00
     55.926  0.1491E-02  0.2524E-02  0.2764E+00  0.2756E+00
     56.134  0.3957E-02  0.3522E-02  0.2772E+00  0.2763E+00
     56.343  0.1124E-02  0.2647E-02  0.2775E+00  0.2769E+00
     56.551  0.2377E-02  0.2736E-02  0.2780E+00  0.2775E+00
     56.759  0.1143E-02  0.2558E-02  0.2782E+00  0.2780E+00
     56.968  0.2016E-02  0.6843E-03  0.2786E+00  0.2781E+00
     57.176  0.7830E-03  0.2212E-02  0.2788E+00  0.2786E+00
     57.385  0.4489E-03  0.8419E-03  0.2789E+00  0.2788E+00
     57.593  0.1298E-02  0.3850E-03  0.2791E+00  0.2788E+00
     57.801  0.5162E-03  0.1909E-02  0.2792E+00  0.2792E+00
     58.010  0.5188E-03  0.5314E-05  0.2794E+00  0.2792E+00
     58.218  0.2211E-03  0.6389E-03  0.2794E+00  0.2794E+00
     58.427  0.9548E-03  0.1108E-03  0.2796E+00  0.2794E+00
     58.635  0.5233E-03  0.2016E-03  0.2797E+00  0.2794E+00
     58.844  0.2151E-04  0.1076E-02  0.2797E+00  0.2797E+00
     59.052  0.4438E-03  0.2224E-03  0.2798E+00  0.2797E+00
     59.260  0.8561E-03  0.1087E-02  0.2800E+00  0.2799E+00
     59.469  0.7448E-04  0.2875E-03  0.2800E+00  0.2800E+00
     59.677  0.0000E+00  0.2200E-07  0.2800E+00  0.2800E+00
     59.886  0.0000E+00  0.0000E+00  0.2800E+00  0.2800E+00
     60.094  0.0000E+00  0.0000E+00  0.2800E+00  0.2800E+00
     60.302  0.0000E+00  0.0000E+00  0.2800E+00  0.2800E+00
     60.511  0.0000E+00  0.0000E+00  0.2800E+00  0.2800E+00
     60.719  0.0000E+00  0.0000E+00  0.2800E+00  0.2800E+00
     60.928  0.0000E+00  0.0000E+00  0.2800E+00  0.2800E+00
     61.136  0.0000E+00  0.0000E+00  0.2800E+00  0.2800E+00
     61.344  0.0000E+00  0.0000E+00  0.2800E+00  0.2800E+00
     61.553  0.0000E+00  0.0000E+00  0.2800E+00  0.2800E+00
     61.761  0.0000E+00  0.0000E+00  0.2800E+00  0.2800E+00
     61.970  0.0000E+00  0.0000E+00  0.2800E+00  0.2800E+00
     62.178  0.0000E+00  0.0000E+00  0.2800E+00  0.2800E+00
     62.17800598     -0.34390853  301     12.17307694      1.00000000
     -0.344  0.0000E+00  0.0000E+00  0.0000E+00  0.0000E+00  0.0000E+00  0.0000E+00  0.0000E+00  0.0000E+00  0.0000E+00  0.0000E+00  0.0000E+00  0.0000E+00  0.0000E+00  0.0000E+00  0.0000E+00  0.0000E+00  0.0000E+00  0.0000E+00
     -0.136  0.0000E+00  0.0000E+00  0.0000E+00  0.0000E+00  0.0000E+00  0.0000E+00  0.0000E+00  0.0000E+00  0.0000E+00  0.0000E+00  0.0000E+00  0.0000E+00  0.0000E+00  0.0000E+00  0.0000E+00  0.0000E+00  0.0000E+00  0.0000E+00
      0.073  0.0000E+00  0.0000E+00  0.0000E+00  0.0000E+00  0.0000E+00  0.0000E+00  0.0000E+00  0.0000E+00  0.0000E+00  0.0000E+00  0.0000E+00  0.0000E+00  0.0000E+00  0.0000E+00  0.0000E+00  0.0000E+00  0.0000E+00  0.0000E+00
      0.281  0.0000E+00  0.0000E+00  0.0000E+00  0.0000E+00  0.0000E+00  0.0000E+00  0.0000E+00  0.0000E+00  0.0000E+00  0.0000E+00  0.0000E+00  0.0000E+00  0.0000E+00  0.0000E+00  0.0000E+00  0.0000E+00  0.0000E+00  0.0000E+00
      0.490  0.0000E+00  0.0000E+00  0.0000E+00  0.0000E+00  0.0000E+00  0.0000E+00  0.0000E+00  0.0000E+00  0.0000E+00  0.0000E+00  0.0000E+00  0.0000E+00  0.0000E+00  0.0000E+00  0.0000E+00  0.0000E+00  0.0000E+00  0.0000E+00
      0.698  0.0000E+00  0.0000E+00  0.0000E+00  0.0000E+00  0.0000E+00  0.0000E+00  0.0000E+00  0.0000E+00  0.0000E+00  0.0000E+00  0.0000E+00  0.0000E+00  0.0000E+00  0.0000E+00  0.0000E+00  0.0000E+00  0.0000E+00  0.0000E+00
      0.907  0.0000E+00  0.0000E+00  0.0000E+00  0.0000E+00  0.0000E+00  0.0000E+00  0.0000E+00  0.0000E+00  0.0000E+00  0.0000E+00  0.0000E+00  0.0000E+00  0.0000E+00  0.0000E+00  0.0000E+00  0.0000E+00  0.0000E+00  0.0000E+00
      1.115  0.0000E+00  0.0000E+00  0.0000E+00  0.0000E+00  0.0000E+00  0.0000E+00  0.0000E+00  0.0000E+00  0.0000E+00  0.0000E+00  0.0000E+00  0.0000E+00  0.0000E+00  0.0000E+00  0.0000E+00  0.0000E+00  0.0000E+00  0.0000E+00
      1.323  0.0000E+00  0.0000E+00  0.0000E+00  0.0000E+00  0.0000E+00  0.0000E+00  0.0000E+00  0.0000E+00  0.0000E+00  0.0000E+00  0.0000E+00  0.0000E+00  0.0000E+00  0.0000E+00  0.0000E+00  0.0000E+00  0.0000E+00  0.0000E+00
      1.532  0.0000E+00  0.0000E+00  0.0000E+00  0.0000E+00  0.0000E+00  0.0000E+00  0.0000E+00  0.0000E+00  0.0000E+00  0.0000E+00  0.0000E+00  0.0000E+00  0.0000E+00  0.0000E+00  0.0000E+00  0.0000E+00  0.0000E+00  0.0000E+00
      1.740  0.0000E+00  0.0000E+00  0.0000E+00  0.0000E+00  0.0000E+00  0.0000E+00  0.0000E+00  0.0000E+00  0.0000E+00  0.0000E+00  0.0000E+00  0.0000E+00  0.0000E+00  0.0000E+00  0.0000E+00  0.0000E+00  0.0000E+00  0.0000E+00
      1.949  0.0000E+00  0.0000E+00  0.0000E+00  0.0000E+00  0.0000E+00  0.0000E+00  0.0000E+00  0.0000E+00  0.0000E+00  0.0000E+00  0.0000E+00  0.0000E+00  0.0000E+00  0.0000E+00  0.0000E+00  0.0000E+00  0.0000E+00  0.0000E+00
      2.157  0.0000E+00  0.0000E+00  0.0000E+00  0.0000E+00  0.0000E+00  0.0000E+00  0.0000E+00  0.0000E+00  0.0000E+00  0.0000E+00  0.0000E+00  0.0000E+00  0.0000E+00  0.0000E+00  0.0000E+00  0.0000E+00  0.0000E+00  0.0000E+00
      2.365  0.1540E-06  0.6222E-07  0.5563E-22  0.2354E-22  0.7095E-25  0.5811E-28  0.5563E-22  0.2354E-22  0.2824E-20  0.2810E-20  0.2133E-29  0.2190E-31  0.7241E-12  0.2332E-12  0.2133E-29  0.2190E-31  0.2824E-20  0.2810E-20
      2.574  0.1730E-02  0.1712E-02  0.3700E-11  0.8555E-12  0.1474E-06  0.6826E-07  0.3700E-11  0.8555E-12  0.6374E-13  0.1158E-13  0.2886E-21  0.5595E-21  0.9794E-08  0.7011E-08  0.2886E-21  0.5595E-21  0.6374E-13  0.1158E-13
      2.782  0.1042E-01  0.9491E-02  0.8771E-04  0.7577E-04  0.5617E-04  0.5651E-04  0.8771E-04  0.7577E-04  0.1510E-05  0.1018E-05  0.6169E-10  0.1266E-10  0.2115E-05  0.1483E-05  0.6169E-10  0.1266E-10  0.1510E-05  0.1018E-05
      2.991  0.2211E-01  0.2228E-01  0.2800E-03  0.2830E-03  0.3116E-03  0.2986E-03  0.2800E-03  0.2830E-03  0.4968E-05  0.3888E-05  0.9792E-05  0.7393E-05  0.7207E-06  0.7217E-06  0.9792E-05  0.7393E-05  0.4968E-05  0.3888E-05
      3.199  0.3623E-02  0.4052E-02  0.1930E-04  0.2914E-04  0.1688E-03  0.1562E-03  0.1930E-04  0.2914E-04  0.4356E-06  0.4256E-06  0.6823E-06  0.9126E-06  0.1013E-04  0.6081E-05  0.6823E-06  0.9126E-06  0.4356E-06  0.4256E-06
      3.407  0.1668E-01  0.1414E-01  0.5030E-03  0.4372E-03  0.3569E-03  0.2443E-03  0.5030E-03  0.4372E-03  0.2483E-04  0.1700E-04  0.1255E-04  0.4762E-05  0.3290E-04  0.2184E-04  0.1255E-04  0.4762E-05  0.2483E-04  0.1700E-04
      3.616  0.4180E-01  0.4467E-01  0.1335E-02  0.1401E-02  0.1308E-02  0.1464E-02  0.1335E-02  0.1401E-02  0.8093E-04  0.6248E-04  0.6632E-04  0.5595E-04  0.8343E-04  0.6637E-04  0.6632E-04  0.5595E-04  0.8093E-04  0.6248E-04
      3.824  0.1846E-01  0.1896E-01  0.9422E-03  0.9774E-03  0.3121E-03  0.3166E-03  0.9422E-03  0.9774E-03  0.8481E-04  0.6426E-04  0.5114E-04  0.3854E-04  0.3058E-04  0.2311E-04  0.5114E-04  0.3854E-04  0.8481E-04  0.6426E-04
      4.033  0.2081E-01  0.2033E-01  0.7034E-03  0.7087E-03  0.1637E-02  0.1581E-02  0.7034E-03  0.7087E-03  0.4462E-04  0.3309E-04  0.1457E-03  0.1090E-03  0.9915E-04  0.6016E-04  0.1457E-03  0.1090E-03  0.4462E-04  0.3309E-04
      4.241  0.3643E-01  0.2564E-01  0.1609E-02  0.1099E-02  0.3153E-02  0.2292E-02  0.1609E-02  0.1099E-02  0.1857E-03  0.8303E-04  0.2801E-03  0.1740E-03  0.4119E-03  0.1563E-03  0.2801E-03  0.1740E-03  0.1857E-03  0.8303E-04
      4.449  0.4718E-01  0.4903E-01  0.3936E-02  0.3633E-02  0.1191E-02  0.2062E-02  0.3936E-02  0.3633E-02  0.6253E-03  0.4003E-03  0.2309E-03  0.1537E-03  0.4782E-03  0.4311E-03  0.2309E-03  0.1537E-03  0.6253E-03  0.4003E-03
      4.658  0.1006E-01  0.1380E-01  0.6849E-03  0.1241E-02  0.8878E-03  0.3289E-03  0.6849E-03  0.1241E-02  0.1255E-03  0.1441E-03  0.1292E-03  0.6986E-04  0.1463E-03  0.8113E-04  0.1292E-03  0.6986E-04  0.1255E-03  0.1441E-03
      4.866  0.6602E-01  0.4197E-01  0.5718E-02  0.3403E-02  0.4762E-02  0.3472E-02  0.5718E-02  0.3403E-02  0.1357E-02  0.5200E-03  0.1384E-02  0.5227E-03  0.6582E-03  0.3674E-03  0.1384E-02  0.5227E-03  0.1357E-02  0.5200E-03
      5.075  0.1649E-01  0.4845E-01  0.8921E-03  0.3918E-02  0.2454E-02  0.4703E-02  0.8921E-03  0.3918E-02  0.1675E-03  0.5882E-03  0.4078E-03  0.8165E-03  0.5533E-03  0.5145E-03  0.4078E-03  0.8165E-03  0.1675E-03  0.5882E-03
      5.283  0.2945E-01  0.1971E-01  0.1882E-02  0.1040E-02  0.4613E-02  0.3756E-02  0.1882E-02  0.1040E-02  0.7029E-03  0.2239E-03  0.8460E-03  0.3283E-03  0.2270E-02  0.1174E-02  0.8460E-03  0.3283E-03  0.7029E-03  0.2239E-03
      5.491  0.5187E-01  0.1966E-01  0.6807E-02  0.2388E-02  0.3954E-02  0.1439E-02  0.6807E-02  0.2388E-02  0.2327E-02  0.5237E-03  0.2011E-02  0.2994E-03  0.1220E-02  0.5450E-03  0.2011E-02  0.2994E-03  0.2327E-02  0.5237E-03
      5.700  0.5429E-01  0.7601E-01  0.6731E-02  0.9705E-02  0.5355E-02  0.7571E-02  0.6731E-02  0.9705E-02  0.3300E-02  0.2408E-02  0.1979E-02  0.2012E-02  0.3151E-02  0.1809E-02  0.1979E-02  0.2012E-02  0.3300E-02  0.2408E-02
      5.908  0.6589E-01  0.4551E-01  0.8390E-02  0.5646E-02  0.7778E-02  0.6100E-02  0.8390E-02  0.5646E-02  0.5676E-02  0.1627E-02  0.5829E-02  0.1720E-02  0.4180E-02  0.1624E-02  0.5829E-02  0.1720E-02  0.5676E-02  0.1627E-02
      6.117  0.2952E-01  0.4713E-01  0.3218E-02  0.6931E-02  0.3803E-02  0.4908E-02  0.3218E-02  0.6931E-02  0.4710E-02  0.2771E-02  0.2544E-02  0.2663E-02  0.8556E-02  0.1774E-02  0.2544E-02  0.2663E-02  0.4710E-02  0.2771E-02
      6.325  0.5870E-01  0.2578E-01  0.7040E-02  0.3115E-02  0.1206E-01  0.4024E-02  0.7040E-02  0.3115E-02  0.7229E-02  0.2009E-02  0.1446E-01  0.4913E-03  0.4580E-02  0.4832E-02  0.1446E-01  0.4913E-03  0.7229E-02  0.2009E-02
      6.534  0.1162E+00  0.5511E-01  0.1617E-01  0.7437E-02  0.1032E-01  0.1162E-01  0.1617E-01  0.7437E-02  0.5198E-01  0.3649E-02  0.5124E-01  0.6676E-02  0.5011E-01  0.1941E-02  0.5124E-01  0.6676E-02  0.5198E-01  0.3649E-02
      6.742  0.9501E-01  0.4315E-01  0.1315E-01  0.6441E-02  0.1222E-01  0.9446E-02  0.1315E-01  0.6441E-02  0.5435E-01  0.3267E-02  0.6906E-01  0.4589E-02  0.4229E-01  0.4779E-02  0.6906E-01  0.4589E-02  0.5435E-01  0.3267E-02
      6.950  0.7091E-01  0.7144E-01  0.1067E-01  0.1512E-01  0.1139E-01  0.7048E-02  0.1067E-01  0.1512E-01  0.7766E-01  0.1264E-01  0.7382E-01  0.5372E-02  0.8217E-01  0.1086E-01  0.7382E-01  0.5372E-02  0.7766E-01  0.1264E-01
      7.159  0.7149E-01  0.6646E-01  0.1238E-01  0.1238E-01  0.2027E-01  0.9152E-02  0.1238E-01  0.1238E-01  0.1023E+00  0.1413E-01  0.8093E-01  0.1464E-01  0.7105E-01  0.1597E-01  0.8093E-01  0.1464E-01  0.1023E+00  0.1413E-01
      7.367  0.7085E-01  0.8301E-01  0.2271E-01  0.1260E-01  0.2089E-01  0.1680E-01  0.2271E-01  0.1260E-01  0.1330E+00  0.2714E-01  0.1852E+00  0.3540E-01  0.1675E+00  0.1844E-01  0.1852E+00  0.3540E-01  0.1330E+00  0.2714E-01
      7.576  0.3009E-01  0.6893E-01  0.1323E-01  0.7079E-02  0.1956E-01  0.1253E-01  0.1323E-01  0.7079E-02  0.8489E-01  0.3776E-01  0.1129E+00  0.4734E-01  0.8471E-01  0.4498E-01  0.1129E+00  0.4734E-01  0.8489E-01  0.3776E-01
      7.784  0.2733E-01  0.8072E-01  0.2077E-01  0.1716E-01  0.1735E-01  0.1293E-01  0.2077E-01  0.1716E-01  0.8957E-01  0.5169E-01  0.1077E+00  0.5419E-01  0.1208E+00  0.4210E-01  0.1077E+00  0.5419E-01  0.8957E-01  0.5169E-01
      7.992  0.2075E-01  0.7449E-01  0.2401E-01  0.1867E-01  0.1815E-01  0.1525E-01  0.2401E-01  0.1867E-01  0.1288E+00  0.6454E-01  0.1166E+00  0.6535E-01  0.1901E+00  0.5412E-01  0.1166E+00  0.6535E-01  0.1288E+00  0.6454E-01
      8.201  0.1132E-01  0.4941E-01  0.2309E-01  0.1291E-01  0.1653E-01  0.2105E-01  0.2309E-01  0.1291E-01  0.1601E+00  0.8029E-01  0.9519E-01  0.5825E-01  0.1838E+00  0.4776E-01  0.9519E-01  0.5825E-01  0.1601E+00  0.8029E-01
      8.409  0.1002E-01  0.4596E-01  0.2395E-01  0.1811E-01  0.1450E-01  0.2143E-01  0.2395E-01  0.1811E-01  0.1710E+00  0.9328E-01  0.9566E-01  0.1261E+00  0.1619E+00  0.1176E+00  0.9566E-01  0.1261E+00  0.1710E+00  0.9328E-01
      8.618  0.1485E-01  0.2542E-01  0.3032E-01  0.1563E-01  0.2621E-01  0.2433E-01  0.3032E-01  0.1563E-01  0.2095E+00  0.6465E-01  0.1146E+00  0.1410E+00  0.1780E+00  0.6442E-01  0.1146E+00  0.1410E+00  0.2095E+00  0.6465E-01
      8.826  0.6082E-02  0.1741E-01  0.1273E-01  0.2356E-01  0.9066E-02  0.1421E-01  0.1273E-01  0.2356E-01  0.9530E-01  0.8093E-01  0.3523E-01  0.8226E-01  0.7828E-01  0.9094E-01  0.3523E-01  0.8226E-01  0.9530E-01  0.8093E-01
      9.034  0.4550E-02  0.1008E-01  0.1223E-01  0.2026E-01  0.1880E-01  0.1820E-01  0.1223E-01  0.2026E-01  0.1111E+00  0.9265E-01  0.1255E+00  0.6920E-01  0.1653E+00  0.1137E+00  0.1255E+00  0.6920E-01  0.1111E+00  0.9265E-01
      9.243  0.1233E-01  0.1045E-01  0.2263E-01  0.2656E-01  0.2232E-01  0.1453E-01  0.2263E-01  0.2656E-01  0.1436E+00  0.1100E+00  0.2407E+00  0.7085E-01  0.3097E+00  0.1634E+00  0.2407E+00  0.7085E-01  0.1436E+00  0.1100E+00
      9.451  0.1168E-01  0.9702E-02  0.1799E-01  0.3322E-01  0.2527E-01  0.2120E-01  0.1799E-01  0.3322E-01  0.1884E+00  0.1481E+00  0.2232E+00  0.8225E-01  0.1812E+00  0.1787E+00  0.2232E+00  0.8225E-01  0.1884E+00  0.1481E+00
      9.660  0.1300E-01  0.1306E-01  0.1597E-01  0.4437E-01  0.2822E-01  0.2818E-01  0.1597E-01  0.4437E-01  0.2416E+00  0.1887E+00  0.2469E+00  0.1046E+00  0.1739E+00  0.1849E+00  0.2469E+00  0.1046E+00  0.2416E+00  0.1887E+00
      9.868  0.1161E-01  0.7065E-02  0.1743E-01  0.2661E-01  0.2625E-01  0.1794E-01  0.1743E-01  0.2661E-01  0.2289E+00  0.1507E+00  0.2344E+00  0.4833E-01  0.1659E+00  0.1165E+00  0.2344E+00  0.4833E-01  0.2289E+00  0.1507E+00
     10.076  0.1167E-01  0.2970E-02  0.2305E-01  0.9756E-02  0.2710E-01  0.1416E-01  0.2305E-01  0.9756E-02  0.2098E+00  0.8495E-01  0.2423E+00  0.2830E-01  0.2049E+00  0.6094E-01  0.2423E+00  0.2830E-01  0.2098E+00  0.8495E-01