   2   2   1   0
  0.1048654E+02  0.2464457E-09  0.2464457E-09  0.3987391E-09  0.5000000E-15
  1.000000000000000E-004
  CAR 
 Co-hcc                                  
     38.05856805     -0.10833244  301     10.68174801      1.00000000
     -0.108  0.0000E+00  0.0000E+00  0.0000E+00  0.0000E+00
      0.019  0.0000E+00  0.0000E+00  0.0000E+00  0.0000E+00
      0.146  0.0000E+00  0.0000E+00  0.0000E+00  0.0000E+00
      0.273  0.0000E+00  0.0000E+00  0.0000E+00  0.0000E+00
      0.401  0.0000E+00  0.0000E+00  0.0000E+00  0.0000E+00
      0.528  0.0000E+00  0.0000E+00  0.0000E+00  0.0000E+00
      0.655  0.0000E+00  0.0000E+00  0.0000E+00  0.0000E+00
      0.782  0.0000E+00  0.0000E+00  0.0000E+00  0.0000E+00
      0.909  0.0000E+00  0.0000E+00  0.0000E+00  0.0000E+00
      1.037  0.0000E+00  0.0000E+00  0.0000E+00  0.0000E+00
      1.164  0.0000E+00  0.0000E+00  0.0000E+00  0.0000E+00
      1.291  0.0000E+00  0.0000E+00  0.0000E+00  0.0000E+00
      1.418  0.1917E-12  0.5099E-14  0.2439E-13  0.6488E-15
      1.546  0.1082E-05  0.2062E-06  0.1377E-06  0.2624E-07
      1.673  0.8791E-04  0.7536E-04  0.1132E-04  0.9614E-05
      1.800  0.1331E-03  0.1009E-03  0.2826E-04  0.2245E-04
      1.927  0.1034E-03  0.1255E-03  0.4141E-04  0.3842E-04
      2.054  0.5520E-03  0.5315E-03  0.1116E-03  0.1060E-03
      2.182  0.1030E-02  0.8471E-03  0.2426E-03  0.2138E-03
      2.309  0.3348E-03  0.5276E-03  0.2852E-03  0.2809E-03
      2.436  0.1786E-04  0.5156E-04  0.2875E-03  0.2875E-03
      2.563  0.1435E-03  0.2870E-04  0.3058E-03  0.2912E-03
      2.691  0.1432E-02  0.1305E-02  0.4879E-03  0.4571E-03
      2.818  0.7312E-03  0.6151E-03  0.5809E-03  0.5354E-03
      2.945  0.6898E-03  0.9967E-03  0.6687E-03  0.6622E-03
      3.072  0.7549E-03  0.6576E-03  0.7648E-03  0.7459E-03
      3.199  0.1178E-02  0.9466E-03  0.9146E-03  0.8663E-03
      3.327  0.1693E-02  0.1391E-02  0.1130E-02  0.1043E-02
      3.454  0.6517E-03  0.1314E-02  0.1213E-02  0.1210E-02
      3.581  0.9332E-03  0.2482E-03  0.1332E-02  0.1242E-02
      3.708  0.2428E-03  0.9436E-03  0.1362E-02  0.1362E-02
      3.836  0.2109E-04  0.3581E-05  0.1365E-02  0.1363E-02
      3.963  0.2253E-02  0.4432E-03  0.1652E-02  0.1419E-02
      4.090  0.2512E-02  0.2593E-02  0.1971E-02  0.1749E-02
      4.217  0.1622E-02  0.1894E-02  0.2178E-02  0.1990E-02
      4.344  0.1395E-02  0.1923E-02  0.2355E-02  0.2234E-02
      4.472  0.2721E-02  0.9841E-03  0.2701E-02  0.2360E-02
      4.599  0.8717E-03  0.2402E-02  0.2812E-02  0.2665E-02
      4.726  0.6431E-03  0.1129E-02  0.2894E-02  0.2809E-02
      4.853  0.2353E-02  0.1369E-03  0.3194E-02  0.2826E-02
      4.981  0.2723E-02  0.1658E-02  0.3540E-02  0.3037E-02
      5.108  0.2026E-02  0.2558E-02  0.3798E-02  0.3363E-02
      5.235  0.2103E-02  0.1758E-02  0.4065E-02  0.3586E-02
      5.362  0.5549E-02  0.1066E-02  0.4771E-02  0.3722E-02
      5.489  0.9147E-02  0.2182E-02  0.5935E-02  0.4000E-02
      5.617  0.1180E-01  0.2765E-02  0.7436E-02  0.4351E-02
      5.744  0.8950E-02  0.2192E-02  0.8575E-02  0.4630E-02
      5.871  0.7187E-02  0.5386E-02  0.9489E-02  0.5315E-02
      5.998  0.1287E-01  0.1484E-02  0.1113E-01  0.5504E-02
      6.126  0.2394E-01  0.4999E-02  0.1417E-01  0.6140E-02
      6.253  0.1115E-01  0.5027E-02  0.1559E-01  0.6780E-02
      6.380  0.1531E-01  0.1258E-02  0.1754E-01  0.6940E-02
      6.507  0.2170E-01  0.1562E-02  0.2030E-01  0.7138E-02
      6.634  0.1419E-01  0.1272E-01  0.2210E-01  0.8756E-02
      6.762  0.1257E-01  0.9526E-02  0.2370E-01  0.9968E-02
      6.889  0.1686E-01  0.9119E-02  0.2585E-01  0.1113E-01
      7.016  0.1962E-01  0.7228E-02  0.2835E-01  0.1205E-01
      7.143  0.2097E-01  0.9155E-02  0.3101E-01  0.1321E-01
      7.271  0.2056E-01  0.1337E-01  0.3363E-01  0.1491E-01
      7.398  0.1883E-01  0.9096E-02  0.3603E-01  0.1607E-01
      7.525  0.1389E-01  0.1003E-01  0.3779E-01  0.1735E-01
      7.652  0.1067E-01  0.1912E-01  0.3915E-01  0.1978E-01
      7.779  0.1825E-01  0.1441E-01  0.4147E-01  0.2161E-01
      7.907  0.2938E-01  0.7544E-02  0.4521E-01  0.2257E-01
      8.034  0.2602E-01  0.1245E-01  0.4852E-01  0.2416E-01
      8.161  0.2728E-01  0.1387E-01  0.5199E-01  0.2592E-01
      8.288  0.2824E-01  0.1871E-01  0.5558E-01  0.2830E-01
      8.416  0.2965E-01  0.1386E-01  0.5936E-01  0.3007E-01
      8.543  0.3057E-01  0.2246E-01  0.6324E-01  0.3292E-01
      8.670  0.2616E-01  0.1822E-01  0.6657E-01  0.3524E-01
      8.797  0.2398E-01  0.1417E-01  0.6962E-01  0.3704E-01
      8.925  0.1788E-01  0.6707E-02  0.7190E-01  0.3790E-01
      9.052  0.1629E-01  0.8822E-02  0.7397E-01  0.3902E-01
      9.179  0.1914E-01  0.1093E-01  0.7641E-01  0.4041E-01
      9.306  0.1058E-01  0.1639E-01  0.7775E-01  0.4249E-01
      9.433  0.2153E-01  0.2206E-01  0.8049E-01  0.4530E-01
      9.561  0.2365E-01  0.2701E-01  0.8350E-01  0.4874E-01
      9.688  0.1583E-01  0.2460E-01  0.8551E-01  0.5187E-01
      9.815  0.2202E-01  0.1925E-01  0.8832E-01  0.5432E-01
      9.942  0.3464E-01  0.2869E-01  0.9272E-01  0.5797E-01
     10.070  0.4587E-01  0.2398E-01  0.9856E-01  0.6102E-01
     10.197  0.3464E-01  0.2957E-01  0.1030E+00  0.6478E-01
     10.324  0.8559E-02  0.2025E-01  0.1041E+00  0.6736E-01
     10.451  0.4701E-02  0.1843E-01  0.1047E+00  0.6970E-01
     10.578  0.7939E-02  0.1426E-01  0.1057E+00  0.7151E-01
     10.706  0.7290E-02  0.1874E-01  0.1066E+00  0.7390E-01
     10.833  0.1784E-02  0.8628E-02  0.1068E+00  0.7500E-01
     10.960  0.1051E-02  0.1658E-01  0.1069E+00  0.7710E-01
     11.087  0.2253E-06  0.9701E-02  0.1069E+00  0.7834E-01
     11.215  0.1080E-07  0.1577E-01  0.1070E+00  0.8034E-01
     11.342  0.4899E-03  0.2237E-01  0.1070E+00  0.8319E-01
     11.469  0.5000E-02  0.1034E-01  0.1076E+00  0.8451E-01
     11.596  0.3763E-02  0.1713E-01  0.1081E+00  0.8669E-01
     11.723  0.1653E-02  0.2149E-01  0.1083E+00  0.8942E-01
     11.851  0.1871E-02  0.3308E-01  0.1086E+00  0.9363E-01
     11.978  0.9366E-02  0.4029E-01  0.1098E+00  0.9875E-01
     12.105  0.2123E-02  0.3435E-01  0.1100E+00  0.1031E+00
     12.232  0.4304E-02  0.1892E-01  0.1106E+00  0.1055E+00
     12.360  0.1344E-03  0.8584E-02  0.1106E+00  0.1066E+00
     12.487  0.8915E-03  0.2923E-02  0.1107E+00  0.1070E+00
     12.614  0.4375E-02  0.6262E-03  0.1113E+00  0.1071E+00
     12.741  0.1785E-02  0.4499E-02  0.1115E+00  0.1076E+00
     12.868  0.6245E-02  0.2212E-02  0.1123E+00  0.1079E+00
     12.996  0.1504E-03  0.2530E-02  0.1123E+00  0.1082E+00
     13.123  0.2901E-04  0.5001E-02  0.1123E+00  0.1089E+00
     13.250  0.4000E-02  0.5607E-02  0.1128E+00  0.1096E+00
     13.377  0.1277E-02  0.4490E-02  0.1130E+00  0.1102E+00
     13.505  0.3646E-04  0.2608E-02  0.1130E+00  0.1105E+00
     13.632  0.1291E-02  0.2368E-02  0.1132E+00  0.1108E+00
     13.759  0.3412E-02  0.7218E-02  0.1136E+00  0.1117E+00
     13.886  0.6638E-03  0.1865E-02  0.1137E+00  0.1120E+00
     14.013  0.1380E-02  0.2735E-02  0.1139E+00  0.1123E+00
     14.141  0.2677E-02  0.6407E-03  0.1142E+00  0.1124E+00
     14.268  0.4297E-02  0.2289E-02  0.1147E+00  0.1127E+00
     14.395  0.4980E-02  0.2540E-02  0.1154E+00  0.1130E+00
     14.522  0.2817E-02  0.2737E-02  0.1157E+00  0.1134E+00
     14.650  0.2691E-02  0.1040E-02  0.1161E+00  0.1135E+00
     14.777  0.8086E-03  0.1427E-02  0.1162E+00  0.1137E+00
     14.904  0.6102E-03  0.1091E-02  0.1163E+00  0.1138E+00
     15.031  0.4422E-02  0.1279E-02  0.1168E+00  0.1140E+00
     15.158  0.3333E-02  0.8072E-02  0.1172E+00  0.1150E+00
     15.286  0.9780E-03  0.2387E-02  0.1174E+00  0.1153E+00
     15.413  0.6795E-03  0.4902E-02  0.1174E+00  0.1159E+00
     15.540  0.2291E-04  0.1976E-02  0.1175E+00  0.1162E+00
     15.667  0.2547E-02  0.2227E-03  0.1178E+00  0.1162E+00
     15.795  0.3043E-02  0.1023E-02  0.1182E+00  0.1163E+00
     15.922  0.3650E-03  0.3247E-02  0.1182E+00  0.1167E+00
     16.049  0.3153E-02  0.4087E-02  0.1186E+00  0.1173E+00
     16.176  0.3022E-03  0.7770E-03  0.1187E+00  0.1174E+00
     16.303  0.2342E-03  0.7044E-03  0.1187E+00  0.1175E+00
     16.431  0.1151E-02  0.3834E-02  0.1188E+00  0.1179E+00
     16.558  0.9661E-03  0.2031E-02  0.1189E+00  0.1182E+00
     16.685  0.6554E-05  0.5022E-04  0.1190E+00  0.1182E+00
     16.812  0.6598E-04  0.3034E-02  0.1190E+00  0.1186E+00
     16.940  0.1131E-02  0.5141E-03  0.1191E+00  0.1187E+00
     17.067  0.3296E-02  0.1094E-02  0.1195E+00  0.1188E+00
     17.194  0.1846E-02  0.4704E-03  0.1198E+00  0.1189E+00
     17.321  0.7416E-03  0.7453E-03  0.1199E+00  0.1189E+00
     17.448  0.5286E-03  0.6789E-04  0.1199E+00  0.1190E+00
     17.576  0.1586E-02  0.1106E-02  0.1201E+00  0.1191E+00
     17.703  0.2326E-02  0.2373E-02  0.1204E+00  0.1194E+00
     17.830  0.3685E-03  0.2257E-02  0.1205E+00  0.1197E+00
     17.957  0.1670E-02  0.9475E-03  0.1207E+00  0.1198E+00
     18.085  0.2441E-02  0.3298E-03  0.1210E+00  0.1199E+00
     18.212  0.1969E-04  0.9534E-03  0.1210E+00  0.1200E+00
     18.339  0.1294E-02  0.4036E-03  0.1212E+00  0.1200E+00
     18.466  0.1860E-02  0.2042E-02  0.1214E+00  0.1203E+00
     18.593  0.4908E-02  0.1851E-02  0.1220E+00  0.1205E+00
     18.721  0.3873E-02  0.2321E-02  0.1225E+00  0.1208E+00
     18.848  0.2920E-02  0.1359E-02  0.1229E+00  0.1210E+00
     18.975  0.5327E-02  0.2202E-04  0.1236E+00  0.1210E+00
     19.102  0.9713E-03  0.1064E-02  0.1237E+00  0.1211E+00
     19.230  0.3686E-02  0.7712E-03  0.1241E+00  0.1212E+00
     19.357  0.3943E-02  0.1951E-02  0.1246E+00  0.1215E+00
     19.484  0.4378E-02  0.6489E-02  0.1252E+00  0.1223E+00
     19.611  0.4334E-02  0.3927E-02  0.1258E+00  0.1228E+00
     19.738  0.4515E-02  0.3731E-02  0.1263E+00  0.1233E+00
     19.866  0.2330E-02  0.4198E-02  0.1266E+00  0.1238E+00
     19.993  0.1139E-02  0.4170E-02  0.1268E+00  0.1243E+00
     20.120  0.2366E-02  0.4119E-02  0.1271E+00  0.1249E+00
     20.247  0.3928E-02  0.6345E-02  0.1276E+00  0.1257E+00
     20.375  0.3317E-02  0.2684E-02  0.1280E+00  0.1260E+00
     20.502  0.2747E-02  0.3302E-02  0.1283E+00  0.1264E+00
     20.629  0.3498E-02  0.2239E-02  0.1288E+00  0.1267E+00
     20.756  0.4560E-02  0.4043E-02  0.1294E+00  0.1272E+00
     20.883  0.2274E-03  0.3541E-02  0.1294E+00  0.1277E+00
     21.011  0.2067E-02  0.3119E-02  0.1297E+00  0.1281E+00
     21.138  0.5986E-02  0.2943E-02  0.1304E+00  0.1284E+00
     21.265  0.2882E-02  0.2080E-02  0.1308E+00  0.1287E+00
     21.392  0.5718E-02  0.5136E-02  0.1315E+00  0.1294E+00
     21.520  0.1694E-02  0.3180E-03  0.1317E+00  0.1294E+00
     21.647  0.9084E-02  0.3284E-02  0.1329E+00  0.1298E+00
     21.774  0.2958E-02  0.6006E-02  0.1333E+00  0.1306E+00
     21.901  0.4473E-02  0.6507E-02  0.1338E+00  0.1314E+00
     22.028  0.4893E-02  0.3034E-02  0.1345E+00  0.1318E+00
     22.156  0.1215E-02  0.7355E-02  0.1346E+00  0.1327E+00
     22.283  0.1333E-02  0.2771E-02  0.1348E+00  0.1331E+00
     22.410  0.1532E-02  0.2927E-02  0.1350E+00  0.1335E+00
     22.537  0.3673E-02  0.6840E-02  0.1354E+00  0.1343E+00
     22.665  0.2721E-02  0.2186E-02  0.1358E+00  0.1346E+00
     22.792  0.5207E-02  0.1389E-02  0.1365E+00  0.1348E+00
     22.919  0.4954E-02  0.2219E-02  0.1371E+00  0.1351E+00
     23.046  0.3817E-02  0.3223E-02  0.1376E+00  0.1355E+00
     23.173  0.1018E-02  0.2359E-02  0.1377E+00  0.1358E+00
     23.301  0.2230E-02  0.5410E-02  0.1380E+00  0.1365E+00
     23.428  0.1807E-02  0.5837E-02  0.1382E+00  0.1372E+00
     23.555  0.7894E-03  0.2258E-02  0.1383E+00  0.1375E+00
     23.682  0.4539E-02  0.1484E-02  0.1389E+00  0.1377E+00
     23.810  0.2238E-02  0.2966E-02  0.1392E+00  0.1381E+00
     23.937  0.4017E-02  0.6701E-03  0.1397E+00  0.1382E+00
     24.064  0.4881E-02  0.1980E-02  0.1403E+00  0.1384E+00
     24.191  0.5440E-03  0.4376E-02  0.1404E+00  0.1390E+00
     24.318  0.1349E-02  0.3365E-02  0.1405E+00  0.1394E+00
     24.446  0.3134E-02  0.4432E-02  0.1409E+00  0.1400E+00
     24.573  0.4365E-02  0.2895E-02  0.1415E+00  0.1403E+00
     24.700  0.1987E-02  0.5618E-03  0.1418E+00  0.1404E+00
     24.827  0.4919E-02  0.1456E-02  0.1424E+00  0.1406E+00
     24.955  0.5916E-02  0.3976E-02  0.1431E+00  0.1411E+00
     25.082  0.4654E-02  0.4919E-02  0.1437E+00  0.1417E+00
     25.209  0.1779E-02  0.3111E-02  0.1440E+00  0.1421E+00
     25.336  0.2505E-02  0.4953E-02  0.1443E+00  0.1427E+00
     25.463  0.3941E-03  0.5634E-02  0.1443E+00  0.1435E+00
     25.591  0.1853E-02  0.2784E-02  0.1446E+00  0.1438E+00
     25.718  0.6188E-02  0.2559E-02  0.1453E+00  0.1441E+00
     25.845  0.4258E-02  0.1405E-02  0.1459E+00  0.1443E+00
     25.972  0.1358E-02  0.8127E-03  0.1461E+00  0.1444E+00
     26.100  0.4284E-02  0.4866E-02  0.1466E+00  0.1450E+00
     26.227  0.4069E-02  0.4532E-02  0.1471E+00  0.1456E+00
     26.354  0.7859E-03  0.3653E-02  0.1472E+00  0.1461E+00
     26.481  0.3697E-02  0.3674E-02  0.1477E+00  0.1465E+00
     26.608  0.6790E-02  0.3221E-02  0.1486E+00  0.1470E+00
     26.736  0.3279E-02  0.2391E-02  0.1490E+00  0.1473E+00
     26.863  0.3515E-02  0.4024E-02  0.1494E+00  0.1478E+00
     26.990  0.2622E-02  0.6434E-02  0.1498E+00  0.1486E+00
     27.117  0.5747E-02  0.3876E-02  0.1505E+00  0.1491E+00
     27.245  0.3912E-02  0.2844E-02  0.1510E+00  0.1494E+00
     27.372  0.2589E-03  0.2795E-02  0.1510E+00  0.1498E+00
     27.499  0.3130E-02  0.6353E-02  0.1514E+00  0.1506E+00
     27.626  0.1731E-02  0.3223E-02  0.1516E+00  0.1510E+00
     27.754  0.1049E-02  0.1290E-02  0.1518E+00  0.1512E+00
     27.881  0.2150E-02  0.2184E-02  0.1520E+00  0.1515E+00
     28.008  0.6276E-03  0.2207E-02  0.1521E+00  0.1517E+00
     28.135  0.4306E-02  0.3834E-03  0.1527E+00  0.1518E+00
     28.262  0.4522E-02  0.2171E-02  0.1532E+00  0.1521E+00
     28.390  0.1925E-02  0.2403E-02  0.1535E+00  0.1524E+00
     28.517  0.1430E-02  0.4136E-02  0.1537E+00  0.1529E+00
     28.644  0.3235E-02  0.4203E-02  0.1541E+00  0.1534E+00
     28.771  0.1424E-02  0.1372E-02  0.1543E+00  0.1536E+00
     28.899  0.1997E-02  0.3636E-02  0.1545E+00  0.1541E+00
     29.026  0.3098E-02  0.3716E-03  0.1549E+00  0.1541E+00
     29.153  0.1131E-02  0.2369E-02  0.1551E+00  0.1544E+00
     29.280  0.9748E-03  0.2865E-02  0.1552E+00  0.1548E+00
     29.407  0.1592E-02  0.2328E-02  0.1554E+00  0.1551E+00
     29.535  0.1478E-02  0.1144E-02  0.1556E+00  0.1552E+00
     29.662  0.6505E-03  0.2121E-03  0.1557E+00  0.1552E+00
     29.789  0.9055E-03  0.2711E-02  0.1558E+00  0.1556E+00
     29.916  0.3047E-02  0.7458E-03  0.1562E+00  0.1557E+00
     30.044  0.2165E-02  0.1512E-02  0.1564E+00  0.1559E+00
     30.171  0.5395E-03  0.1374E-02  0.1565E+00  0.1561E+00
     30.298  0.2741E-02  0.2160E-02  0.1568E+00  0.1563E+00
     30.425  0.1230E-02  0.2101E-02  0.1570E+00  0.1566E+00
     30.552  0.1628E-02  0.2224E-02  0.1572E+00  0.1569E+00
     30.680  0.2063E-02  0.6245E-03  0.1575E+00  0.1570E+00
     30.807  0.1164E-03  0.2563E-02  0.1575E+00  0.1573E+00
     30.934  0.9761E-03  0.1531E-02  0.1576E+00  0.1575E+00
     31.061  0.2087E-03  0.1222E-02  0.1576E+00  0.1576E+00
     31.189  0.1044E-02  0.1691E-04  0.1578E+00  0.1576E+00
     31.316  0.1057E-02  0.7321E-05  0.1579E+00  0.1576E+00
     31.443  0.8525E-03  0.1209E-02  0.1580E+00  0.1578E+00
     31.570  0.1286E-02  0.1608E-02  0.1582E+00  0.1580E+00
     31.697  0.4662E-03  0.9616E-03  0.1582E+00  0.1581E+00
     31.825  0.6577E-07  0.9277E-03  0.1582E+00  0.1582E+00
     31.952  0.7007E-06  0.9270E-04  0.1582E+00  0.1582E+00
     32.079  0.8444E-03  0.3269E-03  0.1583E+00  0.1583E+00
     32.206  0.5569E-03  0.9550E-03  0.1584E+00  0.1584E+00
     32.334  0.5489E-03  0.6983E-05  0.1585E+00  0.1584E+00
     32.461  0.1350E-02  0.4990E-03  0.1587E+00  0.1585E+00
     32.588  0.1021E-02  0.1658E-02  0.1588E+00  0.1587E+00
     32.715  0.1872E-05  0.9822E-03  0.1588E+00  0.1588E+00
     32.842  0.8146E-03  0.8692E-03  0.1589E+00  0.1589E+00
     32.970  0.5266E-03  0.4095E-03  0.1590E+00  0.1590E+00
     33.097  0.1309E-03  0.4531E-07  0.1590E+00  0.1590E+00
     33.224  0.3589E-03  0.6919E-04  0.1590E+00  0.1590E+00
     33.351  0.1145E-02  0.2441E-03  0.1592E+00  0.1590E+00
     33.479  0.2290E-02  0.1352E-02  0.1595E+00  0.1592E+00
     33.606  0.1281E-02  0.1398E-02  0.1596E+00  0.1594E+00
     33.733  0.7141E-04  0.1754E-02  0.1596E+00  0.1596E+00
     33.860  0.6929E-03  0.7350E-03  0.1597E+00  0.1597E+00
     33.987  0.6454E-03  0.9294E-03  0.1598E+00  0.1598E+00
     34.115  0.2954E-06  0.4242E-04  0.1598E+00  0.1598E+00
     34.242  0.2556E-07  0.1566E-03  0.1598E+00  0.1598E+00
     34.369  0.9402E-04  0.5734E-06  0.1598E+00  0.1598E+00
     34.496  0.1024E-03  0.2044E-13  0.1598E+00  0.1598E+00
     34.624  0.3862E-07  0.1636E-18  0.1598E+00  0.1598E+00
     34.751  0.3033E-13  0.1981E-08  0.1598E+00  0.1598E+00
     34.878  0.1230E-05  0.1122E-03  0.1598E+00  0.1598E+00
     35.005  0.4518E-03  0.6607E-03  0.1599E+00  0.1599E+00
     35.132  0.2008E-03  0.1310E-04  0.1599E+00  0.1599E+00
     35.260  0.1414E-03  0.5781E-05  0.1599E+00  0.1599E+00
     35.387  0.1821E-03  0.1821E-03  0.1599E+00  0.1599E+00
     35.514  0.5300E-05  0.8592E-05  0.1599E+00  0.1599E+00
     35.641  0.3225E-11  0.9878E-06  0.1599E+00  0.1600E+00
     35.769  0.6667E-07  0.1655E-03  0.1600E+00  0.1600E+00
     35.896  0.1680E-03  0.3003E-04  0.1600E+00  0.1600E+00
     36.023  0.2247E-03  0.3010E-05  0.1600E+00  0.1600E+00
     36.150  0.2672E-06  0.9111E-04  0.1600E+00  0.1600E+00
     36.277  0.3752E-14  0.1350E-04  0.1600E+00  0.1600E+00
     36.405  0.0000E+00  0.8780E-04  0.1600E+00  0.1600E+00
     36.532  0.0000E+00  0.1082E-05  0.1600E+00  0.1600E+00
     36.659  0.0000E+00  0.1917E-12  0.1600E+00  0.1600E+00
     36.786  0.0000E+00  0.0000E+00  0.1600E+00  0.1600E+00
     36.914  0.0000E+00  0.0000E+00  0.1600E+00  0.1600E+00
     37.041  0.0000E+00  0.0000E+00  0.1600E+00  0.1600E+00
     37.168  0.0000E+00  0.0000E+00  0.1600E+00  0.1600E+00
     37.295  0.0000E+00  0.0000E+00  0.1600E+00  0.1600E+00
     37.422  0.0000E+00  0.0000E+00  0.1600E+00  0.1600E+00
     37.550  0.0000E+00  0.0000E+00  0.1600E+00  0.1600E+00
     37.677  0.0000E+00  0.0000E+00  0.1600E+00  0.1600E+00
     37.804  0.0000E+00  0.0000E+00  0.1600E+00  0.1600E+00
     37.931  0.0000E+00  0.0000E+00  0.1600E+00  0.1600E+00
     38.059  0.0000E+00  0.0000E+00  0.1600E+00  0.1600E+00
     38.05856805     -0.10833244  301     10.68174801      1.00000000
     -0.108  0.0000E+00  0.0000E+00  0.0000E+00  0.0000E+00  0.0000E+00  0.0000E+00  0.0000E+00  0.0000E+00  0.0000E+00  0.0000E+00  0.0000E+00  0.0000E+00  0.0000E+00  0.0000E+00  0.0000E+00  0.0000E+00  0.0000E+00  0.0000E+00
      0.019  0.0000E+00  0.0000E+00  0.0000E+00  0.0000E+00  0.0000E+00  0.0000E+00  0.0000E+00  0.0000E+00  0.0000E+00  0.0000E+00  0.0000E+00  0.0000E+00  0.0000E+00  0.0000E+00  0.0000E+00  0.0000E+00  0.0000E+00  0.0000E+00
      0.146  0.0000E+00  0.0000E+00  0.0000E+00  0.0000E+00  0.0000E+00  0.0000E+00  0.0000E+00  0.0000E+00  0.0000E+00  0.0000E+00  0.0000E+00  0.0000E+00  0.0000E+00  0.0000E+00  0.0000E+00  0.0000E+00  0.0000E+00  0.0000E+00
      0.273  0.0000E+00  0.0000E+00  0.0000E+00  0.0000E+00  0.0000E+00  0.0000E+00  0.0000E+00  0.0000E+00  0.0000E+00  0.0000E+00  0.0000E+00  0.0000E+00  0.0000E+00  0.0000E+00  0.0000E+00  0.0000E+00  0.0000E+00  0.0000E+00
      0.401  0.0000E+00  0.0000E+00  0.0000E+00  0.0000E+00  0.0000E+00  0.0000E+00  0.0000E+00  0.0000E+00  0.0000E+00  0.0000E+00  0.0000E+00  0.0000E+00  0.0000E+00  0.0000E+00  0.0000E+00  0.0000E+00  0.0000E+00  0.0000E+00
      0.528  0.0000E+00  0.0000E+00  0.0000E+00  0.0000E+00  0.0000E+00  0.0000E+00  0.0000E+00  0.0000E+00  0.0000E+00  0.0000E+00  0.0000E+00  0.0000E+00  0.0000E+00  0.0000E+00  0.0000E+00  0.0000E+00  0.0000E+00  0.0000E+00
      0.655  0.0000E+00  0.0000E+00  0.0000E+00  0.0000E+00  0.0000E+00  0.0000E+00  0.0000E+00  0.0000E+00  0.0000E+00  0.0000E+00  0.0000E+00  0.0000E+00  0.0000E+00  0.0000E+00  0.0000E+00  0.0000E+00  0.0000E+00  0.0000E+00
      0.782  0.0000E+00  0.0000E+00  0.0000E+00  0.0000E+00  0.0000E+00  0.0000E+00  0.0000E+00  0.0000E+00  0.0000E+00  0.0000E+00  0.0000E+00  0.0000E+00  0.0000E+00  0.0000E+00  0.0000E+00  0.0000E+00  0.0000E+00  0.0000E+00
      0.909  0.0000E+00  0.0000E+00  0.0000E+00  0.0000E+00  0.0000E+00  0.0000E+00  0.0000E+00  0.0000E+00  0.0000E+00  0.0000E+00  0.0000E+00  0.0000E+00  0.0000E+00  0.0000E+00  0.0000E+00  0.0000E+00  0.0000E+00  0.0000E+00
      1.037  0.0000E+00  0.0000E+00  0.0000E+00  0.0000E+00  0.0000E+00  0.0000E+00  0.0000E+00  0.0000E+00  0.0000E+00  0.0000E+00  0.0000E+00  0.0000E+00  0.0000E+00  0.0000E+00  0.0000E+00  0.0000E+00  0.0000E+00  0.0000E+00
      1.164  0.0000E+00  0.0000E+00  0.0000E+00  0.0000E+00  0.0000E+00  0.0000E+00  0.0000E+00  0.0000E+00  0.0000E+00  0.0000E+00  0.0000E+00  0.0000E+00  0.0000E+00  0.0000E+00  0.0000E+00  0.0000E+00  0.0000E+00  0.0000E+00
      1.291  0.0000E+00  0.0000E+00  0.0000E+00  0.0000E+00  0.0000E+00  0.0000E+00  0.0000E+00  0.0000E+00  0.0000E+00  0.0000E+00  0.0000E+00  0.0000E+00  0.0000E+00  0.0000E+00  0.0000E+00  0.0000E+00  0.0000E+00  0.0000E+00
      1.418  0.7222E-11  0.1923E-12  0.2655E-25  0.1873E-27  0.1683E-26  0.4548E-29  0.2655E-25  0.1873E-27  0.1813E-24  0.1839E-25  0.1182E-21  0.4711E-24  0.2441E-16  0.1171E-17  0.1182E-21  0.4711E-24  0.1813E-24  0.1839E-25
      1.546  0.4077E-04  0.7779E-05  0.1499E-18  0.7576E-20  0.3754E-15  0.5061E-17  0.1499E-18  0.7576E-20  0.1023E-17  0.7436E-18  0.6676E-15  0.1905E-16  0.1378E-09  0.4735E-10  0.6676E-15  0.1905E-16  0.1023E-17  0.7436E-18
      1.673  0.3312E-02  0.2842E-02  0.1219E-16  0.2769E-17  0.6124E-07  0.6481E-08  0.1219E-16  0.2769E-17  0.8332E-16  0.2717E-15  0.5417E-13  0.6961E-14  0.1194E-07  0.1735E-07  0.5417E-13  0.6961E-14  0.8332E-16  0.2717E-15
      1.800  0.4946E-02  0.3761E-02  0.3252E-10  0.9563E-12  0.7062E-04  0.4491E-04  0.3252E-10  0.9563E-12  0.8600E-12  0.1899E-13  0.1044E-13  0.2406E-14  0.8705E-06  0.3530E-06  0.1044E-13  0.2406E-14  0.8600E-12  0.1899E-13
      1.927  0.3815E-02  0.4658E-02  0.1923E-04  0.4609E-05  0.4144E-04  0.6788E-04  0.1923E-04  0.4609E-05  0.5083E-06  0.8960E-07  0.6173E-13  0.6628E-15  0.9399E-06  0.6092E-06  0.6173E-13  0.6628E-15  0.5083E-06  0.8960E-07
      2.054  0.2010E-01  0.1937E-01  0.3451E-03  0.3343E-03  0.4188E-05  0.6004E-06  0.3451E-03  0.3343E-03  0.9127E-05  0.6500E-05  0.2016E-06  0.1982E-07  0.7614E-05  0.6051E-05  0.2016E-06  0.1982E-07  0.9127E-05  0.6500E-05
      2.182  0.3691E-01  0.3042E-01  0.6363E-03  0.5281E-03  0.5718E-03  0.4485E-03  0.6363E-03  0.5281E-03  0.1748E-04  0.1054E-04  0.2731E-04  0.1605E-04  0.1268E-05  0.1220E-05  0.2731E-04  0.1605E-04  0.1748E-04  0.1054E-04
      2.309  0.1192E-01  0.1887E-01  0.9812E-04  0.2387E-03  0.4736E-03  0.5352E-03  0.9812E-04  0.2387E-03  0.2696E-05  0.4772E-05  0.4271E-05  0.7729E-05  0.2710E-04  0.1556E-04  0.4271E-05  0.7729E-05  0.2696E-05  0.4772E-05
      2.436  0.6325E-03  0.1828E-02  0.1593E-08  0.1862E-07  0.3900E-04  0.1138E-03  0.1593E-08  0.1862E-07  0.4669E-10  0.3722E-09  0.1621E-09  0.6037E-09  0.2734E-05  0.5441E-05  0.1621E-09  0.6037E-09  0.4669E-10  0.3722E-09
      2.563  0.4894E-02  0.9805E-03  0.8703E-04  0.1744E-04  0.3064E-03  0.6221E-04  0.8703E-04  0.1744E-04  0.2823E-05  0.3887E-06  0.1579E-04  0.2333E-05  0.1062E-04  0.1437E-05  0.1579E-04  0.2333E-05  0.2823E-05  0.3887E-06
      2.691  0.4874E-01  0.4452E-01  0.1336E-02  0.1048E-02  0.2202E-02  0.2363E-02  0.1336E-02  0.1048E-02  0.7874E-04  0.3752E-04  0.1135E-03  0.8859E-04  0.1233E-03  0.7315E-04  0.1135E-03  0.8859E-04  0.7874E-04  0.3752E-04
      2.818  0.2444E-01  0.2078E-01  0.1274E-02  0.1027E-02  0.3045E-03  0.2295E-03  0.1274E-02  0.1027E-02  0.1079E-03  0.5997E-04  0.5373E-04  0.1745E-04  0.5804E-04  0.4413E-04  0.5373E-04  0.1745E-04  0.1079E-03  0.5997E-04
      2.945  0.2291E-01  0.3323E-01  0.1211E-02  0.1768E-02  0.3802E-03  0.5352E-03  0.1211E-02  0.1768E-02  0.1097E-03  0.1082E-03  0.6282E-04  0.6868E-04  0.5991E-04  0.4879E-04  0.6282E-04  0.6868E-04  0.1097E-03  0.1082E-03
      3.072  0.2454E-01  0.2148E-01  0.1293E-02  0.1162E-02  0.8297E-03  0.7034E-03  0.1293E-02  0.1162E-02  0.1909E-03  0.1138E-03  0.4974E-05  0.5222E-06  0.2978E-03  0.1745E-03  0.4974E-05  0.5222E-06  0.1909E-03  0.1138E-03
      3.199  0.3756E-01  0.3043E-01  0.2562E-02  0.2052E-02  0.7242E-03  0.6295E-03  0.2562E-02  0.2052E-02  0.3946E-03  0.2098E-03  0.1894E-03  0.8219E-04  0.1648E-03  0.1237E-03  0.1894E-03  0.8219E-04  0.3946E-03  0.2098E-03
      3.327  0.5304E-01  0.4409E-01  0.2255E-02  0.2475E-02  0.4673E-02  0.2547E-02  0.2255E-02  0.2475E-02  0.2143E-03  0.1951E-03  0.5891E-03  0.3151E-03  0.4134E-03  0.8274E-04  0.5891E-03  0.3151E-03  0.2143E-03  0.1951E-03
      3.454  0.2030E-01  0.4123E-01  0.4072E-03  0.1044E-02  0.2801E-02  0.5342E-02  0.4072E-03  0.1044E-02  0.2114E-04  0.4588E-04  0.1705E-03  0.2654E-03  0.4562E-03  0.5080E-03  0.1705E-03  0.2654E-03  0.2114E-04  0.4588E-04
      3.581  0.2794E-01  0.7532E-02  0.1950E-02  0.5125E-03  0.1818E-02  0.5386E-03  0.1950E-02  0.5125E-03  0.3757E-03  0.6003E-04  0.5699E-03  0.9746E-04  0.1479E-04  0.9841E-05  0.5699E-03  0.9746E-04  0.3757E-03  0.6003E-04
      3.708  0.7269E-02  0.2857E-01  0.5075E-03  0.2047E-02  0.4730E-03  0.1891E-02  0.5075E-03  0.2047E-02  0.9778E-04  0.2433E-03  0.1483E-03  0.3845E-03  0.3802E-05  0.8382E-05  0.1483E-03  0.3845E-03  0.9778E-04  0.2433E-03
      3.836  0.5987E-03  0.1084E-03  0.5723E-04  0.7783E-05  0.3454E-04  0.7162E-05  0.5723E-04  0.7783E-05  0.1532E-04  0.9267E-06  0.4098E-05  0.1456E-05  0.2229E-04  0.3635E-07  0.4098E-05  0.1456E-05  0.1532E-04  0.9267E-06
      3.963  0.6383E-01  0.1277E-01  0.5452E-02  0.1266E-02  0.5186E-02  0.7697E-03  0.5452E-02  0.1266E-02  0.1333E-02  0.2057E-03  0.9361E-03  0.9900E-04  0.1819E-02  0.1990E-03  0.9361E-03  0.9900E-04  0.1333E-02  0.2057E-03
      4.090  0.6983E-01  0.7436E-01  0.8200E-02  0.6775E-02  0.1955E-02  0.5897E-02  0.8200E-02  0.6775E-02  0.2420E-02  0.1084E-02  0.9776E-03  0.7618E-03  0.1514E-02  0.1288E-02  0.9776E-03  0.7618E-03  0.2420E-02  0.1084E-02
      4.217  0.4327E-01  0.5349E-01  0.2458E-02  0.6794E-02  0.7428E-02  0.1018E-02  0.2458E-02  0.6794E-02  0.6388E-03  0.1284E-02  0.1586E-02  0.4299E-03  0.2362E-02  0.7470E-03  0.1586E-02  0.4299E-03  0.6388E-03  0.1284E-02
      4.344  0.3645E-01  0.5256E-01  0.2515E-02  0.2659E-02  0.5661E-02  0.1036E-01  0.2515E-02  0.2659E-02  0.8216E-03  0.3597E-03  0.1384E-02  0.1278E-02  0.2351E-02  0.1918E-02  0.1384E-02  0.1278E-02  0.8216E-03  0.3597E-03
      4.472  0.6850E-01  0.2633E-01  0.8944E-02  0.2267E-02  0.3142E-02  0.3678E-02  0.8944E-02  0.2267E-02  0.4435E-02  0.4573E-03  0.2896E-02  0.6688E-03  0.1565E-02  0.8603E-03  0.2896E-02  0.6688E-03  0.4435E-02  0.4573E-03
      4.599  0.2108E-01  0.6316E-01  0.3074E-02  0.8595E-02  0.2996E-03  0.3210E-02  0.3074E-02  0.8595E-02  0.2353E-02  0.2263E-02  0.5439E-03  0.1611E-02  0.8904E-03  0.7984E-03  0.5439E-03  0.1611E-02  0.2353E-02  0.2263E-02
      4.726  0.1423E-01  0.2889E-01  0.1410E-02  0.4555E-02  0.2115E-02  0.4415E-03  0.1410E-02  0.4555E-02  0.1193E-02  0.1804E-02  0.1289E-02  0.3831E-03  0.1276E-02  0.7605E-03  0.1289E-02  0.3831E-03  0.1193E-02  0.1804E-02
      4.853  0.5232E-01  0.3398E-02  0.4803E-02  0.2768E-03  0.9210E-02  0.7438E-03  0.4803E-02  0.2768E-03  0.3321E-02  0.6415E-04  0.5011E-02  0.1332E-03  0.4882E-02  0.1673E-03  0.5011E-02  0.1332E-03  0.3321E-02  0.6415E-04
      4.981  0.5850E-01  0.4012E-01  0.6156E-02  0.3707E-02  0.1103E-01  0.8096E-02  0.6156E-02  0.3707E-02  0.3275E-02  0.1224E-02  0.8342E-02  0.2026E-02  0.1930E-02  0.1748E-02  0.8342E-02  0.2026E-02  0.3275E-02  0.1224E-02
      5.108  0.3952E-01  0.5946E-01  0.2292E-02  0.7295E-02  0.1013E-01  0.9282E-02  0.2292E-02  0.7295E-02  0.2238E-02  0.2482E-02  0.4032E-02  0.4401E-02  0.1486E-01  0.1885E-02  0.4032E-02  0.4401E-02  0.2238E-02  0.2482E-02
      5.235  0.3938E-01  0.4071E-01  0.7208E-02  0.3993E-02  0.2123E-02  0.9507E-02  0.7208E-02  0.3993E-02  0.7517E-02  0.1031E-02  0.3986E-02  0.3176E-02  0.6073E-02  0.1135E-02  0.3986E-02  0.3176E-02  0.7517E-02  0.1031E-02
      5.362  0.9296E-01  0.2361E-01  0.1826E-01  0.1298E-02  0.1671E-02  0.7272E-02  0.1826E-01  0.1298E-02  0.2786E-01  0.3146E-03  0.1235E-01  0.3879E-03  0.1674E-01  0.6948E-02  0.1235E-01  0.3879E-03  0.2786E-01  0.3146E-03
      5.489  0.1102E+00  0.4664E-01  0.1464E-01  0.8520E-02  0.1108E-01  0.4603E-02  0.1464E-01  0.8520E-02  0.4879E-01  0.3846E-02  0.5182E-01  0.2737E-02  0.3739E-01  0.3855E-02  0.5182E-01  0.2737E-02  0.4879E-01  0.3846E-02
      5.617  0.1186E+00  0.5743E-01  0.1138E-01  0.1275E-01  0.2113E-01  0.1708E-02  0.1138E-01  0.1275E-01  0.5693E-01  0.8013E-02  0.8289E-01  0.2154E-02  0.6623E-01  0.3801E-02  0.8289E-01  0.2154E-02  0.5693E-01  0.8013E-02
      5.744  0.7379E-01  0.4402E-01  0.8126E-02  0.1019E-01  0.1104E-01  0.1197E-02  0.8126E-02  0.1019E-01  0.4705E-01  0.6550E-02  0.6562E-01  0.2302E-02  0.6491E-01  0.3213E-02  0.6562E-01  0.2302E-02  0.4705E-01  0.6550E-02
      5.871  0.4070E-01  0.1004E+00  0.5200E-02  0.1622E-01  0.6089E-02  0.2090E-01  0.5200E-02  0.1622E-01  0.6917E-01  0.9806E-02  0.5204E-01  0.1502E-01  0.1833E-01  0.9390E-02  0.5204E-01  0.1502E-01  0.6917E-01  0.9806E-02
      5.998  0.6721E-01  0.2720E-01  0.1154E-01  0.3802E-02  0.1301E-01  0.6325E-02  0.1154E-01  0.3802E-02  0.1041E+00  0.2987E-02  0.8298E-01  0.3279E-02  0.9415E-01  0.5446E-02  0.8298E-01  0.3279E-02  0.1041E+00  0.2987E-02
      6.126  0.1159E+00  0.8036E-01  0.2334E-01  0.1252E-01  0.2715E-01  0.1631E-01  0.2334E-01  0.1252E-01  0.1847E+00  0.1865E-01  0.1625E+00  0.1411E-01  0.1812E+00  0.1557E-01  0.1625E+00  0.1411E-01  0.1847E+00  0.1865E-01
      6.253  0.3941E-01  0.7472E-01  0.1026E-01  0.1207E-01  0.1137E-01  0.1262E-01  0.1026E-01  0.1207E-01  0.6917E-01  0.1559E-01  0.1045E+00  0.2096E-01  0.8127E-01  0.2114E-01  0.1045E+00  0.2096E-01  0.6917E-01  0.1559E-01