    2    2  100    2
  0.9566424E+01  0.2392585E-09  0.2392585E-09  0.3859352E-09  0.5000000E-15
  1.000000000000000E-004
  CAR 
 Co-hcc                                  
     18     95     28
 
  0.0000000E+00  0.0000000E+00  0.0000000E+00  0.8680556E-03
      1          2.497997        2.505856   1.000000   1.000000
      2          6.408104        7.282043   1.000000   1.000000
      3          9.385533       10.900073   1.000000   1.000000
      4          9.402908       10.900074   1.000000   1.000000
      5          9.402909       10.905556   1.000000   1.000000
      6          9.792960       11.345156   1.000000   1.000000
      7          9.792960       11.345156   1.000000   1.000000
      8         10.206741       11.836215   1.000000   1.000000
      9         10.206741       11.836216   1.000000   1.000000
     10         11.554291       12.035339   1.000000   0.999951
     11         11.554291       13.300365   1.000000   0.000000
     12         12.067140       13.300365   0.998634   0.000000
     13         19.772906       20.739336   0.000000   0.000000
     14         35.166036       34.922558   0.000000   0.000000
     15         38.688324       38.560505   0.000000   0.000000
     16         39.038243       38.836715   0.000000   0.000000
     17         39.067686       39.414568   0.000000   0.000000
     18         39.067686       39.414570   0.000000   0.000000
     19         40.286545       40.580562   0.000000   0.000000
     20         40.286547       40.580571   0.000000   0.000000
     21         44.527665       44.495608   0.000000   0.000000
     22         44.527665       44.495613   0.000000   0.000000
     23         46.079727       45.795822   0.000000   0.000000
     24         46.225783       46.486858   0.000000   0.000000
     25         48.455333       48.704369   0.000000   0.000000
     26         48.498182       48.704370   0.000000   0.000000
     27         48.498182       50.752933   0.000000   0.000000
     28         48.640997       51.691565   0.000000   0.000000
 
  0.8333333E-01  0.6938894E-17  0.0000000E+00  0.5208333E-02
      1          2.765647        2.774732   1.000000   1.000000
      2          6.573157        7.465293   1.000000   1.000000
      3          9.114276       10.572941   1.000000   1.000000
      4          9.539413       11.047752   1.000000   1.000000
      5          9.625576       11.162234   1.000000   1.000000
      6          9.735707       11.181199   1.000000   1.000000
      7          9.913941       11.273337   1.000000   1.000000
      8         10.012149       11.476063   1.000000   1.000000
      9         10.119008       11.736221   1.000000   1.000000
     10         10.559066       11.782160   1.000000   1.000000
     11         11.592669       13.344814   1.000000   0.000000
     12         13.422592       14.358268   0.000000   0.000000
     13         19.805632       20.751517   0.000000   0.000000
     14         33.718112       33.755976   0.000000   0.000000
     15         36.274445       36.380535   0.000000   0.000000
     16         36.692058       37.018150   0.000000   0.000000
     17         39.067206       38.885334   0.000000   0.000000
     18         39.821691       39.805755   0.000000   0.000000
     19         41.215707       41.116223   0.000000   0.000000
     20         42.850956       43.141419   0.000000   0.000000
     21         43.612274       43.847123   0.000000   0.000000
     22         44.122106       44.152349   0.000000   0.000000
     23         45.802785       46.083744   0.000000   0.000000
     24         46.126936       46.402317   0.000000   0.000000
     25         48.123216       49.451963   0.000000   0.000000
     26         48.551490       49.529362   0.000000   0.000000
     27         49.090217       49.603349   0.000000   0.000000
     28         49.377938       49.638722   0.000000   0.000000
 
  0.1666667E+00  0.1387779E-16  0.0000000E+00  0.5208333E-02
      1          3.535436        3.552754   1.000000   1.000000
      2          6.978590        7.929711   1.000000   1.000000
      3          8.776185       10.140647   1.000000   1.000000
      4          9.135868       10.152958   1.000000   1.000000
      5          9.526261       11.013685   1.000000   1.000000
      6          9.903585       11.468107   1.000000   1.000000
      7          9.926109       11.492241   1.000000   1.000000
      8          9.993801       11.558892   1.000000   1.000000
      9         10.147743       11.592377   1.000000   1.000000
     10         10.253384       11.844124   1.000000   1.000000
     11         11.674323       13.438409   1.000000   0.000000
     12         15.221199       16.054147   0.000000   0.000000
     13         19.923890       20.805261   0.000000   0.000000
     14         29.980977       30.302555   0.000000   0.000000
     15         34.075595       34.382833   0.000000   0.000000
     16         35.214594       35.315521   0.000000   0.000000
     17         37.161735       37.182587   0.000000   0.000000
     18         39.192686       39.010944   0.000000   0.000000
     19         40.700272       40.768022   0.000000   0.000000
     20         43.413869       43.546061   0.000000   0.000000
     21         43.426661       43.803191   0.000000   0.000000
     22         44.645053       44.904190   0.000000   0.000000
     23         45.070562       45.322373   0.000000   0.000000
     24         47.046117       47.507513   0.000000   0.000000
     25         47.373691       47.932391   0.000000   0.000000
     26         48.503945       49.313957   0.000000   0.000000
     27         48.878911       51.563312   0.000000   0.000000
     28         49.655259       51.866767   0.000000   0.000000
 
  0.2500000E+00  0.5551115E-16  0.0000000E+00  0.5208333E-02
      1          4.682803        4.740071   1.000000   1.000000
      2          7.290379        8.353220   1.000000   1.000000
      3          8.269319        9.301290   1.000000   1.000000
      4          8.571767        9.808788   1.000000   1.000000
      5          9.416788       10.848378   1.000000   1.000000
      6          9.645863       11.202265   1.000000   1.000000
      7          9.911969       11.341514   1.000000   1.000000
      8         10.488208       12.085106   1.000000   0.993580
      9         10.510148       12.088761   1.000000   0.991456
     10         10.741807       12.375767   1.000000   0.000000
     11         11.751305       13.525532   1.000000   0.000000
     12         17.211888       17.962471   0.000000   0.000000
     13         20.147186       20.914439   0.000000   0.000000
     14         26.146036       26.612263   0.000000   0.000000
     15         31.789258       32.060810   0.000000   0.000000
     16         33.713231       33.849529   0.000000   0.000000
     17         34.057463       34.281683   0.000000   0.000000
     18         38.221391       38.101418   0.000000   0.000000
     19         38.982151       39.420023   0.000000   0.000000
     20         42.847470       43.037278   0.000000   0.000000
     21         43.199299       43.553645   0.000000   0.000000
     22         43.632524       43.736156   0.000000   0.000000
     23         45.103516       45.289360   0.000000   0.000000
     24         47.768831       48.492863   0.000000   0.000000
     25         48.578395       50.705691   0.000000   0.000000
     26         49.733704       51.772233   0.000000   0.000000
     27         50.297037       52.621360   0.000000   0.000000
     28         53.192978       53.348835   0.000000   0.000000
 
  0.3333333E+00  0.5551115E-16  0.0000000E+00  0.5208333E-02
      1          5.889279        6.109650   1.000000   1.000000
      2          7.193086        8.328897   1.000000   1.000000
      3          7.634564        8.698439   1.000000   1.000000
      4          8.709688        9.734653   1.000000   1.000000
      5          9.414739       10.943460   1.000000   1.000000
      6          9.565010       10.979510   1.000000   1.000000
      7          9.701586       11.097359   1.000000   1.000000
      8         11.090397       12.756283   1.000000   0.000000
      9         11.273137       12.874394   1.000000   0.000000
     10         11.328688       12.957424   1.000000   0.000000
     11         11.803989       13.584445   1.000000   0.000000
     12         19.350902       20.011834   0.000000   0.000000
     13         20.043131       20.677173   0.000000   0.000000
     14         23.231213       23.817769   0.000000   0.000000
     15         29.957196       30.177185   0.000000   0.000000
     16         30.543035       30.813237   0.000000   0.000000
     17         31.901426       32.264736   0.000000   0.000000
     18         37.046761       36.939391   0.000000   0.000000
     19         37.354027       37.807233   0.000000   0.000000
     20         41.236816       41.564854   0.000000   0.000000
     21         42.452895       42.693163   0.000000   0.000000
     22         44.591753       44.774210   0.000000   0.000000
     23         46.968289       47.128723   0.000000   0.000000
     24         48.242418       49.404533   0.000000   0.000000
     25         48.790484       52.063155   0.000000   0.000000
     26         50.405073       52.797810   0.000000   0.000000
     27         53.935797       54.315716   0.000000   0.000000
     28         56.436200       56.608562   0.000000   0.000000
 
  0.4166667E+00  0.2775558E-16  0.0000000E+00  0.5208333E-02
      1          6.614530        7.224181   1.000000   1.000000
      2          6.983447        8.075108   1.000000   1.000000
      3          7.251302        8.337550   1.000000   1.000000
      4          9.143634        9.874954   1.000000   1.000000
      5          9.257734       10.768233   1.000000   1.000000
      6          9.553752       10.922592   1.000000   1.000000
      7          9.806644       11.247383   1.000000   1.000000
      8         11.543870       13.266791   1.000000   0.000000
      9         11.714186       13.448209   1.000000   0.000000
     10         11.832202       13.615664   1.000000   0.000000
     11         12.612537       14.003774   0.000000   0.000000
     12         18.002405       18.744549   0.000000   0.000000
     13         21.534448       22.083881   0.000000   0.000000
     14         23.096888       23.589030   0.000000   0.000000
     15         27.761379       28.177918   0.000000   0.000000
     16         28.740769       28.908199   0.000000   0.000000
     17         29.292315       29.758330   0.000000   0.000000
     18         36.211888       36.093003   0.000000   0.000000
     19         36.759629       37.213831   0.000000   0.000000
     20         39.934726       40.227994   0.000000   0.000000
     21         42.231493       42.502041   0.000000   0.000000
     22         45.211049       45.494574   0.000000   0.000000
     23         48.464398       49.730543   0.000000   0.000000
     24         48.970842       49.818890   0.000000   0.000000
     25         49.572630       52.232277   0.000000   0.000000
     26         50.770674       52.892053   0.000000   0.000000
     27         56.187265       56.514715   0.000000   0.000000
     28         57.332459       57.659143   0.000000   0.000000
 
  0.5000000E+00  0.1110223E-15  0.0000000E+00  0.2604167E-02
      1          6.775598        7.710088   1.000000   1.000000
      2          6.908521        7.857942   1.000000   1.000000
      3          7.123131        8.217330   1.000000   1.000000
      4          9.202110       10.035222   1.000000   1.000000
      5          9.426857       10.706225   1.000000   1.000000
      6          9.500524       10.859306   1.000000   1.000000
      7          9.899424       11.353335   1.000000   1.000000
      8         11.708017       13.450677   1.000000   0.000000
      9         11.840699       13.624992   1.000000   0.000000
     10         11.893364       13.652254   1.000000   0.000000
     11         13.868567       15.057013   0.000000   0.000000
     12         16.185125       17.099222   0.000000   0.000000
     13         22.948622       23.384044   0.000000   0.000000
     14         23.763893       24.147008   0.000000   0.000000
     15         26.151998       26.695574   0.000000   0.000000
     16         27.879953       28.420024   0.000000   0.000000
     17         28.308938       28.452744   0.000000   0.000000
     18         35.917167       35.791721   0.000000   0.000000
     19         36.617916       37.076516   0.000000   0.000000
     20         39.478582       39.757074   0.000000   0.000000
     21         42.159274       42.440091   0.000000   0.000000
     22         45.437724       45.767791   0.000000   0.000000
     23         48.532524       49.855291   0.000000   0.000000
     24         48.973038       52.083087   0.000000   0.000000
     25         50.712881       52.212077   0.000000   0.000000
     26         52.043078       52.833367   0.000000   0.000000
     27         53.458367       53.899066   0.000000   0.000000
     28         58.956466       59.152434   0.000000   0.000000
 
  0.8333333E-01  0.8333333E-01  0.0000000E+00  0.5208333E-02
      1          3.285549        3.298950   1.000000   1.000000
      2          6.865555        7.794946   1.000000   1.000000
      3          8.848024       10.253538   1.000000   1.000000
      4          9.429807       10.417203   1.000000   1.000000
      5          9.607968       11.109167   1.000000   1.000000
      6          9.814972       11.350066   1.000000   1.000000
      7          9.818936       11.372813   1.000000   1.000000
      8          9.869053       11.444531   1.000000   1.000000
      9         10.181035       11.762707   1.000000   1.000000
     10         10.291905       11.767227   1.000000   1.000000
     11         11.640430       13.399327   1.000000   0.000000
     12         14.721407       15.579433   0.000000   0.000000
     13         19.883626       20.787065   0.000000   0.000000
     14         31.660873       31.866815   0.000000   0.000000
     15         32.754289       33.089229   0.000000   0.000000
     16         37.954486       38.030887   0.000000   0.000000
     17         38.637687       38.555382   0.000000   0.000000
     18         38.758707       38.666738   0.000000   0.000000
     19         39.155327       39.212848   0.000000   0.000000
     20         42.765131       42.917766   0.000000   0.000000
     21         44.302027       44.711251   0.000000   0.000000
     22         44.906772       45.345151   0.000000   0.000000
     23         46.539092       46.677025   0.000000   0.000000
     24         47.075051       47.247815   0.000000   0.000000
     25         47.465197       47.933604   0.000000   0.000000
     26         47.956517       48.667295   0.000000   0.000000
     27         48.556850       48.711173   0.000000   0.000000
     28         49.012334       52.127191   0.000000   0.000000
 
  0.1666667E+00  0.8333333E-01  0.0000000E+00  0.1041667E-01
      1          4.255504        4.288515   1.000000   1.000000
      2          7.278131        8.286013   1.000000   1.000000
      3          8.513991        9.600964   1.000000   1.000000
      4          8.588701        9.828978   1.000000   1.000000
      5          9.463326       10.914543   1.000000   1.000000
      6          9.595376       11.121595   1.000000   1.000000
      7         10.113292       11.601724   1.000000   1.000000
      8         10.122716       11.703780   1.000000   1.000000
      9         10.329552       11.903093   1.000000   1.000000
     10         10.682098       12.290868   1.000000   0.000432
     11         11.699253       13.466057   1.000000   0.000000
     12         16.498355       17.282342   0.000000   0.000000
     13         20.081444       20.896035   0.000000   0.000000
     14         28.094137       28.481680   0.000000   0.000000
     15         30.481330       30.815661   0.000000   0.000000
     16         35.405731       35.440589   0.000000   0.000000
     17         36.691234       36.849550   0.000000   0.000000
     18         37.602879       37.636313   0.000000   0.000000
     19         39.632098       39.775872   0.000000   0.000000
     20         41.678251       42.130764   0.000000   0.000000
     21         42.784249       42.841689   0.000000   0.000000
     22         45.570388       46.115409   0.000000   0.000000
     23         46.714996       46.897002   0.000000   0.000000
     24         47.196129       47.438318   0.000000   0.000000
     25         48.357177       49.567810   0.000000   0.000000
     26         49.120300       50.938879   0.000000   0.000000
     27         49.876761       51.158767   0.000000   0.000000
     28         50.846388       52.175897   0.000000   0.000000
 
  0.2500000E+00  0.8333333E-01  0.0000000E+00  0.1041667E-01
      1          5.479017        5.594334   1.000000   1.000000
      2          7.395465        8.514047   1.000000   1.000000
      3          7.895488        8.947382   1.000000   1.000000
      4          8.430690        9.587338   1.000000   1.000000
      5          9.367926       10.855339   1.000000   1.000000
      6          9.479227       10.891215   1.000000   1.000000
      7          9.878948       11.336700   1.000000   1.000000
      8         10.608025       12.214480   1.000000   0.120788
      9         10.937385       12.573275   1.000000   0.000000
     10         11.360977       12.976413   1.000000   0.000000
     11         11.748778       13.521815   1.000000   0.000000
     12         18.519052       19.224215   0.000000   0.000000
     13         20.349844       21.030084   0.000000   0.000000
     14         24.527592       25.048100   0.000000   0.000000
     15         28.802184       29.125124   0.000000   0.000000
     16         32.186142       32.369844   0.000000   0.000000
     17         34.061431       34.359251   0.000000   0.000000
     18         36.273382       36.321289   0.000000   0.000000
     19         39.224094       39.522682   0.000000   0.000000
     20         39.760940       40.147281   0.000000   0.000000
     21         43.431897       43.481463   0.000000   0.000000
     22         46.656769       46.848913   0.000000   0.000000
     23         46.937980       47.134292   0.000000   0.000000
     24         47.670718       48.318666   0.000000   0.000000
     25         48.502611       51.104292   0.000000   0.000000
     26         49.599755       52.530538   0.000000   0.000000
     27         51.795233       52.834266   0.000000   0.000000
     28         54.170252       54.228803   0.000000   0.000000
 
  0.3333333E+00  0.8333333E-01  0.0000000E+00  0.1041667E-01
      1          6.496692        6.890575   1.000000   1.000000
      2          7.184304        8.314352   1.000000   1.000000
      3          7.420895        8.504614   1.000000   1.000000
      4          8.718914        9.635965   1.000000   1.000000
      5          9.222052       10.692267   1.000000   1.000000
      6          9.646659       11.060345   1.000000   1.000000
      7          9.708380       11.135883   1.000000   1.000000
      8         11.217485       12.869358   1.000000   0.000000
      9         11.459326       13.155970   1.000000   0.000000
     10         11.779480       13.555971   1.000000   0.000000
     11         12.296207       13.813382   0.000248   0.000000
     12         19.436496       20.079030   0.000000   0.000000
     13         20.687455       21.298832   0.000000   0.000000
     14         22.892716       23.447643   0.000000   0.000000
     15         27.474486       27.766135   0.000000   0.000000
     16         29.221797       29.555202   0.000000   0.000000
     17         31.063079       31.451402   0.000000   0.000000
     18         35.261548       35.287549   0.000000   0.000000
     19         38.466173       38.770133   0.000000   0.000000
     20         38.690433       39.084471   0.000000   0.000000
     21         43.596346       43.706885   0.000000   0.000000
     22         46.944468       47.207043   0.000000   0.000000
     23         48.388410       48.835039   0.000000   0.000000
     24         48.663354       49.696192   0.000000   0.000000
     25         48.841978       52.003959   0.000000   0.000000
     26         50.572199       52.801119   0.000000   0.000000
     27         53.811943       54.181544   0.000000   0.000000
     28         57.676483       57.719849   0.000000   0.000000
 
  0.4166667E+00  0.8333333E-01  0.0000000E+00  0.1041667E-01
      1          6.875630        7.694365   1.000000   1.000000
      2          7.036909        8.063122   1.000000   1.000000
      3          7.181407        8.282685   1.000000   1.000000
      4          9.149902        9.836654   1.000000   1.000000
      5          9.164551       10.645538   1.000000   1.000000
      6          9.492580       10.860424   1.000000   1.000000
      7          9.894368       11.349411   1.000000   1.000000
      8         11.656919       13.383852   1.000000   0.000000
      9         11.743789       13.476611   1.000000   0.000000
     10         11.792972       13.570795   1.000000   0.000000
     11         13.704475       14.932163   0.000000   0.000000
     12         16.995391       17.842871   0.000000   0.000000
     13         22.743490       23.231584   0.000000   0.000000
     14         23.687995       24.103996   0.000000   0.000000
     15         26.595724       26.892326   0.000000   0.000000
     16         26.774936       27.262160   0.000000   0.000000
     17         28.773155       29.207527   0.000000   0.000000
     18         34.726869       34.735565   0.000000   0.000000
     19         37.825629       38.119772   0.000000   0.000000
     20         38.362553       38.762279   0.000000   0.000000
     21         43.548000       43.693816   0.000000   0.000000
     22         47.153033       47.527479   0.000000   0.000000
     23         48.519089       49.906828   0.000000   0.000000
     24         49.001684       51.368080   0.000000   0.000000
     25         50.748503       52.178372   0.000000   0.000000
     26         51.242880       52.811041   0.000000   0.000000
     27         54.830639       55.189260   0.000000   0.000000
     28         56.714441       56.987680   0.000000   0.000000
 
  0.1666667E+00  0.1666667E+00  0.0000000E+00  0.5208333E-02
      1          5.335642        5.415992   1.000000   1.000000
      2          7.614430        8.689255   1.000000   1.000000
      3          8.032491        9.076489   1.000000   1.000000
      4          8.156982        9.399195   1.000000   1.000000
      5          9.282041       10.759917   1.000000   1.000000
      6          9.475484       10.890178   1.000000   1.000000
      7          9.992919       11.470150   1.000000   1.000000
      8         10.324301       11.931558   1.000000   1.000000
      9         10.922096       12.546371   1.000000   0.000000
     10         11.386159       12.993142   1.000000   0.000000
     11         11.701340       13.467974   1.000000   0.000000
     12         18.238463       18.963027   0.000000   0.000000
     13         20.432195       21.137443   0.000000   0.000000
     14         26.179327       26.606615   0.000000   0.000000
     15         26.886145       27.305158   0.000000   0.000000
     16         33.577283       33.601321   0.000000   0.000000
     17         34.906700       35.167968   0.000000   0.000000
     18         36.256482       36.551312   0.000000   0.000000
     19         37.135142       37.392814   0.000000   0.000000
     20         42.162817       42.443807   0.000000   0.000000
     21         43.755988       43.723167   0.000000   0.000000
     22         45.146526       45.720355   0.000000   0.000000
     23         48.167793       48.781491   0.000000   0.000000
     24         49.195620       49.909339   0.000000   0.000000
     25         49.226282       50.163867   0.000000   0.000000
     26         49.742158       51.472109   0.000000   0.000000
     27         50.061449       51.976645   0.000000   0.000000
     28         51.431606       52.515485   0.000000   0.000000
 
  0.2500000E+00  0.1666667E+00  0.0000000E+00  0.1041667E-01
      1          6.489638        6.724394   1.000000   1.000000
      2          7.581270        8.674586   1.000000   1.000000
      3          7.589318        8.721967   1.000000   1.000000
      4          8.135154        9.230590   1.000000   1.000000
      5          9.094869       10.532935   1.000000   1.000000
      6          9.647559       11.060987   1.000000   1.000000
      7          9.761599       11.202418   1.000000   1.000000
      8         10.696366       12.332399   1.000000   0.000003
      9         11.458884       13.147381   1.000000   0.000000
     10         11.698687       13.464820   1.000000   0.000000
     11         12.331061       13.862612   0.000004   0.000000
     12         20.265925       20.918376   0.000000   0.000000
     13         20.695221       21.277847   0.000000   0.000000
     14         23.321458       23.858817   0.000000   0.000000
     15         25.295691       25.704067   0.000000   0.000000
     16         31.000575       31.211362   0.000000   0.000000
     17         33.159681       33.510401   0.000000   0.000000
     18         33.287689       33.518863   0.000000   0.000000
     19         35.845836       36.163149   0.000000   0.000000
     20         42.342009       42.648156   0.000000   0.000000
     21         45.165698       45.114744   0.000000   0.000000
     22         47.159849       47.768420   0.000000   0.000000
     23         48.471741       49.382547   0.000000   0.000000
     24         49.384127       49.927562   0.000000   0.000000
     25         49.565723       51.726978   0.000000   0.000000
     26         49.766736       52.549817   0.000000   0.000000
     27         52.783908       53.289851   0.000000   0.000000
     28         53.364483       53.448398   0.000000   0.000000
 
  0.3333333E+00  0.1666667E+00  0.0000000E+00  0.1041667E-01
      1          7.159925        7.778205   1.000000   1.000000
      2          7.311781        8.429313   1.000000   1.000000
      3          7.347632        8.455295   1.000000   1.000000
      4          8.523515        9.388160   1.000000   1.000000
      5          9.045000       10.469871   1.000000   1.000000
      6          9.510152       10.904044   1.000000   1.000000
      7          9.888053       11.337526   1.000000   1.000000
      8         11.189448       12.861671   1.000000   0.000000
      9         11.695413       13.459541   1.000000   0.000000
     10         11.727657       13.460842   1.000000   0.000000
     11         13.652119       14.951014   0.000000   0.000000
     12         18.760525       19.456736   0.000000   0.000000
     13         22.443325       23.003575   0.000000   0.000000
     14         23.185971       23.662287   0.000000   0.000000
     15         24.468011       24.848229   0.000000   0.000000
     16         28.277166       28.663766   0.000000   0.000000
     17         30.174039       30.584959   0.000000   0.000000
     18         32.516959       32.695739   0.000000   0.000000
     19         35.049854       35.369152   0.000000   0.000000
     20         42.011370       42.347085   0.000000   0.000000
     21         46.057026       46.033905   0.000000   0.000000
     22         48.426889       49.382176   0.000000   0.000000
     23         48.659533       50.990394   0.000000   0.000000
     24         49.927337       51.056284   0.000000   0.000000
     25         50.918810       51.856976   0.000000   0.000000
     26         51.117897       52.736255   0.000000   0.000000
     27         52.991787       53.419533   0.000000   0.000000
     28         56.539444       56.573143   0.000000   0.000000
 
  0.4166667E+00  0.1666667E+00  0.0000000E+00  0.5208333E-02
      1          7.218031        8.169049   1.000000   1.000000
      2          7.219605        8.300883   1.000000   1.000000
      3          7.330876        8.347620   1.000000   1.000000
      4          8.783971        9.537267   1.000000   1.000000
      5          9.066730       10.509179   1.000000   1.000000
      6          9.378989       10.732768   1.000000   1.000000
      7          9.991183       11.460689   1.000000   1.000000
      8         11.524925       13.229769   1.000000   0.000000
      9         11.693821       13.440721   1.000000   0.000000
     10         11.701627       13.458888   1.000000   0.000000
     11         14.980763       15.985150   0.000000   0.000000
     12         16.841824       17.761758   0.000000   0.000000
     13         23.620188       24.018653   0.000000   0.000000
     14         23.987575       24.445251   0.000000   0.000000
     15         24.484870       24.858626   0.000000   0.000000
     16         26.540993       27.054023   0.000000   0.000000
     17         28.677963       29.129042   0.000000   0.000000
     18         32.269645       32.437411   0.000000   0.000000
     19         34.762019       35.077398   0.000000   0.000000
     20         41.876552       42.218641   0.000000   0.000000
     21         46.263062       46.261625   0.000000   0.000000
     22         48.631074       50.010821   0.000000   0.000000
     23         48.669761       50.622319   0.000000   0.000000
     24         50.568209       52.168330   0.000000   0.000000
     25         50.734731       52.526144   0.000000   0.000000
     26         52.500103       52.751777   0.000000   0.000000
     27         54.913160       55.349022   0.000000   0.000000
     28         55.721500       55.910069   0.000000   0.000000
 
  0.2500000E+00  0.2500000E+00  0.0000000E+00  0.5208333E-02
      1          7.343278        7.849205   1.000000   1.000000