 vasp.6.3.2 27Jun22 (build Aug 12 2022 00:53:59) complex                        
  
 executed on               tv2STD date 2024.12.03  02:36:05
 running   28 mpi-ranks, with    1 threads/rank
 distrk:  each k-point on   28 cores,    1 groups
 distr:  one band on NCORE=   1 cores,   28 groups


--------------------------------------------------------------------------------------------------------


 INCAR:
   SYSTEM = Co-hcc
   NWRITE = 2    write-flag
   ISTART = 0    job   : 0-new, 1-cont, 2-samecut
   ICHARG = 2    charge: 0-wave, 1-file, 2-atom, >10-const
   INIWAV = 1    electr: 0-lowe 1-rand  2-diag
   ENCUT = 425.0     energy cutoff in eV
   PREC = Accurate      normal | accurate
   ADDGRID = .FALSE.  (use fine grid)
   NELM = 100     number of ELM steps
   EDIFF = 1E-06    energy stopping-criterion for ELM
   LREAL = .FALSE.      real-space projection (.FALSE., .TRUE., On, Auto)
   ALGO = Normal     Normal, Fast, Very_Fast
   LWAVE = .FALSE.
   LCHARG = .FALSE.
   NSW = 100       max number of geometry steps
   IBRION = 2     ionic relax: 0-MD, 1-quasi-Newton, 2-CG, 3-Damped MD
   EDIFFG = -0.02  force (eV/A) stopping-criterion for geometry steps
   ISIF = 2     (1:force\=y stress\=trace only ions\=y shape\=n volume\=n)
   ISYM = 1     (1-use symmetry, 0-no symmetry)
   ISMEAR = 0     (-1-Fermi, 1-Methfessel/Paxton)
   SIGMA = 0.05   broadening in eV
   LORBIT = 11
   ISPIN = 2
   MAGMOM = 2*3

 POTCAR:    PAW_PBE Co 02Aug2007                  
 POTCAR:    PAW_PBE Co 02Aug2007                  
   SHA256 =  0e690c60710354995174544f52f9f2c30879afabeffe3b3fbd4001cb294e56d4 Co/POTCAR             
   COPYR  = (c) Copyright 02Aug2007 Georg Kresse                                                    
   COPYR  = This file is part of the software VASP. Any use, copying, and all other rights are regul
   COPYR  = If you do not have a valid VASP license, you may not use, copy or distribute this file. 
   VRHFIN =Co: d8 s1                                                                                
   LEXCH  = PE                                                                                      
   EATOM  =   813.3670 eV,   59.7808 Ry                                                             
                                                                                                    
   TITEL  = PAW_PBE Co 02Aug2007                                                                    
   LULTRA =        F    use ultrasoft PP ?                                                          
   IUNSCR =        1    unscreen: 0-lin 1-nonlin 2-no                                               
   RPACOR =    2.000    partial core radius                                                         
   POMASS =   58.933; ZVAL   =    9.000    mass and valenz                                          
   RCORE  =    2.300    outmost cutoff radius                                                       
   RWIGS  =    2.460; RWIGS  =    1.302    wigner-seitz radius (au A)                               
   ENMAX  =  267.968; ENMIN  =  200.976 eV                                                          
   RCLOC  =    1.203    cutoff for local pot                                                        
   LCOR   =        T    correct aug charges                                                         
   LPAW   =        T    paw PP                                                                      
   EAUG   =  477.818                                                                                
   DEXC   =    0.000                                                                                
   RMAX   =    2.360    core radius for proj-oper                                                   
   RAUG   =    1.300    factor for augmentation sphere                                              
   RDEP   =    2.393    radius for radial grids                                                     
   RDEPT  =    1.864    core radius for aug-charge                                                  
                                                                                                    
   Atomic configuration                                                                             
    9 entries                                                                                       
     n  l   j            E        occ.                                                              
     1  0  0.50     -7587.6674   2.0000                                                             
     2  0  0.50      -893.6084   2.0000                                                             
     2  1  1.50      -764.5805   6.0000                                                             
     3  0  0.50       -97.5973   2.0000                                                             
     3  1  1.50       -60.9648   6.0000                                                             
     3  2  2.50        -4.2382   8.0000                                                             
     4  0  0.50        -4.3746   1.0000                                                             
     4  1  1.50        -4.0817   0.0000                                                             
     4  3  2.50        -1.3606   0.0000                                                             
   Description                                                                                      
     l       E           TYP  RCUT    TYP  RCUT                                                     
     2     -4.2382362     23  2.300                                                                 
     2     -5.5988188     23  2.300                                                                 
     0     -4.3745797     23  2.300                                                                 
     0      5.7660125     23  2.300                                                                 
     1     -2.7211652     23  2.300                                                                 
     1     16.9860234     23  2.300                                                                 
  local pseudopotential read in
  partial core-charges read in
  partial kinetic energy density read in
  atomic valenz-charges read in
  non local Contribution for L=           2  read in
    real space projection operators read in
  non local Contribution for L=           2  read in
    real space projection operators read in
  non local Contribution for L=           0  read in
    real space projection operators read in
  non local Contribution for L=           0  read in
    real space projection operators read in
  non local Contribution for L=           1  read in
    real space projection operators read in
  non local Contribution for L=           1  read in
    real space projection operators read in
    PAW grid and wavefunctions read in
 
   number of l-projection  operators is LMAX  =           6
   number of lm-projection operators is LMMAX =          18
 
  PAW_PBE Co 02Aug2007                  :
 energy of atom  1       EATOM= -813.3670
 kinetic energy error for atom=    0.0054 (will be added to EATOM!!)
 
 
 POSCAR: Co
  positions in cartesian coordinates
  No initial velocities read in
 exchange correlation table for  LEXCH =        8
   RHO(1)=    0.500       N(1)  =     2000
   RHO(2)=  100.500       N(2)  =     4000
 


--------------------------------------------------------------------------------------------------------


 ion  position               nearest neighbor table
   1  0.333  0.667  0.250-   2 2.37   2 2.37   2 2.37   2 2.37   2 2.37   2 2.37
   2  0.667  0.333  0.750-   1 2.37   1 2.37   1 2.37   1 2.37   1 2.37   1 2.37
 
  LATTYP: Found a hexagonal cell.
 ALAT       =     2.3925845855
 C/A-ratio  =     1.6130472937
  
  Lattice vectors:
  
 A1 = (   1.1962922927,  -2.0720390317,   0.0000000000)
 A2 = (   1.1962922927,   2.0720390317,   0.0000000000)
 A3 = (   0.0000000000,   0.0000000000,   3.8593520906)


Analysis of symmetry for initial positions (statically):
=====================================================================
 Subroutine PRICEL returns:
 Original cell was already a primitive cell.
 

 Routine SETGRP: Setting up the symmetry group for a 
 hexagonal supercell.


 Subroutine GETGRP returns: Found 24 space group operations
 (whereof 12 operations were pure point group operations)
 out of a pool of 24 trial point group operations.


The static configuration has the point symmetry D_3d.
 The point group associated with its full space group is D_6h.


Analysis of symmetry for dynamics (positions and initial velocities):
=====================================================================
 Subroutine PRICEL returns:
 Original cell was already a primitive cell.
 

 Routine SETGRP: Setting up the symmetry group for a 
 hexagonal supercell.


 Subroutine GETGRP returns: Found 24 space group operations
 (whereof 12 operations were pure point group operations)
 out of a pool of 24 trial point group operations.


The dynamic configuration has the point symmetry D_3d.
 The point group associated with its full space group is D_6h.


Analysis of structural, dynamic, and magnetic symmetry:
=====================================================================
 Subroutine PRICEL returns:
 Original cell was already a primitive cell.
 

 Routine SETGRP: Setting up the symmetry group for a 
 hexagonal supercell.


 Subroutine GETGRP returns: Found 24 space group operations
 (whereof 12 operations were pure point group operations)
 out of a pool of 24 trial point group operations.


The overall configuration has the point symmetry D_3d.
 The point group associated with its full space group is D_6h.


 Subroutine INISYM returns: Found 24 space group operations
 (whereof 12 operations are pure point group operations),
 and found     1 'primitive' translations


----------------------------------------------------------------------------------------

                                     Primitive cell                                     

  volume of cell :      19.1328

  direct lattice vectors                    reciprocal lattice vectors
     1.196292293 -2.072039032  0.000000000     0.417958055 -0.241308196  0.000000000
     1.196292293  2.072039032  0.000000000     0.417958055  0.241308196  0.000000000
     0.000000000  0.000000000  3.859352091     0.000000000  0.000000000  0.259110850

  length of vectors
     2.392584585  2.392584585  3.859352091     0.482616391  0.482616391  0.259110850

  position of ions in fractional coordinates (direct lattice)
     0.333333333  0.666666667  0.250000000
     0.666666667  0.333333333  0.750000000

  ion indices of the primitive-cell ions
   primitive index   ion index
                 1           1
                 2           2

----------------------------------------------------------------------------------------

 
 
 KPOINTS: Automatic mesh                          

Automatic generation of k-mesh.
 Grid dimensions read from file:
 generate k-points for:   12   12    8

 Generating k-lattice:

  Cartesian coordinates                     Fractional coordinates (reciprocal lattice)
     0.034829838 -0.020109016  0.000000000     0.083333333  0.000000000  0.000000000
     0.034829838  0.020109016  0.000000000     0.000000000  0.083333333  0.000000000
     0.000000000  0.000000000  0.032388856     0.000000000  0.000000000  0.125000000

  Length of vectors
     0.040218033  0.040218033  0.032388856

  Shift w.r.t. Gamma in fractional coordinates (k-lattice)
     0.000000000  0.000000000  0.000000000

 
 Subroutine IBZKPT returns following result:
 ===========================================
 
 Found     95 irreducible k-points:
 
 Following reciprocal coordinates:
            Coordinates               Weight
  0.000000  0.000000  0.000000      1.000000
  0.083333  0.000000  0.000000      6.000000
  0.166667  0.000000  0.000000      6.000000
  0.250000  0.000000  0.000000      6.000000
  0.333333  0.000000  0.000000      6.000000
  0.416667  0.000000  0.000000      6.000000
  0.500000  0.000000  0.000000      3.000000
  0.083333  0.083333  0.000000      6.000000
  0.166667  0.083333  0.000000     12.000000
  0.250000  0.083333  0.000000     12.000000
  0.333333  0.083333  0.000000     12.000000
  0.416667  0.083333  0.000000     12.000000
  0.166667  0.166667  0.000000      6.000000
  0.250000  0.166667  0.000000     12.000000
  0.333333  0.166667  0.000000     12.000000
  0.416667  0.166667  0.000000      6.000000
  0.250000  0.250000  0.000000      6.000000
  0.333333  0.250000  0.000000     12.000000
  0.333333  0.333333  0.000000      2.000000
  0.000000  0.000000  0.125000      2.000000
  0.083333  0.000000  0.125000     12.000000
  0.166667  0.000000  0.125000     12.000000
  0.250000  0.000000  0.125000     12.000000
  0.333333  0.000000  0.125000     12.000000
  0.416667  0.000000  0.125000     12.000000
  0.500000  0.000000  0.125000      6.000000
  0.083333  0.083333  0.125000     12.000000
  0.166667  0.083333  0.125000     24.000000
  0.250000  0.083333  0.125000     24.000000
  0.333333  0.083333  0.125000     24.000000
  0.416667  0.083333  0.125000     24.000000
  0.166667  0.166667  0.125000     12.000000
  0.250000  0.166667  0.125000     24.000000
  0.333333  0.166667  0.125000     24.000000
  0.416667  0.166667  0.125000     12.000000
  0.250000  0.250000  0.125000     12.000000
  0.333333  0.250000  0.125000     24.000000
  0.333333  0.333333  0.125000      4.000000
  0.000000  0.000000  0.250000      2.000000
  0.083333  0.000000  0.250000     12.000000
  0.166667  0.000000  0.250000     12.000000
  0.250000  0.000000  0.250000     12.000000
  0.333333  0.000000  0.250000     12.000000
  0.416667  0.000000  0.250000     12.000000
  0.500000  0.000000  0.250000      6.000000
  0.083333  0.083333  0.250000     12.000000
  0.166667  0.083333  0.250000     24.000000
  0.250000  0.083333  0.250000     24.000000
  0.333333  0.083333  0.250000     24.000000
  0.416667  0.083333  0.250000     24.000000
  0.166667  0.166667  0.250000     12.000000
  0.250000  0.166667  0.250000     24.000000
  0.333333  0.166667  0.250000     24.000000
  0.416667  0.166667  0.250000     12.000000
  0.250000  0.250000  0.250000     12.000000
  0.333333  0.250000  0.250000     24.000000
  0.333333  0.333333  0.250000      4.000000
  0.000000  0.000000  0.375000      2.000000
  0.083333  0.000000  0.375000     12.000000
  0.166667  0.000000  0.375000     12.000000
  0.250000  0.000000  0.375000     12.000000
  0.333333  0.000000  0.375000     12.000000
  0.416667  0.000000  0.375000     12.000000
  0.500000  0.000000  0.375000      6.000000
  0.083333  0.083333  0.375000     12.000000
  0.166667  0.083333  0.375000     24.000000
  0.250000  0.083333  0.375000     24.000000
  0.333333  0.083333  0.375000     24.000000
  0.416667  0.083333  0.375000     24.000000
  0.166667  0.166667  0.375000     12.000000
  0.250000  0.166667  0.375000     24.000000
  0.333333  0.166667  0.375000     24.000000
  0.416667  0.166667  0.375000     12.000000
  0.250000  0.250000  0.375000     12.000000
  0.333333  0.250000  0.375000     24.000000
  0.333333  0.333333  0.375000      4.000000
  0.000000  0.000000  0.500000      1.000000
  0.083333  0.000000  0.500000      6.000000
  0.166667  0.000000  0.500000      6.000000
  0.250000  0.000000  0.500000      6.000000
  0.333333  0.000000  0.500000      6.000000
  0.416667  0.000000  0.500000      6.000000
  0.500000  0.000000  0.500000      3.000000
  0.083333  0.083333  0.500000      6.000000
  0.166667  0.083333  0.500000     12.000000
  0.250000  0.083333  0.500000     12.000000
  0.333333  0.083333  0.500000     12.000000
  0.416667  0.083333  0.500000     12.000000
  0.166667  0.166667  0.500000      6.000000
  0.250000  0.166667  0.500000     12.000000
  0.333333  0.166667  0.500000     12.000000
  0.416667  0.166667  0.500000      6.000000
  0.250000  0.250000  0.500000      6.000000
  0.333333  0.250000  0.500000     12.000000
  0.333333  0.333333  0.500000      2.000000
 
 Following cartesian coordinates:
            Coordinates               Weight
  0.000000  0.000000  0.000000      1.000000
  0.034830 -0.020109  0.000000      6.000000
  0.069660 -0.040218  0.000000      6.000000
  0.104490 -0.060327  0.000000      6.000000
  0.139319 -0.080436  0.000000      6.000000
  0.174149 -0.100545  0.000000      6.000000
  0.208979 -0.120654  0.000000      3.000000
  0.069660  0.000000  0.000000      6.000000
  0.104490 -0.020109  0.000000     12.000000
  0.139319 -0.040218  0.000000     12.000000
  0.174149 -0.060327  0.000000     12.000000
  0.208979 -0.080436  0.000000     12.000000
  0.139319  0.000000  0.000000      6.000000
  0.174149 -0.020109  0.000000     12.000000
  0.208979 -0.040218  0.000000     12.000000
  0.243809 -0.060327  0.000000      6.000000
  0.208979  0.000000  0.000000      6.000000
  0.243809 -0.020109  0.000000     12.000000
  0.278639  0.000000  0.000000      2.000000
  0.000000  0.000000  0.032389      2.000000
  0.034830 -0.020109  0.032389     12.000000
  0.069660 -0.040218  0.032389     12.000000
  0.104490 -0.060327  0.032389     12.000000
  0.139319 -0.080436  0.032389     12.000000
  0.174149 -0.100545  0.032389     12.000000
  0.208979 -0.120654  0.032389      6.000000
  0.069660  0.000000  0.032389     12.000000
  0.104490 -0.020109  0.032389     24.000000
  0.139319 -0.040218  0.032389     24.000000
  0.174149 -0.060327  0.032389     24.000000
  0.208979 -0.080436  0.032389     24.000000
  0.139319  0.000000  0.032389     12.000000
  0.174149 -0.020109  0.032389     24.000000
  0.208979 -0.040218  0.032389     24.000000
  0.243809 -0.060327  0.032389     12.000000
  0.208979  0.000000  0.032389     12.000000
  0.243809 -0.020109  0.032389     24.000000
  0.278639  0.000000  0.032389      4.000000
  0.000000  0.000000  0.064778      2.000000
  0.034830 -0.020109  0.064778     12.000000
  0.069660 -0.040218  0.064778     12.000000
  0.104490 -0.060327  0.064778     12.000000
  0.139319 -0.080436  0.064778     12.000000
  0.174149 -0.100545  0.064778     12.000000
  0.208979 -0.120654  0.064778      6.000000
  0.069660  0.000000  0.064778     12.000000
  0.104490 -0.020109  0.064778     24.000000
  0.139319 -0.040218  0.064778     24.000000
  0.174149 -0.060327  0.064778     24.000000
  0.208979 -0.080436  0.064778     24.000000
  0.139319  0.000000  0.064778     12.000000
  0.174149 -0.020109  0.064778     24.000000
  0.208979 -0.040218  0.064778     24.000000
  0.243809 -0.060327  0.064778     12.000000
  0.208979  0.000000  0.064778     12.000000
  0.243809 -0.020109  0.064778     24.000000
  0.278639  0.000000  0.064778      4.000000
  0.000000  0.000000  0.097167      2.000000
  0.034830 -0.020109  0.097167     12.000000
  0.069660 -0.040218  0.097167     12.000000
  0.104490 -0.060327  0.097167     12.000000
  0.139319 -0.080436  0.097167     12.000000
  0.174149 -0.100545  0.097167     12.000000
  0.208979 -0.120654  0.097167      6.000000
  0.069660  0.000000  0.097167     12.000000
  0.104490 -0.020109  0.097167     24.000000
  0.139319 -0.040218  0.097167     24.000000
  0.174149 -0.060327  0.097167     24.000000
  0.208979 -0.080436  0.097167     24.000000
  0.139319  0.000000  0.097167     12.000000
  0.174149 -0.020109  0.097167     24.000000
  0.208979 -0.040218  0.097167     24.000000
  0.243809 -0.060327  0.097167     12.000000
  0.208979  0.000000  0.097167     12.000000
  0.243809 -0.020109  0.097167     24.000000
  0.278639  0.000000  0.097167      4.000000
  0.000000  0.000000  0.129555      1.000000
  0.034830 -0.020109  0.129555      6.000000
  0.069660 -0.040218  0.129555      6.000000
  0.104490 -0.060327  0.129555      6.000000
  0.139319 -0.080436  0.129555      6.000000
  0.174149 -0.100545  0.129555      6.000000
  0.208979 -0.120654  0.129555      3.000000
  0.069660  0.000000  0.129555      6.000000
  0.104490 -0.020109  0.129555     12.000000
  0.139319 -0.040218  0.129555     12.000000
  0.174149 -0.060327  0.129555     12.000000
  0.208979 -0.080436  0.129555     12.000000
  0.139319  0.000000  0.129555      6.000000
  0.174149 -0.020109  0.129555     12.000000
  0.208979 -0.040218  0.129555     12.000000
  0.243809 -0.060327  0.129555      6.000000
  0.208979  0.000000  0.129555      6.000000
  0.243809 -0.020109  0.129555     12.000000
  0.278639  0.000000  0.129555      2.000000
 


--------------------------------------------------------------------------------------------------------




 Dimension of arrays:
   k-points           NKPTS =     95   k-points in BZ     NKDIM =     95   number of bands    NBANDS=     28
   number of dos      NEDOS =    301   number of ions     NIONS =      2
   non local maximal  LDIM  =      6   non local SUM 2l+1 LMDIM =     18
   total plane-waves  NPLWV =   7168
   max r-space proj   IRMAX =      1   max aug-charges    IRDMAX=  14973
   dimension x,y,z NGX =    16 NGY =   16 NGZ =   28
   dimension x,y,z NGXF=    32 NGYF=   32 NGZF=   56
   support grid    NGXF=    32 NGYF=   32 NGZF=   56
   ions per type =               2
   NGX,Y,Z   is equivalent  to a cutoff of  11.12, 11.12, 12.06 a.u.
   NGXF,Y,Z  is equivalent  to a cutoff of  22.23, 22.23, 24.12 a.u.

 SYSTEM =  Co-hcc                                  
 POSCAR =  Co                                      

 Startparameter for this run:
   NWRITE =      2    write-flag & timer
   PREC   = accura    normal or accurate (medium, high low for compatibility)
   ISTART =      0    job   : 0-new  1-cont  2-samecut
   ICHARG =      2    charge: 1-file 2-atom 10-const
   ISPIN  =      2    spin polarized calculation?
   LNONCOLLINEAR =      F non collinear calculations
   LSORBIT =      F    spin-orbit coupling
   INIWAV =      1    electr: 0-lowe 1-rand  2-diag
   LASPH  =      F    aspherical Exc in radial PAW
 Electronic Relaxation 1
   ENCUT  =  425.0 eV  31.24 Ry    5.59 a.u.   4.02  4.02  6.49*2*pi/ulx,y,z
   ENINI  =  425.0     initial cutoff
   ENAUG  =  477.8 eV  augmentation charge cutoff
   NELM   =    100;   NELMIN=  2; NELMDL= -5     # of ELM steps 
   EDIFF  = 0.1E-05   stopping-criterion for ELM
   LREAL  =      F    real-space projection
   NLSPLINE    = F    spline interpolate recip. space projectors
   LCOMPAT=      F    compatible to vasp.4.4
   GGA_COMPAT  = T    GGA compatible to vasp.4.4-vasp.4.6
   LMAXPAW     = -100 max onsite density
   LMAXMIX     =    2 max onsite mixed and CHGCAR
   VOSKOWN=      0    Vosko Wilk Nusair interpolation
   ROPT   =    0.00000
 Ionic relaxation
   EDIFFG = -.2E-01   stopping-criterion for IOM
   NSW    =    100    number of steps for IOM
   NBLOCK =      1;   KBLOCK =    100    inner block; outer block 
   IBRION =      2    ionic relax: 0-MD 1-quasi-New 2-CG
   NFREE  =      1    steps in history (QN), initial steepest desc. (CG)
   ISIF   =      2    stress and relaxation
   IWAVPR =     11    prediction:  0-non 1-charg 2-wave 3-comb
   ISYM   =      1    0-nonsym 1-usesym 2-fastsym
   LCORR  =      T    Harris-Foulkes like correction to forces

   POTIM  = 0.5000    time-step for ionic-motion
   TEIN   =    0.0    initial temperature
   TEBEG  =    0.0;   TEEND  =   0.0 temperature during run
   SMASS  =  -3.00    Nose mass-parameter (am)
   estimated Nose-frequenzy (Omega)   =  0.10E-29 period in steps = 0.13E+47 mass=  -0.131E-27a.u.
   SCALEE = 1.0000    scale energy and forces
   NPACO  =    256;   APACO  = 10.0  distance and # of slots for P.C.
   PSTRESS=    0.0 pullay stress

  Mass of Ions in am
   POMASS =  58.93
  Ionic Valenz
   ZVAL   =   9.00
  Atomic Wigner-Seitz radii
   RWIGS  =  -1.00
  virtual crystal weights 
   VCA    =   1.00
   NELECT =      18.0000    total number of electrons
   NUPDOWN=      -1.0000    fix difference up-down

 DOS related values:
   EMIN   =  10.00;   EMAX   =-10.00  energy-range for DOS
   EFERMI =   0.00
   ISMEAR =     0;   SIGMA  =   0.05  broadening in eV -4-tet -1-fermi 0-gaus

 Electronic relaxation 2 (details)
   IALGO  =     38    algorithm
   LDIAG  =      T    sub-space diagonalisation (order eigenvalues)
   LSUBROT=      F    optimize rotation matrix (better conditioning)
   TURBO    =      0    0=normal 1=particle mesh
   IRESTART =      0    0=no restart 2=restart with 2 vectors
   NREBOOT  =      0    no. of reboots
   NMIN     =      0    reboot dimension
   EREF     =   0.00    reference energy to select bands
   IMIX   =      4    mixing-type and parameters
     AMIX     =   0.40;   BMIX     =  1.00
     AMIX_MAG =   1.60;   BMIX_MAG =  1.00
     AMIN     =   0.10
     WC   =   100.;   INIMIX=   1;  MIXPRE=   1;  MAXMIX= -45

 Intra band minimization:
   WEIMIN = 0.0010     energy-eigenvalue tresh-hold
   EBREAK =  0.89E-08  absolut break condition
   DEPER  =   0.30     relativ break condition  

   TIME   =   0.40     timestep for ELM

  volume/ion in A,a.u.               =       9.57        64.56
  Fermi-wavevector in a.u.,A,eV,Ry     =   1.604128  3.031363 35.010890  2.573228
  Thomas-Fermi vector in A             =   2.700682
 
 Write flags
   LWAVE        =      F    write WAVECAR
   LDOWNSAMPLE  =      F    k-point downsampling of WAVECAR
   LCHARG       =      F    write CHGCAR
   LVTOT        =      F    write LOCPOT, total local potential
   LVHAR        =      F    write LOCPOT, Hartree potential only
   LELF         =      F    write electronic localiz. function (ELF)
   LORBIT       =     11    0 simple, 1 ext, 2 COOP (PROOUT), +10 PAW based schemes


 Dipole corrections
   LMONO  =      F    monopole corrections only (constant potential shift)
   LDIPOL =      F    correct potential (dipole corrections)
   IDIPOL =      0    1-x, 2-y, 3-z, 4-all directions 
   EPSILON=  1.0000000 bulk dielectric constant

 Exchange correlation treatment:
   GGA     =    --    GGA type
   LEXCH   =     8    internal setting for exchange type
   LIBXC   =     F    Libxc                    
   VOSKOWN =     0    Vosko Wilk Nusair interpolation
   LHFCALC =     F    Hartree Fock is set to
   LHFONE  =     F    Hartree Fock one center treatment
   AEXX    =    0.0000 exact exchange contribution

 Linear response parameters
   LEPSILON=     F    determine dielectric tensor
   LRPA    =     F    only Hartree local field effects (RPA)
   LNABLA  =     F    use nabla operator in PAW spheres
   LVEL    =     F    velocity operator in full k-point grid
   CSHIFT  =0.1000    complex shift for real part using Kramers Kronig
   OMEGAMAX=  -1.0    maximum frequency
   DEG_THRESHOLD= 0.2000000E-02 threshold for treating states as degnerate
   RTIME   =   -0.100 relaxation time in fs
  (WPLASMAI=    0.000 imaginary part of plasma frequency in eV, 0.658/RTIME)
   DFIELD  = 0.0000000 0.0000000 0.0000000 field for delta impulse in time
 
  Optional k-point grid parameters
   LKPOINTS_OPT  =     F    use optional k-point grid
   KPOINTS_OPT_MODE=     1    mode for optional k-point grid
 
 Orbital magnetization related:
   ORBITALMAG=     F  switch on orbital magnetization
   LCHIMAG   =     F  perturbation theory with respect to B field
   DQ        =  0.001000  dq finite difference perturbation B field
   LLRAUG    =     F  two centre corrections for induced B field



--------------------------------------------------------------------------------------------------------


 conjugate gradient relaxation of ions
 charge density and potential will be updated during run
 spin polarized calculation
 Variant of blocked Davidson
 Davidson routine will perform the subspace rotation
 perform sub-space diagonalisation
    after iterative eigenvector-optimisation
 modified Broyden-mixing scheme, WC =      100.0
 initial mixing is a Kerker type mixing with AMIX =  0.4000 and BMIX =      1.0000
 Hartree-type preconditioning will be used
 using additional bands           19
 reciprocal scheme for non local part
 use partial core corrections
 calculate Harris-corrections to forces 
   (improved forces if not selfconsistent)
 use gradient corrections 
 use of overlap-Matrix (Vanderbilt PP)
 Gauss-broadening in eV      SIGMA  =   0.05


--------------------------------------------------------------------------------------------------------


  energy-cutoff  :      425.00
  volume of cell :       19.13
      direct lattice vectors                 reciprocal lattice vectors
     1.196292293 -2.072039032  0.000000000     0.417958055 -0.241308196  0.000000000
     1.196292293  2.072039032  0.000000000     0.417958055  0.241308196  0.000000000
     0.000000000  0.000000000  3.859352091     0.000000000  0.000000000  0.259110850

  length of vectors
     2.392584585  2.392584585  3.859352091     0.482616391  0.482616391  0.259110850


 
 k-points in units of 2pi/SCALE and weight: Automatic mesh                          
   0.00000000  0.00000000  0.00000000       0.001
   0.03482984 -0.02010902  0.00000000       0.005
   0.06965968 -0.04021803  0.00000000       0.005
   0.10448951 -0.06032705  0.00000000       0.005
   0.13931935 -0.08043607  0.00000000       0.005
   0.17414919 -0.10054508  0.00000000       0.005
   0.20897903 -0.12065410  0.00000000       0.003
   0.06965968  0.00000000  0.00000000       0.005
   0.10448951 -0.02010902  0.00000000       0.010
   0.13931935 -0.04021803  0.00000000       0.010
   0.17414919 -0.06032705  0.00000000       0.010
   0.20897903 -0.08043607  0.00000000       0.010
   0.13931935  0.00000000  0.00000000       0.005
   0.17414919 -0.02010902  0.00000000       0.010
   0.20897903 -0.04021803  0.00000000       0.010
   0.24380887 -0.06032705  0.00000000       0.005
   0.20897903  0.00000000  0.00000000       0.005
   0.24380887 -0.02010902  0.00000000       0.010
   0.27863870  0.00000000  0.00000000       0.002
   0.00000000  0.00000000  0.03238886       0.002
   0.03482984 -0.02010902  0.03238886       0.010
   0.06965968 -0.04021803  0.03238886       0.010
   0.10448951 -0.06032705  0.03238886       0.010
   0.13931935 -0.08043607  0.03238886       0.010
   0.17414919 -0.10054508  0.03238886       0.010
   0.20897903 -0.12065410  0.03238886       0.005
   0.06965968  0.00000000  0.03238886       0.010
   0.10448951 -0.02010902  0.03238886       0.021
   0.13931935 -0.04021803  0.03238886       0.021
   0.17414919 -0.06032705  0.03238886       0.021
   0.20897903 -0.08043607  0.03238886       0.021
   0.13931935  0.00000000  0.03238886       0.010
   0.17414919 -0.02010902  0.03238886       0.021
   0.20897903 -0.04021803  0.03238886       0.021
   0.24380887 -0.06032705  0.03238886       0.010
   0.20897903  0.00000000  0.03238886       0.010
   0.24380887 -0.02010902  0.03238886       0.021
   0.27863870  0.00000000  0.03238886       0.003
   0.00000000  0.00000000  0.06477771       0.002
   0.03482984 -0.02010902  0.06477771       0.010
   0.06965968 -0.04021803  0.06477771       0.010
   0.10448951 -0.06032705  0.06477771       0.010
   0.13931935 -0.08043607  0.06477771       0.010
   0.17414919 -0.10054508  0.06477771       0.010
   0.20897903 -0.12065410  0.06477771       0.005
   0.06965968  0.00000000  0.06477771       0.010
   0.10448951 -0.02010902  0.06477771       0.021
   0.13931935 -0.04021803  0.06477771       0.021
   0.17414919 -0.06032705  0.06477771       0.021
   0.20897903 -0.08043607  0.06477771       0.021
   0.13931935  0.00000000  0.06477771       0.010
   0.17414919 -0.02010902  0.06477771       0.021
   0.20897903 -0.04021803  0.06477771       0.021
   0.24380887 -0.06032705  0.06477771       0.010
   0.20897903  0.00000000  0.06477771       0.010
   0.24380887 -0.02010902  0.06477771       0.021
   0.27863870  0.00000000  0.06477771       0.003
   0.00000000  0.00000000  0.09716657       0.002
   0.03482984 -0.02010902  0.09716657       0.010
   0.06965968 -0.04021803  0.09716657       0.010
   0.10448951 -0.06032705  0.09716657       0.010
   0.13931935 -0.08043607  0.09716657       0.010
   0.17414919 -0.10054508  0.09716657       0.010
   0.20897903 -0.12065410  0.09716657       0.005
   0.06965968  0.00000000  0.09716657       0.010
   0.10448951 -0.02010902  0.09716657       0.021
   0.13931935 -0.04021803  0.09716657       0.021
   0.17414919 -0.06032705  0.09716657       0.021
   0.20897903 -0.08043607  0.09716657       0.021
   0.13931935  0.00000000  0.09716657       0.010
   0.17414919 -0.02010902  0.09716657       0.021
   0.20897903 -0.04021803  0.09716657       0.021
   0.24380887 -0.06032705  0.09716657       0.010
   0.20897903  0.00000000  0.09716657       0.010
   0.24380887 -0.02010902  0.09716657       0.021
   0.27863870  0.00000000  0.09716657       0.003
   0.00000000  0.00000000  0.12955542       0.001
   0.03482984 -0.02010902  0.12955542       0.005
   0.06965968 -0.04021803  0.12955542       0.005
   0.10448951 -0.06032705  0.12955542       0.005
   0.13931935 -0.08043607  0.12955542       0.005
   0.17414919 -0.10054508  0.12955542       0.005
   0.20897903 -0.12065410  0.12955542       0.003
   0.06965968  0.00000000  0.12955542       0.005
   0.10448951 -0.02010902  0.12955542       0.010
   0.13931935 -0.04021803  0.12955542       0.010
   0.17414919 -0.06032705  0.12955542       0.010
   0.20897903 -0.08043607  0.12955542       0.010
   0.13931935  0.00000000  0.12955542       0.005
   0.17414919 -0.02010902  0.12955542       0.010
   0.20897903 -0.04021803  0.12955542       0.010
   0.24380887 -0.06032705  0.12955542       0.005
   0.20897903  0.00000000  0.12955542       0.005
   0.24380887 -0.02010902  0.12955542       0.010
   0.27863870  0.00000000  0.12955542       0.002
 
 k-points in reciprocal lattice and weights: Automatic mesh                          
   0.00000000  0.00000000  0.00000000       0.001
   0.08333333  0.00000000  0.00000000       0.005
   0.16666667  0.00000000  0.00000000       0.005
   0.25000000  0.00000000  0.00000000       0.005
   0.33333333  0.00000000  0.00000000       0.005
   0.41666667  0.00000000  0.00000000       0.005
   0.50000000  0.00000000  0.00000000       0.003
   0.08333333  0.08333333  0.00000000       0.005
   0.16666667  0.08333333  0.00000000       0.010
   0.25000000  0.08333333  0.00000000       0.010
   0.33333333  0.08333333  0.00000000       0.010
   0.41666667  0.08333333  0.00000000       0.010
   0.16666667  0.16666667  0.00000000       0.005
   0.25000000  0.16666667  0.00000000       0.010
   0.33333333  0.16666667  0.00000000       0.010
   0.41666667  0.16666667  0.00000000       0.005
   0.25000000  0.25000000  0.00000000       0.005
   0.33333333  0.25000000  0.00000000       0.010
   0.33333333  0.33333333  0.00000000       0.002
   0.00000000  0.00000000  0.12500000       0.002
   0.08333333  0.00000000  0.12500000       0.010
   0.16666667  0.00000000  0.12500000       0.010
   0.25000000  0.00000000  0.12500000       0.010
   0.33333333  0.00000000  0.12500000       0.010
   0.41666667  0.00000000  0.12500000       0.010
   0.50000000  0.00000000  0.12500000       0.005
   0.08333333  0.08333333  0.12500000       0.010
   0.16666667  0.08333333  0.12500000       0.021
   0.25000000  0.08333333  0.12500000       0.021
   0.33333333  0.08333333  0.12500000       0.021
   0.41666667  0.08333333  0.12500000       0.021
   0.16666667  0.16666667  0.12500000       0.010
   0.25000000  0.16666667  0.12500000       0.021
   0.33333333  0.16666667  0.12500000       0.021
   0.41666667  0.16666667  0.12500000       0.010
   0.25000000  0.25000000  0.12500000       0.010
   0.33333333  0.25000000  0.12500000       0.021
   0.33333333  0.33333333  0.12500000       0.003
   0.00000000  0.00000000  0.25000000       0.002
   0.08333333  0.00000000  0.25000000       0.010
   0.16666667  0.00000000  0.25000000       0.010
   0.25000000  0.00000000  0.25000000       0.010
   0.33333333  0.00000000  0.25000000       0.010
   0.41666667  0.00000000  0.25000000       0.010
   0.50000000  0.00000000  0.25000000       0.005
   0.08333333  0.08333333  0.25000000       0.010
   0.16666667  0.08333333  0.25000000       0.021
   0.25000000  0.08333333  0.25000000       0.021
   0.33333333  0.08333333  0.25000000       0.021
   0.41666667  0.08333333  0.25000000       0.021
   0.16666667  0.16666667  0.25000000       0.010
   0.25000000  0.16666667  0.25000000       0.021
   0.33333333  0.16666667  0.25000000       0.021
   0.41666667  0.16666667  0.25000000       0.010
   0.25000000  0.25000000  0.25000000       0.010
   0.33333333  0.25000000  0.25000000       0.021
   0.33333333  0.33333333  0.25000000       0.003
   0.00000000  0.00000000  0.37500000       0.002
   0.08333333  0.00000000  0.37500000       0.010
   0.16666667  0.00000000  0.37500000       0.010
   0.25000000  0.00000000  0.37500000       0.010
   0.33333333  0.00000000  0.37500000       0.010
   0.41666667  0.00000000  0.37500000       0.010
   0.50000000  0.00000000  0.37500000       0.005
   0.08333333  0.08333333  0.37500000       0.010
   0.16666667  0.08333333  0.37500000       0.021
   0.25000000  0.08333333  0.37500000       0.021
   0.33333333  0.08333333  0.37500000       0.021
   0.41666667  0.08333333  0.37500000       0.021
   0.16666667  0.16666667  0.37500000       0.010
   0.25000000  0.16666667  0.37500000       0.021
   0.33333333  0.16666667  0.37500000       0.021
   0.41666667  0.16666667  0.37500000       0.010
   0.25000000  0.25000000  0.37500000       0.010
   0.33333333  0.25000000  0.37500000       0.021
   0.33333333  0.33333333  0.37500000       0.003
   0.00000000  0.00000000  0.50000000       0.001
   0.08333333  0.00000000  0.50000000       0.005
   0.16666667  0.00000000  0.50000000       0.005
   0.25000000  0.00000000  0.50000000       0.005
   0.33333333  0.00000000  0.50000000       0.005
   0.41666667  0.00000000  0.50000000       0.005
   0.50000000  0.00000000  0.50000000       0.003
   0.08333333  0.08333333  0.50000000       0.005
   0.16666667  0.08333333  0.50000000       0.010
   0.25000000  0.08333333  0.50000000       0.010
   0.33333333  0.08333333  0.50000000       0.010
   0.41666667  0.08333333  0.50000000       0.010
   0.16666667  0.16666667  0.50000000       0.005
   0.25000000  0.16666667  0.50000000       0.010
   0.33333333  0.16666667  0.50000000       0.010
   0.41666667  0.16666667  0.50000000       0.005
   0.25000000  0.25000000  0.50000000       0.005
   0.33333333  0.25000000  0.50000000       0.010
   0.33333333  0.33333333  0.50000000       0.002
 
 position of ions in fractional coordinates (direct lattice) 
   0.33333333  0.66666667  0.25000000
   0.66666667  0.33333333  0.75000000
 
 position of ions in cartesian coordinates  (Angst):
   1.19629229  0.69067968  0.96483802
   1.19629229 -0.69067968  2.89451407
 


--------------------------------------------------------------------------------------------------------


 k-point   1 :   0.0000 0.0000 0.0000  plane waves:     379
 k-point   2 :   0.0833 0.0000 0.0000  plane waves:     381
 k-point   3 :   0.1667 0.0000 0.0000  plane waves:     373
 k-point   4 :   0.2500 0.0000 0.0000  plane waves:     381
 k-point   5 :   0.3333 0.0000 0.0000  plane waves:     383
 k-point   6 :   0.4167 0.0000 0.0000  plane waves:     373
 k-point   7 :   0.5000 0.0000 0.0000  plane waves:     382
 k-point   8 :   0.0833 0.0833 0.0000  plane waves:     372
 k-point   9 :   0.1667 0.0833 0.0000  plane waves:     379
 k-point  10 :   0.2500 0.0833 0.0000  plane waves:     383
 k-point  11 :   0.3333 0.0833 0.0000  plane waves:     383
 k-point  12 :   0.4167 0.0833 0.0000  plane waves:     387
 k-point  13 :   0.1667 0.1667 0.0000  plane waves:     376
 k-point  14 :   0.2500 0.1667 0.0000  plane waves:     382
 k-point  15 :   0.3333 0.1667 0.0000  plane waves:     385
 k-point  16 :   0.4167 0.1667 0.0000  plane waves:     382
 k-point  17 :   0.2500 0.2500 0.0000  plane waves:     388
 k-point  18 :   0.3333 0.2500 0.0000  plane waves:     385
 k-point  19 :   0.3333 0.3333 0.0000  plane waves:     384
 k-point  20 :   0.0000 0.0000 0.1250  plane waves:     379
 k-point  21 :   0.0833 0.0000 0.1250  plane waves:     376
 k-point  22 :   0.1667 0.0000 0.1250  plane waves:     375
 k-point  23 :   0.2500 0.0000 0.1250  plane waves:     376
 k-point  24 :   0.3333 0.0000 0.1250  plane waves:     381
 k-point  25 :   0.4167 0.0000 0.1250  plane waves:     384
 k-point  26 :   0.5000 0.0000 0.1250  plane waves:     382
 k-point  27 :   0.0833 0.0833 0.1250  plane waves:     375
 k-point  28 :   0.1667 0.0833 0.1250  plane waves:     379
 k-point  29 :   0.2500 0.0833 0.1250  plane waves:     381
 k-point  30 :   0.3333 0.0833 0.1250  plane waves:     387
 k-point  31 :   0.4167 0.0833 0.1250  plane waves:     384
 k-point  32 :   0.1667 0.1667 0.1250  plane waves:     385
 k-point  33 :   0.2500 0.1667 0.1250  plane waves:     384
 k-point  34 :   0.3333 0.1667 0.1250  plane waves:     385
 k-point  35 :   0.4167 0.1667 0.1250  plane waves:     381
 k-point  36 :   0.2500 0.2500 0.1250  plane waves:     386
 k-point  37 :   0.3333 0.2500 0.1250  plane waves:     383
 k-point  38 :   0.3333 0.3333 0.1250  plane waves:     375
 k-point  39 :   0.0000 0.0000 0.2500  plane waves:     361
 k-point  40 :   0.0833 0.0000 0.2500  plane waves:     366
 k-point  41 :   0.1667 0.0000 0.2500  plane waves:     374
 k-point  42 :   0.2500 0.0000 0.2500  plane waves:     380
 k-point  43 :   0.3333 0.0000 0.2500  plane waves:     381
 k-point  44 :   0.4167 0.0000 0.2500  plane waves:     385
 k-point  45 :   0.5000 0.0000 0.2500  plane waves:     380
 k-point  46 :   0.0833 0.0833 0.2500  plane waves:     372
 k-point  47 :   0.1667 0.0833 0.2500  plane waves:     377
 k-point  48 :   0.2500 0.0833 0.2500  plane waves:     381
 k-point  49 :   0.3333 0.0833 0.2500  plane waves:     386
 k-point  50 :   0.4167 0.0833 0.2500  plane waves:     383
 k-point  51 :   0.1667 0.1667 0.2500  plane waves:     387
 k-point  52 :   0.2500 0.1667 0.2500  plane waves:     385
 k-point  53 :   0.3333 0.1667 0.2500  plane waves:     385
 k-point  54 :   0.4167 0.1667 0.2500  plane waves:     380
 k-point  55 :   0.2500 0.2500 0.2500  plane waves:     379
 k-point  56 :   0.3333 0.2500 0.2500  plane waves:     386
 k-point  57 :   0.3333 0.3333 0.2500  plane waves:     378
 k-point  58 :   0.0000 0.0000 0.3750  plane waves:     361
 k-point  59 :   0.0833 0.0000 0.3750  plane waves:     363
 k-point  60 :   0.1667 0.0000 0.3750  plane waves:     370
 k-point  61 :   0.2500 0.0000 0.3750  plane waves:     378
 k-point  62 :   0.3333 0.0000 0.3750  plane waves:     381
 k-point  63 :   0.4167 0.0000 0.3750  plane waves:     380
 k-point  64 :   0.5000 0.0000 0.3750  plane waves:     376
 k-point  65 :   0.0833 0.0833 0.3750  plane waves:     368
 k-point  66 :   0.1667 0.0833 0.3750  plane waves:     376
 k-point  67 :   0.2500 0.0833 0.3750  plane waves:     383
 k-point  68 :   0.3333 0.0833 0.3750  plane waves:     381
 k-point  69 :   0.4167 0.0833 0.3750  plane waves:     386
 k-point  70 :   0.1667 0.1667 0.3750  plane waves:     381
 k-point  71 :   0.2500 0.1667 0.3750  plane waves:     380
 k-point  72 :   0.3333 0.1667 0.3750  plane waves:     384
 k-point  73 :   0.4167 0.1667 0.3750  plane waves:     389
 k-point  74 :   0.2500 0.2500 0.3750  plane waves:     381
 k-point  75 :   0.3333 0.2500 0.3750  plane waves:     385
 k-point  76 :   0.3333 0.3333 0.3750  plane waves:     381
 k-point  77 :   0.0000 0.0000 0.5000  plane waves:     360
 k-point  78 :   0.0833 0.0000 0.5000  plane waves:     358
 k-point  79 :   0.1667 0.0000 0.5000  plane waves:     372
 k-point  80 :   0.2500 0.0000 0.5000  plane waves:     378
 k-point  81 :   0.3333 0.0000 0.5000  plane waves:     382
 k-point  82 :   0.4167 0.0000 0.5000  plane waves:     380
 k-point  83 :   0.5000 0.0000 0.5000  plane waves:     380
 k-point  84 :   0.0833 0.0833 0.5000  plane waves:     366
 k-point  85 :   0.1667 0.0833 0.5000  plane waves:     376
 k-point  86 :   0.2500 0.0833 0.5000  plane waves:     384
 k-point  87 :   0.3333 0.0833 0.5000  plane waves:     382
 k-point  88 :   0.4167 0.0833 0.5000  plane waves:     382
 k-point  89 :   0.1667 0.1667 0.5000  plane waves:     380
 k-point  90 :   0.2500 0.1667 0.5000  plane waves:     380
 k-point  91 :   0.3333 0.1667 0.5000  plane waves:     384
 k-point  92 :   0.4167 0.1667 0.5000  plane waves:     386
 k-point  93 :   0.2500 0.2500 0.5000  plane waves:     380
 k-point  94 :   0.3333 0.2500 0.5000  plane waves:     380
 k-point  95 :   0.3333 0.3333 0.5000  plane waves:     366

 maximum and minimum number of plane-waves per node :       389      358

 maximum number of plane-waves:       389
 maximum index in each direction: 
   IXMAX=    4   IYMAX=    4   IZMAX=    6
   IXMIN=   -4   IYMIN=   -4   IZMIN=   -6


 serial   3D FFT for wavefunctions
 parallel 3D FFT for charge:
    minimum data exchange during FFTs selected (reduces bandwidth)


 total amount of memory used by VASP MPI-rank0    37788. kBytes
=======================================================================

   base      :      30000. kBytes
   nonl-proj :       5375. kBytes
   fftplans  :        144. kBytes
   grid      :        846. kBytes
   one-center:         62. kBytes
   wavefun   :       1361. kBytes
 
     INWAV:  cpu time      0.0000: real time      0.0003
 Broyden mixing: mesh for mixing (old mesh)
   NGX =  9   NGY =  9   NGZ = 13
  (NGX  = 32   NGY  = 32   NGZ  = 56)
  gives a total of   1053 points

 initial charge density was supplied:
 charge density of overlapping atoms calculated
 number of electron      18.0000000 magnetization       6.0000000
 keeping initial charge density in first step


--------------------------------------------------------------------------------------------------------


 Maximum index for augmentation-charges          926 (set IRDMAX)


--------------------------------------------------------------------------------------------------------


 First call to EWALD:  gamma=   0.663
 Maximum number of real-space cells 3x 3x 2
 Maximum number of reciprocal cells 3x 3x 4

    FEWALD:  cpu time      0.0012: real time      0.0012


--------------------------------------- Iteration      1(   1)  ---------------------------------------


    POTLOK:  cpu time      0.0050: real time      0.0059
    SETDIJ:  cpu time      0.0048: real time      0.0049
     EDDAV:  cpu time      0.8579: real time      0.8623
       DOS:  cpu time      0.0014: real time      0.0014
    --------------------------------------------
      LOOP:  cpu time      0.8691: real time      0.8745

 eigenvalue-minimisations  : 10752
 total energy-change (2. order) :-0.1363310E+01  (-0.8558599E+03)
 number of electron      18.0000000 magnetization       6.0000000
 augmentation part       18.0000000 magnetization       6.0000000

 Free energy of the ion-electron system (eV)
  ---------------------------------------------------
  alpha Z        PSCENC =        88.55490762
  Ewald energy   TEWEN  =     -1586.84848441
  -Hartree energ DENC   =      -273.58894737
  -exchange      EXHF   =         0.00000000
  -V(xc)+E(xc)   XCENC  =        36.49494747
  PAW double counting   =      1439.98163886    -1545.88690193
  entropy T*S    EENTRO =        -0.00164542
  eigenvalues    EBANDS =       213.20794536
  atomic energy  EATOM  =      1626.72322989
  Solvation  Ediel_sol  =         0.00000000
  ---------------------------------------------------
  free energy    TOTEN  =        -1.36330993 eV

  energy without entropy =       -1.36166451  energy(sigma->0) =       -1.36248722


--------------------------------------------------------------------------------------------------------




--------------------------------------- Iteration      1(   2)  ---------------------------------------


     EDDAV:  cpu time      2.0222: real time      2.0320
       DOS:  cpu time      0.0008: real time      0.0008
    --------------------------------------------
      LOOP:  cpu time      2.0230: real time      2.0327

 eigenvalue-minimisations  : 16968
 total energy-change (2. order) :-0.1372686E+02  (-0.1361685E+02)
 number of electron      18.0000000 magnetization       6.0000000
 augmentation part       18.0000000 magnetization       6.0000000

 Free energy of the ion-electron system (eV)
  ---------------------------------------------------
  alpha Z        PSCENC =        88.55490762
  Ewald energy   TEWEN  =     -1586.84848441
  -Hartree energ DENC   =      -273.58894737
  -exchange      EXHF   =         0.00000000
  -V(xc)+E(xc)   XCENC  =        36.49494747
  PAW double counting   =      1439.98163886    -1545.88690193
  entropy T*S    EENTRO =        -0.00187253
  eigenvalues    EBANDS =       199.48131441
  atomic energy  EATOM  =      1626.72322989
  Solvation  Ediel_sol  =         0.00000000
  ---------------------------------------------------
  free energy    TOTEN  =       -15.09016798 eV

  energy without entropy =      -15.08829545  energy(sigma->0) =      -15.08923172


--------------------------------------------------------------------------------------------------------




--------------------------------------- Iteration      1(   3)  ---------------------------------------


     EDDAV:  cpu time      1.2851: real time      1.2913
       DOS:  cpu time      0.0008: real time      0.0008
    --------------------------------------------
      LOOP:  cpu time      1.2859: real time      1.2921

 eigenvalue-minimisations  : 12936
 total energy-change (2. order) :-0.3193909E-01  (-0.3192737E-01)
 number of electron      18.0000000 magnetization       6.0000000
 augmentation part       18.0000000 magnetization       6.0000000

 Free energy of the ion-electron system (eV)
  ---------------------------------------------------
  alpha Z        PSCENC =        88.55490762
  Ewald energy   TEWEN  =     -1586.84848441
  -Hartree energ DENC   =      -273.58894737
  -exchange      EXHF   =         0.00000000
  -V(xc)+E(xc)   XCENC  =        36.49494747
  PAW double counting   =      1439.98163886    -1545.88690193
  entropy T*S    EENTRO =        -0.00193887
  eigenvalues    EBANDS =       199.44944167
  atomic energy  EATOM  =      1626.72322989
  Solvation  Ediel_sol  =         0.00000000
  ---------------------------------------------------
  free energy    TOTEN  =       -15.12210707 eV

  energy without entropy =      -15.12016820  energy(sigma->0) =      -15.12113763


--------------------------------------------------------------------------------------------------------




--------------------------------------- Iteration      1(   4)  ---------------------------------------


     EDDAV:  cpu time      2.0339: real time      2.0433
       DOS:  cpu time      0.0007: real time      0.0007
    --------------------------------------------
      LOOP:  cpu time      2.0346: real time      2.0441

 eigenvalue-minimisations  : 17080
 total energy-change (2. order) :-0.4440494E-04  (-0.4440352E-04)
 number of electron      18.0000000 magnetization       6.0000000
 augmentation part       18.0000000 magnetization       6.0000000

 Free energy of the ion-electron system (eV)
  ---------------------------------------------------
  alpha Z        PSCENC =        88.55490762
  Ewald energy   TEWEN  =     -1586.84848441
  -Hartree energ DENC   =      -273.58894737
  -exchange      EXHF   =         0.00000000
  -V(xc)+E(xc)   XCENC  =        36.49494747
  PAW double counting   =      1439.98163886    -1545.88690193
  entropy T*S    EENTRO =        -0.00193931
  eigenvalues    EBANDS =       199.44939770
  atomic energy  EATOM  =      1626.72322989
  Solvation  Ediel_sol  =         0.00000000
  ---------------------------------------------------
  free energy    TOTEN  =       -15.12215148 eV

  energy without entropy =      -15.12021217  energy(sigma->0) =      -15.12118182


--------------------------------------------------------------------------------------------------------




--------------------------------------- Iteration      1(   5)  ---------------------------------------


     EDDAV:  cpu time      1.2637: real time      1.2699
       DOS:  cpu time      0.0008: real time      0.0008
    CHARGE:  cpu time      0.0235: real time      0.0236
    MIXING:  cpu time      0.0003: real time      0.0003
    --------------------------------------------
      LOOP:  cpu time      1.2882: real time      1.2946

 eigenvalue-minimisations  : 12740
 total energy-change (2. order) :-0.1615263E-08  (-0.5868763E-09)
 number of electron      17.9999995 magnetization       3.1669277
 augmentation part        9.2349535 magnetization       2.4673123

 Broyden mixing:
  rms(total) = 0.18847E+01    rms(broyden)= 0.18847E+01
  rms(prec ) = 0.28336E+01
  weight for this iteration     100.00

 Free energy of the ion-electron system (eV)
  ---------------------------------------------------
  alpha Z        PSCENC =        88.55490762
  Ewald energy   TEWEN  =     -1586.84848441
  -Hartree energ DENC   =      -273.58894737
  -exchange      EXHF   =         0.00000000
  -V(xc)+E(xc)   XCENC  =        36.49494747
  PAW double counting   =      1439.98163886    -1545.88690193
  entropy T*S    EENTRO =        -0.00193931
  eigenvalues    EBANDS =       199.44939769
  atomic energy  EATOM  =      1626.72322989
  Solvation  Ediel_sol  =         0.00000000
  ---------------------------------------------------
  free energy    TOTEN  =       -15.12215148 eV

  energy without entropy =      -15.12021217  energy(sigma->0) =      -15.12118183


--------------------------------------------------------------------------------------------------------




--------------------------------------- Iteration      1(   6)  ---------------------------------------


    POTLOK:  cpu time      0.0045: real time      0.0046
    SETDIJ:  cpu time      0.0046: real time      0.0046
     EDDAV:  cpu time      1.7402: real time      1.7482
       DOS:  cpu time      0.0008: real time      0.0008
    CHARGE:  cpu time      0.0218: real time      0.0218
    MIXING:  cpu time      0.0003: real time      0.0003
    --------------------------------------------
      LOOP:  cpu time      1.7721: real time      1.7804

 eigenvalue-minimisations  : 15624
 total energy-change (2. order) : 0.1051816E+01  (-0.2264950E+01)
 number of electron      17.9999995 magnetization       2.9323883
 augmentation part       10.5091989 magnetization       2.6254613

 Broyden mixing:
  rms(total) = 0.50564E+00    rms(broyden)= 0.50563E+00
  rms(prec ) = 0.61554E+00
  weight for this iteration     100.00

 eigenvalues of (default mixing * dielectric matrix)
  average eigenvalue GAMMA=   1.0403
  1.0403

 Free energy of the ion-electron system (eV)
  ---------------------------------------------------
  alpha Z        PSCENC =        88.55490762
  Ewald energy   TEWEN  =     -1586.84848441
  -Hartree energ DENC   =      -240.18250409
  -exchange      EXHF   =         0.00000000
  -V(xc)+E(xc)   XCENC  =        33.46970625
  PAW double counting   =      1664.53825503    -1761.88650054
  entropy T*S    EENTRO =        -0.00261914
  eigenvalues    EBANDS =       161.56367438
  atomic energy  EATOM  =      1626.72322989
  Solvation  Ediel_sol  =         0.00000000
  ---------------------------------------------------
  free energy    TOTEN  =       -14.07033501 eV

  energy without entropy =      -14.06771587  energy(sigma->0) =      -14.06902544


--------------------------------------------------------------------------------------------------------




--------------------------------------- Iteration      1(   7)  ---------------------------------------


    POTLOK:  cpu time      0.0043: real time      0.0044
    SETDIJ:  cpu time      0.0044: real time      0.0044
     EDDAV:  cpu time      1.2341: real time      1.2401
       DOS:  cpu time      0.0008: real time      0.0008
    CHARGE:  cpu time      0.0225: real time      0.0225
    MIXING:  cpu time      0.0003: real time      0.0003
    --------------------------------------------
      LOOP:  cpu time      1.2663: real time      1.2725

 eigenvalue-minimisations  : 12712
 total energy-change (2. order) : 0.1971740E+00  (-0.1943311E+00)
 number of electron      17.9999995 magnetization       2.9419769
 augmentation part       10.1371175 magnetization       2.6567181

 Broyden mixing:
  rms(total) = 0.37148E+00    rms(broyden)= 0.37148E+00
  rms(prec ) = 0.45764E+00
  weight for this iteration     100.00

 eigenvalues of (default mixing * dielectric matrix)
  average eigenvalue GAMMA=   0.7863
  1.1013  0.4712

 Free energy of the ion-electron system (eV)
  ---------------------------------------------------
  alpha Z        PSCENC =        88.55490762
  Ewald energy   TEWEN  =     -1586.84848441
  -Hartree energ DENC   =      -245.06868124
  -exchange      EXHF   =         0.00000000
  -V(xc)+E(xc)   XCENC  =        33.78497684
  PAW double counting   =      1764.07978185    -1867.78648830
  entropy T*S    EENTRO =        -0.00178342
  eigenvalues    EBANDS =       172.68938018
  atomic energy  EATOM  =      1626.72322989
  Solvation  Ediel_sol  =         0.00000000
  ---------------------------------------------------
  free energy    TOTEN  =       -13.87316098 eV

  energy without entropy =      -13.87137757  energy(sigma->0) =      -13.87226928


--------------------------------------------------------------------------------------------------------




--------------------------------------- Iteration      1(   8)  ---------------------------------------


    POTLOK:  cpu time      0.0044: real time      0.0046
    SETDIJ:  cpu time      0.0044: real time      0.0044
     EDDAV:  cpu time      1.8424: real time      1.8508
       DOS:  cpu time      0.0008: real time      0.0008
    CHARGE:  cpu time      0.0218: real time      0.0219
    MIXING:  cpu time      0.0003: real time      0.0003
    --------------------------------------------
      LOOP:  cpu time      1.8740: real time      1.8827

 eigenvalue-minimisations  : 16464
 total energy-change (2. order) : 0.3493733E-01  (-0.5031838E-02)
 number of electron      17.9999995 magnetization       2.9565488
 augmentation part       10.1946204 magnetization       2.6904251

 Broyden mixing:
  rms(total) = 0.18734E+00    rms(broyden)= 0.18734E+00
  rms(prec ) = 0.21969E+00
  weight for this iteration     100.00

 eigenvalues of (default mixing * dielectric matrix)
  average eigenvalue GAMMA=   1.0907
  1.8882  0.8183  0.5656

 Free energy of the ion-electron system (eV)
  ---------------------------------------------------
  alpha Z        PSCENC =        88.55490762
  Ewald energy   TEWEN  =     -1586.84848441
  -Hartree energ DENC   =      -241.86219926
  -exchange      EXHF   =         0.00000000
  -V(xc)+E(xc)   XCENC  =        33.65041044
  PAW double counting   =      1850.32081071    -1955.42769233
  entropy T*S    EENTRO =        -0.00178124
  eigenvalues    EBANDS =       171.05257494
  atomic energy  EATOM  =      1626.72322989
  Solvation  Ediel_sol  =         0.00000000
  ---------------------------------------------------
  free energy    TOTEN  =       -13.83822365 eV

  energy without entropy =      -13.83644241  energy(sigma->0) =      -13.83733303


--------------------------------------------------------------------------------------------------------




--------------------------------------- Iteration      1(   9)  ---------------------------------------


    POTLOK:  cpu time      0.0041: real time      0.0042
    SETDIJ:  cpu time      0.0042: real time      0.0042
     EDDAV:  cpu time      1.9162: real time      1.9250
       DOS:  cpu time      0.0007: real time      0.0007
    CHARGE:  cpu time      0.0217: real time      0.0218
    MIXING:  cpu time      0.0003: real time      0.0003
    --------------------------------------------
      LOOP:  cpu time      1.9471: real time      1.9561

 eigenvalue-minimisations  : 16968
 total energy-change (2. order) : 0.1157501E-01  (-0.1135985E-02)
 number of electron      17.9999995 magnetization       2.9558748
 augmentation part       10.2235961 magnetization       2.6955540

 Broyden mixing:
  rms(total) = 0.43216E-01    rms(broyden)= 0.43216E-01
  rms(prec ) = 0.47588E-01
  weight for this iteration     100.00

 eigenvalues of (default mixing * dielectric matrix)
  average eigenvalue GAMMA=   1.1569
  2.3087  0.8884  0.8210  0.6093

 Free energy of the ion-electron system (eV)
  ---------------------------------------------------
  alpha Z        PSCENC =        88.55490762
  Ewald energy   TEWEN  =     -1586.84848441
  -Hartree energ DENC   =      -239.53509922
  -exchange      EXHF   =         0.00000000
  -V(xc)+E(xc)   XCENC  =        33.55258005
  PAW double counting   =      1929.21465131    -2035.78338972
  entropy T*S    EENTRO =        -0.00177493
  eigenvalues    EBANDS =       170.29673078
  atomic energy  EATOM  =      1626.72322989
  Solvation  Ediel_sol  =         0.00000000
  ---------------------------------------------------
  free energy    TOTEN  =       -13.82664864 eV

  energy without entropy =      -13.82487371  energy(sigma->0) =      -13.82576117


--------------------------------------------------------------------------------------------------------




--------------------------------------- Iteration      1(  10)  ---------------------------------------


    POTLOK:  cpu time      0.0040: real time      0.0042
    SETDIJ:  cpu time      0.0043: real time      0.0043
     EDDAV:  cpu time      1.9132: real time      1.9219
       DOS:  cpu time      0.0008: real time      0.0008
    CHARGE:  cpu time      0.0223: real time      0.0224
    MIXING:  cpu time      0.0004: real time      0.0004
    --------------------------------------------
      LOOP:  cpu time      1.9451: real time      1.9540

 eigenvalue-minimisations  : 16492
 total energy-change (2. order) : 0.8138897E-03  (-0.1095775E-03)
 number of electron      17.9999995 magnetization       2.9536699
 augmentation part       10.2232511 magnetization       2.6872035

 Broyden mixing:
  rms(total) = 0.44028E-02    rms(broyden)= 0.44027E-02
  rms(prec ) = 0.61141E-02
  weight for this iteration     100.00

 eigenvalues of (default mixing * dielectric matrix)
  average eigenvalue GAMMA=   1.1581
  2.3691  1.0381  1.0381  0.7046  0.6409

 Free energy of the ion-electron system (eV)
  ---------------------------------------------------
  alpha Z        PSCENC =        88.55490762
  Ewald energy   TEWEN  =     -1586.84848441
  -Hartree energ DENC   =      -238.92732482
  -exchange      EXHF   =         0.00000000
  -V(xc)+E(xc)   XCENC  =        33.51016588
  PAW double counting   =      1959.38904066    -2066.58181204
  entropy T*S    EENTRO =        -0.00180802
  eigenvalues    EBANDS =       170.35625050
  atomic energy  EATOM  =      1626.72322989
  Solvation  Ediel_sol  =         0.00000000
  ---------------------------------------------------
  free energy    TOTEN  =       -13.82583475 eV

  energy without entropy =      -13.82402673  energy(sigma->0) =      -13.82493074


--------------------------------------------------------------------------------------------------------




--------------------------------------- Iteration      1(  11)  ---------------------------------------


    POTLOK:  cpu time      0.0043: real time      0.0044
    SETDIJ:  cpu time      0.0044: real time      0.0044
     EDDAV:  cpu time      1.6558: real time      1.6637
       DOS:  cpu time      0.0007: real time      0.0007
    CHARGE:  cpu time      0.0218: real time      0.0218
    MIXING:  cpu time      0.0003: real time      0.0003
    --------------------------------------------
      LOOP:  cpu time      1.6873: real time      1.6954

 eigenvalue-minimisations  : 15232
 total energy-change (2. order) : 0.7158400E-05  (-0.3322402E-05)
 number of electron      17.9999995 magnetization       2.9525093
 augmentation part       10.2238873 magnetization       2.6853110

 Broyden mixing:
  rms(total) = 0.22854E-02    rms(broyden)= 0.22854E-02
  rms(prec ) = 0.29259E-02
  weight for this iteration     100.00

 eigenvalues of (default mixing * dielectric matrix)
  average eigenvalue GAMMA=   1.1453
  2.3522  0.6246  0.7612  0.8817  1.1261  1.1261

 Free energy of the ion-electron system (eV)
  ---------------------------------------------------
  alpha Z        PSCENC =        88.55490762
  Ewald energy   TEWEN  =     -1586.84848441
  -Hartree energ DENC   =      -238.86959539
  -exchange      EXHF   =         0.00000000
  -V(xc)+E(xc)   XCENC  =        33.50454502
  PAW double counting   =      1963.50056518    -2070.73547335
  entropy T*S    EENTRO =        -0.00181484
  eigenvalues    EBANDS =       170.34629269
  atomic energy  EATOM  =      1626.72322989
  Solvation  Ediel_sol  =         0.00000000
  ---------------------------------------------------
  free energy    TOTEN  =       -13.82582759 eV

  energy without entropy =      -13.82401275  energy(sigma->0) =      -13.82492017


--------------------------------------------------------------------------------------------------------




--------------------------------------- Iteration      1(  12)  ---------------------------------------


    POTLOK:  cpu time      0.0042: real time      0.0044
    SETDIJ:  cpu time      0.0042: real time      0.0042
     EDDAV:  cpu time      2.0465: real time      2.0558
       DOS:  cpu time      0.0008: real time      0.0008
    --------------------------------------------
      LOOP:  cpu time      2.0557: real time      2.0651

 eigenvalue-minimisations  : 17080
 total energy-change (2. order) : 0.6466832E-06  (-0.4538944E-06)
 number of electron      17.9999995 magnetization       2.9525093
 augmentation part       10.2238873 magnetization       2.6853110

 Free energy of the ion-electron system (eV)
  ---------------------------------------------------
  alpha Z        PSCENC =        88.55490762
  Ewald energy   TEWEN  =     -1586.84848441
  -Hartree energ DENC   =      -238.84756238
  -exchange      EXHF   =         0.00000000
  -V(xc)+E(xc)   XCENC  =        33.50301341
  PAW double counting   =      1966.16083292    -2073.41067112
  entropy T*S    EENTRO =        -0.00181418
  eigenvalues    EBANDS =       170.34072130
  atomic energy  EATOM  =      1626.72322989
  Solvation  Ediel_sol  =         0.00000000
  ---------------------------------------------------
  free energy    TOTEN  =       -13.82582694 eV

  energy without entropy =      -13.82401276  energy(sigma->0) =      -13.82491985


--------------------------------------------------------------------------------------------------------




 average (electrostatic) potential at core
  the test charge radii are     1.0452
  (the norm of the test charge is              1.0000)
       1 -76.4838       2 -76.4838
 
 
 
 E-fermi :  12.1731     XC(G=0): -14.1627     alpha+bet :-20.1061

 Fermi energy:        12.1730769388

 spin component 1

 k-point     1 :       0.0000    0.0000    0.0000
  band No.  band energies     occupation 
      1       2.4980      1.00000
      2       6.4081      1.00000
      3       9.3855      1.00000
      4       9.4029      1.00000
      5       9.4029      1.00000
      6       9.7930      1.00000
      7       9.7930      1.00000
      8      10.2067      1.00000
      9      10.2067      1.00000
     10      11.5543      1.00000
     11      11.5543      1.00000
     12      12.0671      0.99863
     13      19.7729      0.00000
     14      35.1660      0.00000
     15      38.6883      0.00000
     16      39.0382      0.00000
     17      39.0677      0.00000
     18      39.0677      0.00000
     19      40.2865      0.00000
     20      40.2865      0.00000
     21      44.5277      0.00000
     22      44.5277      0.00000
     23      46.0797      0.00000
     24      46.2258      0.00000
     25      48.4553      0.00000
     26      48.4982      0.00000
     27      48.4982      0.00000
     28      48.6410      0.00000

 k-point     2 :       0.0833    0.0000    0.0000
  band No.  band energies     occupation 
      1       2.7656      1.00000
      2       6.5732      1.00000
      3       9.1143      1.00000
      4       9.5394      1.00000
      5       9.6256      1.00000
      6       9.7357      1.00000
      7       9.9139      1.00000
      8      10.0121      1.00000
      9      10.1190      1.00000
     10      10.5591      1.00000
     11      11.5927      1.00000
     12      13.4226      0.00000
     13      19.8056      0.00000
     14      33.7181      0.00000
     15      36.2744      0.00000
     16      36.6921      0.00000
     17      39.0672      0.00000
     18      39.8217      0.00000
     19      41.2157      0.00000
     20      42.8510      0.00000
     21      43.6123      0.00000
     22      44.1221      0.00000
     23      45.8028      0.00000
     24      46.1269      0.00000
     25      48.1232      0.00000
     26      48.5515      0.00000
     27      49.0902      0.00000
     28      49.3779      0.00000

 k-point     3 :       0.1667    0.0000    0.0000
  band No.  band energies     occupation 
      1       3.5354      1.00000
      2       6.9786      1.00000
      3       8.7762      1.00000
      4       9.1359      1.00000
      5       9.5263      1.00000
      6       9.9036      1.00000
      7       9.9261      1.00000
      8       9.9938      1.00000
      9      10.1477      1.00000
     10      10.2534      1.00000
     11      11.6743      1.00000
     12      15.2212      0.00000
     13      19.9239      0.00000
     14      29.9810      0.00000
     15      34.0756      0.00000
     16      35.2146      0.00000
     17      37.1617      0.00000
     18      39.1927      0.00000
     19      40.7003      0.00000
     20      43.4139      0.00000
     21      43.4267      0.00000
     22      44.6451      0.00000
     23      45.0706      0.00000
     24      47.0461      0.00000
     25      47.3737      0.00000
     26      48.5039      0.00000
     27      48.8789      0.00000
     28      49.6553      0.00000

 k-point     4 :       0.2500    0.0000    0.0000
  band No.  band energies     occupation 
      1       4.6828      1.00000
      2       7.2904      1.00000
      3       8.2693      1.00000
      4       8.5718      1.00000
      5       9.4168      1.00000
      6       9.6459      1.00000
      7       9.9120      1.00000
      8      10.4882      1.00000
      9      10.5101      1.00000
     10      10.7418      1.00000
     11      11.7513      1.00000
     12      17.2119      0.00000
     13      20.1472      0.00000
     14      26.1460      0.00000
     15      31.7893      0.00000
     16      33.7132      0.00000
     17      34.0575      0.00000
     18      38.2214      0.00000
     19      38.9822      0.00000
     20      42.8475      0.00000
     21      43.1993      0.00000
     22      43.6325      0.00000
     23      45.1035      0.00000
     24      47.7688      0.00000
     25      48.5784      0.00000
     26      49.7337      0.00000
     27      50.2970      0.00000
     28      53.1930      0.00000

 k-point     5 :       0.3333    0.0000    0.0000
  band No.  band energies     occupation 
      1       5.8893      1.00000
      2       7.1931      1.00000
      3       7.6346      1.00000
      4       8.7097      1.00000
      5       9.4147      1.00000
      6       9.5650      1.00000
      7       9.7016      1.00000
      8      11.0904      1.00000
      9      11.2731      1.00000
     10      11.3287      1.00000
     11      11.8040      1.00000
     12      19.3509      0.00000
     13      20.0431      0.00000
     14      23.2312      0.00000
     15      29.9572      0.00000
     16      30.5430      0.00000
     17      31.9014      0.00000
     18      37.0468      0.00000
     19      37.3540      0.00000
     20      41.2368      0.00000
     21      42.4529      0.00000
     22      44.5918      0.00000
     23      46.9683      0.00000
     24      48.2424      0.00000
     25      48.7905      0.00000
     26      50.4051      0.00000
     27      53.9358      0.00000
     28      56.4362      0.00000

 k-point     6 :       0.4167    0.0000    0.0000
  band No.  band energies     occupation 
      1       6.6145      1.00000
      2       6.9834      1.00000
      3       7.2513      1.00000
      4       9.1436      1.00000
      5       9.2577      1.00000
      6       9.5538      1.00000
      7       9.8066      1.00000
      8      11.5439      1.00000
      9      11.7142      1.00000
     10      11.8322      1.00000
     11      12.6125      0.00000
     12      18.0024      0.00000
     13      21.5344      0.00000
     14      23.0969      0.00000
     15      27.7614      0.00000
     16      28.7408      0.00000
     17      29.2923      0.00000
     18      36.2119      0.00000
     19      36.7596      0.00000
     20      39.9347      0.00000
     21      42.2315      0.00000
     22      45.2110      0.00000
     23      48.4644      0.00000
     24      48.9708      0.00000
     25      49.5726      0.00000
     26      50.7707      0.00000
     27      56.1873      0.00000
     28      57.3325      0.00000

 k-point     7 :       0.5000    0.0000    0.0000
  band No.  band energies     occupation 
      1       6.7756      1.00000
      2       6.9085      1.00000
      3       7.1231      1.00000
      4       9.2021      1.00000
      5       9.4269      1.00000
      6       9.5005      1.00000
      7       9.8994      1.00000
      8      11.7080      1.00000
      9      11.8407      1.00000
     10      11.8934      1.00000
     11      13.8686      0.00000
     12      16.1851      0.00000
     13      22.9486      0.00000
     14      23.7639      0.00000
     15      26.1520      0.00000
     16      27.8800      0.00000
     17      28.3089      0.00000
     18      35.9172      0.00000
     19      36.6179      0.00000
     20      39.4786      0.00000
     21      42.1593      0.00000
     22      45.4377      0.00000
     23      48.5325      0.00000
     24      48.9730      0.00000
     25      50.7129      0.00000
     26      52.0431      0.00000
     27      53.4584      0.00000
     28      58.9565      0.00000

 k-point     8 :       0.0833    0.0833    0.0000
  band No.  band energies     occupation 
      1       3.2855      1.00000
      2       6.8656      1.00000
      3       8.8480      1.00000
      4       9.4298      1.00000
      5       9.6080      1.00000
      6       9.8150      1.00000
      7       9.8189      1.00000
      8       9.8691      1.00000
      9      10.1810      1.00000
     10      10.2919      1.00000
     11      11.6404      1.00000
     12      14.7214      0.00000
     13      19.8836      0.00000
     14      31.6609      0.00000
     15      32.7543      0.00000
     16      37.9545      0.00000
     17      38.6377      0.00000
     18      38.7587      0.00000
     19      39.1553      0.00000
     20      42.7651      0.00000
     21      44.3020      0.00000
     22      44.9068      0.00000
     23      46.5391      0.00000
     24      47.0751      0.00000
     25      47.4652      0.00000
     26      47.9565      0.00000
     27      48.5569      0.00000
     28      49.0123      0.00000

 k-point     9 :       0.1667    0.0833    0.0000
  band No.  band energies     occupation 
      1       4.2555      1.00000
      2       7.2781      1.00000
      3       8.5140      1.00000
      4       8.5887      1.00000
      5       9.4633      1.00000
      6       9.5954      1.00000
      7      10.1133      1.00000
      8      10.1227      1.00000
      9      10.3296      1.00000
     10      10.6821      1.00000
     11      11.6993      1.00000
     12      16.4984      0.00000
     13      20.0814      0.00000
     14      28.0941      0.00000
     15      30.4813      0.00000
     16      35.4057      0.00000
     17      36.6912      0.00000
     18      37.6029      0.00000
     19      39.6321      0.00000
     20      41.6783      0.00000
     21      42.7842      0.00000
     22      45.5704      0.00000
     23      46.7150      0.00000
     24      47.1961      0.00000
     25      48.3572      0.00000
     26      49.1203      0.00000
     27      49.8768      0.00000
     28      50.8464      0.00000

 k-point    10 :       0.2500    0.0833    0.0000
  band No.  band energies     occupation 
      1       5.4790      1.00000
      2       7.3955      1.00000
      3       7.8955      1.00000
      4       8.4307      1.00000
      5       9.3679      1.00000
      6       9.4792      1.00000
      7       9.8789      1.00000
      8      10.6080      1.00000
      9      10.9374      1.00000
     10      11.3610      1.00000
     11      11.7488      1.00000
     12      18.5191      0.00000
     13      20.3498      0.00000
     14      24.5276      0.00000
     15      28.8022      0.00000
     16      32.1861      0.00000
     17      34.0614      0.00000
     18      36.2734      0.00000
     19      39.2241      0.00000
     20      39.7609      0.00000
     21      43.4319      0.00000
     22      46.6568      0.00000
     23      46.9380      0.00000
     24      47.6707      0.00000
     25      48.5026      0.00000
     26      49.5998      0.00000
     27      51.7952      0.00000
     28      54.1703      0.00000

 k-point    11 :       0.3333    0.0833    0.0000
  band No.  band energies     occupation 
      1       6.4967      1.00000
      2       7.1843      1.00000
      3       7.4209      1.00000
      4       8.7189      1.00000
      5       9.2221      1.00000
      6       9.6467      1.00000
      7       9.7084      1.00000
      8      11.2175      1.00000
      9      11.4593      1.00000
     10      11.7795      1.00000
     11      12.2962      0.00025
     12      19.4365      0.00000
     13      20.6875      0.00000
     14      22.8927      0.00000
     15      27.4745      0.00000
     16      29.2218      0.00000
     17      31.0631      0.00000
     18      35.2615      0.00000
     19      38.4662      0.00000
     20      38.6904      0.00000
     21      43.5963      0.00000
     22      46.9445      0.00000
     23      48.3884      0.00000
     24      48.6634      0.00000
     25      48.8420      0.00000
     26      50.5722      0.00000
     27      53.8119      0.00000
     28      57.6765      0.00000

 k-point    12 :       0.4167    0.0833    0.0000
  band No.  band energies     occupation 
      1       6.8756      1.00000
      2       7.0369      1.00000
      3       7.1814      1.00000
      4       9.1499      1.00000
      5       9.1646      1.00000
      6       9.4926      1.00000
      7       9.8944      1.00000
      8      11.6569      1.00000
      9      11.7438      1.00000
     10      11.7930      1.00000
     11      13.7045      0.00000
     12      16.9954      0.00000
     13      22.7435      0.00000
     14      23.6880      0.00000
     15      26.5957      0.00000
     16      26.7749      0.00000
     17      28.7732      0.00000
     18      34.7269      0.00000
     19      37.8256      0.00000
     20      38.3626      0.00000
     21      43.5480      0.00000
     22      47.1530      0.00000
     23      48.5191      0.00000
     24      49.0017      0.00000
     25      50.7485      0.00000
     26      51.2429      0.00000
     27      54.8306      0.00000
     28      56.7144      0.00000

 k-point    13 :       0.1667    0.1667    0.0000
  band No.  band energies     occupation 
      1       5.3356      1.00000
      2       7.6144      1.00000
      3       8.0325      1.00000
      4       8.1570      1.00000
      5       9.2820      1.00000
      6       9.4755      1.00000
      7       9.9929      1.00000
      8      10.3243      1.00000
      9      10.9221      1.00000
     10      11.3862      1.00000
     11      11.7013      1.00000
     12      18.2385      0.00000
[...]
     19      41.5654      0.00000
     20      41.5654      0.00000
     21      44.7194      0.00000
     22      44.7194      0.00000
     23      46.2785      0.00000
     24      46.2785      0.00000
     25      51.4679      0.00000
     26      51.4679      0.00000
     27      54.9103      0.00000
     28      54.9103      0.00000

 k-point    91 :       0.3333    0.1667    0.5000
  band No.  band energies     occupation 
      1       7.9392      1.00000
      2       7.9392      1.00000
      3       9.5414      1.00000
      4       9.5414      1.00000
      5      10.6035      1.00000
      6      10.6035      1.00000
      7      11.9461      1.00000
      8      11.9461      1.00000
      9      13.4940      0.00000
     10      13.4940      0.00000
     11      15.8254      0.00000
     12      15.8254      0.00000
     13      22.9810      0.00000
     14      22.9810      0.00000
     15      27.5638      0.00000
     16      27.5638      0.00000
     17      34.0283      0.00000
     18      34.0283      0.00000
     19      40.1259      0.00000
     20      40.1259      0.00000
     21      43.2379      0.00000
     22      43.2379      0.00000
     23      47.2742      0.00000
     24      47.2742      0.00000
     25      52.1706      0.00000
     26      52.1706      0.00000
     27      56.5514      0.00000
     28      56.5514      0.00000

 k-point    92 :       0.4167    0.1667    0.5000
  band No.  band energies     occupation 
      1       7.9846      1.00000
      2       7.9846      1.00000
      3       9.5148      1.00000
      4       9.5148      1.00000
      5      10.6696      1.00000
      6      10.6696      1.00000
      7      12.1519      0.72497
      8      12.1519      0.72497
      9      13.4161      0.00000
     10      13.4161      0.00000
     11      16.6320      0.00000
     12      16.6320      0.00000
     13      21.6531      0.00000
     14      21.6531      0.00000
     15      27.2990      0.00000
     16      27.2990      0.00000
     17      34.7598      0.00000
     18      34.7598      0.00000
     19      39.3515      0.00000
     20      39.3515      0.00000
     21      42.6118      0.00000
     22      42.6118      0.00000
     23      47.6002      0.00000
     24      47.6002      0.00000
     25      52.4562      0.00000
     26      52.4562      0.00000
     27      58.8386      0.00000
     28      58.8386      0.00000

 k-point    93 :       0.2500    0.2500    0.5000
  band No.  band energies     occupation 
      1       8.1769      1.00000
      2       8.1769      1.00000
      3       9.6505      1.00000
      4       9.6505      1.00000
      5      10.1815      1.00000
      6      10.1815      1.00000
      7      11.7395      1.00000
      8      11.7395      1.00000
      9      13.5232      0.00000
     10      13.5232      0.00000
     11      16.0788      0.00000
     12      16.0788      0.00000
     13      24.2606      0.00000
     14      24.2606      0.00000
     15      25.7003      0.00000
     16      25.7003      0.00000
     17      34.1437      0.00000
     18      34.1437      0.00000
     19      41.3151      0.00000
     20      41.3151      0.00000
     21      43.0868      0.00000
     22      43.0868      0.00000
     23      47.7950      0.00000
     24      47.7950      0.00000
     25      51.3296      0.00000
     26      51.3296      0.00000
     27      54.9105      0.00000
     28      54.9105      0.00000

 k-point    94 :       0.3333    0.2500    0.5000
  band No.  band energies     occupation 
      1       8.4680      1.00000
      2       8.4680      1.00000
      3       9.5663      1.00000
      4       9.5663      1.00000
      5      10.1194      1.00000
      6      10.1194      1.00000
      7      11.8670      1.00000
      8      11.8670      1.00000
      9      13.4035      0.00000
     10      13.4035      0.00000
     11      17.7661      0.00000
     12      17.7661      0.00000
     13      22.0826      0.00000
     14      22.0826      0.00000
     15      24.8772      0.00000
     16      24.8772      0.00000
     17      35.6814      0.00000
     18      35.6814      0.00000
     19      39.5488      0.00000
     20      39.5488      0.00000
     21      42.4160      0.00000
     22      42.4160      0.00000
     23      49.3423      0.00000
     24      49.3423      0.00000
     25      52.0813      0.00000
     26      52.0813      0.00000
     27      55.5431      0.00000
     28      55.5431      0.00000

 k-point    95 :       0.3333    0.3333    0.5000
  band No.  band energies     occupation 
      1       9.0229      1.00000
      2       9.0229      1.00000
      3       9.1112      1.00000
      4       9.1112      1.00000
      5      10.0734      1.00000
      6      10.0734      1.00000
      7      11.8269      1.00000
      8      11.8269      1.00000
      9      13.3402      0.00000
     10      13.3402      0.00000
     11      19.2737      0.00000
     12      19.2737      0.00000
     13      21.0830      0.00000
     14      21.0830      0.00000
     15      23.8286      0.00000
     16      23.8286      0.00000
     17      37.6103      0.00000
     18      37.6103      0.00000
     19      37.7241      0.00000
     20      37.7241      0.00000
     21      42.0772      0.00000
     22      42.0772      0.00000
     23      51.9398      0.00000
     24      51.9398      0.00000
     25      52.7700      0.00000
     26      52.7700      0.00000
     27      53.2394      0.00000
     28      53.2394      0.00000


--------------------------------------------------------------------------------------------------------


 soft charge-density along one line, spin component           1
         0         1         2         3         4         5         6         7         8         9
 total charge-density along one line
 
 soft charge-density along one line, spin component           2
         0         1         2         3         4         5         6         7         8         9
 total charge-density along one line
 
 pseudopotential strength for first ion, spin component:           1
  0.677  -0.000  -0.000   0.000  -0.000  -0.005  -0.000  -0.000
 -0.000   0.672   0.000   0.000  -0.000  -0.000  -0.010   0.000
 -0.000   0.000   0.665   0.000   0.000  -0.000   0.000  -0.017
  0.000   0.000   0.000   0.672  -0.000   0.000   0.000   0.000
 -0.000  -0.000   0.000  -0.000   0.677  -0.000  -0.000   0.000
 -0.005  -0.000  -0.000   0.000  -0.000  -0.625  -0.000  -0.000
 -0.000  -0.010   0.000   0.000  -0.000  -0.000  -0.630   0.000
 -0.000   0.000  -0.017   0.000   0.000  -0.000   0.000  -0.637
  0.000   0.000   0.000  -0.010  -0.000   0.000   0.000   0.000
 -0.000  -0.000   0.000  -0.000  -0.005  -0.000  -0.000   0.000
 -0.000  -0.000   0.001   0.000   0.000  -0.000  -0.000   0.001
 -0.000  -0.000   0.002   0.000   0.000  -0.000  -0.000   0.002
 -0.000   0.000  -0.000  -0.000   0.002  -0.000   0.000  -0.000
 -0.000   0.000   0.000  -0.000   0.000  -0.000   0.000   0.000
  0.002  -0.000   0.000   0.000  -0.000   0.001  -0.000   0.000
 -0.000   0.000  -0.000  -0.000   0.001  -0.000   0.000  -0.000
 -0.000   0.000   0.000  -0.000   0.000  -0.000   0.000   0.000
  0.001  -0.000   0.000   0.000  -0.000   0.001  -0.000   0.000
 pseudopotential strength for first ion, spin component:           2
  1.905  -0.000  -0.000   0.000  -0.000   1.172  -0.000  -0.000
 -0.000   1.918   0.000   0.000  -0.000  -0.000   1.185   0.000
 -0.000   0.000   1.900   0.000   0.000  -0.000   0.000   1.167
  0.000   0.000   0.000   1.918  -0.000   0.000   0.000   0.000
 -0.000  -0.000   0.000  -0.000   1.905  -0.000  -0.000   0.000
  1.172  -0.000  -0.000   0.000  -0.000   0.502  -0.000  -0.000
 -0.000   1.185   0.000   0.000  -0.000  -0.000   0.515   0.000
 -0.000   0.000   1.167   0.000   0.000  -0.000   0.000   0.497
  0.000   0.000   0.000   1.185  -0.000   0.000   0.000   0.000
 -0.000  -0.000   0.000  -0.000   1.172  -0.000  -0.000   0.000
 -0.000  -0.000  -0.001   0.000   0.000  -0.000  -0.000  -0.001
 -0.000  -0.000  -0.002   0.000   0.000  -0.000  -0.000  -0.002
 -0.000   0.000  -0.000  -0.000   0.001  -0.000  -0.000  -0.000
 -0.000   0.000   0.000  -0.000   0.000  -0.000   0.000   0.000
  0.001  -0.000   0.000   0.000  -0.000   0.001  -0.000   0.000
 -0.000   0.000  -0.000  -0.000   0.000  -0.000   0.000  -0.000
 -0.000   0.000   0.000  -0.000   0.000  -0.000   0.000   0.000
  0.000  -0.000   0.000   0.000  -0.000   0.000  -0.000   0.000
 total augmentation occupancy for first ion, spin component:           1
  3.119  -0.000   0.000   0.000   0.000  -1.984   0.000  -0.000  -0.000  -0.000   0.000  -0.000   0.000   0.000  -0.054  -0.000
  0.000   3.327   0.000   0.000  -0.000  -0.000  -2.098   0.000   0.000  -0.000   0.000   0.000  -0.000  -0.000  -0.000   0.000
 -0.000  -0.000   2.997   0.000   0.000  -0.000   0.000  -1.969   0.000  -0.000  -0.015   0.004   0.000   0.000   0.000   0.000
  0.000   0.000  -0.000   3.327  -0.000  -0.000   0.000   0.000  -2.098  -0.000  -0.000  -0.000  -0.000   0.000   0.000   0.000
  0.000   0.000   0.000   0.000   3.119   0.000  -0.000  -0.000   0.000  -1.984  -0.000  -0.000  -0.054   0.000  -0.000   0.004
 -1.984  -0.000  -0.000   0.000  -0.000   2.410  -0.000   0.000  -0.000   0.000   0.000  -0.000  -0.000  -0.000   0.071   0.000
 -0.000  -2.098  -0.000   0.000  -0.000   0.000   2.440  -0.000  -0.000  -0.000   0.000  -0.000  -0.000   0.000  -0.000   0.000
  0.000  -0.000  -1.969   0.000  -0.000  -0.000  -0.000   2.492  -0.000   0.000   0.020  -0.003  -0.000  -0.000  -0.000   0.000
  0.000   0.000   0.000  -2.098  -0.000   0.000   0.000   0.000   2.440  -0.000   0.000  -0.000   0.000  -0.000   0.000  -0.000
  0.000   0.000  -0.000  -0.000  -1.984   0.000   0.000   0.000  -0.000   2.410  -0.000   0.000   0.071   0.000   0.000  -0.005
  0.000   0.000  -0.015  -0.000  -0.000   0.000  -0.000   0.020   0.000  -0.000   2.687  -0.346  -0.000   0.000   0.000  -0.000
  0.000   0.000   0.004   0.000  -0.000  -0.000  -0.000  -0.003   0.000   0.000  -0.346   0.053  -0.000  -0.000   0.000   0.000
  0.000  -0.000   0.000   0.000  -0.054   0.000  -0.000   0.000   0.000   0.071   0.000  -0.000   0.382   0.000   0.000  -0.037
  0.000  -0.000   0.000   0.000   0.000  -0.000  -0.000  -0.000   0.000   0.000   0.000  -0.000   0.000   0.392  -0.000   0.000
 -0.054  -0.000   0.000  -0.000  -0.000   0.071  -0.000   0.000   0.000  -0.000  -0.000   0.000   0.000   0.000   0.382  -0.000
  0.000  -0.000   0.000  -0.000   0.004  -0.000  -0.000   0.000  -0.000  -0.005   0.000   0.000  -0.037   0.000  -0.000   0.004
 -0.000   0.000  -0.000  -0.000   0.000  -0.000  -0.000   0.000   0.000  -0.000  -0.000  -0.000  -0.000  -0.037   0.000  -0.000
  0.004   0.000  -0.000  -0.000   0.000  -0.005  -0.000  -0.000  -0.000  -0.000  -0.000   0.000  -0.000  -0.000  -0.037   0.000
 total augmentation occupancy for first ion, spin component:           2
  2.012   0.000  -0.000   0.000   0.000  -0.978  -0.000  -0.000  -0.000   0.000   0.000  -0.000  -0.000   0.000   0.001   0.000
 -0.000   2.135   0.000   0.000   0.000   0.000  -1.062  -0.000  -0.000  -0.000  -0.000   0.000   0.000   0.000  -0.000   0.000
  0.000  -0.000   2.091   0.000   0.000   0.000   0.000  -1.021   0.000  -0.000   0.008   0.003   0.000   0.000   0.000   0.000
 -0.000   0.000  -0.000   2.135  -0.000  -0.000   0.000   0.000  -1.062  -0.000   0.000  -0.000  -0.000   0.000  -0.000   0.000
  0.000   0.000   0.000   0.000   2.012   0.000   0.000  -0.000   0.000  -0.978  -0.000  -0.000   0.001  -0.000   0.000   0.001
 -0.978  -0.000   0.000   0.000   0.000   0.279   0.000  -0.000   0.000   0.000   0.000   0.000   0.000  -0.000  -0.005   0.000
  0.000  -1.062   0.000   0.000   0.000  -0.000   0.342   0.000  -0.000  -0.000  -0.000  -0.000  -0.000  -0.000  -0.000  -0.000
  0.000   0.000  -1.021   0.000  -0.000  -0.000   0.000   0.291   0.000   0.000  -0.008  -0.001   0.000   0.000   0.000   0.000
  0.000   0.000   0.000  -1.062   0.000   0.000   0.000  -0.000   0.342   0.000   0.000  -0.000   0.000  -0.000  -0.000  -0.000
  0.000   0.000  -0.000  -0.000  -0.978  -0.000   0.000   0.000  -0.000   0.279  -0.000   0.000  -0.005  -0.000   0.000  -0.000
  0.000   0.000   0.008  -0.000   0.000   0.000  -0.000  -0.008   0.000   0.000  -0.317   0.095   0.000   0.000   0.000  -0.000
  0.000  -0.000   0.003  -0.000   0.000   0.000   0.000  -0.001   0.000   0.000   0.095  -0.018  -0.000   0.000   0.000  -0.000
  0.000   0.000   0.000   0.000   0.001   0.000   0.000  -0.000   0.000  -0.005  -0.000   0.000  -0.038  -0.000   0.000   0.005
  0.000  -0.000   0.000   0.000  -0.000   0.000  -0.000   0.000   0.000   0.000   0.000  -0.000   0.000  -0.040   0.000  -0.000
  0.001   0.000   0.000   0.000   0.000  -0.005   0.000   0.000   0.000   0.000   0.000  -0.000   0.000   0.000  -0.038   0.000
  0.000  -0.000  -0.000  -0.000   0.001   0.000   0.000   0.000   0.000  -0.000  -0.000  -0.000   0.005  -0.000   0.000  -0.001
  0.000  -0.000  -0.000   0.000  -0.000  -0.000  -0.000   0.000   0.000   0.000   0.000   0.000  -0.000   0.005   0.000   0.000
  0.001  -0.000   0.000  -0.000   0.000  -0.000   0.000   0.000   0.000   0.000   0.000   0.000   0.000   0.000   0.005   0.000


------------------------ aborting loop because EDIFF is reached ----------------------------------------





 total charge

# of ion       s       p       d       tot
------------------------------------------
    1        0.545   0.641   7.363   8.550
    2        0.545   0.641   7.363   8.550
--------------------------------------------------
tot          1.090   1.283  14.727  17.100



 magnetization (x)

# of ion       s       p       d       tot
------------------------------------------
    1       -0.017  -0.058   1.549   1.473
    2       -0.017  -0.058   1.549   1.473
--------------------------------------------------
tot         -0.035  -0.117   3.098   2.946
 
    CHARGE:  cpu time      0.0215: real time      0.0216
    FORLOC:  cpu time      0.0001: real time      0.0001
    FORNL :  cpu time      0.0215: real time      0.0216
    STRESS:  cpu time      0.1393: real time      0.1398
    FORCOR:  cpu time      0.0037: real time      0.0037
    FORHAR:  cpu time      0.0004: real time      0.0004
    MIXING:  cpu time      0.0002: real time      0.0002
    OFIELD:  cpu time      0.0000: real time      0.0000

  FORCE on cell =-STRESS in cart. coord.  units (eV):
  Direction    XX          YY          ZZ          XY          YZ          ZX
  --------------------------------------------------------------------------------------
  Alpha Z    88.55491    88.55491    88.55491
  Ewald    -531.98729  -531.98729  -522.87501    -0.00000    -0.00000     0.00000
  Hartree    78.27970    78.27970    82.25239    -0.00000    -0.00000    -0.00000
  E(xc)     -93.46601   -93.46599   -93.47464     0.00000     0.00000     0.00000
  Local       2.75153     2.75170   -10.04442     0.00000     0.00000     0.00000
  n-local   -11.93061     1.20520    -5.03885     3.61313    -0.68703     2.53294
  augment   309.54970   309.54950   309.31453     0.00000    -0.00000    -0.00000
  Kinetic   158.14748   153.28750   155.37001    -3.18919    -0.44687     0.45789
  Fock        0.00000     0.00000     0.00000     0.00000     0.00000     0.00000
  -------------------------------------------------------------------------------------
  Total       4.03732     4.03732     4.05893    -0.00000     0.00000     0.00000
  in kB     338.08343   338.08343   339.89353    -0.00000     0.00000     0.00000
  external pressure =      338.69 kB  Pullay stress =        0.00 kB


 VOLUME and BASIS-vectors are now :
 -----------------------------------------------------------------------------
  energy-cutoff  :      425.00
  volume of cell :       19.13
      direct lattice vectors                 reciprocal lattice vectors
     1.196292293 -2.072039032  0.000000000     0.417958055 -0.241308196  0.000000000
     1.196292293  2.072039032  0.000000000     0.417958055  0.241308196  0.000000000
     0.000000000  0.000000000  3.859352091     0.000000000  0.000000000  0.259110850

  length of vectors
     2.392584585  2.392584585  3.859352091     0.482616391  0.482616391  0.259110850


 FORCES acting on ions
    electron-ion (+dipol)            ewald-force                    non-local-force                 convergence-correction
 -----------------------------------------------------------------------------------------------
   0.454E-12 0.152E-05 -.205E-11   -.622E-14 0.264E-11 -.260E-13   -.173E-17 0.173E-16 -.867E-18   0.302E-14 0.796E-08 -.107E-12
   -.726E-12 -.152E-05 -.576E-11   0.889E-14 -.264E-11 0.260E-13   -.694E-17 -.243E-16 0.867E-18   0.186E-13 -.796E-08 0.116E-12
 -----------------------------------------------------------------------------------------------
   -.273E-12 0.308E-10 -.781E-11   0.267E-14 -.688E-15 0.000E+00   -.867E-17 -.694E-17 0.000E+00   0.216E-13 -.862E-13 0.942E-14
 
 
 POSITION                                       TOTAL-FORCE (eV/Angst)
 -----------------------------------------------------------------------------------
      1.19629      0.69068      0.96484        -0.000000     -0.000000      0.000000
      1.19629     -0.69068      2.89451         0.000000      0.000000     -0.000000
 -----------------------------------------------------------------------------------
    total drift:                               -0.000000      0.000000     -0.000000


--------------------------------------------------------------------------------------------------------



  FREE ENERGIE OF THE ION-ELECTRON SYSTEM (eV)
  ---------------------------------------------------
  free  energy   TOTEN  =       -13.82582694 eV

  energy  without entropy=      -13.82401276  energy(sigma->0) =      -13.82491985
 


--------------------------------------------------------------------------------------------------------


    POTLOK:  cpu time      0.0086: real time      0.0086


--------------------------------------------------------------------------------------------------------




--------------------------------------------------------------------------------------------------------


  
 reached required accuracy - stopping structural energy minimisation
     LOOP+:  cpu time     20.2616: real time     20.3629
    4ORBIT:  cpu time      0.0000: real time      0.0000



 total charge

# of ion       s       p       d       tot
------------------------------------------
    1        0.545   0.641   7.363   8.550
    2        0.545   0.641   7.363   8.550
--------------------------------------------------
tot          1.090   1.283  14.727  17.100



 magnetization (x)

# of ion       s       p       d       tot
------------------------------------------
    1       -0.017  -0.058   1.549   1.473
    2       -0.017  -0.058   1.549   1.473
--------------------------------------------------
tot         -0.035  -0.117   3.098   2.946
 

 total amount of memory used by VASP MPI-rank0    37788. kBytes
=======================================================================

   base      :      30000. kBytes
   nonl-proj :       5375. kBytes
   fftplans  :        144. kBytes
   grid      :        846. kBytes
   one-center:         62. kBytes
   wavefun   :       1361. kBytes
 
  
  
 General timing and accounting informations for this job:
 ========================================================
  
                  Total CPU time used (sec):       21.359
                            User time (sec):       20.816
                          System time (sec):        0.543
                         Elapsed time (sec):       22.714
  
                   Maximum memory used (kb):      245720.
                   Average memory used (kb):          N/A
  
                          Minor page faults:        37033
                          Major page faults:          101
                 Voluntary context switches:         2297
