 vasp.6.3.2 27Jun22 (build Aug 12 2022 00:53:59) complex                        
  
 executed on               tv2STD date 2024.11.30  17:13:00
 running   24 mpi-ranks, with    1 threads/rank
 distrk:  each k-point on   24 cores,    1 groups
 distr:  one band on NCORE=   6 cores,    4 groups


--------------------------------------------------------------------------------------------------------


 INCAR:
   SYSTEM = Co-hcc
   NWRITE = 2    write-flag
   ISTART = 0    job   : 0-new, 1-cont, 2-samecut
   ICHARG = 2    charge: 0-wave, 1-file, 2-atom, >10-const
   INIWAV = 1    electr: 0-lowe 1-rand  2-diag
   ENCUT = 400     energy cutoff in eV
   PREC = Accurate      normal | accurate
   ADDGRID = .FALSE.  (use fine grid)
   NELM = 100     number of ELM steps
   EDIFF = 1E-06    energy stopping-criterion for ELM
   LREAL = .FALSE.      real-space projection (.FALSE., .TRUE., On, Auto)
   ALGO = Normal     Normal, Fast, Very_Fast
   LWAVE = .TRUE.
   LCHARG = .TRUE.
   NSW = 100       max number of geometry steps
   IBRION = 2     ionic relax: 0-MD, 1-quasi-Newton, 2-CG, 3-Damped MD
   EDIFFG = -0.02  force (eV/A) stopping-criterion for geometry steps
   ISIF = 2     (1:force\=y stress\=trace only ions\=y shape\=n volume\=n)
   ISYM = 1     (1-use symmetry, 0-no symmetry)
   ISMEAR = 0     (-1-Fermi, 1-Methfessel/Paxton)
   SIGMA = 0.05   broadening in eV
   LORBIT = 11 magnetic props in OUTCAR should be on
   NPAR = 4
   ISPIN = 2
   MAGMOM = 2*3

 POTCAR:    PAW_PBE Co 02Aug2007                  
 POTCAR:    PAW_PBE Co 02Aug2007                  
   SHA256 =  0e690c60710354995174544f52f9f2c30879afabeffe3b3fbd4001cb294e56d4 Co/POTCAR             
   COPYR  = (c) Copyright 02Aug2007 Georg Kresse                                                    
   COPYR  = This file is part of the software VASP. Any use, copying, and all other rights are regul
   COPYR  = If you do not have a valid VASP license, you may not use, copy or distribute this file. 
   VRHFIN =Co: d8 s1                                                                                
   LEXCH  = PE                                                                                      
   EATOM  =   813.3670 eV,   59.7808 Ry                                                             
                                                                                                    
   TITEL  = PAW_PBE Co 02Aug2007                                                                    
   LULTRA =        F    use ultrasoft PP ?                                                          
   IUNSCR =        1    unscreen: 0-lin 1-nonlin 2-no                                               
   RPACOR =    2.000    partial core radius                                                         
   POMASS =   58.933; ZVAL   =    9.000    mass and valenz                                          
   RCORE  =    2.300    outmost cutoff radius                                                       
   RWIGS  =    2.460; RWIGS  =    1.302    wigner-seitz radius (au A)                               
   ENMAX  =  267.968; ENMIN  =  200.976 eV                                                          
   RCLOC  =    1.203    cutoff for local pot                                                        
   LCOR   =        T    correct aug charges                                                         
   LPAW   =        T    paw PP                                                                      
   EAUG   =  477.818                                                                                
   DEXC   =    0.000                                                                                
   RMAX   =    2.360    core radius for proj-oper                                                   
   RAUG   =    1.300    factor for augmentation sphere                                              
   RDEP   =    2.393    radius for radial grids                                                     
   RDEPT  =    1.864    core radius for aug-charge                                                  
                                                                                                    
   Atomic configuration                                                                             
    9 entries                                                                                       
     n  l   j            E        occ.                                                              
     1  0  0.50     -7587.6674   2.0000                                                             
     2  0  0.50      -893.6084   2.0000                                                             
     2  1  1.50      -764.5805   6.0000                                                             
     3  0  0.50       -97.5973   2.0000                                                             
     3  1  1.50       -60.9648   6.0000                                                             
     3  2  2.50        -4.2382   8.0000                                                             
     4  0  0.50        -4.3746   1.0000                                                             
     4  1  1.50        -4.0817   0.0000                                                             
     4  3  2.50        -1.3606   0.0000                                                             
   Description                                                                                      
     l       E           TYP  RCUT    TYP  RCUT                                                     
     2     -4.2382362     23  2.300                                                                 
     2     -5.5988188     23  2.300                                                                 
     0     -4.3745797     23  2.300                                                                 
     0      5.7660125     23  2.300                                                                 
     1     -2.7211652     23  2.300                                                                 
     1     16.9860234     23  2.300                                                                 
  local pseudopotential read in
  partial core-charges read in
  partial kinetic energy density read in
  atomic valenz-charges read in
  non local Contribution for L=           2  read in
    real space projection operators read in
  non local Contribution for L=           2  read in
    real space projection operators read in
  non local Contribution for L=           0  read in
    real space projection operators read in
  non local Contribution for L=           0  read in
    real space projection operators read in
  non local Contribution for L=           1  read in
    real space projection operators read in
  non local Contribution for L=           1  read in
    real space projection operators read in
    PAW grid and wavefunctions read in
 
   number of l-projection  operators is LMAX  =           6
   number of lm-projection operators is LMMAX =          18
 
  PAW_PBE Co 02Aug2007                  :
 energy of atom  1       EATOM= -813.3670
 kinetic energy error for atom=    0.0093 (will be added to EATOM!!)
 
 
 POSCAR: Co
  positions in cartesian coordinates
  No initial velocities read in
 exchange correlation table for  LEXCH =        8
   RHO(1)=    0.500       N(1)  =     2000
   RHO(2)=  100.500       N(2)  =     4000
 


--------------------------------------------------------------------------------------------------------


 ion  position               nearest neighbor table
   1  0.000  0.000  0.000-   2 2.45   2 2.45   2 2.45   2 2.45   2 2.45   2 2.45
   2  0.333  0.667  0.500-   1 2.45   1 2.45   1 2.45   1 2.45   1 2.45   1 2.45
 
  LATTYP: Found a hexagonal cell.
 ALAT       =     2.4644571549
 C/A-ratio  =     1.6179593006
  
  Lattice vectors:
  
 A1 = (   2.4644571549,   0.0000000000,   0.0000000000)
 A2 = (  -1.2322285774,   2.1342825027,   0.0000000000)
 A3 = (   0.0000000000,   0.0000000000,   3.9873913747)


Analysis of symmetry for initial positions (statically):
=====================================================================
 Subroutine PRICEL returns:
 Original cell was already a primitive cell.
 

 Routine SETGRP: Setting up the symmetry group for a 
 hexagonal supercell.


 Subroutine GETGRP returns: Found 24 space group operations
 (whereof 12 operations were pure point group operations)
 out of a pool of 24 trial point group operations.


The static configuration has the point symmetry D_3h.
 The point group associated with its full space group is D_6h.


Analysis of symmetry for dynamics (positions and initial velocities):
=====================================================================
 Subroutine PRICEL returns:
 Original cell was already a primitive cell.
 

 Routine SETGRP: Setting up the symmetry group for a 
 hexagonal supercell.


 Subroutine GETGRP returns: Found 24 space group operations
 (whereof 12 operations were pure point group operations)
 out of a pool of 24 trial point group operations.


The dynamic configuration has the point symmetry D_3h.
 The point group associated with its full space group is D_6h.


Analysis of structural, dynamic, and magnetic symmetry:
=====================================================================
 Subroutine PRICEL returns:
 Original cell was already a primitive cell.
 

 Routine SETGRP: Setting up the symmetry group for a 
 hexagonal supercell.


 Subroutine GETGRP returns: Found 24 space group operations
 (whereof 12 operations were pure point group operations)
 out of a pool of 24 trial point group operations.


The overall configuration has the point symmetry D_3h.
 The point group associated with its full space group is D_6h.


 Subroutine INISYM returns: Found 24 space group operations
 (whereof 12 operations are pure point group operations),
 and found     1 'primitive' translations


----------------------------------------------------------------------------------------

                                     Primitive cell                                     

  volume of cell :      20.9731

  direct lattice vectors                    reciprocal lattice vectors
     2.464457155  0.000000000  0.000000000     0.405768872  0.234270768  0.000000000
    -1.232228577  2.134282503  0.000000000     0.000000000  0.468541535  0.000000000
     0.000000000  0.000000000  3.987391375     0.000000000  0.000000000  0.250790531

  length of vectors
     2.464457155  2.464457155  3.987391375     0.468541535  0.468541535  0.250790531

  position of ions in fractional coordinates (direct lattice)
     0.000000000  0.000000000  0.000000000
     0.333333333  0.666666667  0.500000000

  ion indices of the primitive-cell ions
   primitive index   ion index
                 1           1
                 2           2

----------------------------------------------------------------------------------------

 
 
 KPOINTS: Automatic mesh                          

Automatic generation of k-mesh.
 Grid dimensions read from file:
 generate k-points for:   10   10    8

 Generating k-lattice:

  Cartesian coordinates                     Fractional coordinates (reciprocal lattice)
     0.040576887  0.023427077  0.000000000     0.100000000  0.000000000  0.000000000
     0.000000000  0.046854154  0.000000000     0.000000000  0.100000000  0.000000000
     0.000000000  0.000000000  0.031348816     0.000000000  0.000000000  0.125000000

  Length of vectors
     0.046854154  0.046854154  0.031348816

  Shift w.r.t. Gamma in fractional coordinates (k-lattice)
     0.000000000  0.000000000  0.000000000

 
 Subroutine IBZKPT returns following result:
 ===========================================
 
 Found     70 irreducible k-points:
 
 Following reciprocal coordinates:
            Coordinates               Weight
  0.000000  0.000000  0.000000      1.000000
  0.100000  0.000000  0.000000      6.000000
  0.200000  0.000000  0.000000      6.000000
  0.300000  0.000000  0.000000      6.000000
  0.400000  0.000000  0.000000      6.000000
  0.500000  0.000000  0.000000      3.000000
  0.100000  0.100000  0.000000      6.000000
  0.200000  0.100000  0.000000     12.000000
  0.300000  0.100000  0.000000     12.000000
  0.400000  0.100000  0.000000     12.000000
  0.200000  0.200000  0.000000      6.000000
  0.300000  0.200000  0.000000     12.000000
  0.400000  0.200000  0.000000      6.000000
  0.300000  0.300000  0.000000      6.000000
  0.000000  0.000000  0.125000      2.000000
  0.100000  0.000000  0.125000     12.000000
  0.200000  0.000000  0.125000     12.000000
  0.300000  0.000000  0.125000     12.000000
  0.400000  0.000000  0.125000     12.000000
  0.500000  0.000000  0.125000      6.000000
  0.100000  0.100000  0.125000     12.000000
  0.200000  0.100000  0.125000     24.000000
  0.300000  0.100000  0.125000     24.000000
  0.400000  0.100000  0.125000     24.000000
  0.200000  0.200000  0.125000     12.000000
  0.300000  0.200000  0.125000     24.000000
  0.400000  0.200000  0.125000     12.000000
  0.300000  0.300000  0.125000     12.000000
  0.000000  0.000000  0.250000      2.000000
  0.100000  0.000000  0.250000     12.000000
  0.200000  0.000000  0.250000     12.000000
  0.300000  0.000000  0.250000     12.000000
  0.400000  0.000000  0.250000     12.000000
  0.500000  0.000000  0.250000      6.000000
  0.100000  0.100000  0.250000     12.000000
  0.200000  0.100000  0.250000     24.000000
  0.300000  0.100000  0.250000     24.000000
  0.400000  0.100000  0.250000     24.000000
  0.200000  0.200000  0.250000     12.000000
  0.300000  0.200000  0.250000     24.000000
  0.400000  0.200000  0.250000     12.000000
  0.300000  0.300000  0.250000     12.000000
  0.000000  0.000000  0.375000      2.000000
  0.100000  0.000000  0.375000     12.000000
  0.200000  0.000000  0.375000     12.000000
  0.300000  0.000000  0.375000     12.000000
  0.400000  0.000000  0.375000     12.000000
  0.500000  0.000000  0.375000      6.000000
  0.100000  0.100000  0.375000     12.000000
  0.200000  0.100000  0.375000     24.000000
  0.300000  0.100000  0.375000     24.000000
  0.400000  0.100000  0.375000     24.000000
  0.200000  0.200000  0.375000     12.000000
  0.300000  0.200000  0.375000     24.000000
  0.400000  0.200000  0.375000     12.000000
  0.300000  0.300000  0.375000     12.000000
  0.000000  0.000000  0.500000      1.000000
  0.100000  0.000000  0.500000      6.000000
  0.200000  0.000000  0.500000      6.000000
  0.300000  0.000000  0.500000      6.000000
  0.400000  0.000000  0.500000      6.000000
  0.500000  0.000000  0.500000      3.000000
  0.100000  0.100000  0.500000      6.000000
  0.200000  0.100000  0.500000     12.000000
  0.300000  0.100000  0.500000     12.000000
  0.400000  0.100000  0.500000     12.000000
  0.200000  0.200000  0.500000      6.000000
  0.300000  0.200000  0.500000     12.000000
  0.400000  0.200000  0.500000      6.000000
  0.300000  0.300000  0.500000      6.000000
 
 Following cartesian coordinates:
            Coordinates               Weight
  0.000000  0.000000  0.000000      1.000000
  0.040577  0.023427  0.000000      6.000000
  0.081154  0.046854  0.000000      6.000000
  0.121731  0.070281  0.000000      6.000000
  0.162308  0.093708  0.000000      6.000000
  0.202884  0.117135  0.000000      3.000000
  0.040577  0.070281  0.000000      6.000000
  0.081154  0.093708  0.000000     12.000000
  0.121731  0.117135  0.000000     12.000000
  0.162308  0.140562  0.000000     12.000000
  0.081154  0.140562  0.000000      6.000000
  0.121731  0.163990  0.000000     12.000000
  0.162308  0.187417  0.000000      6.000000
  0.121731  0.210844  0.000000      6.000000
  0.000000  0.000000  0.031349      2.000000
  0.040577  0.023427  0.031349     12.000000
  0.081154  0.046854  0.031349     12.000000
  0.121731  0.070281  0.031349     12.000000
  0.162308  0.093708  0.031349     12.000000
  0.202884  0.117135  0.031349      6.000000
  0.040577  0.070281  0.031349     12.000000
  0.081154  0.093708  0.031349     24.000000
  0.121731  0.117135  0.031349     24.000000
  0.162308  0.140562  0.031349     24.000000
  0.081154  0.140562  0.031349     12.000000
  0.121731  0.163990  0.031349     24.000000
  0.162308  0.187417  0.031349     12.000000
  0.121731  0.210844  0.031349     12.000000
  0.000000  0.000000  0.062698      2.000000
  0.040577  0.023427  0.062698     12.000000
  0.081154  0.046854  0.062698     12.000000
  0.121731  0.070281  0.062698     12.000000
  0.162308  0.093708  0.062698     12.000000
  0.202884  0.117135  0.062698      6.000000
  0.040577  0.070281  0.062698     12.000000
  0.081154  0.093708  0.062698     24.000000
  0.121731  0.117135  0.062698     24.000000
  0.162308  0.140562  0.062698     24.000000
  0.081154  0.140562  0.062698     12.000000
  0.121731  0.163990  0.062698     24.000000
  0.162308  0.187417  0.062698     12.000000
  0.121731  0.210844  0.062698     12.000000
  0.000000  0.000000  0.094046      2.000000
  0.040577  0.023427  0.094046     12.000000
  0.081154  0.046854  0.094046     12.000000
  0.121731  0.070281  0.094046     12.000000
  0.162308  0.093708  0.094046     12.000000
  0.202884  0.117135  0.094046      6.000000
  0.040577  0.070281  0.094046     12.000000
  0.081154  0.093708  0.094046     24.000000
  0.121731  0.117135  0.094046     24.000000
  0.162308  0.140562  0.094046     24.000000
  0.081154  0.140562  0.094046     12.000000
  0.121731  0.163990  0.094046     24.000000
  0.162308  0.187417  0.094046     12.000000
  0.121731  0.210844  0.094046     12.000000
  0.000000  0.000000  0.125395      1.000000
  0.040577  0.023427  0.125395      6.000000
  0.081154  0.046854  0.125395      6.000000
  0.121731  0.070281  0.125395      6.000000
  0.162308  0.093708  0.125395      6.000000
  0.202884  0.117135  0.125395      3.000000
  0.040577  0.070281  0.125395      6.000000
  0.081154  0.093708  0.125395     12.000000
  0.121731  0.117135  0.125395     12.000000
  0.162308  0.140562  0.125395     12.000000
  0.081154  0.140562  0.125395      6.000000
  0.121731  0.163990  0.125395     12.000000
  0.162308  0.187417  0.125395      6.000000
  0.121731  0.210844  0.125395      6.000000
 


--------------------------------------------------------------------------------------------------------




 Dimension of arrays:
   k-points           NKPTS =     70   k-points in BZ     NKDIM =     70   number of bands    NBANDS=     16
   number of dos      NEDOS =    301   number of ions     NIONS =      2
   non local maximal  LDIM  =      6   non local SUM 2l+1 LMDIM =     18
   total plane-waves  NPLWV =   7168
   max r-space proj   IRMAX =      1   max aug-charges    IRDMAX=  13677
   dimension x,y,z NGX =    16 NGY =   16 NGZ =   28
   dimension x,y,z NGXF=    32 NGYF=   32 NGZF=   56
   support grid    NGXF=    32 NGYF=   32 NGZF=   56
   ions per type =               2
   NGX,Y,Z   is equivalent  to a cutoff of  10.79, 10.79, 11.67 a.u.
   NGXF,Y,Z  is equivalent  to a cutoff of  21.59, 21.59, 23.35 a.u.

 SYSTEM =  Co-hcc                                  
 POSCAR =  Co                                      

 Startparameter for this run:
   NWRITE =      2    write-flag & timer
   PREC   = accura    normal or accurate (medium, high low for compatibility)
   ISTART =      0    job   : 0-new  1-cont  2-samecut
   ICHARG =      2    charge: 1-file 2-atom 10-const
   ISPIN  =      2    spin polarized calculation?
   LNONCOLLINEAR =      F non collinear calculations
   LSORBIT =      F    spin-orbit coupling
   INIWAV =      1    electr: 0-lowe 1-rand  2-diag
   LASPH  =      F    aspherical Exc in radial PAW
 Electronic Relaxation 1
   ENCUT  =  400.0 eV  29.40 Ry    5.42 a.u.   4.02  4.02  6.50*2*pi/ulx,y,z
   ENINI  =  400.0     initial cutoff
   ENAUG  =  477.8 eV  augmentation charge cutoff
   NELM   =    100;   NELMIN=  2; NELMDL= -5     # of ELM steps 
   EDIFF  = 0.1E-05   stopping-criterion for ELM
   LREAL  =      F    real-space projection
   NLSPLINE    = F    spline interpolate recip. space projectors
   LCOMPAT=      F    compatible to vasp.4.4
   GGA_COMPAT  = T    GGA compatible to vasp.4.4-vasp.4.6
   LMAXPAW     = -100 max onsite density
   LMAXMIX     =    2 max onsite mixed and CHGCAR
   VOSKOWN=      0    Vosko Wilk Nusair interpolation
   ROPT   =    0.00000
 Ionic relaxation
   EDIFFG = -.2E-01   stopping-criterion for IOM
   NSW    =    100    number of steps for IOM
   NBLOCK =      1;   KBLOCK =    100    inner block; outer block 
   IBRION =      2    ionic relax: 0-MD 1-quasi-New 2-CG
   NFREE  =      1    steps in history (QN), initial steepest desc. (CG)
   ISIF   =      2    stress and relaxation
   IWAVPR =     11    prediction:  0-non 1-charg 2-wave 3-comb
   ISYM   =      1    0-nonsym 1-usesym 2-fastsym
   LCORR  =      T    Harris-Foulkes like correction to forces

   POTIM  = 0.5000    time-step for ionic-motion
   TEIN   =    0.0    initial temperature
   TEBEG  =    0.0;   TEEND  =   0.0 temperature during run
   SMASS  =  -3.00    Nose mass-parameter (am)
   estimated Nose-frequenzy (Omega)   =  0.10E-29 period in steps = 0.13E+47 mass=  -0.139E-27a.u.
   SCALEE = 1.0000    scale energy and forces
   NPACO  =    256;   APACO  = 10.0  distance and # of slots for P.C.
   PSTRESS=    0.0 pullay stress

  Mass of Ions in am
   POMASS =  58.93
  Ionic Valenz
   ZVAL   =   9.00
  Atomic Wigner-Seitz radii
   RWIGS  =  -1.00
  virtual crystal weights 
   VCA    =   1.00
   NELECT =      18.0000    total number of electrons
   NUPDOWN=      -1.0000    fix difference up-down

 DOS related values:
   EMIN   =  10.00;   EMAX   =-10.00  energy-range for DOS
   EFERMI =   0.00
   ISMEAR =     0;   SIGMA  =   0.05  broadening in eV -4-tet -1-fermi 0-gaus

 Electronic relaxation 2 (details)
   IALGO  =     38    algorithm
   LDIAG  =      T    sub-space diagonalisation (order eigenvalues)
   LSUBROT=      F    optimize rotation matrix (better conditioning)
   TURBO    =      0    0=normal 1=particle mesh
   IRESTART =      0    0=no restart 2=restart with 2 vectors
   NREBOOT  =      0    no. of reboots
   NMIN     =      0    reboot dimension
   EREF     =   0.00    reference energy to select bands
   IMIX   =      4    mixing-type and parameters
     AMIX     =   0.40;   BMIX     =  1.00
     AMIX_MAG =   1.60;   BMIX_MAG =  1.00
     AMIN     =   0.10
     WC   =   100.;   INIMIX=   1;  MIXPRE=   1;  MAXMIX= -45

 Intra band minimization:
   WEIMIN = 0.0010     energy-eigenvalue tresh-hold
   EBREAK =  0.16E-07  absolut break condition
   DEPER  =   0.30     relativ break condition  

   TIME   =   0.40     timestep for ELM

  volume/ion in A,a.u.               =      10.49        70.77
  Fermi-wavevector in a.u.,A,eV,Ry     =   1.555769  2.939976 32.931756  2.420416
  Thomas-Fermi vector in A             =   2.659662
 
 Write flags
   LWAVE        =      T    write WAVECAR
   LDOWNSAMPLE  =      F    k-point downsampling of WAVECAR
   LCHARG       =      T    write CHGCAR
   LVTOT        =      F    write LOCPOT, total local potential
   LVHAR        =      F    write LOCPOT, Hartree potential only
   LELF         =      F    write electronic localiz. function (ELF)
   LORBIT       =     11    0 simple, 1 ext, 2 COOP (PROOUT), +10 PAW based schemes


 Dipole corrections
   LMONO  =      F    monopole corrections only (constant potential shift)
   LDIPOL =      F    correct potential (dipole corrections)
   IDIPOL =      0    1-x, 2-y, 3-z, 4-all directions 
   EPSILON=  1.0000000 bulk dielectric constant

 Exchange correlation treatment:
   GGA     =    --    GGA type
   LEXCH   =     8    internal setting for exchange type
   LIBXC   =     F    Libxc                    
   VOSKOWN =     0    Vosko Wilk Nusair interpolation
   LHFCALC =     F    Hartree Fock is set to
   LHFONE  =     F    Hartree Fock one center treatment
   AEXX    =    0.0000 exact exchange contribution

 Linear response parameters
   LEPSILON=     F    determine dielectric tensor
   LRPA    =     F    only Hartree local field effects (RPA)
   LNABLA  =     F    use nabla operator in PAW spheres
   LVEL    =     F    velocity operator in full k-point grid
   CSHIFT  =0.1000    complex shift for real part using Kramers Kronig
   OMEGAMAX=  -1.0    maximum frequency
   DEG_THRESHOLD= 0.2000000E-02 threshold for treating states as degnerate
   RTIME   =   -0.100 relaxation time in fs
  (WPLASMAI=    0.000 imaginary part of plasma frequency in eV, 0.658/RTIME)
   DFIELD  = 0.0000000 0.0000000 0.0000000 field for delta impulse in time
 
  Optional k-point grid parameters
   LKPOINTS_OPT  =     F    use optional k-point grid
   KPOINTS_OPT_MODE=     1    mode for optional k-point grid
 
 Orbital magnetization related:
   ORBITALMAG=     F  switch on orbital magnetization
   LCHIMAG   =     F  perturbation theory with respect to B field
   DQ        =  0.001000  dq finite difference perturbation B field
   LLRAUG    =     F  two centre corrections for induced B field



--------------------------------------------------------------------------------------------------------


 conjugate gradient relaxation of ions
 charge density and potential will be updated during run
 spin polarized calculation
 Variant of blocked Davidson
 Davidson routine will perform the subspace rotation
 perform sub-space diagonalisation
    after iterative eigenvector-optimisation
 modified Broyden-mixing scheme, WC =      100.0
 initial mixing is a Kerker type mixing with AMIX =  0.4000 and BMIX =      1.0000
 Hartree-type preconditioning will be used
 using additional bands            7
 reciprocal scheme for non local part
 use partial core corrections
 calculate Harris-corrections to forces 
   (improved forces if not selfconsistent)
 use gradient corrections 
 use of overlap-Matrix (Vanderbilt PP)
 Gauss-broadening in eV      SIGMA  =   0.05


--------------------------------------------------------------------------------------------------------


  energy-cutoff  :      400.00
  volume of cell :       20.97
      direct lattice vectors                 reciprocal lattice vectors
     2.464457155  0.000000000  0.000000000     0.405768872  0.234270768  0.000000000
    -1.232228577  2.134282503  0.000000000     0.000000000  0.468541535  0.000000000
     0.000000000  0.000000000  3.987391375     0.000000000  0.000000000  0.250790531

  length of vectors
     2.464457155  2.464457155  3.987391375     0.468541535  0.468541535  0.250790531


 
 k-points in units of 2pi/SCALE and weight: Automatic mesh                          
   0.00000000  0.00000000  0.00000000       0.001
   0.04057689  0.02342708  0.00000000       0.007
   0.08115377  0.04685415  0.00000000       0.007
   0.12173066  0.07028123  0.00000000       0.007
   0.16230755  0.09370831  0.00000000       0.007
   0.20288444  0.11713538  0.00000000       0.004
   0.04057689  0.07028123  0.00000000       0.007
   0.08115377  0.09370831  0.00000000       0.015
   0.12173066  0.11713538  0.00000000       0.015
   0.16230755  0.14056246  0.00000000       0.015
   0.08115377  0.14056246  0.00000000       0.007
   0.12173066  0.16398954  0.00000000       0.015
   0.16230755  0.18741661  0.00000000       0.007
   0.12173066  0.21084369  0.00000000       0.007
   0.00000000  0.00000000  0.03134882       0.003
   0.04057689  0.02342708  0.03134882       0.015
   0.08115377  0.04685415  0.03134882       0.015
   0.12173066  0.07028123  0.03134882       0.015
   0.16230755  0.09370831  0.03134882       0.015
   0.20288444  0.11713538  0.03134882       0.007
   0.04057689  0.07028123  0.03134882       0.015
   0.08115377  0.09370831  0.03134882       0.030
   0.12173066  0.11713538  0.03134882       0.030
   0.16230755  0.14056246  0.03134882       0.030
   0.08115377  0.14056246  0.03134882       0.015
   0.12173066  0.16398954  0.03134882       0.030
   0.16230755  0.18741661  0.03134882       0.015
   0.12173066  0.21084369  0.03134882       0.015
   0.00000000  0.00000000  0.06269763       0.003
   0.04057689  0.02342708  0.06269763       0.015
   0.08115377  0.04685415  0.06269763       0.015
   0.12173066  0.07028123  0.06269763       0.015
   0.16230755  0.09370831  0.06269763       0.015
   0.20288444  0.11713538  0.06269763       0.007
   0.04057689  0.07028123  0.06269763       0.015
   0.08115377  0.09370831  0.06269763       0.030
   0.12173066  0.11713538  0.06269763       0.030
   0.16230755  0.14056246  0.06269763       0.030
   0.08115377  0.14056246  0.06269763       0.015
   0.12173066  0.16398954  0.06269763       0.030
   0.16230755  0.18741661  0.06269763       0.015
   0.12173066  0.21084369  0.06269763       0.015
   0.00000000  0.00000000  0.09404645       0.003
   0.04057689  0.02342708  0.09404645       0.015
   0.08115377  0.04685415  0.09404645       0.015
   0.12173066  0.07028123  0.09404645       0.015
   0.16230755  0.09370831  0.09404645       0.015
   0.20288444  0.11713538  0.09404645       0.007
   0.04057689  0.07028123  0.09404645       0.015
   0.08115377  0.09370831  0.09404645       0.030
   0.12173066  0.11713538  0.09404645       0.030
   0.16230755  0.14056246  0.09404645       0.030
   0.08115377  0.14056246  0.09404645       0.015
   0.12173066  0.16398954  0.09404645       0.030
   0.16230755  0.18741661  0.09404645       0.015
   0.12173066  0.21084369  0.09404645       0.015
   0.00000000  0.00000000  0.12539527       0.001
   0.04057689  0.02342708  0.12539527       0.007
   0.08115377  0.04685415  0.12539527       0.007
   0.12173066  0.07028123  0.12539527       0.007
   0.16230755  0.09370831  0.12539527       0.007
   0.20288444  0.11713538  0.12539527       0.004
   0.04057689  0.07028123  0.12539527       0.007
   0.08115377  0.09370831  0.12539527       0.015
   0.12173066  0.11713538  0.12539527       0.015
   0.16230755  0.14056246  0.12539527       0.015
   0.08115377  0.14056246  0.12539527       0.007
   0.12173066  0.16398954  0.12539527       0.015
   0.16230755  0.18741661  0.12539527       0.007
   0.12173066  0.21084369  0.12539527       0.007
 
 k-points in reciprocal lattice and weights: Automatic mesh                          
   0.00000000  0.00000000  0.00000000       0.001
   0.10000000  0.00000000  0.00000000       0.007
   0.20000000  0.00000000  0.00000000       0.007
   0.30000000  0.00000000  0.00000000       0.007
   0.40000000  0.00000000  0.00000000       0.007
   0.50000000  0.00000000  0.00000000       0.004
   0.10000000  0.10000000  0.00000000       0.007
   0.20000000  0.10000000  0.00000000       0.015
   0.30000000  0.10000000  0.00000000       0.015
   0.40000000  0.10000000  0.00000000       0.015
   0.20000000  0.20000000  0.00000000       0.007
   0.30000000  0.20000000  0.00000000       0.015
   0.40000000  0.20000000  0.00000000       0.007
   0.30000000  0.30000000  0.00000000       0.007
   0.00000000  0.00000000  0.12500000       0.003
   0.10000000  0.00000000  0.12500000       0.015
   0.20000000  0.00000000  0.12500000       0.015
   0.30000000  0.00000000  0.12500000       0.015
   0.40000000  0.00000000  0.12500000       0.015
   0.50000000  0.00000000  0.12500000       0.007
   0.10000000  0.10000000  0.12500000       0.015
   0.20000000  0.10000000  0.12500000       0.030
   0.30000000  0.10000000  0.12500000       0.030
   0.40000000  0.10000000  0.12500000       0.030
   0.20000000  0.20000000  0.12500000       0.015
   0.30000000  0.20000000  0.12500000       0.030
   0.40000000  0.20000000  0.12500000       0.015
   0.30000000  0.30000000  0.12500000       0.015
   0.00000000  0.00000000  0.25000000       0.003
   0.10000000  0.00000000  0.25000000       0.015
   0.20000000  0.00000000  0.25000000       0.015
   0.30000000  0.00000000  0.25000000       0.015
   0.40000000  0.00000000  0.25000000       0.015
   0.50000000  0.00000000  0.25000000       0.007
   0.10000000  0.10000000  0.25000000       0.015
   0.20000000  0.10000000  0.25000000       0.030
   0.30000000  0.10000000  0.25000000       0.030
   0.40000000  0.10000000  0.25000000       0.030
   0.20000000  0.20000000  0.25000000       0.015
   0.30000000  0.20000000  0.25000000       0.030
   0.40000000  0.20000000  0.25000000       0.015
   0.30000000  0.30000000  0.25000000       0.015
   0.00000000  0.00000000  0.37500000       0.003
   0.10000000  0.00000000  0.37500000       0.015
   0.20000000  0.00000000  0.37500000       0.015
   0.30000000  0.00000000  0.37500000       0.015
   0.40000000  0.00000000  0.37500000       0.015
   0.50000000  0.00000000  0.37500000       0.007
   0.10000000  0.10000000  0.37500000       0.015
   0.20000000  0.10000000  0.37500000       0.030
   0.30000000  0.10000000  0.37500000       0.030
   0.40000000  0.10000000  0.37500000       0.030
   0.20000000  0.20000000  0.37500000       0.015
   0.30000000  0.20000000  0.37500000       0.030
   0.40000000  0.20000000  0.37500000       0.015
   0.30000000  0.30000000  0.37500000       0.015
   0.00000000  0.00000000  0.50000000       0.001
   0.10000000  0.00000000  0.50000000       0.007
   0.20000000  0.00000000  0.50000000       0.007
   0.30000000  0.00000000  0.50000000       0.007
   0.40000000  0.00000000  0.50000000       0.007
   0.50000000  0.00000000  0.50000000       0.004
   0.10000000  0.10000000  0.50000000       0.007
   0.20000000  0.10000000  0.50000000       0.015
   0.30000000  0.10000000  0.50000000       0.015
   0.40000000  0.10000000  0.50000000       0.015
   0.20000000  0.20000000  0.50000000       0.007
   0.30000000  0.20000000  0.50000000       0.015
   0.40000000  0.20000000  0.50000000       0.007
   0.30000000  0.30000000  0.50000000       0.007
 
 position of ions in fractional coordinates (direct lattice) 
   0.00000000  0.00000000  0.00000000
   0.33333333  0.66666667  0.50000000
 
 position of ions in cartesian coordinates  (Angst):
   0.00000000  0.00000000  0.00000000
   0.00000000  1.42285500  1.99369569
 


--------------------------------------------------------------------------------------------------------


 k-point   1 :   0.0000 0.0000 0.0000  plane waves:     379
 k-point   2 :   0.1000 0.0000 0.0000  plane waves:     379
 k-point   3 :   0.2000 0.0000 0.0000  plane waves:     379
 k-point   4 :   0.3000 0.0000 0.0000  plane waves:     383
 k-point   5 :   0.4000 0.0000 0.0000  plane waves:     373
 k-point   6 :   0.5000 0.0000 0.0000  plane waves:     382
 k-point   7 :   0.1000 0.1000 0.0000  plane waves:     374
 k-point   8 :   0.2000 0.1000 0.0000  plane waves:     380
 k-point   9 :   0.3000 0.1000 0.0000  plane waves:     381
 k-point  10 :   0.4000 0.1000 0.0000  plane waves:     385
 k-point  11 :   0.2000 0.2000 0.0000  plane waves:     388
 k-point  12 :   0.3000 0.2000 0.0000  plane waves:     387
 k-point  13 :   0.4000 0.2000 0.0000  plane waves:     382
 k-point  14 :   0.3000 0.3000 0.0000  plane waves:     382
 k-point  15 :   0.0000 0.0000 0.1250  plane waves:     379
 k-point  16 :   0.1000 0.0000 0.1250  plane waves:     376
 k-point  17 :   0.2000 0.0000 0.1250  plane waves:     375
 k-point  18 :   0.3000 0.0000 0.1250  plane waves:     379
 k-point  19 :   0.4000 0.0000 0.1250  plane waves:     380
 k-point  20 :   0.5000 0.0000 0.1250  plane waves:     382
 k-point  21 :   0.1000 0.1000 0.1250  plane waves:     373
 k-point  22 :   0.2000 0.1000 0.1250  plane waves:     379
 k-point  23 :   0.3000 0.1000 0.1250  plane waves:     387
 k-point  24 :   0.4000 0.1000 0.1250  plane waves:     386
 k-point  25 :   0.2000 0.2000 0.1250  plane waves:     384
 k-point  26 :   0.3000 0.2000 0.1250  plane waves:     386
 k-point  27 :   0.4000 0.2000 0.1250  plane waves:     383
 k-point  28 :   0.3000 0.3000 0.1250  plane waves:     386
 k-point  29 :   0.0000 0.0000 0.2500  plane waves:     361
 k-point  30 :   0.1000 0.0000 0.2500  plane waves:     368
 k-point  31 :   0.2000 0.0000 0.2500  plane waves:     378
 k-point  32 :   0.3000 0.0000 0.2500  plane waves:     381
 k-point  33 :   0.4000 0.0000 0.2500  plane waves:     385
 k-point  34 :   0.5000 0.0000 0.2500  plane waves:     380
 k-point  35 :   0.1000 0.1000 0.2500  plane waves:     374
 k-point  36 :   0.2000 0.1000 0.2500  plane waves:     379
 k-point  37 :   0.3000 0.1000 0.2500  plane waves:     386
 k-point  38 :   0.4000 0.1000 0.2500  plane waves:     384
 k-point  39 :   0.2000 0.2000 0.2500  plane waves:     383
 k-point  40 :   0.3000 0.2000 0.2500  plane waves:     386
 k-point  41 :   0.4000 0.2000 0.2500  plane waves:     384
 k-point  42 :   0.3000 0.3000 0.2500  plane waves:     384
 k-point  43 :   0.0000 0.0000 0.3750  plane waves:     361
 k-point  44 :   0.1000 0.0000 0.3750  plane waves:     365
 k-point  45 :   0.2000 0.0000 0.3750  plane waves:     373
 k-point  46 :   0.3000 0.0000 0.3750  plane waves:     379
 k-point  47 :   0.4000 0.0000 0.3750  plane waves:     381
 k-point  48 :   0.5000 0.0000 0.3750  plane waves:     376
 k-point  49 :   0.1000 0.1000 0.3750  plane waves:     370
 k-point  50 :   0.2000 0.1000 0.3750  plane waves:     379
 k-point  51 :   0.3000 0.1000 0.3750  plane waves:     384
 k-point  52 :   0.4000 0.1000 0.3750  plane waves:     386
 k-point  53 :   0.2000 0.2000 0.3750  plane waves:     385
 k-point  54 :   0.3000 0.2000 0.3750  plane waves:     383
 k-point  55 :   0.4000 0.2000 0.3750  plane waves:     386
 k-point  56 :   0.3000 0.3000 0.3750  plane waves:     384
 k-point  57 :   0.0000 0.0000 0.5000  plane waves:     362
 k-point  58 :   0.1000 0.0000 0.5000  plane waves:     362
 k-point  59 :   0.2000 0.0000 0.5000  plane waves:     380
 k-point  60 :   0.3000 0.0000 0.5000  plane waves:     382
 k-point  61 :   0.4000 0.0000 0.5000  plane waves:     376
 k-point  62 :   0.5000 0.0000 0.5000  plane waves:     380
 k-point  63 :   0.1000 0.1000 0.5000  plane waves:     374
 k-point  64 :   0.2000 0.1000 0.5000  plane waves:     380
 k-point  65 :   0.3000 0.1000 0.5000  plane waves:     380
 k-point  66 :   0.4000 0.1000 0.5000  plane waves:     384
 k-point  67 :   0.2000 0.2000 0.5000  plane waves:     380
 k-point  68 :   0.3000 0.2000 0.5000  plane waves:     382
 k-point  69 :   0.4000 0.2000 0.5000  plane waves:     382
 k-point  70 :   0.3000 0.3000 0.5000  plane waves:     376

 maximum and minimum number of plane-waves per node :        69       55

 maximum number of plane-waves:       388
 maximum index in each direction: 
   IXMAX=    4   IYMAX=    4   IZMAX=    6
   IXMIN=   -4   IYMIN=   -4   IZMIN=   -7


 parallel 3D FFT for wavefunctions:
    minimum data exchange during FFTs selected (reduces bandwidth)
 parallel 3D FFT for charge:
    minimum data exchange during FFTs selected (reduces bandwidth)


 total amount of memory used by VASP MPI-rank0    32033. kBytes
=======================================================================

   base      :      30000. kBytes
   nonl-proj :        687. kBytes
   fftplans  :        153. kBytes
   grid      :        374. kBytes
   one-center:         31. kBytes
   wavefun   :        788. kBytes
 
     INWAV:  cpu time      0.0000: real time      0.0001
 Broyden mixing: mesh for mixing (old mesh)
   NGX =  9   NGY =  9   NGZ = 13
  (NGX  = 32   NGY  = 32   NGZ  = 56)
  gives a total of   1053 points

 initial charge density was supplied:
 charge density of overlapping atoms calculated
 number of electron      18.0000000 magnetization       6.0000000
 keeping initial charge density in first step


--------------------------------------------------------------------------------------------------------


 Maximum index for augmentation-charges         1090 (set IRDMAX)


--------------------------------------------------------------------------------------------------------


 First call to EWALD:  gamma=   0.643
 Maximum number of real-space cells 3x 3x 2
 Maximum number of reciprocal cells 3x 3x 4

    FEWALD:  cpu time      0.0015: real time      0.0015


--------------------------------------- Iteration      1(   1)  ---------------------------------------


    POTLOK:  cpu time      0.0061: real time      0.0063
    SETDIJ:  cpu time      0.0054: real time      0.0055
     EDDAV:  cpu time      0.4186: real time      0.4211
       DOS:  cpu time      0.0021: real time      0.0022
    --------------------------------------------
      LOOP:  cpu time      0.4323: real time      0.4350

 eigenvalue-minimisations  :  4704
 total energy-change (2. order) : 0.6846549E+02  (-0.6719996E+03)
 number of electron      18.0000000 magnetization       6.0000000
 augmentation part       18.0000000 magnetization       6.0000000

 Free energy of the ion-electron system (eV)
  ---------------------------------------------------
  alpha Z        PSCENC =        80.78490654
  Ewald energy   TEWEN  =     -1539.02558642
  -Hartree energ DENC   =      -292.80172177
  -exchange      EXHF   =         0.00000000
  -V(xc)+E(xc)   XCENC  =        35.85356469
  PAW double counting   =      1439.98163886    -1545.88690193
  entropy T*S    EENTRO =        -0.00287526
  eigenvalues    EBANDS =       262.84699547
  atomic energy  EATOM  =      1626.71546820
  Solvation  Ediel_sol  =         0.00000000
  ---------------------------------------------------
  free energy    TOTEN  =        68.46548838 eV

  energy without entropy =       68.46836365  energy(sigma->0) =       68.46692602


--------------------------------------------------------------------------------------------------------




--------------------------------------- Iteration      1(   2)  ---------------------------------------


     EDDAV:  cpu time      0.3901: real time      0.3932
       DOS:  cpu time      0.0012: real time      0.0012
    --------------------------------------------
      LOOP:  cpu time      0.3913: real time      0.3945

 eigenvalue-minimisations  :  4512
 total energy-change (2. order) :-0.8200110E+02  (-0.7558044E+02)
 number of electron      18.0000000 magnetization       6.0000000
 augmentation part       18.0000000 magnetization       6.0000000

 Free energy of the ion-electron system (eV)
  ---------------------------------------------------
  alpha Z        PSCENC =        80.78490654
  Ewald energy   TEWEN  =     -1539.02558642
  -Hartree energ DENC   =      -292.80172177
  -exchange      EXHF   =         0.00000000
  -V(xc)+E(xc)   XCENC  =        35.85356469
  PAW double counting   =      1439.98163886    -1545.88690193
  entropy T*S    EENTRO =        -0.00157463
  eigenvalues    EBANDS =       180.84459291
  atomic energy  EATOM  =      1626.71546820
  Solvation  Ediel_sol  =         0.00000000
  ---------------------------------------------------
  free energy    TOTEN  =       -13.53561354 eV

  energy without entropy =      -13.53403891  energy(sigma->0) =      -13.53482623


--------------------------------------------------------------------------------------------------------




--------------------------------------- Iteration      1(   3)  ---------------------------------------


     EDDAV:  cpu time      0.4750: real time      0.4780
       DOS:  cpu time      0.0014: real time      0.0014
    --------------------------------------------
      LOOP:  cpu time      0.4764: real time      0.4794

 eigenvalue-minimisations  :  5696
 total energy-change (2. order) :-0.1998357E+01  (-0.1968830E+01)
 number of electron      18.0000000 magnetization       6.0000000
 augmentation part       18.0000000 magnetization       6.0000000

 Free energy of the ion-electron system (eV)
  ---------------------------------------------------
  alpha Z        PSCENC =        80.78490654
  Ewald energy   TEWEN  =     -1539.02558642
  -Hartree energ DENC   =      -292.80172177
  -exchange      EXHF   =         0.00000000
  -V(xc)+E(xc)   XCENC  =        35.85356469
  PAW double counting   =      1439.98163886    -1545.88690193
  entropy T*S    EENTRO =        -0.00182784
  eigenvalues    EBANDS =       178.84648961
  atomic energy  EATOM  =      1626.71546820
  Solvation  Ediel_sol  =         0.00000000
  ---------------------------------------------------
  free energy    TOTEN  =       -15.53397005 eV

  energy without entropy =      -15.53214221  energy(sigma->0) =      -15.53305613


--------------------------------------------------------------------------------------------------------




--------------------------------------- Iteration      1(   4)  ---------------------------------------


     EDDAV:  cpu time      0.5380: real time      0.5414
       DOS:  cpu time      0.0013: real time      0.0014
    --------------------------------------------
      LOOP:  cpu time      0.5393: real time      0.5428

 eigenvalue-minimisations  :  6424
 total energy-change (2. order) :-0.3514202E-01  (-0.3513636E-01)
 number of electron      18.0000000 magnetization       6.0000000
 augmentation part       18.0000000 magnetization       6.0000000

 Free energy of the ion-electron system (eV)
  ---------------------------------------------------
  alpha Z        PSCENC =        80.78490654
  Ewald energy   TEWEN  =     -1539.02558642
  -Hartree energ DENC   =      -292.80172177
  -exchange      EXHF   =         0.00000000
  -V(xc)+E(xc)   XCENC  =        35.85356469
  PAW double counting   =      1439.98163886    -1545.88690193
  entropy T*S    EENTRO =        -0.00183285
  eigenvalues    EBANDS =       178.81135260
  atomic energy  EATOM  =      1626.71546820
  Solvation  Ediel_sol  =         0.00000000
  ---------------------------------------------------
  free energy    TOTEN  =       -15.56911207 eV

  energy without entropy =      -15.56727922  energy(sigma->0) =      -15.56819564


--------------------------------------------------------------------------------------------------------




--------------------------------------- Iteration      1(   5)  ---------------------------------------


     EDDAV:  cpu time      0.4711: real time      0.4741
       DOS:  cpu time      0.0013: real time      0.0014
    CHARGE:  cpu time      0.0196: real time      0.0197
    MIXING:  cpu time      0.0002: real time      0.0002
    --------------------------------------------
      LOOP:  cpu time      0.4922: real time      0.4953

 eigenvalue-minimisations  :  5632
 total energy-change (2. order) :-0.2212965E-03  (-0.2212958E-03)
 number of electron      17.9999987 magnetization       3.3356099
 augmentation part        9.1775724 magnetization       2.6028090

 Broyden mixing:
  rms(total) = 0.16772E+01    rms(broyden)= 0.16772E+01
  rms(prec ) = 0.27305E+01
  weight for this iteration     100.00

 Free energy of the ion-electron system (eV)
  ---------------------------------------------------
  alpha Z        PSCENC =        80.78490654
  Ewald energy   TEWEN  =     -1539.02558642
  -Hartree energ DENC   =      -292.80172177
  -exchange      EXHF   =         0.00000000
  -V(xc)+E(xc)   XCENC  =        35.85356469
  PAW double counting   =      1439.98163886    -1545.88690193
  entropy T*S    EENTRO =        -0.00183284
  eigenvalues    EBANDS =       178.81113130
  atomic energy  EATOM  =      1626.71546820
  Solvation  Ediel_sol  =         0.00000000
  ---------------------------------------------------
  free energy    TOTEN  =       -15.56933336 eV

  energy without entropy =      -15.56750052  energy(sigma->0) =      -15.56841694


--------------------------------------------------------------------------------------------------------




--------------------------------------- Iteration      1(   6)  ---------------------------------------


    POTLOK:  cpu time      0.0044: real time      0.0046
    SETDIJ:  cpu time      0.0051: real time      0.0052
     EDDAV:  cpu time      0.4081: real time      0.4106
       DOS:  cpu time      0.0014: real time      0.0014
    CHARGE:  cpu time      0.0187: real time      0.0188
    MIXING:  cpu time      0.0003: real time      0.0003
    --------------------------------------------
      LOOP:  cpu time      0.4380: real time      0.4407

 eigenvalue-minimisations  :  4816
 total energy-change (2. order) : 0.1184801E+01  (-0.1021620E+01)
 number of electron      17.9999984 magnetization       3.2125058
 augmentation part       10.6484389 magnetization       2.8282286

 Broyden mixing:
  rms(total) = 0.61292E+00    rms(broyden)= 0.61289E+00
  rms(prec ) = 0.81174E+00
  weight for this iteration     100.00

 eigenvalues of (default mixing * dielectric matrix)
  average eigenvalue GAMMA=   0.9113
  0.9113

 Free energy of the ion-electron system (eV)
  ---------------------------------------------------
  alpha Z        PSCENC =        80.78490654
  Ewald energy   TEWEN  =     -1539.02558642
  -Hartree energ DENC   =      -256.60182142
  -exchange      EXHF   =         0.00000000
  -V(xc)+E(xc)   XCENC  =        32.79710284
  PAW double counting   =      1604.65544739    -1700.72372245
  entropy T*S    EENTRO =        -0.00244223
  eigenvalues    EBANDS =       137.01611488
  atomic energy  EATOM  =      1626.71546820
  Solvation  Ediel_sol  =         0.00000000
  ---------------------------------------------------
  free energy    TOTEN  =       -14.38453267 eV

  energy without entropy =      -14.38209044  energy(sigma->0) =      -14.38331155


--------------------------------------------------------------------------------------------------------




--------------------------------------- Iteration      1(   7)  ---------------------------------------


    POTLOK:  cpu time      0.0042: real time      0.0044
    SETDIJ:  cpu time      0.0051: real time      0.0051
     EDDAV:  cpu time      0.4316: real time      0.4343
       DOS:  cpu time      0.0014: real time      0.0014
    CHARGE:  cpu time      0.0184: real time      0.0185
    MIXING:  cpu time      0.0003: real time      0.0003
    --------------------------------------------
      LOOP:  cpu time      0.4610: real time      0.4640

 eigenvalue-minimisations  :  5176
 total energy-change (2. order) : 0.2904121E+00  (-0.1342351E+00)
 number of electron      17.9999985 magnetization       3.2291636
 augmentation part       10.1618827 magnetization       2.8798512

 Broyden mixing:
  rms(total) = 0.38426E+00    rms(broyden)= 0.38426E+00
  rms(prec ) = 0.46017E+00
  weight for this iteration     100.00

 eigenvalues of (default mixing * dielectric matrix)
  average eigenvalue GAMMA=   0.7527
  1.0171  0.4883

 Free energy of the ion-electron system (eV)
  ---------------------------------------------------
  alpha Z        PSCENC =        80.78490654
  Ewald energy   TEWEN  =     -1539.02558642
  -Hartree energ DENC   =      -263.81697486
  -exchange      EXHF   =         0.00000000
  -V(xc)+E(xc)   XCENC  =        33.29848583
  PAW double counting   =      1690.65642541    -1793.51023912
  entropy T*S    EENTRO =        -0.00312807
  eigenvalues    EBANDS =       150.80652191
  atomic energy  EATOM  =      1626.71546820
  Solvation  Ediel_sol  =         0.00000000
  ---------------------------------------------------
  free energy    TOTEN  =       -14.09412058 eV

  energy without entropy =      -14.09099251  energy(sigma->0) =      -14.09255654


--------------------------------------------------------------------------------------------------------




--------------------------------------- Iteration      1(   8)  ---------------------------------------


    POTLOK:  cpu time      0.0042: real time      0.0044
    SETDIJ:  cpu time      0.0048: real time      0.0048
     EDDAV:  cpu time      0.5264: real time      0.5296
       DOS:  cpu time      0.0013: real time      0.0013
    CHARGE:  cpu time      0.0191: real time      0.0192
    MIXING:  cpu time      0.0003: real time      0.0003
    --------------------------------------------
      LOOP:  cpu time      0.5561: real time      0.5595

 eigenvalue-minimisations  :  6400
 total energy-change (2. order) : 0.2447276E-01  (-0.1884004E-02)
 number of electron      17.9999985 magnetization       3.2918386
 augmentation part       10.2010031 magnetization       2.9546521

 Broyden mixing:
  rms(total) = 0.18336E+00    rms(broyden)= 0.18336E+00
  rms(prec ) = 0.23141E+00
  weight for this iteration     100.00

 eigenvalues of (default mixing * dielectric matrix)
  average eigenvalue GAMMA=   1.0566
  1.8051  0.8047  0.5601

 Free energy of the ion-electron system (eV)
  ---------------------------------------------------
  alpha Z        PSCENC =        80.78490654
  Ewald energy   TEWEN  =     -1539.02558642
  -Hartree energ DENC   =      -261.13031748
  -exchange      EXHF   =         0.00000000
  -V(xc)+E(xc)   XCENC  =        33.22062267
  PAW double counting   =      1751.47759724    -1855.56479956
  entropy T*S    EENTRO =        -0.00305765
  eigenvalues    EBANDS =       149.45551865
  atomic energy  EATOM  =      1626.71546820
  Solvation  Ediel_sol  =         0.00000000
  ---------------------------------------------------
  free energy    TOTEN  =       -14.06964781 eV

  energy without entropy =      -14.06659016  energy(sigma->0) =      -14.06811899


--------------------------------------------------------------------------------------------------------




--------------------------------------- Iteration      1(   9)  ---------------------------------------


    POTLOK:  cpu time      0.0045: real time      0.0047
    SETDIJ:  cpu time      0.0050: real time      0.0050
     EDDAV:  cpu time      0.5405: real time      0.5438
       DOS:  cpu time      0.0014: real time      0.0014
    CHARGE:  cpu time      0.0183: real time      0.0184
    MIXING:  cpu time      0.0002: real time      0.0002
    --------------------------------------------
      LOOP:  cpu time      0.5700: real time      0.5735

 eigenvalue-minimisations  :  6672
 total energy-change (2. order) : 0.1449458E-01  (-0.5548437E-03)
 number of electron      17.9999985 magnetization       3.3151648
 augmentation part       10.2380176 magnetization       2.9825802

 Broyden mixing:
  rms(total) = 0.51249E-01    rms(broyden)= 0.51249E-01
  rms(prec ) = 0.58424E-01
  weight for this iteration     100.00

 eigenvalues of (default mixing * dielectric matrix)
  average eigenvalue GAMMA=   1.1398
  2.3073  0.8381  0.8022  0.6115

 Free energy of the ion-electron system (eV)
  ---------------------------------------------------
  alpha Z        PSCENC =        80.78490654
  Ewald energy   TEWEN  =     -1539.02558642
  -Hartree energ DENC   =      -258.29357334
  -exchange      EXHF   =         0.00000000
  -V(xc)+E(xc)   XCENC  =        33.14729378
  PAW double counting   =      1819.30134964    -1924.92986162
  entropy T*S    EENTRO =        -0.00283174
  eigenvalues    EBANDS =       148.24768173
  atomic energy  EATOM  =      1626.71546820
  Solvation  Ediel_sol  =         0.00000000
  ---------------------------------------------------
  free energy    TOTEN  =       -14.05515324 eV

  energy without entropy =      -14.05232149  energy(sigma->0) =      -14.05373736


--------------------------------------------------------------------------------------------------------




--------------------------------------- Iteration      1(  10)  ---------------------------------------


    POTLOK:  cpu time      0.0042: real time      0.0044
    SETDIJ:  cpu time      0.0048: real time      0.0049
     EDDAV:  cpu time      0.4977: real time      0.5007
       DOS:  cpu time      0.0014: real time      0.0014
    CHARGE:  cpu time      0.0183: real time      0.0183
    MIXING:  cpu time      0.0003: real time      0.0003
    --------------------------------------------
      LOOP:  cpu time      0.5267: real time      0.5300

 eigenvalue-minimisations  :  6112
 total energy-change (2. order) : 0.8492563E-03  (-0.6894037E-04)
 number of electron      17.9999985 magnetization       3.3012500
 augmentation part       10.2411639 magnetization       2.9601133

 Broyden mixing:
  rms(total) = 0.77575E-02    rms(broyden)= 0.77573E-02
  rms(prec ) = 0.87798E-02
  weight for this iteration     100.00

 eigenvalues of (default mixing * dielectric matrix)
  average eigenvalue GAMMA=   1.1713
  2.3585  1.0843  1.0843  0.6459  0.6833

 Free energy of the ion-electron system (eV)
  ---------------------------------------------------
  alpha Z        PSCENC =        80.78490654
  Ewald energy   TEWEN  =     -1539.02558642
  -Hartree energ DENC   =      -257.47014538
  -exchange      EXHF   =         0.00000000
  -V(xc)+E(xc)   XCENC  =        33.10028350
  PAW double counting   =      1844.16340063    -1950.48988789
  entropy T*S    EENTRO =        -0.00285595
  eigenvalues    EBANDS =       148.17011279
  atomic energy  EATOM  =      1626.71546820
  Solvation  Ediel_sol  =         0.00000000
  ---------------------------------------------------
  free energy    TOTEN  =       -14.05430398 eV

  energy without entropy =      -14.05144803  energy(sigma->0) =      -14.05287600


--------------------------------------------------------------------------------------------------------




--------------------------------------- Iteration      1(  11)  ---------------------------------------


    POTLOK:  cpu time      0.0042: real time      0.0045
    SETDIJ:  cpu time      0.0048: real time      0.0048
     EDDAV:  cpu time      0.5397: real time      0.5430
       DOS:  cpu time      0.0014: real time      0.0014
    CHARGE:  cpu time      0.0184: real time      0.0185
    MIXING:  cpu time      0.0003: real time      0.0003
    --------------------------------------------
      LOOP:  cpu time      0.5689: real time      0.5725

 eigenvalue-minimisations  :  6664
 total energy-change (2. order) :-0.4099085E-04  (-0.6995319E-05)
 number of electron      17.9999985 magnetization       3.2965370
 augmentation part       10.2419740 magnetization       2.9549768

 Broyden mixing:
  rms(total) = 0.28671E-02    rms(broyden)= 0.28669E-02
  rms(prec ) = 0.34891E-02
  weight for this iteration     100.00

 eigenvalues of (default mixing * dielectric matrix)
  average eigenvalue GAMMA=   1.1108
  2.3344  1.1516  1.1516  0.7050  0.7050  0.6173

 Free energy of the ion-electron system (eV)
  ---------------------------------------------------
  alpha Z        PSCENC =        80.78490654
  Ewald energy   TEWEN  =     -1539.02558642
  -Hartree energ DENC   =      -257.42761846
  -exchange      EXHF   =         0.00000000
  -V(xc)+E(xc)   XCENC  =        33.08493735
  PAW double counting   =      1845.22609248    -1951.59079609
  entropy T*S    EENTRO =        -0.00296343
  eigenvalues    EBANDS =       148.18121485
  atomic energy  EATOM  =      1626.71546820
  Solvation  Ediel_sol  =         0.00000000
  ---------------------------------------------------
  free energy    TOTEN  =       -14.05434497 eV

  energy without entropy =      -14.05138154  energy(sigma->0) =      -14.05286326


--------------------------------------------------------------------------------------------------------




--------------------------------------- Iteration      1(  12)  ---------------------------------------


    POTLOK:  cpu time      0.0043: real time      0.0045
    SETDIJ:  cpu time      0.0050: real time      0.0050
     EDDAV:  cpu time      0.4226: real time      0.4252
       DOS:  cpu time      0.0014: real time      0.0014
    CHARGE:  cpu time      0.0182: real time      0.0183
    MIXING:  cpu time      0.0003: real time      0.0003
    --------------------------------------------
      LOOP:  cpu time      0.4517: real time      0.4546

 eigenvalue-minimisations  :  5032
 total energy-change (2. order) : 0.1184387E-05  (-0.6564366E-06)
 number of electron      17.9999985 magnetization       3.2953103
 augmentation part       10.2419476 magnetization       2.9537850

 Broyden mixing:
  rms(total) = 0.13740E-02    rms(broyden)= 0.13740E-02
  rms(prec ) = 0.22178E-02
  weight for this iteration     100.00

 eigenvalues of (default mixing * dielectric matrix)
  average eigenvalue GAMMA=   1.1469
  2.3528  1.4567  1.1087  1.1087  0.7346  0.6333  0.6333

 Free energy of the ion-electron system (eV)
  ---------------------------------------------------
  alpha Z        PSCENC =        80.78490654
  Ewald energy   TEWEN  =     -1539.02558642
  -Hartree energ DENC   =      -257.41903535
  -exchange      EXHF   =         0.00000000
  -V(xc)+E(xc)   XCENC  =        33.08138926
  PAW double counting   =      1845.55985839    -1951.93475015
  entropy T*S    EENTRO =        -0.00297545
  eigenvalues    EBANDS =       148.18638119
  atomic energy  EATOM  =      1626.71546820
  Solvation  Ediel_sol  =         0.00000000
  ---------------------------------------------------
  free energy    TOTEN  =       -14.05434379 eV

  energy without entropy =      -14.05136834  energy(sigma->0) =      -14.05285606


--------------------------------------------------------------------------------------------------------




--------------------------------------- Iteration      1(  13)  ---------------------------------------


    POTLOK:  cpu time      0.0042: real time      0.0044
    SETDIJ:  cpu time      0.0048: real time      0.0048
     EDDAV:  cpu time      0.3191: real time      0.3229
       DOS:  cpu time      0.0014: real time      0.0014
    --------------------------------------------
      LOOP:  cpu time      0.3295: real time      0.3335

 eigenvalue-minimisations  :  3184
 total energy-change (2. order) : 0.8759287E-06  (-0.1091936E-06)
 number of electron      17.9999985 magnetization       3.2953103
 augmentation part       10.2419476 magnetization       2.9537850

 Free energy of the ion-electron system (eV)
  ---------------------------------------------------
  alpha Z        PSCENC =        80.78490654
  Ewald energy   TEWEN  =     -1539.02558642
  -Hartree energ DENC   =      -257.37676401
  -exchange      EXHF   =         0.00000000
  -V(xc)+E(xc)   XCENC  =        33.07885646
  PAW double counting   =      1846.83590774    -1953.24021422
  entropy T*S    EENTRO =        -0.00298929
  eigenvalues    EBANDS =       148.17607210
  atomic energy  EATOM  =      1626.71546820
  Solvation  Ediel_sol  =         0.00000000
  ---------------------------------------------------
  free energy    TOTEN  =       -14.05434291 eV

  energy without entropy =      -14.05135362  energy(sigma->0) =      -14.05284826


--------------------------------------------------------------------------------------------------------




 average (electrostatic) potential at core
  the test charge radii are     1.0452
  (the norm of the test charge is              1.0000)
       1 -77.8335       2 -77.8335
 
 
 
 E-fermi :  10.6817     XC(G=0): -13.6079     alpha+bet :-18.3420

 Fermi energy:        10.6817480144

 spin component 1

 k-point     1 :       0.0000    0.0000    0.0000
  band No.  band energies     occupation 
      1       1.6265      1.00000
      2       5.4312      1.00000
      3       8.0518      1.00000
      4       8.0726      1.00000
      5       8.0726      1.00000
      6       8.4009      1.00000
      7       8.4009      1.00000
      8       8.7751      1.00000
      9       8.7751      1.00000
     10       9.9296      1.00000
     11       9.9296      1.00000
     12      10.6405      0.87829
     13      17.3758      0.00000
     14      33.0128      0.00000
     15      35.9151      0.00000
     16      35.9176      0.00000

 k-point     2 :       0.1000    0.0000    0.0000
  band No.  band energies     occupation 
      1       1.9847      1.00000
      2       5.6435      1.00000
      3       7.7703      1.00000
      4       8.2425      1.00000
      5       8.2739      1.00000
      6       8.3603      1.00000
      7       8.5076      1.00000
      8       8.5516      1.00000
      9       8.6701      1.00000
     10       8.9878      1.00000
     11       9.9735      1.00000
     12      12.0893      0.00000
     13      17.4355      0.00000
     14      30.5382      0.00000
     15      33.2145      0.00000
     16      33.4092      0.00000

 k-point     3 :       0.2000    0.0000    0.0000
  band No.  band energies     occupation 
      1       2.9977      1.00000
      2       6.1024      1.00000
      3       7.4429      1.00000
      4       7.5419      1.00000
      5       8.1145      1.00000
      6       8.4290      1.00000
      7       8.6453      1.00000
      8       8.7092      1.00000
      9       8.7343      1.00000
     10       8.9601      1.00000
     11      10.0565      1.00000
     12      14.1379      0.00000
     13      17.6548      0.00000
     14      25.8990      0.00000
     15      30.3743      0.00000
     16      32.2662      0.00000

 k-point     4 :       0.3000    0.0000    0.0000
  band No.  band energies     occupation 
      1       4.4039      1.00000
      2       6.2263      1.00000
      3       6.7509      1.00000
      4       7.4148      1.00000
      5       8.1288      1.00000
      6       8.1709      1.00000
      7       8.4057      1.00000
      8       9.3318      1.00000
      9       9.4196      1.00000
     10       9.5037      1.00000
     11      10.1214      1.00000
     12      16.4545      0.00000
     13      17.9821      0.00000
     14      21.7389      0.00000
     15      28.0632      0.00000
     16      29.2661      0.00000

 k-point     5 :       0.4000    0.0000    0.0000
  band No.  band energies     occupation 
      1       5.4918      1.00000
      2       6.0017      1.00000
      3       6.2732      1.00000
      4       7.8027      1.00000
      5       7.9825      1.00000
      6       8.2252      1.00000
      7       8.3885      1.00000
      8       9.8617      1.00000
      9      10.0024      1.00000
     10      10.1562      1.00000
     11      10.6423      0.86759
     12      16.4748      0.00000
     13      18.9357      0.00000
     14      20.5157      0.00000
     15      25.8465      0.00000
     16      26.4998      0.00000

 k-point     6 :       0.5000    0.0000    0.0000
  band No.  band energies     occupation 
      1       5.8030      1.00000
      2       5.8549      1.00000
      3       6.1140      1.00000
      4       7.9138      1.00000
      5       8.1541      1.00000
      6       8.1577      1.00000
      7       8.5037      1.00000
      8      10.0622      1.00000
      9      10.1663      1.00000
     10      10.2190      1.00000
     11      12.1211      0.00000
     12      14.2171      0.00000
     13      20.6929      0.00000
     14      21.3845      0.00000
     15      23.7822      0.00000
     16      25.1364      0.00000

 k-point     7 :       0.1000    0.1000    0.0000
  band No.  band energies     occupation 
      1       2.6733      1.00000
      2       5.9986      1.00000
      3       7.4819      1.00000
      4       7.8351      1.00000
      5       8.1933      1.00000
      6       8.3849      1.00000
      7       8.5018      1.00000
      8       8.5898      1.00000
      9       8.8065      1.00000
     10       8.8929      1.00000
     11      10.0180      1.00000
     12      13.5646      0.00000
     13      17.5817      0.00000
     14      28.0615      0.00000
     15      28.7781      0.00000
     16      34.9793      0.00000

 k-point     8 :       0.2000    0.1000    0.0000
  band No.  band energies     occupation 
      1       3.9153      1.00000
      2       6.3774      1.00000
      3       7.0416      1.00000
      4       7.1904      1.00000
      5       8.1011      1.00000
      6       8.1062      1.00000
      7       8.6090      1.00000
      8       8.8579      1.00000
      9       9.1858      1.00000
     10       9.5170      1.00000
     11      10.0640      1.00000
     12      15.6277      0.00000
     13      17.9520      0.00000
     14      23.8145      0.00000
     15      26.4594      0.00000
     16      31.2872      0.00000

 k-point     9 :       0.3000    0.1000    0.0000
  band No.  band energies     occupation 
      1       5.2600      1.00000
      2       6.2545      1.00000
      3       6.4744      1.00000
      4       7.3400      1.00000
      5       7.9250      1.00000
      6       8.2746      1.00000
      7       8.3526      1.00000
      8       9.4252      1.00000
      9       9.7717      1.00000
     10      10.0956      1.00000
     11      10.4156      1.00000
     12      17.9444      0.00000
     13      18.0040      0.00000
     14      20.5892      0.00000
     15      24.8494      0.00000
     16      27.6653      0.00000

 k-point    10 :       0.4000    0.1000    0.0000
  band No.  band energies     occupation 
      1       5.8947      1.00000
      2       6.0448      1.00000
      3       6.1871      1.00000
      4       7.8019      1.00000
      5       7.8640      1.00000
      6       8.1531      1.00000
      7       8.4971      1.00000
      8       9.9563      1.00000
      9      10.0813      1.00000
     10      10.1090      1.00000
     11      11.9140      0.00000
     12      15.2925      0.00000
     13      20.4232      0.00000
     14      21.2499      0.00000
     15      23.8082      0.00000
     16      24.6258      0.00000

 k-point    11 :       0.2000    0.2000    0.0000
  band No.  band energies     occupation 
      1       5.1940      1.00000
      2       6.6035      1.00000
      3       6.6581      1.00000
      4       6.8331      1.00000
      5       7.8264      1.00000
      6       8.2341      1.00000
      7       8.4468      1.00000
      8       9.0674      1.00000
      9       9.7769      1.00000
     10      10.0373      1.00000
     11      10.4497      1.00000
     12      17.6941      0.00000
     13      18.5716      0.00000
     14      21.8841      0.00000
     15      22.5381      0.00000
     16      29.6599      0.00000

 k-point    12 :       0.3000    0.2000    0.0000
  band No.  band energies     occupation 
      1       6.1676      1.00000
      2       6.3238      1.00000
      3       6.4522      1.00000
      4       7.0894      1.00000
      5       7.7326      1.00000
      6       8.1813      1.00000
      7       8.4931      1.00000
      8       9.4692      1.00000
      9      10.0134      1.00000
     10      10.0850      1.00000
     11      11.8717      0.00000
     12      17.5065      0.00000
     13      20.1152      0.00000
     14      20.2606      0.00000
     15      21.6627      0.00000
     16      26.5753      0.00000

 k-point    13 :       0.4000    0.2000    0.0000
  band No.  band energies     occupation 
      1       6.2295      1.00000
      2       6.3324      1.00000
      3       6.3650      1.00000
      4       7.4001      1.00000
      5       7.7657      1.00000
      6       8.0106      1.00000
      7       8.6226      1.00000
      8       9.8253      1.00000
      9      10.0045      1.00000
     10      10.0308      1.00000
     11      13.5794      0.00000
     12      15.0418      0.00000
     13      20.2450      0.00000
     14      22.0589      0.00000
     15      22.3778      0.00000
     16      24.3118      0.00000

 k-point    14 :       0.3000    0.3000    0.0000
  band No.  band energies     occupation 
      1       6.2779      1.00000
      2       6.5687      1.00000
      3       6.7283      1.00000
      4       6.9664      1.00000
      5       7.7258      1.00000
      6       7.9302      1.00000
      7       8.7172      1.00000
      8       9.6578      1.00000
      9       9.9523      1.00000
     10       9.9865      1.00000
     11      14.0108      0.00000
     12      17.0528      0.00000
     13      17.0958      0.00000
     14      22.6114      0.00000
     15      22.8659      0.00000
     16      25.5125      0.00000

 k-point    15 :       0.0000    0.0000    0.1250
  band No.  band energies     occupation 
      1       1.7882      1.00000
      2       5.4027      1.00000
      3       8.0092      1.00000
      4       8.0295      1.00000
      5       8.0295      1.00000
      6       8.3561      1.00000
      7       8.3561      1.00000
      8       8.8768      1.00000
      9       8.8768      1.00000
     10       9.9210      1.00000
     11       9.9210      1.00000
     12      10.0225      1.00000
     13      18.3063      0.00000
     14      32.9429      0.00000
     15      35.3187      0.00000
     16      35.8891      0.00000

 k-point    16 :       0.1000    0.0000    0.1250
  band No.  band energies     occupation 
      1       2.1426      1.00000
      2       5.6273      1.00000
      3       7.7735      1.00000
      4       8.1589      1.00000
      5       8.1798      1.00000
      6       8.1803      1.00000
      7       8.4985      1.00000
      8       8.6525      1.00000
      9       8.8034      1.00000
     10       8.9629      1.00000
     11       9.9586      1.00000
     12      11.5219      0.00000
     13      18.4385      0.00000
     14      30.6330      0.00000
     15      33.3525      0.00000
     16      33.3742      0.00000

 k-point    17 :       0.2000    0.0000    0.1250
  band No.  band energies     occupation 
      1       3.1396      1.00000
      2       6.1215      1.00000
      3       7.3994      1.00000
      4       7.4798      1.00000
      5       8.0446      1.00000
      6       8.3873      1.00000
      7       8.5117      1.00000
      8       8.7925      1.00000
      9       8.9317      1.00000
     10       8.9411      1.00000
     11      10.0288      1.00000
     12      13.2390      0.00000
     13      18.8981      0.00000
     14      26.0363      0.00000
     15      30.5692      0.00000
     16      31.5608      0.00000

 k-point    18 :       0.3000    0.0000    0.1250
  band No.  band energies     occupation 
      1       4.4925      1.00000
      2       6.2627      1.00000
      3       6.7227      1.00000
      4       7.3949      1.00000
      5       8.0317      1.00000
      6       8.2167      1.00000
      7       8.5472      1.00000
      8       9.3527      1.00000
      9       9.4140      1.00000
     10       9.4566      1.00000
     11      10.0853      1.00000
     12      14.9777      0.00000
     13      19.6618      0.00000
     14      21.9209      0.00000
     15      28.0270      0.00000
     16      28.2873      0.00000

 k-point    19 :       0.4000    0.0000    0.1250
  band No.  band energies     occupation 
      1       5.4356      1.00000
      2       5.9964      1.00000
      3       6.4615      1.00000
      4       7.3985      1.00000
      5       8.0476      1.00000
      6       8.3783      1.00000
      7       8.7521      1.00000
      8       9.8638      1.00000
      9       9.9242      1.00000
     10      10.1386      1.00000
     11      10.5549      0.99983
     12      15.7689      0.00000
     13      18.7027      0.00000
     14      21.4821      0.00000
     15      24.9300      0.00000
     16      26.7456      0.00000

 k-point    20 :       0.5000    0.0000    0.1250
  band No.  band energies     occupation 
      1       5.6267      1.00000
      2       5.8369      1.00000
      3       6.4489      1.00000
      4       7.4294      1.00000
      5       7.9838      1.00000
      6       8.5049      1.00000
      7       8.9921      1.00000
      8      10.0068      1.00000
      9      10.1223      1.00000
     10      10.2144      1.00000
     11      11.9995      0.00000
     12      14.1165      0.00000
     13      20.1230      0.00000
     14      20.5020      0.00000
     15      24.9630      0.00000
     16      26.0310      0.00000

 k-point    21 :       0.1000    0.1000    0.1250
  band No.  band energies     occupation 
      1       2.8217      1.00000
      2       6.0078      1.00000
      3       7.5019      1.00000
      4       7.6491      1.00000
      5       8.1801      1.00000
      6       8.2640      1.00000
      7       8.4853      1.00000
      8       8.6565      1.00000
      9       8.9144      1.00000
     10       8.9222      1.00000
     11       9.9977      1.00000
     12      12.7762      0.00000
     13      18.7407      0.00000
     14      28.1813      0.00000
     15      28.9286      0.00000
     16      33.8644      0.00000

 k-point    22 :       0.2000    0.1000    0.1250
  band No.  band energies     occupation 
      1       4.0335      1.00000
      2       6.4250      1.00000
      3       6.9425      1.00000
      4       7.2314      1.00000
      5       7.9737      1.00000
      6       8.2187      1.00000
      7       8.5230      1.00000
      8       8.9089      1.00000
      9       9.2685      1.00000
     10       9.4663      1.00000
     11      10.0527      1.00000
     12      14.4095      0.00000
     13      19.4554      0.00000
     14      23.9633      0.00000
     15      26.6196      0.00000
     16      30.2002      0.00000

 k-point    23 :       0.3000    0.1000    0.1250
  band No.  band energies     occupation 
      1       5.2834      1.00000
      2       6.2896      1.00000
      3       6.5130      1.00000
      4       7.2698      1.00000
      5       7.9624      1.00000
      6       8.2937      1.00000
      7       8.4490      1.00000
      8       9.4096      1.00000
      9       9.8179      1.00000
     10       9.9548      1.00000
     11      10.4558      1.00000
     12      16.0068      0.00000
     13      19.5407      0.00000
     14      21.2950      0.00000
     15      24.9942      0.00000
     16      26.5976      0.00000

 k-point    24 :       0.4000    0.1000    0.1250
  band No.  band energies     occupation 
      1       5.7374      1.00000
      2       6.0324      1.00000
      3       6.5025      1.00000
      4       7.3501      1.00000
      5       7.8988      1.00000
      6       8.5236      1.00000
      7       8.6248      1.00000
      8       9.9150      1.00000
      9      10.0207      1.00000
     10      10.1115      1.00000
     11      11.8956      0.00000
     12      15.1290      0.00000
     13      19.4426      0.00000
     14      21.5809      0.00000
     15      23.9419      0.00000
     16      24.8984      0.00000

 k-point    25 :       0.2000    0.2000    0.1250
  band No.  band energies     occupation 
      1       5.2566      1.00000
      2       6.5144      1.00000
      3       6.7815      1.00000
      4       6.8627      1.00000
      5       7.8711      1.00000
      6       8.2175      1.00000
      7       8.3756      1.00000
      8       9.0983      1.00000
      9       9.8379      1.00000
     10       9.8852      1.00000
     11      10.5260      0.99999
     12      15.9788      0.00000
     13      20.4684      0.00000
     14      22.0394      0.00000
     15      22.7425      0.00000
     16      28.5701      0.00000

 k-point    26 :       0.3000    0.2000    0.1250
  band No.  band energies     occupation 
      1       6.0663      1.00000
      2       6.4430      1.00000
      3       6.5115      1.00000
      4       7.0524      1.00000
      5       7.8143      1.00000
      6       8.1532      1.00000
      7       8.5104      1.00000
      8       9.4771      1.00000
      9       9.8844      1.00000
     10      10.1267      1.00000
     11      11.9385      0.00000
     12      17.0134      0.00000
     13      19.2145      0.00000
     14      21.0677      0.00000
     15      22.5079      0.00000
     16      25.6337      0.00000

 k-point    27 :       0.4000    0.2000    0.1250
  band No.  band energies     occupation 
      1       6.0716      1.00000
      2       6.3828      1.00000
      3       6.6310      1.00000
      4       7.1919      1.00000
      5       7.7386      1.00000
      6       8.1678      1.00000
      7       8.6547      1.00000
      8       9.8292      1.00000
      9       9.8626      1.00000
     10      10.0660      1.00000
     11      13.6755      0.00000
     12      15.0364      0.00000
     13      20.1774      0.00000
     14      21.3181      0.00000
     15      21.6060      0.00000
     16      25.5477      0.00000

 k-point    28 :       0.3000    0.3000    0.1250
[...]
      4       8.2670      1.00000
      5      10.6835      0.48042
      6      10.6835      0.48041
      7      11.0128      0.00000
      8      11.0128      0.00000
      9      12.0931      0.00000
     10      12.0931      0.00000
     11      13.0458      0.00000
     12      13.0458      0.00000
     13      19.2421      0.00000
     14      19.2421      0.00000
     15      29.8445      0.00000
     16      29.8445      0.00000

 k-point    63 :       0.1000    0.1000    0.5000
  band No.  band energies     occupation 
      1       4.9004      1.00000
      2       4.9004      1.00000
      3       8.8015      1.00000
      4       8.8015      1.00000
      5       9.4962      1.00000
      6       9.4962      1.00000
      7      10.1035      1.00000
      8      10.1035      1.00000
      9      11.4589      0.00000
     10      11.4589      0.00000
     11      11.7784      0.00000
     12      11.7784      0.00000
     13      27.2553      0.00000
     14      27.2553      0.00000
     15      29.9999      0.00000
     16      29.9999      0.00000

 k-point    64 :       0.2000    0.1000    0.5000
  band No.  band energies     occupation 
      1       5.8276      1.00000
      2       5.8276      1.00000
      3       8.6108      1.00000
      4       8.6108      1.00000
      5       9.3448      1.00000
      6       9.3448      1.00000
      7      10.4488      1.00000
      8      10.4488      1.00000
      9      11.6060      0.00000
     10      11.6060      0.00000
     11      12.0922      0.00000
     12      12.0922      0.00000
     13      26.2526      0.00000
     14      26.2526      0.00000
     15      28.1854      0.00000
     16      28.1854      0.00000

 k-point    65 :       0.3000    0.1000    0.5000
  band No.  band energies     occupation 
      1       6.5582      1.00000
      2       6.5582      1.00000
      3       8.4688      1.00000
      4       8.4688      1.00000
      5       9.6303      1.00000
      6       9.6303      1.00000
      7      10.6109      0.97745
      8      10.6109      0.97745
      9      11.9306      0.00000
     10      11.9306      0.00000
     11      12.6726      0.00000
     12      12.6726      0.00000
     13      22.5196      0.00000
     14      22.5196      0.00000
     15      27.8826      0.00000
     16      27.8826      0.00000

 k-point    66 :       0.4000    0.1000    0.5000
  band No.  band energies     occupation 
      1       6.7842      1.00000
      2       6.7842      1.00000
      3       8.3727      1.00000
      4       8.3727      1.00000
      5      10.0321      1.00000
      6      10.0321      1.00000
      7      10.9165      0.00000
      8      10.9165      0.00000
      9      11.9855      0.00000
     10      11.9855      0.00000
     11      13.6431      0.00000
     12      13.6431      0.00000
     13      19.7626      0.00000
     14      19.7626      0.00000
     15      27.2133      0.00000
     16      27.2133      0.00000

 k-point    67 :       0.2000    0.2000    0.5000
  band No.  band energies     occupation 
      1       6.6362      1.00000
      2       6.6362      1.00000
      3       8.5844      1.00000
      4       8.5844      1.00000
      5       9.1647      1.00000
      6       9.1647      1.00000
      7      10.4784      1.00000
      8      10.4784      1.00000
      9      11.9996      0.00000
     10      11.9996      0.00000
     11      12.7578      0.00000
     12      12.7578      0.00000
     13      24.4820      0.00000
     14      24.4820      0.00000
     15      25.4231      0.00000
     16      25.4231      0.00000

 k-point    68 :       0.3000    0.2000    0.5000
  band No.  band energies     occupation 
      1       7.1452      1.00000
      2       7.1452      1.00000
      3       8.5635      1.00000
      4       8.5635      1.00000
      5       9.2094      1.00000
      6       9.2094      1.00000
      7      10.5478      0.99992
      8      10.5478      0.99992
      9      12.0259      0.00000
     10      12.0259      0.00000
     11      14.2369      0.00000
     12      14.2369      0.00000
     13      21.2948      0.00000
     14      21.2948      0.00000
     15      24.1169      0.00000
     16      24.1169      0.00000

 k-point    69 :       0.4000    0.2000    0.5000
  band No.  band energies     occupation 
      1       7.2760      1.00000
      2       7.2760      1.00000
      3       8.5535      1.00000
      4       8.5535      1.00000
      5       9.2325      1.00000
      6       9.2325      1.00000
      7      10.7347      0.06698
      8      10.7347      0.06698
      9      11.9316      0.00000
     10      11.9317      0.00000
     11      15.4102      0.00000
     12      15.4102      0.00000
     13      19.4340      0.00000
     14      19.4340      0.00000
     15      23.7579      0.00000
     16      23.7579      0.00000

 k-point    70 :       0.3000    0.3000    0.5000
  band No.  band energies     occupation 
      1       7.7218      1.00000
      2       7.7218      1.00000
      3       8.4182      1.00000
      4       8.4182      1.00000
      5       8.9508      1.00000
      6       8.9508      1.00000
      7      10.5512      0.99989
      8      10.5512      0.99989
      9      11.9118      0.00000
     10      11.9118      0.00000
     11      16.3919      0.00000
     12      16.3919      0.00000
     13      19.8211      0.00000
     14      19.8211      0.00000
     15      21.7402      0.00000
     16      21.7402      0.00000


--------------------------------------------------------------------------------------------------------


 soft charge-density along one line, spin component           1
         0         1         2         3         4         5         6         7         8         9
 total charge-density along one line
 
 soft charge-density along one line, spin component           2
         0         1         2         3         4         5         6         7         8         9
 total charge-density along one line
 
 pseudopotential strength for first ion, spin component:           1
 -0.321   0.000   0.000  -0.000   0.000  -0.966   0.000   0.000
  0.000  -0.322   0.000  -0.000   0.000   0.000  -0.967   0.000
  0.000   0.000  -0.318   0.000  -0.000   0.000   0.000  -0.963
 -0.000  -0.000   0.000  -0.322  -0.000  -0.000  -0.000   0.000
  0.000   0.000  -0.000  -0.000  -0.321   0.000   0.000  -0.000
 -0.966   0.000   0.000  -0.000   0.000  -1.551   0.000   0.000
  0.000  -0.967   0.000  -0.000   0.000   0.000  -1.552   0.000
  0.000   0.000  -0.963   0.000  -0.000   0.000   0.000  -1.548
 -0.000  -0.000   0.000  -0.967  -0.000  -0.000  -0.000   0.000
  0.000   0.000  -0.000  -0.000  -0.966   0.000   0.000  -0.000
  0.000  -0.000  -0.000  -0.000  -0.000   0.000  -0.000  -0.000
  0.000  -0.000  -0.000  -0.000  -0.000   0.000  -0.000  -0.000
 -0.000  -0.000  -0.000   0.000  -0.001  -0.000  -0.000  -0.000
  0.000   0.000  -0.000  -0.000   0.000   0.000   0.000  -0.000
 -0.001   0.000   0.000   0.000  -0.000  -0.001   0.000   0.000
 -0.000  -0.000  -0.000   0.000  -0.001  -0.000  -0.000  -0.000
  0.000   0.000  -0.000  -0.000   0.000   0.000   0.000  -0.000
 -0.001   0.000   0.000   0.000  -0.000  -0.001   0.000   0.000
 pseudopotential strength for first ion, spin component:           2
  1.039  -0.000   0.000   0.000   0.000   0.338  -0.000   0.000
 -0.000   1.048  -0.000  -0.000  -0.000  -0.000   0.346  -0.000
  0.000  -0.000   1.030  -0.000  -0.000   0.000  -0.000   0.329
  0.000  -0.000  -0.000   1.048   0.000   0.000  -0.000  -0.000
  0.000  -0.000  -0.000   0.000   1.039   0.000  -0.000  -0.000
  0.338  -0.000   0.000   0.000   0.000  -0.302  -0.000   0.000
 -0.000   0.346  -0.000  -0.000  -0.000  -0.000  -0.295  -0.000
  0.000  -0.000   0.329  -0.000  -0.000   0.000  -0.000  -0.311
  0.000  -0.000  -0.000   0.346   0.000   0.000  -0.000  -0.000
  0.000  -0.000  -0.000   0.000   0.338   0.000  -0.000  -0.000
  0.000  -0.000  -0.000  -0.000  -0.000   0.000  -0.000   0.000
  0.000  -0.000  -0.000  -0.000  -0.000   0.000  -0.000   0.000
  0.000  -0.000   0.000   0.000  -0.000   0.000  -0.000   0.000
  0.000  -0.000   0.000   0.000   0.000   0.000  -0.000   0.000
 -0.000   0.000  -0.000   0.000   0.000  -0.001   0.000  -0.000
  0.000  -0.000   0.000   0.000  -0.000   0.000  -0.000   0.000
  0.000  -0.000  -0.000   0.000   0.000   0.000  -0.000  -0.000
 -0.000   0.000  -0.000   0.000   0.000  -0.000   0.000  -0.000
 total augmentation occupancy for first ion, spin component:           1
  3.022  -0.000   0.000  -0.000   0.000  -1.715   0.000  -0.000  -0.000   0.000   0.000   0.000   0.000   0.000   0.045   0.000
  0.000   3.134   0.000  -0.000   0.000   0.000  -1.762   0.000   0.000  -0.000  -0.000  -0.000   0.000   0.000  -0.000   0.000
  0.000  -0.000   2.888   0.000   0.000  -0.000  -0.000  -1.668   0.000  -0.000  -0.024  -0.000   0.000   0.000   0.000  -0.000
 -0.000  -0.000   0.000   3.134  -0.000   0.000   0.000  -0.000  -1.762   0.000   0.000   0.000   0.000   0.000   0.000   0.000
 -0.000  -0.000   0.000   0.000   3.022   0.000   0.000  -0.000   0.000  -1.715  -0.000   0.000   0.045   0.000  -0.000  -0.003
 -1.715  -0.000  -0.000   0.000   0.000   1.958  -0.000   0.000   0.000  -0.000   0.000   0.000   0.000   0.000  -0.062   0.000
  0.000  -1.762   0.000   0.000   0.000   0.000   1.942   0.000  -0.000  -0.000   0.000  -0.000   0.000   0.000   0.000   0.000
 -0.000  -0.000  -1.668   0.000  -0.000   0.000   0.000   2.001   0.000   0.000   0.023  -0.000  -0.000   0.000   0.000   0.000
 -0.000   0.000   0.000  -1.762   0.000   0.000  -0.000   0.000   1.942   0.000   0.000   0.000   0.000   0.000   0.000   0.000
  0.000   0.000  -0.000   0.000  -1.715  -0.000  -0.000   0.000   0.000   1.958   0.000  -0.000  -0.062   0.000   0.000   0.005
  0.000   0.000  -0.024   0.000  -0.000   0.000  -0.000   0.023   0.000   0.000   2.402  -0.289   0.000   0.000  -0.000  -0.000
  0.000   0.000  -0.000   0.000   0.000   0.000   0.000  -0.000  -0.000  -0.000  -0.289   0.044   0.000   0.000   0.000   0.000
  0.000   0.000   0.000   0.000   0.045   0.000   0.000  -0.000   0.000  -0.062   0.000   0.000   0.332  -0.000   0.000  -0.032
  0.000   0.000   0.000   0.000  -0.000  -0.000  -0.000   0.000  -0.000   0.000   0.000   0.000   0.000   0.338   0.000  -0.000
  0.045  -0.000   0.000   0.000  -0.000  -0.062   0.000   0.000   0.000   0.000  -0.000   0.000   0.000   0.000   0.332   0.000
 -0.000   0.000  -0.000   0.000  -0.003  -0.000   0.000   0.000   0.000   0.005   0.000   0.000  -0.032   0.000  -0.000   0.003
  0.000   0.000   0.000   0.000  -0.000  -0.000   0.000   0.000   0.000   0.000   0.000   0.000  -0.000  -0.032   0.000  -0.000
 -0.003   0.000  -0.000   0.000   0.000   0.005   0.000   0.000   0.000  -0.000   0.000   0.000   0.000   0.000  -0.032   0.000
 total augmentation occupancy for first ion, spin component:           2
  2.165  -0.000   0.000  -0.000   0.000  -1.048   0.000  -0.000   0.000  -0.000   0.000   0.000  -0.000   0.000  -0.004   0.000
 -0.000   2.186   0.000  -0.000  -0.000  -0.000  -1.063   0.000   0.000   0.000  -0.000   0.000   0.000  -0.000  -0.000   0.000
  0.000   0.000   2.168  -0.000   0.000  -0.000   0.000  -1.050   0.000  -0.000  -0.001  -0.001  -0.000   0.000  -0.000   0.000
  0.000  -0.000  -0.000   2.186   0.000   0.000   0.000   0.000  -1.063  -0.000   0.000   0.000  -0.000   0.000   0.000   0.000
  0.000   0.000   0.000   0.000   2.165   0.000  -0.000  -0.000  -0.000  -1.048   0.000  -0.000  -0.004  -0.000   0.000  -0.000
 -1.048   0.000  -0.000   0.000  -0.000   0.311   0.000   0.000   0.000   0.000   0.000   0.000   0.000   0.000   0.008  -0.000
 -0.000  -1.063  -0.000   0.000   0.000   0.000   0.328   0.000  -0.000   0.000  -0.000  -0.000  -0.000   0.000   0.000   0.000
 -0.000   0.000  -1.050   0.000  -0.000   0.000  -0.000   0.299   0.000   0.000  -0.001   0.001   0.000   0.000   0.000  -0.000
  0.000   0.000   0.000  -1.063  -0.000  -0.000  -0.000   0.000   0.328   0.000   0.000   0.000   0.000   0.000   0.000   0.000
  0.000   0.000  -0.000   0.000  -1.048  -0.000  -0.000   0.000   0.000   0.311   0.000  -0.000   0.008   0.000  -0.000  -0.000
  0.000   0.000  -0.001   0.000   0.000   0.000  -0.000  -0.001   0.000   0.000  -0.309   0.095   0.000   0.000   0.000   0.000
  0.000  -0.000  -0.001   0.000  -0.000   0.000  -0.000   0.001   0.000  -0.000   0.095  -0.017   0.000   0.000  -0.000  -0.000
 -0.000   0.000  -0.000   0.000  -0.004   0.000   0.000   0.000  -0.000   0.008   0.000  -0.000  -0.033   0.000   0.000   0.005
  0.000   0.000   0.000   0.000  -0.000   0.000   0.000   0.000   0.000  -0.000   0.000   0.000   0.000  -0.039   0.000  -0.000
 -0.004   0.000   0.000   0.000   0.000   0.008   0.000   0.000   0.000  -0.000   0.000   0.000  -0.000   0.000  -0.033   0.000
  0.000   0.000  -0.000   0.000  -0.000  -0.000   0.000  -0.000   0.000  -0.000   0.000  -0.000   0.005  -0.000   0.000  -0.001
  0.000   0.000   0.000   0.000  -0.000   0.000   0.000   0.000   0.000   0.000   0.000   0.000  -0.000   0.005   0.000   0.000
 -0.000   0.000   0.000  -0.000  -0.000  -0.000   0.000   0.000  -0.000   0.000  -0.000   0.000   0.000   0.000   0.005  -0.000


------------------------ aborting loop because EDIFF is reached ----------------------------------------





 total charge

# of ion       s       p       d       tot
------------------------------------------
    1        0.506   0.555   7.276   8.337
    2        0.506   0.555   7.276   8.337
--------------------------------------------------
tot          1.011   1.111  14.553  16.675



 magnetization (x)

# of ion       s       p       d       tot
------------------------------------------
    1       -0.013  -0.051   1.723   1.658
    2       -0.013  -0.051   1.723   1.658
--------------------------------------------------
tot         -0.026  -0.102   3.446   3.317
 
    CHARGE:  cpu time      0.0183: real time      0.0184
    FORLOC:  cpu time      0.0001: real time      0.0001
    FORNL :  cpu time      0.0166: real time      0.0167
    STRESS:  cpu time      0.0502: real time      0.0504
    FORCOR:  cpu time      0.0040: real time      0.0040
    FORHAR:  cpu time      0.0004: real time      0.0004
    MIXING:  cpu time      0.0002: real time      0.0002
    OFIELD:  cpu time      0.0000: real time      0.0000

  FORCE on cell =-STRESS in cart. coord.  units (eV):
  Direction    XX          YY          ZZ          XY          YZ          ZX
  --------------------------------------------------------------------------------------
  Alpha Z    80.78491    80.78491    80.78491
  Ewald    -515.32345  -515.32345  -508.37976     0.00000     0.00000     0.00000
  Hartree    84.74744    84.74744    87.87854    -0.00000    -0.00000    -0.00000
  E(xc)     -92.80392   -92.80392   -92.81017    -0.00000    -0.00000    -0.00000
  Local     -11.60045   -11.60056   -21.37609    -0.00010    -0.00000    -0.00000
  n-local    -8.32899    -8.14864    -8.31592    -6.47005     1.77464     1.77026
  augment   310.64703   310.64716   310.55444     0.00011    -0.00000    -0.00000
  Kinetic   154.22858   151.40975   152.63172     4.32210     0.20305     0.83459
  Fock        0.00000     0.00000     0.00000     0.00000     0.00000     0.00000
  -------------------------------------------------------------------------------------
  Total       1.03192     1.03192     0.96766     0.00000    -0.00000     0.00000
  in kB      78.83031    78.83031    73.92172     0.00000    -0.00000     0.00000
  external pressure =       77.19 kB  Pullay stress =        0.00 kB


 VOLUME and BASIS-vectors are now :
 -----------------------------------------------------------------------------
  energy-cutoff  :      400.00
  volume of cell :       20.97
      direct lattice vectors                 reciprocal lattice vectors
     2.464457155  0.000000000  0.000000000     0.405768872  0.234270768  0.000000000
    -1.232228577  2.134282503  0.000000000     0.000000000  0.468541535  0.000000000
     0.000000000  0.000000000  3.987391375     0.000000000  0.000000000  0.250790531

  length of vectors
     2.464457155  2.464457155  3.987391375     0.468541535  0.468541535  0.250790531


 FORCES acting on ions
    electron-ion (+dipol)            ewald-force                    non-local-force                 convergence-correction
 -----------------------------------------------------------------------------------------------
   -.509E-05 0.294E-05 -.219E-13   0.109E-11 -.554E-12 -.242E-13   -.173E-17 0.139E-16 0.000E+00   0.126E-08 -.725E-09 0.314E-14
   -.405E-05 0.234E-05 -.974E-12   -.109E-11 0.545E-12 0.242E-13   -.173E-17 -.139E-16 0.000E+00   -.126E-08 0.726E-09 -.878E-13
 -----------------------------------------------------------------------------------------------
   -.914E-05 0.528E-05 -.996E-12   -.305E-15 -.807E-14 0.000E+00   -.347E-17 0.000E+00 0.000E+00   -.114E-11 0.677E-12 -.847E-13
 
 
 POSITION                                       TOTAL-FORCE (eV/Angst)
 -----------------------------------------------------------------------------------
      0.00000      0.00000      0.00000        -0.000000      0.000000      0.000000
      0.00000      1.42286      1.99370         0.000000      0.000000      0.000000
 -----------------------------------------------------------------------------------
    total drift:                               -0.000009      0.000005     -0.000000


--------------------------------------------------------------------------------------------------------



  FREE ENERGIE OF THE ION-ELECTRON SYSTEM (eV)
  ---------------------------------------------------
  free  energy   TOTEN  =       -14.05434291 eV

  energy  without entropy=      -14.05135362  energy(sigma->0) =      -14.05284826
 


--------------------------------------------------------------------------------------------------------


    POTLOK:  cpu time      0.0093: real time      0.0093


--------------------------------------------------------------------------------------------------------




--------------------------------------------------------------------------------------------------------


  
 reached required accuracy - stopping structural energy minimisation
 writing wavefunctions
     LOOP+:  cpu time      6.4652: real time      6.6222
    4ORBIT:  cpu time      0.0000: real time      0.0000



 total charge

# of ion       s       p       d       tot
------------------------------------------
    1        0.506   0.555   7.276   8.337
    2        0.506   0.555   7.276   8.337
--------------------------------------------------
tot          1.011   1.111  14.553  16.675



 magnetization (x)

# of ion       s       p       d       tot
------------------------------------------
    1       -0.013  -0.051   1.723   1.658
    2       -0.013  -0.051   1.723   1.658
--------------------------------------------------
tot         -0.026  -0.102   3.446   3.317
 

 total amount of memory used by VASP MPI-rank0    32033. kBytes
=======================================================================

   base      :      30000. kBytes
   nonl-proj :        687. kBytes
   fftplans  :        153. kBytes
   grid      :        374. kBytes
   one-center:         31. kBytes
   wavefun   :        788. kBytes
 
  
  
 General timing and accounting informations for this job:
 ========================================================
  
                  Total CPU time used (sec):        7.387
                            User time (sec):        6.895
                          System time (sec):        0.492
                         Elapsed time (sec):        8.953
  
                   Maximum memory used (kb):      224232.
                   Average memory used (kb):          N/A
  
                          Minor page faults:        20488
                          Major page faults:           53
                 Voluntary context switches:         2161
