PROCAR lm decomposed
# of k-points:   95         # of bands:   24         # of ions:    2

 k-point     1 :    0.00000000 0.00000000 0.00000000     weight = 0.00086806

band     1 # energy    1.66523712 # occ.  1.00000000
 
ion      s     py     pz     px    dxy    dyz    dz2    dxz  x2-y2    tot
    1  0.378  0.000  0.000  0.000  0.000  0.000  0.000  0.000  0.000  0.378
    2  0.378  0.000  0.000  0.000  0.000  0.000  0.000  0.000  0.000  0.378
tot    0.756  0.000  0.000  0.000  0.000  0.000  0.000  0.000  0.000  0.756
 
band     2 # energy    5.48261425 # occ.  1.00000000
 
ion      s     py     pz     px    dxy    dyz    dz2    dxz  x2-y2    tot
    1  0.083  0.000  0.000  0.000  0.000  0.000  0.371  0.000  0.000  0.453
    2  0.083  0.000  0.000  0.000  0.000  0.000  0.371  0.000  0.000  0.453
tot    0.165  0.000  0.000  0.000  0.000  0.000  0.741  0.000  0.000  0.906
 
band     3 # energy    8.13251188 # occ.  1.00000000
 
ion      s     py     pz     px    dxy    dyz    dz2    dxz  x2-y2    tot
    1  0.000  0.000  0.000  0.000  0.000  0.000  0.488  0.000  0.000  0.488
    2  0.000  0.000  0.000  0.000  0.000  0.000  0.488  0.000  0.000  0.488
tot    0.000  0.000  0.000  0.000  0.000  0.000  0.975  0.000  0.000  0.975
 
band     4 # energy    8.13878017 # occ.  1.00000000
 
ion      s     py     pz     px    dxy    dyz    dz2    dxz  x2-y2    tot
    1  0.000  0.000  0.000  0.001  0.484  0.000  0.000  0.000  0.000  0.484
    2  0.000  0.000  0.000  0.001  0.484  0.000  0.000  0.000  0.000  0.484
tot    0.000  0.000  0.000  0.001  0.967  0.000  0.000  0.000  0.000  0.968
 
band     5 # energy    8.13878035 # occ.  1.00000000
 
ion      s     py     pz     px    dxy    dyz    dz2    dxz  x2-y2    tot
    1  0.000  0.001  0.000  0.000  0.000  0.000  0.000  0.000  0.484  0.484
    2  0.000  0.001  0.000  0.000  0.000  0.000  0.000  0.000  0.484  0.484
tot    0.000  0.001  0.000  0.000  0.000  0.000  0.000  0.000  0.967  0.968
 
band     6 # energy    8.47358127 # occ.  1.00000000
 
ion      s     py     pz     px    dxy    dyz    dz2    dxz  x2-y2    tot
    1  0.000  0.000  0.000  0.001  0.488  0.000  0.000  0.000  0.000  0.488
    2  0.000  0.000  0.000  0.001  0.488  0.000  0.000  0.000  0.000  0.488
tot    0.000  0.000  0.000  0.002  0.975  0.000  0.000  0.000  0.000  0.977
 
band     7 # energy    8.47358140 # occ.  1.00000000
 
ion      s     py     pz     px    dxy    dyz    dz2    dxz  x2-y2    tot
    1  0.000  0.001  0.000  0.000  0.000  0.000  0.000  0.000  0.488  0.488
    2  0.000  0.001  0.000  0.000  0.000  0.000  0.000  0.000  0.488  0.488
tot    0.000  0.002  0.000  0.000  0.000  0.000  0.000  0.000  0.975  0.977
 
band     8 # energy    8.83943367 # occ.  1.00000000
 
ion      s     py     pz     px    dxy    dyz    dz2    dxz  x2-y2    tot
    1  0.000  0.000  0.000  0.000  0.000  0.000  0.000  0.491  0.000  0.491
    2  0.000  0.000  0.000  0.000  0.000  0.000  0.000  0.491  0.000  0.491
tot    0.000  0.000  0.000  0.000  0.000  0.000  0.000  0.981  0.000  0.981
 
band     9 # energy    8.83943370 # occ.  1.00000000
 
ion      s     py     pz     px    dxy    dyz    dz2    dxz  x2-y2    tot
    1  0.000  0.000  0.000  0.000  0.000  0.491  0.000  0.000  0.000  0.491
    2  0.000  0.000  0.000  0.000  0.000  0.491  0.000  0.000  0.000  0.491
tot    0.000  0.000  0.000  0.000  0.000  0.981  0.000  0.000  0.000  0.981
 
band    10 # energy   10.01311849 # occ.  1.00000000
 
ion      s     py     pz     px    dxy    dyz    dz2    dxz  x2-y2    tot
    1  0.000  0.000  0.000  0.000  0.000  0.000  0.000  0.493  0.000  0.493
    2  0.000  0.000  0.000  0.000  0.000  0.000  0.000  0.493  0.000  0.493
tot    0.000  0.000  0.000  0.000  0.000  0.000  0.000  0.985  0.000  0.985
 
band    11 # energy   10.01311857 # occ.  1.00000000
 
ion      s     py     pz     px    dxy    dyz    dz2    dxz  x2-y2    tot
    1  0.000  0.000  0.000  0.000  0.000  0.493  0.000  0.000  0.000  0.493
    2  0.000  0.000  0.000  0.000  0.000  0.493  0.000  0.000  0.000  0.493
tot    0.000  0.000  0.000  0.000  0.000  0.985  0.000  0.000  0.000  0.985
 
band    12 # energy   10.73162487 # occ.  0.86447137
 
ion      s     py     pz     px    dxy    dyz    dz2    dxz  x2-y2    tot
    1  0.000  0.000  0.362  0.000  0.000  0.000  0.000  0.000  0.000  0.362
    2  0.000  0.000  0.362  0.000  0.000  0.000  0.000  0.000  0.000  0.362
tot    0.000  0.000  0.723  0.000  0.000  0.000  0.000  0.000  0.000  0.723
 
band    13 # energy   17.51698812 # occ.  0.00000000
 
ion      s     py     pz     px    dxy    dyz    dz2    dxz  x2-y2    tot
    1  0.227  0.000  0.000  0.000  0.000  0.000  0.236  0.000  0.000  0.463
    2  0.227  0.000  0.000  0.000  0.000  0.000  0.236  0.000  0.000  0.463
tot    0.453  0.000  0.000  0.000  0.000  0.000  0.472  0.000  0.000  0.925
 
band    14 # energy   33.05512076 # occ.  0.00000000
 
ion      s     py     pz     px    dxy    dyz    dz2    dxz  x2-y2    tot
    1  0.007  0.000  0.000  0.000  0.000  0.000  0.033  0.000  0.000  0.040
    2  0.007  0.000  0.000  0.000  0.000  0.000  0.033  0.000  0.000  0.040
tot    0.014  0.000  0.000  0.000  0.000  0.000  0.066  0.000  0.000  0.080
 
band    15 # energy   35.97063716 # occ.  0.00000000
 
ion      s     py     pz     px    dxy    dyz    dz2    dxz  x2-y2    tot
    1  0.000  0.269  0.000  0.000  0.000  0.000  0.000  0.000  0.130  0.399
    2  0.000  0.269  0.000  0.000  0.000  0.000  0.000  0.000  0.130  0.399
tot    0.000  0.539  0.000  0.000  0.000  0.000  0.000  0.000  0.260  0.798
 
band    16 # energy   35.97063791 # occ.  0.00000000
 
ion      s     py     pz     px    dxy    dyz    dz2    dxz  x2-y2    tot
    1  0.000  0.000  0.000  0.269  0.130  0.000  0.000  0.000  0.000  0.399
    2  0.000  0.000  0.000  0.269  0.130  0.000  0.000  0.000  0.000  0.399
tot    0.000  0.000  0.000  0.539  0.260  0.000  0.000  0.000  0.000  0.798
 
band    17 # energy   36.29083863 # occ.  0.00000000
 
ion      s     py     pz     px    dxy    dyz    dz2    dxz  x2-y2    tot
    1  0.023  0.000  0.000  0.000  0.000  0.000  0.076  0.000  0.000  0.098
    2  0.023  0.000  0.000  0.000  0.000  0.000  0.076  0.000  0.000  0.098
tot    0.045  0.000  0.000  0.000  0.000  0.000  0.151  0.000  0.000  0.197
 
band    18 # energy   36.71781322 # occ.  0.00000000
 
ion      s     py     pz     px    dxy    dyz    dz2    dxz  x2-y2    tot
    1  0.000  0.000  0.026  0.000  0.000  0.000  0.000  0.000  0.000  0.026
    2  0.000  0.000  0.026  0.000  0.000  0.000  0.000  0.000  0.000  0.026
tot    0.000  0.000  0.052  0.000  0.000  0.000  0.000  0.000  0.000  0.052
 
band    19 # energy   37.28580571 # occ.  0.00000000
 
ion      s     py     pz     px    dxy    dyz    dz2    dxz  x2-y2    tot
    1  0.000  0.000  0.000  0.086  0.402  0.000  0.000  0.000  0.000  0.488
    2  0.000  0.000  0.000  0.086  0.402  0.000  0.000  0.000  0.000  0.488
tot    0.000  0.000  0.000  0.171  0.805  0.000  0.000  0.000  0.000  0.976
 
band    20 # energy   37.28580610 # occ.  0.00000000
 
ion      s     py     pz     px    dxy    dyz    dz2    dxz  x2-y2    tot
    1  0.000  0.086  0.000  0.000  0.000  0.000  0.000  0.000  0.402  0.488
    2  0.000  0.086  0.000  0.000  0.000  0.000  0.000  0.000  0.402  0.488
tot    0.000  0.171  0.000  0.000  0.000  0.000  0.000  0.000  0.805  0.976
 
band    21 # energy   41.80741244 # occ.  0.00000000
 
ion      s     py     pz     px    dxy    dyz    dz2    dxz  x2-y2    tot
    1  0.000  0.000  0.000  0.000  0.000  0.000  0.000  0.140  0.000  0.140
    2  0.000  0.000  0.000  0.000  0.000  0.000  0.000  0.140  0.000  0.140
tot    0.000  0.000  0.000  0.000  0.000  0.000  0.000  0.281  0.000  0.281
 
band    22 # energy   41.80741266 # occ.  0.00000000
 
ion      s     py     pz     px    dxy    dyz    dz2    dxz  x2-y2    tot
    1  0.000  0.000  0.000  0.000  0.000  0.140  0.000  0.000  0.000  0.140
    2  0.000  0.000  0.000  0.000  0.000  0.140  0.000  0.000  0.000  0.140
tot    0.000  0.000  0.000  0.000  0.000  0.281  0.000  0.000  0.000  0.281
 
band    23 # energy   42.91753770 # occ.  0.00000000
 
ion      s     py     pz     px    dxy    dyz    dz2    dxz  x2-y2    tot
    1  0.005  0.000  0.000  0.000  0.000  0.000  0.648  0.000  0.000  0.653
    2  0.005  0.000  0.000  0.000  0.000  0.000  0.648  0.000  0.000  0.653
tot    0.009  0.000  0.000  0.000  0.000  0.000  1.296  0.000  0.000  1.306
 
band    24 # energy   43.25545925 # occ.  0.00000000
 
ion      s     py     pz     px    dxy    dyz    dz2    dxz  x2-y2    tot
    1  0.000  0.000  0.049  0.000  0.000  0.000  0.000  0.000  0.000  0.049
    2  0.000  0.000  0.049  0.000  0.000  0.000  0.000  0.000  0.000  0.049
tot    0.000  0.000  0.098  0.000  0.000  0.000  0.000  0.000  0.000  0.098
 

 k-point     2 :    0.08333333 0.00000000 0.00000000     weight = 0.00520833

band     1 # energy    1.91498760 # occ.  1.00000000
 
ion      s     py     pz     px    dxy    dyz    dz2    dxz  x2-y2    tot
    1  0.369  0.002  0.000  0.007  0.000  0.000  0.000  0.000  0.000  0.378
    2  0.369  0.002  0.000  0.007  0.000  0.000  0.000  0.000  0.000  0.378
tot    0.739  0.004  0.000  0.013  0.000  0.000  0.000  0.000  0.000  0.757
 
band     2 # energy    5.63238109 # occ.  1.00000000
 
ion      s     py     pz     px    dxy    dyz    dz2    dxz  x2-y2    tot
    1  0.075  0.001  0.000  0.004  0.002  0.000  0.371  0.000  0.001  0.454
    2  0.075  0.001  0.000  0.004  0.002  0.000  0.371  0.000  0.001  0.454
tot    0.150  0.003  0.000  0.008  0.004  0.000  0.742  0.000  0.001  0.908
 
band     3 # energy    7.89312948 # occ.  1.00000000
 
ion      s     py     pz     px    dxy    dyz    dz2    dxz  x2-y2    tot
    1  0.000  0.000  0.000  0.001  0.239  0.000  0.162  0.000  0.080  0.482
    2  0.000  0.000  0.000  0.001  0.239  0.000  0.162  0.000  0.080  0.482
tot    0.000  0.001  0.000  0.002  0.479  0.000  0.324  0.000  0.160  0.965
 
band     4 # energy    8.25792235 # occ.  1.00000000
 
ion      s     py     pz     px    dxy    dyz    dz2    dxz  x2-y2    tot
    1  0.000  0.001  0.000  0.000  0.121  0.000  0.000  0.000  0.362  0.484
    2  0.000  0.001  0.000  0.000  0.121  0.000  0.000  0.000  0.362  0.484
tot    0.000  0.002  0.000  0.001  0.242  0.000  0.000  0.000  0.725  0.968
 
band     5 # energy    8.33691071 # occ.  1.00000000
 
ion      s     py     pz     px    dxy    dyz    dz2    dxz  x2-y2    tot
    1  0.000  0.000  0.000  0.000  0.151  0.000  0.285  0.000  0.050  0.487
    2  0.000  0.000  0.000  0.000  0.151  0.000  0.285  0.000  0.050  0.487
tot    0.000  0.000  0.000  0.001  0.302  0.000  0.570  0.000  0.101  0.974
 
band     6 # energy    8.42566283 # occ.  1.00000000
 
ion      s     py     pz     px    dxy    dyz    dz2    dxz  x2-y2    tot
    1  0.001  0.000  0.000  0.001  0.332  0.000  0.042  0.000  0.111  0.487
    2  0.001  0.000  0.000  0.001  0.332  0.000  0.042  0.000  0.111  0.487
tot    0.002  0.000  0.000  0.001  0.665  0.000  0.084  0.000  0.222  0.974
 
band     7 # energy    8.57867904 # occ.  1.00000000
 
ion      s     py     pz     px    dxy    dyz    dz2    dxz  x2-y2    tot
    1  0.000  0.001  0.000  0.000  0.122  0.000  0.000  0.000  0.366  0.489
    2  0.000  0.001  0.000  0.000  0.122  0.000  0.000  0.000  0.366  0.489
tot    0.000  0.002  0.000  0.001  0.244  0.000  0.000  0.000  0.731  0.977
 
band     8 # energy    8.67977717 # occ.  1.00000000
 
ion      s     py     pz     px    dxy    dyz    dz2    dxz  x2-y2    tot
    1  0.000  0.000  0.013  0.000  0.000  0.117  0.000  0.352  0.000  0.483
    2  0.000  0.000  0.013  0.000  0.000  0.117  0.000  0.352  0.000  0.483
tot    0.000  0.000  0.026  0.000  0.000  0.235  0.000  0.704  0.000  0.965
 
band     9 # energy    8.76417554 # occ.  1.00000000
 
ion      s     py     pz     px    dxy    dyz    dz2    dxz  x2-y2    tot
    1  0.000  0.000  0.000  0.000  0.000  0.367  0.000  0.122  0.000  0.490
    2  0.000  0.000  0.000  0.000  0.000  0.367  0.000  0.122  0.000  0.490
tot    0.000  0.000  0.000  0.000  0.000  0.735  0.000  0.245  0.000  0.979
 
band    10 # energy    9.19694085 # occ.  1.00000000
 
ion      s     py     pz     px    dxy    dyz    dz2    dxz  x2-y2    tot
    1  0.000  0.000  0.096  0.000  0.000  0.089  0.000  0.268  0.000  0.453
    2  0.000  0.000  0.096  0.000  0.000  0.089  0.000  0.268  0.000  0.453
tot    0.000  0.000  0.191  0.000  0.000  0.179  0.000  0.537  0.000  0.907
 
band    11 # energy   10.04552523 # occ.  1.00000000
 
ion      s     py     pz     px    dxy    dyz    dz2    dxz  x2-y2    tot
    1  0.000  0.000  0.000  0.000  0.000  0.370  0.000  0.123  0.000  0.493
    2  0.000  0.000  0.000  0.000  0.000  0.370  0.000  0.123  0.000  0.493
tot    0.000  0.000  0.000  0.000  0.000  0.740  0.000  0.247  0.000  0.986
 
band    12 # energy   11.87390921 # occ.  0.00000000
 
ion      s     py     pz     px    dxy    dyz    dz2    dxz  x2-y2    tot
    1  0.000  0.000  0.249  0.000  0.000  0.040  0.000  0.120  0.000  0.409
    2  0.000  0.000  0.249  0.000  0.000  0.040  0.000  0.120  0.000  0.409
tot    0.000  0.000  0.499  0.000  0.000  0.080  0.000  0.239  0.000  0.818
 
band    13 # energy   17.55714651 # occ.  0.00000000
 
ion      s     py     pz     px    dxy    dyz    dz2    dxz  x2-y2    tot
    1  0.223  0.002  0.000  0.006  0.000  0.000  0.230  0.000  0.000  0.460
    2  0.223  0.002  0.000  0.006  0.000  0.000  0.230  0.000  0.000  0.460
tot    0.445  0.004  0.000  0.011  0.000  0.000  0.460  0.000  0.000  0.920
 
band    14 # energy   31.31116836 # occ.  0.00000000
 
ion      s     py     pz     px    dxy    dyz    dz2    dxz  x2-y2    tot
    1  0.014  0.022  0.000  0.066  0.114  0.000  0.025  0.000  0.038  0.278
    2  0.014  0.022  0.000  0.066  0.114  0.000  0.025  0.000  0.038  0.278
tot    0.027  0.044  0.000  0.131  0.228  0.000  0.050  0.000  0.076  0.556
 
band    15 # energy   33.69471559 # occ.  0.00000000
 
ion      s     py     pz     px    dxy    dyz    dz2    dxz  x2-y2    tot
    1  0.022  0.023  0.000  0.069  0.068  0.000  0.041  0.000  0.023  0.245
    2  0.022  0.023  0.000  0.069  0.068  0.000  0.041  0.000  0.023  0.245
tot    0.045  0.046  0.000  0.137  0.135  0.000  0.082  0.000  0.045  0.491
 
band    16 # energy   33.77935555 # occ.  0.00000000
 
ion      s     py     pz     px    dxy    dyz    dz2    dxz  x2-y2    tot
    1  0.000  0.175  0.000  0.058  0.045  0.000  0.000  0.000  0.134  0.412
    2  0.000  0.175  0.000  0.058  0.045  0.000  0.000  0.000  0.134  0.412
tot    0.000  0.350  0.000  0.117  0.090  0.000  0.000  0.000  0.269  0.825
 
band    17 # energy   36.73152438 # occ.  0.00000000
 
ion      s     py     pz     px    dxy    dyz    dz2    dxz  x2-y2    tot
    1  0.000  0.000  0.010  0.000  0.000  0.012  0.000  0.037  0.000  0.060
    2  0.000  0.000  0.010  0.000  0.000  0.012  0.000  0.037  0.000  0.060
tot    0.000  0.000  0.019  0.000  0.000  0.025  0.000  0.075  0.000  0.119
 
band    18 # energy   37.22456852 # occ.  0.00000000
 
ion      s     py     pz     px    dxy    dyz    dz2    dxz  x2-y2    tot
    1  0.003  0.017  0.000  0.050  0.040  0.000  0.034  0.000  0.013  0.158
    2  0.003  0.017  0.000  0.050  0.040  0.000  0.034  0.000  0.013  0.158
tot    0.006  0.033  0.000  0.099  0.081  0.000  0.069  0.000  0.027  0.315
 
band    19 # energy   38.62256114 # occ.  0.00000000
 
ion      s     py     pz     px    dxy    dyz    dz2    dxz  x2-y2    tot
    1  0.000  0.000  0.030  0.000  0.000  0.029  0.000  0.088  0.000  0.146
    2  0.000  0.000  0.030  0.000  0.000  0.029  0.000  0.088  0.000  0.146
tot    0.000  0.000  0.059  0.000  0.000  0.058  0.000  0.175  0.000  0.293
 
band    20 # energy   39.69598081 # occ.  0.00000000
 
ion      s     py     pz     px    dxy    dyz    dz2    dxz  x2-y2    tot
    1  0.000  0.080  0.000  0.027  0.093  0.000  0.000  0.000  0.278  0.477
    2  0.000  0.080  0.000  0.027  0.093  0.000  0.000  0.000  0.278  0.477
tot    0.000  0.160  0.000  0.053  0.185  0.000  0.000  0.000  0.556  0.955
 
band    21 # energy   40.46600027 # occ.  0.00000000
 
ion      s     py     pz     px    dxy    dyz    dz2    dxz  x2-y2    tot
    1  0.007  0.036  0.000  0.109  0.146  0.000  0.005  0.000  0.049  0.351
    2  0.007  0.036  0.000  0.109  0.146  0.000  0.005  0.000  0.049  0.351
tot    0.014  0.073  0.000  0.218  0.291  0.000  0.011  0.000  0.097  0.703
 
band    22 # energy   41.31733566 # occ.  0.00000000
 
ion      s     py     pz     px    dxy    dyz    dz2    dxz  x2-y2    tot
    1  0.000  0.000  0.000  0.000  0.000  0.191  0.000  0.064  0.000  0.255
    2  0.000  0.000  0.000  0.000  0.000  0.191  0.000  0.064  0.000  0.255
tot    0.000  0.000  0.000  0.000  0.000  0.383  0.000  0.128  0.000  0.510
 
band    23 # energy   42.48923821 # occ.  0.00000000
 
ion      s     py     pz     px    dxy    dyz    dz2    dxz  x2-y2    tot
    1  0.002  0.008  0.000  0.023  0.048  0.000  0.520  0.000  0.016  0.617
    2  0.002  0.008  0.000  0.023  0.048  0.000  0.520  0.000  0.016  0.617
tot    0.004  0.015  0.000  0.046  0.095  0.000  1.041  0.000  0.032  1.233
 
band    24 # energy   42.74264504 # occ.  0.00000000
 
ion      s     py     pz     px    dxy    dyz    dz2    dxz  x2-y2    tot
    1  0.000  0.000  0.189  0.000  0.000  0.047  0.000  0.141  0.000  0.377
    2  0.000  0.000  0.189  0.000  0.000  0.047  0.000  0.141  0.000  0.377
tot    0.000  0.000  0.379  0.000  0.000  0.094  0.000  0.282  0.000  0.754
 

 k-point     3 :    0.16666667 0.00000000 0.00000000     weight = 0.00520833

band     1 # energy    2.63626849 # occ.  1.00000000
 
ion      s     py     pz     px    dxy    dyz    dz2    dxz  x2-y2    tot
    1  0.343  0.008  0.000  0.025  0.002  0.000  0.001  0.000  0.001  0.380
    2  0.343  0.008  0.000  0.025  0.002  0.000  0.001  0.000  0.001  0.380
tot    0.686  0.016  0.000  0.049  0.004  0.000  0.002  0.000  0.001  0.759
 
band     2 # energy    6.00148727 # occ.  1.00000000
 
ion      s     py     pz     px    dxy    dyz    dz2    dxz  x2-y2    tot
    1  0.053  0.004  0.000  0.013  0.020  0.000  0.361  0.000  0.007  0.457
    2  0.053  0.004  0.000  0.013  0.020  0.000  0.361  0.000  0.007  0.457
tot    0.107  0.008  0.000  0.025  0.039  0.000  0.721  0.000  0.013  0.914
 
band     3 # energy    7.60253901 # occ.  1.00000000
 
ion      s     py     pz     px    dxy    dyz    dz2    dxz  x2-y2    tot
    1  0.000  0.002  0.000  0.005  0.266  0.000  0.115  0.000  0.089  0.476
    2  0.000  0.002  0.000  0.005  0.266  0.000  0.115  0.000  0.089  0.476
tot    0.001  0.003  0.000  0.009  0.531  0.000  0.231  0.000  0.177  0.952
 
band     4 # energy    7.93564674 # occ.  1.00000000
 
ion      s     py     pz     px    dxy    dyz    dz2    dxz  x2-y2    tot
    1  0.000  0.000  0.065  0.000  0.000  0.097  0.000  0.291  0.000  0.454
    2  0.000  0.000  0.065  0.000  0.000  0.097  0.000  0.291  0.000  0.454
tot    0.000  0.000  0.131  0.000  0.000  0.194  0.000  0.583  0.000  0.908
 
band     5 # energy    8.24569886 # occ.  1.00000000
 
ion      s     py     pz     px    dxy    dyz    dz2    dxz  x2-y2    tot
    1  0.005  0.001  0.000  0.002  0.315  0.000  0.057  0.000  0.105  0.484
    2  0.005  0.001  0.000  0.002  0.315  0.000  0.057  0.000  0.105  0.484
tot    0.009  0.001  0.000  0.003  0.631  0.000  0.114  0.000  0.210  0.968
 
band     6 # energy    8.57880441 # occ.  1.00000000
 
ion      s     py     pz     px    dxy    dyz    dz2    dxz  x2-y2    tot
    1  0.000  0.000  0.000  0.000  0.000  0.366  0.000  0.122  0.000  0.488
    2  0.000  0.000  0.000  0.000  0.000  0.366  0.000  0.122  0.000  0.488
tot    0.000  0.000  0.000  0.000  0.000  0.732  0.000  0.244  0.000  0.976
 
band     7 # energy    8.59485564 # occ.  1.00000000
 
ion      s     py     pz     px    dxy    dyz    dz2    dxz  x2-y2    tot
    1  0.000  0.002  0.000  0.001  0.121  0.000  0.000  0.000  0.362  0.485
    2  0.000  0.002  0.000  0.001  0.121  0.000  0.000  0.000  0.362  0.485
tot    0.000  0.003  0.000  0.001  0.241  0.000  0.000  0.000  0.724  0.969
 
band     8 # energy    8.65852091 # occ.  1.00000000
 
ion      s     py     pz     px    dxy    dyz    dz2    dxz  x2-y2    tot
    1  0.002  0.000  0.000  0.001  0.113  0.000  0.334  0.000  0.038  0.487
    2  0.002  0.000  0.000  0.001  0.113  0.000  0.334  0.000  0.038  0.487
tot    0.003  0.001  0.000  0.002  0.225  0.000  0.668  0.000  0.075  0.975
 
band     9 # energy    8.80456715 # occ.  1.00000000
 
ion      s     py     pz     px    dxy    dyz    dz2    dxz  x2-y2    tot
    1  0.000  0.000  0.038  0.000  0.000  0.109  0.000  0.328  0.000  0.476
    2  0.000  0.000  0.038  0.000  0.000  0.109  0.000  0.328  0.000  0.476
tot    0.000  0.000  0.076  0.000  0.000  0.219  0.000  0.656  0.000  0.951
 
band    10 # energy    8.87393229 # occ.  1.00000000
 
ion      s     py     pz     px    dxy    dyz    dz2    dxz  x2-y2    tot
    1  0.000  0.002  0.000  0.001  0.122  0.000  0.000  0.000  0.365  0.489
    2  0.000  0.002  0.000  0.001  0.122  0.000  0.000  0.000  0.365  0.489
tot    0.000  0.003  0.000  0.001  0.243  0.000  0.000  0.000  0.730  0.978
 
band    11 # energy   10.11469307 # occ.  1.00000000
 
ion      s     py     pz     px    dxy    dyz    dz2    dxz  x2-y2    tot
    1  0.000  0.000  0.000  0.000  0.000  0.371  0.000  0.124  0.000  0.495
    2  0.000  0.000  0.000  0.000  0.000  0.371  0.000  0.124  0.000  0.495
tot    0.000  0.000  0.000  0.000  0.000  0.742  0.000  0.247  0.000  0.989
 
band    12 # energy   13.52067201 # occ.  0.00000000
 
ion      s     py     pz     px    dxy    dyz    dz2    dxz  x2-y2    tot
    1  0.000  0.000  0.244  0.000  0.000  0.043  0.000  0.129  0.000  0.417
    2  0.000  0.000  0.244  0.000  0.000  0.043  0.000  0.129  0.000  0.417
tot    0.000  0.000  0.489  0.000  0.000  0.086  0.000  0.259  0.000  0.834
 
band    13 # energy   17.69848320 # occ.  0.00000000
 
ion      s     py     pz     px    dxy    dyz    dz2    dxz  x2-y2    tot
    1  0.208  0.008  0.000  0.025  0.001  0.000  0.212  0.000  0.000  0.453
    2  0.208  0.008  0.000  0.025  0.001  0.000  0.212  0.000  0.000  0.453
tot    0.416  0.016  0.000  0.049  0.001  0.000  0.423  0.000  0.000  0.906
 
band    14 # energy   27.49893962 # occ.  0.00000000
 
ion      s     py     pz     px    dxy    dyz    dz2    dxz  x2-y2    tot
    1  0.043  0.037  0.000  0.111  0.125  0.000  0.023  0.000  0.042  0.381
    2  0.043  0.037  0.000  0.111  0.125  0.000  0.023  0.000  0.042  0.381
tot    0.085  0.074  0.000  0.221  0.251  0.000  0.047  0.000  0.084  0.761
 
band    15 # energy   31.32392915 # occ.  0.00000000
 
ion      s     py     pz     px    dxy    dyz    dz2    dxz  x2-y2    tot
    1  0.000  0.192  0.000  0.064  0.034  0.000  0.000  0.000  0.103  0.394
    2  0.000  0.192  0.000  0.064  0.034  0.000  0.000  0.000  0.103  0.394
tot    0.000  0.384  0.000  0.128  0.069  0.000  0.000  0.000  0.207  0.788
 
band    16 # energy   32.72665151 # occ.  0.00000000
 
ion      s     py     pz     px    dxy    dyz    dz2    dxz  x2-y2    tot
    1  0.023  0.006  0.000  0.018  0.148  0.000  0.050  0.000  0.049  0.294
    2  0.023  0.006  0.000  0.018  0.148  0.000  0.050  0.000  0.049  0.294
tot    0.045  0.012  0.000  0.035  0.297  0.000  0.099  0.000  0.099  0.587
 
band    17 # energy   34.65355732 # occ.  0.00000000
 
ion      s     py     pz     px    dxy    dyz    dz2    dxz  x2-y2    tot
    1  0.000  0.000  0.039  0.000  0.000  0.056  0.000  0.168  0.000  0.263
    2  0.000  0.000  0.039  0.000  0.000  0.056  0.000  0.168  0.000  0.263
tot    0.000  0.000  0.078  0.000  0.000  0.112  0.000  0.336  0.000  0.526
 
band    18 # energy   36.84152505 # occ.  0.00000000
 
ion      s     py     pz     px    dxy    dyz    dz2    dxz  x2-y2    tot
    1  0.000  0.000  0.009  0.000  0.000  0.014  0.000  0.041  0.000  0.064
    2  0.000  0.000  0.009  0.000  0.000  0.014  0.000  0.041  0.000  0.064
tot    0.000  0.000  0.018  0.000  0.000  0.028  0.000  0.083  0.000  0.128
 
band    19 # energy   37.82974646 # occ.  0.00000000
 
ion      s     py     pz     px    dxy    dyz    dz2    dxz  x2-y2    tot
    1  0.027  0.035  0.000  0.105  0.052  0.000  0.028  0.000  0.017  0.264
    2  0.027  0.035  0.000  0.105  0.052  0.000  0.028  0.000  0.017  0.264
tot    0.055  0.070  0.000  0.209  0.103  0.000  0.056  0.000  0.034  0.527
 
band    20 # energy   40.11284378 # occ.  0.00000000
 
ion      s     py     pz     px    dxy    dyz    dz2    dxz  x2-y2    tot
    1  0.049  0.043  0.000  0.128  0.000  0.000  0.136  0.000  0.000  0.356
    2  0.049  0.043  0.000  0.128  0.000  0.000  0.136  0.000  0.000  0.356
tot    0.098  0.086  0.000  0.257  0.001  0.000  0.271  0.000  0.000  0.712
 
band    21 # energy   40.52336777 # occ.  0.00000000
 
ion      s     py     pz     px    dxy    dyz    dz2    dxz  x2-y2    tot
    1  0.000  0.000  0.000  0.000  0.000  0.291  0.000  0.097  0.000  0.388
    2  0.000  0.000  0.000  0.000  0.000  0.291  0.000  0.097  0.000  0.388
tot    0.000  0.000  0.000  0.000  0.000  0.582  0.000  0.194  0.000  0.775
 
band    22 # energy   41.35918411 # occ.  0.00000000
 
ion      s     py     pz     px    dxy    dyz    dz2    dxz  x2-y2    tot
    1  0.000  0.000  0.233  0.000  0.000  0.010  0.000  0.029  0.000  0.272
    2  0.000  0.000  0.233  0.000  0.000  0.010  0.000  0.029  0.000  0.272
tot    0.000  0.000  0.467  0.000  0.000  0.019  0.000  0.058  0.000  0.545
 
band    23 # energy   41.85343766 # occ.  0.00000000
 
ion      s     py     pz     px    dxy    dyz    dz2    dxz  x2-y2    tot
    1  0.000  0.042  0.000  0.014  0.118  0.000  0.000  0.000  0.353  0.526
    2  0.000  0.042  0.000  0.014  0.118  0.000  0.000  0.000  0.353  0.526
tot    0.000  0.084  0.000  0.028  0.235  0.000  0.000  0.000  0.705  1.053
 
band    24 # energy   43.58153565 # occ.  0.00000000
 
ion      s     py     pz     px    dxy    dyz    dz2    dxz  x2-y2    tot
    1  0.000  0.241  0.000  0.080  0.023  0.000  0.000  0.000  0.068  0.412
    2  0.000  0.241  0.000  0.080  0.023  0.000  0.000  0.000  0.068  0.412
tot    0.000  0.482  0.000  0.161  0.045  0.000  0.000  0.000  0.136  0.824
 

 k-point     4 :    0.25000000 0.00000000 0.00000000     weight = 0.00520833

band     1 # energy    3.72243620 # occ.  1.00000000
 
ion      s     py     pz     px    dxy    dyz    dz2    dxz  x2-y2    tot
    1  0.295  0.016  0.000  0.048  0.015  0.000  0.005  0.000  0.005  0.384
    2  0.295  0.016  0.000  0.048  0.015  0.000  0.005  0.000  0.005  0.384
tot    0.591  0.032  0.000  0.096  0.030  0.000  0.011  0.000  0.010  0.769
 
band     2 # energy    6.29106825 # occ.  1.00000000
 
ion      s     py     pz     px    dxy    dyz    dz2    dxz  x2-y2    tot
    1  0.026  0.004  0.000  0.012  0.106  0.000  0.279  0.000  0.035  0.463
    2  0.026  0.004  0.000  0.012  0.106  0.000  0.279  0.000  0.035  0.463
tot    0.053  0.008  0.000  0.025  0.212  0.000  0.558  0.000  0.071  0.926
 
band     3 # energy    7.17429686 # occ.  1.00000000
 
ion      s     py     pz     px    dxy    dyz    dz2    dxz  x2-y2    tot
    1  0.000  0.000  0.055  0.000  0.000  0.099  0.000  0.297  0.000  0.450
    2  0.000  0.000  0.055  0.000  0.000  0.099  0.000  0.297  0.000  0.450
tot    0.000  0.000  0.110  0.000  0.000  0.198  0.000  0.593  0.000  0.900
 
band     4 # energy    7.42879215 # occ.  1.00000000
 
ion      s     py     pz     px    dxy    dyz    dz2    dxz  x2-y2    tot
    1  0.001  0.007  0.000  0.022  0.230  0.000  0.130  0.000  0.077  0.466
    2  0.001  0.007  0.000  0.022  0.230  0.000  0.130  0.000  0.077  0.466
tot    0.002  0.014  0.000  0.043  0.460  0.000  0.259  0.000  0.153  0.932
 
band     5 # energy    8.15213382 # occ.  1.00000000
 
ion      s     py     pz     px    dxy    dyz    dz2    dxz  x2-y2    tot
    1  0.011  0.001  0.000  0.004  0.251  0.000  0.129  0.000  0.084  0.481
    2  0.011  0.001  0.000  0.004  0.251  0.000  0.129  0.000  0.084  0.481
tot    0.022  0.003  0.000  0.009  0.502  0.000  0.258  0.000  0.167  0.961
 
band     6 # energy    8.35613969 # occ.  1.00000000
 
ion      s     py     pz     px    dxy    dyz    dz2    dxz  x2-y2    tot
    1  0.000  0.000  0.000  0.000  0.000  0.365  0.000  0.122  0.000  0.486
    2  0.000  0.000  0.000  0.000  0.000  0.365  0.000  0.122  0.000  0.486
tot    0.000  0.000  0.000  0.000  0.000  0.729  0.000  0.243  0.000  0.972
 
band     7 # energy    8.59581499 # occ.  1.00000000
 
ion      s     py     pz     px    dxy    dyz    dz2    dxz  x2-y2    tot
    1  0.000  0.000  0.030  0.000  0.000  0.112  0.000  0.336  0.000  0.478
    2  0.000  0.000  0.030  0.000  0.000  0.112  0.000  0.336  0.000  0.478
tot    0.000  0.000  0.060  0.000  0.000  0.224  0.000  0.671  0.000  0.955
 
band     8 # energy    9.08329971 # occ.  1.00000000
 
ion      s     py     pz     px    dxy    dyz    dz2    dxz  x2-y2    tot
    1  0.000  0.002  0.000  0.001  0.121  0.000  0.000  0.000  0.363  0.486
    2  0.000  0.002  0.000  0.001  0.121  0.000  0.000  0.000  0.363  0.486
tot    0.000  0.004  0.000  0.001  0.242  0.000  0.000  0.000  0.726  0.973
 
band     9 # energy    9.10878679 # occ.  1.00000000
 
ion      s     py     pz     px    dxy    dyz    dz2    dxz  x2-y2    tot
    1  0.006  0.002  0.000  0.005  0.101  0.000  0.339  0.000  0.034  0.486
    2  0.006  0.002  0.000  0.005  0.101  0.000  0.339  0.000  0.034  0.486
tot    0.012  0.004  0.000  0.011  0.202  0.000  0.677  0.000  0.067  0.973
 
band    10 # energy    9.29856470 # occ.  1.00000000
 
ion      s     py     pz     px    dxy    dyz    dz2    dxz  x2-y2    tot
    1  0.000  0.002  0.000  0.001  0.122  0.000  0.000  0.000  0.365  0.490
    2  0.000  0.002  0.000  0.001  0.122  0.000  0.000  0.000  0.365  0.490
tot    0.000  0.005  0.000  0.002  0.244  0.000  0.000  0.000  0.731  0.981
 
band    11 # energy   10.18023491 # occ.  1.00000000
 
ion      s     py     pz     px    dxy    dyz    dz2    dxz  x2-y2    tot