PROCAR lm decomposed
# of k-points:   95         # of bands:   28         # of ions:    2

 k-point     1 :    0.00000000 0.00000000 0.00000000     weight = 0.00086806

band     1 # energy    2.49799667 # occ.  1.00000000
 
ion      s     py     pz     px    dxy    dyz    dz2    dxz  x2-y2    tot
    1  0.420  0.000  0.000  0.000  0.000  0.000  0.000  0.000  0.000  0.420
    2  0.420  0.000  0.000  0.000  0.000  0.000  0.000  0.000  0.000  0.420
tot    0.840  0.000  0.000  0.000  0.000  0.000  0.000  0.000  0.000  0.840
 
band     2 # energy    6.40810387 # occ.  1.00000000
 
ion      s     py     pz     px    dxy    dyz    dz2    dxz  x2-y2    tot
    1  0.092  0.000  0.000  0.000  0.000  0.000  0.381  0.000  0.000  0.472
    2  0.092  0.000  0.000  0.000  0.000  0.000  0.381  0.000  0.000  0.472
tot    0.184  0.000  0.000  0.000  0.000  0.000  0.761  0.000  0.000  0.945
 
band     3 # energy    9.38553324 # occ.  1.00000000
 
ion      s     py     pz     px    dxy    dyz    dz2    dxz  x2-y2    tot
    1  0.000  0.000  0.000  0.000  0.000  0.000  0.492  0.000  0.000  0.492
    2  0.000  0.000  0.000  0.000  0.000  0.000  0.492  0.000  0.000  0.492
tot    0.000  0.000  0.000  0.000  0.000  0.000  0.984  0.000  0.000  0.984
 
band     4 # energy    9.40290850 # occ.  1.00000000
 
ion      s     py     pz     px    dxy    dyz    dz2    dxz  x2-y2    tot
    1  0.000  0.000  0.000  0.001  0.487  0.000  0.000  0.000  0.000  0.488
    2  0.000  0.000  0.000  0.001  0.487  0.000  0.000  0.000  0.000  0.488
tot    0.000  0.000  0.000  0.002  0.975  0.000  0.000  0.000  0.000  0.976
 
band     5 # energy    9.40290884 # occ.  1.00000000
 
ion      s     py     pz     px    dxy    dyz    dz2    dxz  x2-y2    tot
    1  0.000  0.001  0.000  0.000  0.000  0.000  0.000  0.000  0.487  0.488
    2  0.000  0.001  0.000  0.000  0.000  0.000  0.000  0.000  0.487  0.488
tot    0.000  0.002  0.000  0.000  0.000  0.000  0.000  0.000  0.975  0.976
 
band     6 # energy    9.79295973 # occ.  1.00000000
 
ion      s     py     pz     px    dxy    dyz    dz2    dxz  x2-y2    tot
    1  0.000  0.000  0.000  0.001  0.491  0.000  0.000  0.000  0.000  0.492
    2  0.000  0.000  0.000  0.001  0.491  0.000  0.000  0.000  0.000  0.492
tot    0.000  0.000  0.000  0.002  0.982  0.000  0.000  0.000  0.000  0.984
 
band     7 # energy    9.79295994 # occ.  1.00000000
 
ion      s     py     pz     px    dxy    dyz    dz2    dxz  x2-y2    tot
    1  0.000  0.001  0.000  0.000  0.000  0.000  0.000  0.000  0.491  0.492
    2  0.000  0.001  0.000  0.000  0.000  0.000  0.000  0.000  0.491  0.492
tot    0.000  0.002  0.000  0.000  0.000  0.000  0.000  0.000  0.982  0.984
 
band     8 # energy   10.20674120 # occ.  1.00000000
 
ion      s     py     pz     px    dxy    dyz    dz2    dxz  x2-y2    tot
    1  0.000  0.000  0.000  0.000  0.000  0.000  0.000  0.493  0.000  0.493
    2  0.000  0.000  0.000  0.000  0.000  0.000  0.000  0.493  0.000  0.493
tot    0.000  0.000  0.000  0.000  0.000  0.000  0.000  0.986  0.000  0.986
 
band     9 # energy   10.20674127 # occ.  1.00000000
 
ion      s     py     pz     px    dxy    dyz    dz2    dxz  x2-y2    tot
    1  0.000  0.000  0.000  0.000  0.000  0.493  0.000  0.000  0.000  0.493
    2  0.000  0.000  0.000  0.000  0.000  0.493  0.000  0.000  0.000  0.493
tot    0.000  0.000  0.000  0.000  0.000  0.986  0.000  0.000  0.000  0.986
 
band    10 # energy   11.55429096 # occ.  1.00000000
 
ion      s     py     pz     px    dxy    dyz    dz2    dxz  x2-y2    tot
    1  0.000  0.000  0.000  0.000  0.000  0.000  0.000  0.493  0.000  0.493
    2  0.000  0.000  0.000  0.000  0.000  0.000  0.000  0.493  0.000  0.493
tot    0.000  0.000  0.000  0.000  0.000  0.000  0.000  0.985  0.000  0.985
 
band    11 # energy   11.55429112 # occ.  1.00000000
 
ion      s     py     pz     px    dxy    dyz    dz2    dxz  x2-y2    tot
    1  0.000  0.000  0.000  0.000  0.000  0.493  0.000  0.000  0.000  0.493
    2  0.000  0.000  0.000  0.000  0.000  0.493  0.000  0.000  0.000  0.493
tot    0.000  0.000  0.000  0.000  0.000  0.985  0.000  0.000  0.000  0.985
 
band    12 # energy   12.06714040 # occ.  0.99863378
 
ion      s     py     pz     px    dxy    dyz    dz2    dxz  x2-y2    tot
    1  0.000  0.000  0.405  0.000  0.000  0.000  0.000  0.000  0.000  0.405
    2  0.000  0.000  0.405  0.000  0.000  0.000  0.000  0.000  0.000  0.405
tot    0.000  0.000  0.809  0.000  0.000  0.000  0.000  0.000  0.000  0.809
 
band    13 # energy   19.77290629 # occ.  0.00000000
 
ion      s     py     pz     px    dxy    dyz    dz2    dxz  x2-y2    tot
    1  0.232  0.000  0.000  0.000  0.000  0.000  0.257  0.000  0.000  0.489
    2  0.232  0.000  0.000  0.000  0.000  0.000  0.257  0.000  0.000  0.489
tot    0.464  0.000  0.000  0.000  0.000  0.000  0.514  0.000  0.000  0.978
 
band    14 # energy   35.16603619 # occ.  0.00000000
 
ion      s     py     pz     px    dxy    dyz    dz2    dxz  x2-y2    tot
    1  0.007  0.000  0.000  0.000  0.000  0.000  0.033  0.000  0.000  0.040
    2  0.007  0.000  0.000  0.000  0.000  0.000  0.033  0.000  0.000  0.040
tot    0.014  0.000  0.000  0.000  0.000  0.000  0.067  0.000  0.000  0.081
 
band    15 # energy   38.68832379 # occ.  0.00000000
 
ion      s     py     pz     px    dxy    dyz    dz2    dxz  x2-y2    tot
    1  0.022  0.000  0.000  0.000  0.000  0.000  0.078  0.000  0.000  0.099
    2  0.022  0.000  0.000  0.000  0.000  0.000  0.078  0.000  0.000  0.099
tot    0.044  0.000  0.000  0.000  0.000  0.000  0.155  0.000  0.000  0.199
 
band    16 # energy   39.03824306 # occ.  0.00000000
 
ion      s     py     pz     px    dxy    dyz    dz2    dxz  x2-y2    tot
    1  0.000  0.000  0.021  0.000  0.000  0.000  0.000  0.000  0.000  0.021
    2  0.000  0.000  0.021  0.000  0.000  0.000  0.000  0.000  0.000  0.021
tot    0.000  0.000  0.043  0.000  0.000  0.000  0.000  0.000  0.000  0.043
 
band    17 # energy   39.06768565 # occ.  0.00000000
 
ion      s     py     pz     px    dxy    dyz    dz2    dxz  x2-y2    tot
    1  0.000  0.265  0.000  0.000  0.000  0.000  0.000  0.000  0.157  0.422
    2  0.000  0.265  0.000  0.000  0.000  0.000  0.000  0.000  0.157  0.422
tot    0.000  0.529  0.000  0.000  0.000  0.000  0.000  0.000  0.314  0.844
 
band    18 # energy   39.06768643 # occ.  0.00000000
 
ion      s     py     pz     px    dxy    dyz    dz2    dxz  x2-y2    tot
    1  0.000  0.000  0.000  0.265  0.157  0.000  0.000  0.000  0.000  0.422
    2  0.000  0.000  0.000  0.265  0.157  0.000  0.000  0.000  0.000  0.422
tot    0.000  0.000  0.000  0.529  0.314  0.000  0.000  0.000  0.000  0.844
 
band    19 # energy   40.28654531 # occ.  0.00000000
 
ion      s     py     pz     px    dxy    dyz    dz2    dxz  x2-y2    tot
    1  0.000  0.000  0.000  0.080  0.465  0.000  0.000  0.000  0.000  0.546
    2  0.000  0.000  0.000  0.080  0.465  0.000  0.000  0.000  0.000  0.546
tot    0.000  0.000  0.000  0.161  0.930  0.000  0.000  0.000  0.000  1.091
 
band    20 # energy   40.28654720 # occ.  0.00000000
 
ion      s     py     pz     px    dxy    dyz    dz2    dxz  x2-y2    tot
    1  0.000  0.080  0.000  0.000  0.000  0.000  0.000  0.000  0.465  0.546
    2  0.000  0.080  0.000  0.000  0.000  0.000  0.000  0.000  0.465  0.546
tot    0.000  0.161  0.000  0.000  0.000  0.000  0.000  0.000  0.930  1.091
 
band    21 # energy   44.52766473 # occ.  0.00000000
 
ion      s     py     pz     px    dxy    dyz    dz2    dxz  x2-y2    tot
    1  0.000  0.000  0.000  0.000  0.000  0.000  0.000  0.154  0.000  0.154
    2  0.000  0.000  0.000  0.000  0.000  0.000  0.000  0.154  0.000  0.154
tot    0.000  0.000  0.000  0.000  0.000  0.000  0.000  0.307  0.000  0.307
 
band    22 # energy   44.52766519 # occ.  0.00000000
 
ion      s     py     pz     px    dxy    dyz    dz2    dxz  x2-y2    tot
    1  0.000  0.000  0.000  0.000  0.000  0.154  0.000  0.000  0.000  0.154
    2  0.000  0.000  0.000  0.000  0.000  0.154  0.000  0.000  0.000  0.154
tot    0.000  0.000  0.000  0.000  0.000  0.307  0.000  0.000  0.000  0.307
 
band    23 # energy   46.07972740 # occ.  0.00000000
 
ion      s     py     pz     px    dxy    dyz    dz2    dxz  x2-y2    tot
    1  0.000  0.000  0.051  0.000  0.000  0.000  0.000  0.000  0.000  0.051
    2  0.000  0.000  0.051  0.000  0.000  0.000  0.000  0.000  0.000  0.051
tot    0.000  0.000  0.102  0.000  0.000  0.000  0.000  0.000  0.000  0.102
 
band    24 # energy   46.22578259 # occ.  0.00000000
 
ion      s     py     pz     px    dxy    dyz    dz2    dxz  x2-y2    tot
    1  0.014  0.000  0.000  0.000  0.000  0.000  0.734  0.000  0.000  0.747
    2  0.014  0.000  0.000  0.000  0.000  0.000  0.734  0.000  0.000  0.747
tot    0.027  0.000  0.000  0.000  0.000  0.000  1.467  0.000  0.000  1.494
 
band    25 # energy   48.45533344 # occ.  0.00000000
 
ion      s     py     pz     px    dxy    dyz    dz2    dxz  x2-y2    tot
    1  2.958  0.000  0.000  0.000  0.000  0.000  0.017  0.000  0.000  2.975
    2  2.958  0.000  0.000  0.000  0.000  0.000  0.017  0.000  0.000  2.975
tot    5.916  0.000  0.000  0.000  0.000  0.000  0.033  0.000  0.000  5.950
 
band    26 # energy   48.49818197 # occ.  0.00000000
 
ion      s     py     pz     px    dxy    dyz    dz2    dxz  x2-y2    tot
    1  0.000  0.000  0.000  0.000  0.000  0.592  0.000  0.000  0.000  0.592
    2  0.000  0.000  0.000  0.000  0.000  0.592  0.000  0.000  0.000  0.592
tot    0.000  0.000  0.000  0.000  0.000  1.183  0.000  0.000  0.000  1.183
 
band    27 # energy   48.49818247 # occ.  0.00000000
 
ion      s     py     pz     px    dxy    dyz    dz2    dxz  x2-y2    tot
    1  0.000  0.000  0.000  0.000  0.000  0.000  0.000  0.592  0.000  0.592
    2  0.000  0.000  0.000  0.000  0.000  0.000  0.000  0.592  0.000  0.592
tot    0.000  0.000  0.000  0.000  0.000  0.000  0.000  1.183  0.000  1.183
 
band    28 # energy   48.64099749 # occ.  0.00000000
 
ion      s     py     pz     px    dxy    dyz    dz2    dxz  x2-y2    tot
    1  3.080  0.000  0.000  0.000  0.000  0.000  0.004  0.000  0.000  3.084
    2  3.080  0.000  0.000  0.000  0.000  0.000  0.004  0.000  0.000  3.084
tot    6.159  0.000  0.000  0.000  0.000  0.000  0.008  0.000  0.000  6.167
 

 k-point     2 :    0.08333333 0.00000000 0.00000000     weight = 0.00520833

band     1 # energy    2.76564681 # occ.  1.00000000
 
ion      s     py     pz     px    dxy    dyz    dz2    dxz  x2-y2    tot
    1  0.410  0.003  0.000  0.008  0.000  0.000  0.000  0.000  0.000  0.420
    2  0.410  0.003  0.000  0.008  0.000  0.000  0.000  0.000  0.000  0.420
tot    0.819  0.005  0.000  0.015  0.000  0.000  0.000  0.000  0.000  0.841
 
band     2 # energy    6.57315735 # occ.  1.00000000
 
ion      s     py     pz     px    dxy    dyz    dz2    dxz  x2-y2    tot
    1  0.083  0.002  0.000  0.005  0.002  0.000  0.380  0.000  0.001  0.473
    2  0.083  0.002  0.000  0.005  0.002  0.000  0.380  0.000  0.001  0.473
tot    0.166  0.003  0.000  0.010  0.004  0.000  0.760  0.000  0.001  0.945
 
band     3 # energy    9.11427610 # occ.  1.00000000
 
ion      s     py     pz     px    dxy    dyz    dz2    dxz  x2-y2    tot
    1  0.000  0.000  0.000  0.001  0.239  0.000  0.167  0.000  0.080  0.487
    2  0.000  0.000  0.000  0.001  0.239  0.000  0.167  0.000  0.080  0.487
tot    0.000  0.001  0.000  0.002  0.477  0.000  0.334  0.000  0.159  0.974
 
band     4 # energy    9.53941338 # occ.  1.00000000
 
ion      s     py     pz     px    dxy    dyz    dz2    dxz  x2-y2    tot
    1  0.000  0.001  0.000  0.000  0.122  0.000  0.000  0.000  0.365  0.488
    2  0.000  0.001  0.000  0.000  0.122  0.000  0.000  0.000  0.365  0.488
tot    0.000  0.002  0.000  0.001  0.243  0.000  0.000  0.000  0.730  0.976
 
band     5 # energy    9.62557629 # occ.  1.00000000
 
ion      s     py     pz     px    dxy    dyz    dz2    dxz  x2-y2    tot
    1  0.000  0.000  0.000  0.000  0.150  0.000  0.290  0.000  0.050  0.491
    2  0.000  0.000  0.000  0.000  0.150  0.000  0.290  0.000  0.050  0.491
tot    0.000  0.000  0.000  0.001  0.299  0.000  0.581  0.000  0.100  0.982
 
band     6 # energy    9.73570663 # occ.  1.00000000
 
ion      s     py     pz     px    dxy    dyz    dz2    dxz  x2-y2    tot
    1  0.001  0.000  0.000  0.001  0.340  0.000  0.036  0.000  0.113  0.491
    2  0.001  0.000  0.000  0.001  0.340  0.000  0.036  0.000  0.113  0.491
tot    0.003  0.000  0.000  0.001  0.679  0.000  0.071  0.000  0.226  0.981
 
band     7 # energy    9.91394144 # occ.  1.00000000
 
ion      s     py     pz     px    dxy    dyz    dz2    dxz  x2-y2    tot
    1  0.000  0.001  0.000  0.000  0.123  0.000  0.000  0.000  0.368  0.492
    2  0.000  0.001  0.000  0.000  0.123  0.000  0.000  0.000  0.368  0.492
tot    0.000  0.002  0.000  0.001  0.245  0.000  0.000  0.000  0.735  0.983
 
band     8 # energy   10.01214928 # occ.  1.00000000
 
ion      s     py     pz     px    dxy    dyz    dz2    dxz  x2-y2    tot
    1  0.000  0.000  0.020  0.000  0.000  0.116  0.000  0.349  0.000  0.485
    2  0.000  0.000  0.020  0.000  0.000  0.116  0.000  0.349  0.000  0.485
tot    0.000  0.000  0.041  0.000  0.000  0.233  0.000  0.698  0.000  0.971
 
band     9 # energy   10.11900818 # occ.  1.00000000
 
ion      s     py     pz     px    dxy    dyz    dz2    dxz  x2-y2    tot
    1  0.000  0.000  0.000  0.000  0.000  0.369  0.000  0.123  0.000  0.492
    2  0.000  0.000  0.000  0.000  0.000  0.369  0.000  0.123  0.000  0.492
tot    0.000  0.000  0.000  0.000  0.000  0.738  0.000  0.246  0.000  0.984
 
band    10 # energy   10.55906595 # occ.  1.00000000
 
ion      s     py     pz     px    dxy    dyz    dz2    dxz  x2-y2    tot
    1  0.000  0.000  0.120  0.000  0.000  0.086  0.000  0.258  0.000  0.464
    2  0.000  0.000  0.120  0.000  0.000  0.086  0.000  0.258  0.000  0.464
tot    0.000  0.000  0.239  0.000  0.000  0.172  0.000  0.516  0.000  0.927
 
band    11 # energy   11.59266885 # occ.  1.00000000
 
ion      s     py     pz     px    dxy    dyz    dz2    dxz  x2-y2    tot
    1  0.000  0.000  0.000  0.000  0.000  0.370  0.000  0.123  0.000  0.493
    2  0.000  0.000  0.000  0.000  0.000  0.370  0.000  0.123  0.000  0.493
tot    0.000  0.000  0.000  0.000  0.000  0.740  0.000  0.247  0.000  0.987
 
band    12 # energy   13.42259211 # occ.  0.00000000
 
ion      s     py     pz     px    dxy    dyz    dz2    dxz  x2-y2    tot
    1  0.000  0.000  0.260  0.000  0.000  0.045  0.000  0.136  0.000  0.442
    2  0.000  0.000  0.260  0.000  0.000  0.045  0.000  0.136  0.000  0.442
tot    0.000  0.000  0.520  0.000  0.000  0.091  0.000  0.273  0.000  0.884
 
band    13 # energy   19.80563237 # occ.  0.00000000
 
ion      s     py     pz     px    dxy    dyz    dz2    dxz  x2-y2    tot
    1  0.228  0.002  0.000  0.006  0.000  0.000  0.251  0.000  0.000  0.487
    2  0.228  0.002  0.000  0.006  0.000  0.000  0.251  0.000  0.000  0.487
tot    0.455  0.004  0.000  0.012  0.000  0.000  0.501  0.000  0.000  0.974
 
band    14 # energy   33.71811248 # occ.  0.00000000
 
ion      s     py     pz     px    dxy    dyz    dz2    dxz  x2-y2    tot
    1  0.012  0.016  0.000  0.049  0.120  0.000  0.028  0.000  0.040  0.266
    2  0.012  0.016  0.000  0.049  0.120  0.000  0.028  0.000  0.040  0.266
tot    0.025  0.033  0.000  0.098  0.240  0.000  0.056  0.000  0.080  0.532
 
band    15 # energy   36.27444517 # occ.  0.00000000
 
ion      s     py     pz     px    dxy    dyz    dz2    dxz  x2-y2    tot
    1  0.024  0.025  0.000  0.074  0.082  0.000  0.045  0.000  0.027  0.278
    2  0.024  0.025  0.000  0.074  0.082  0.000  0.045  0.000  0.027  0.278
tot    0.048  0.050  0.000  0.149  0.164  0.000  0.091  0.000  0.055  0.555
 
band    16 # energy   36.69205826 # occ.  0.00000000
 
ion      s     py     pz     px    dxy    dyz    dz2    dxz  x2-y2    tot
    1  0.000  0.173  0.000  0.058  0.053  0.000  0.000  0.000  0.160  0.444
    2  0.000  0.173  0.000  0.058  0.053  0.000  0.000  0.000  0.160  0.444
tot    0.000  0.346  0.000  0.115  0.107  0.000  0.000  0.000  0.320  0.888
 
band    17 # energy   39.06720635 # occ.  0.00000000
 
ion      s     py     pz     px    dxy    dyz    dz2    dxz  x2-y2    tot
    1  0.000  0.000  0.009  0.000  0.000  0.013  0.000  0.038  0.000  0.059
    2  0.000  0.000  0.009  0.000  0.000  0.013  0.000  0.038  0.000  0.059
tot    0.000  0.000  0.017  0.000  0.000  0.025  0.000  0.076  0.000  0.119
 
band    18 # energy   39.82169068 # occ.  0.00000000
 
ion      s     py     pz     px    dxy    dyz    dz2    dxz  x2-y2    tot
    1  0.002  0.019  0.000  0.057  0.047  0.000  0.032  0.000  0.016  0.173
    2  0.002  0.019  0.000  0.057  0.047  0.000  0.032  0.000  0.016  0.173
tot    0.004  0.038  0.000  0.114  0.094  0.000  0.064  0.000  0.031  0.346
 
band    19 # energy   41.21570660 # occ.  0.00000000
 
ion      s     py     pz     px    dxy    dyz    dz2    dxz  x2-y2    tot
    1  0.000  0.000  0.028  0.000  0.000  0.031  0.000  0.094  0.000  0.153
    2  0.000  0.000  0.028  0.000  0.000  0.031  0.000  0.094  0.000  0.153
tot    0.000  0.000  0.056  0.000  0.000  0.063  0.000  0.188  0.000  0.307
 
band    20 # energy   42.85095584 # occ.  0.00000000
 
ion      s     py     pz     px    dxy    dyz    dz2    dxz  x2-y2    tot
    1  0.000  0.074  0.000  0.025  0.108  0.000  0.000  0.000  0.324  0.530
    2  0.000  0.074  0.000  0.025  0.108  0.000  0.000  0.000  0.324  0.530
tot    0.000  0.147  0.000  0.049  0.216  0.000  0.000  0.000  0.648  1.061
 
band    21 # energy   43.61227429 # occ.  0.00000000
 
ion      s     py     pz     px    dxy    dyz    dz2    dxz  x2-y2    tot
    1  0.010  0.032  0.000  0.096  0.192  0.000  0.004  0.000  0.064  0.398
    2  0.010  0.032  0.000  0.096  0.192  0.000  0.004  0.000  0.064  0.398
tot    0.020  0.064  0.000  0.192  0.384  0.000  0.008  0.000  0.128  0.797
 
band    22 # energy   44.12210578 # occ.  0.00000000
 
ion      s     py     pz     px    dxy    dyz    dz2    dxz  x2-y2    tot
    1  0.000  0.000  0.000  0.000  0.000  0.201  0.000  0.067  0.000  0.268
    2  0.000  0.000  0.000  0.000  0.000  0.201  0.000  0.067  0.000  0.268
tot    0.000  0.000  0.000  0.000  0.000  0.402  0.000  0.134  0.000  0.537
 
band    23 # energy   45.80278495 # occ.  0.00000000
 
ion      s     py     pz     px    dxy    dyz    dz2    dxz  x2-y2    tot
    1  0.004  0.008  0.000  0.023  0.039  0.000  0.611  0.000  0.013  0.698
    2  0.004  0.008  0.000  0.023  0.039  0.000  0.611  0.000  0.013  0.698
tot    0.008  0.015  0.000  0.046  0.078  0.000  1.221  0.000  0.026  1.395
 
band    24 # energy   46.12693607 # occ.  0.00000000
 
ion      s     py     pz     px    dxy    dyz    dz2    dxz  x2-y2    tot
    1  0.000  0.000  0.171  0.000  0.000  0.059  0.000  0.177  0.000  0.408
    2  0.000  0.000  0.171  0.000  0.000  0.059  0.000  0.177  0.000  0.408
tot    0.000  0.000  0.342  0.000  0.000  0.118  0.000  0.355  0.000  0.815
 
band    25 # energy   48.12321568 # occ.  0.00000000
 
ion      s     py     pz     px    dxy    dyz    dz2    dxz  x2-y2    tot
    1  2.104  0.007  0.000  0.021  0.090  0.000  0.052  0.000  0.030  2.305
    2  2.104  0.007  0.000  0.021  0.090  0.000  0.052  0.000  0.030  2.305
tot    4.208  0.014  0.000  0.043  0.181  0.000  0.103  0.000  0.060  4.610
 
band    26 # energy   48.55149044 # occ.  0.00000000
 
ion      s     py     pz     px    dxy    dyz    dz2    dxz  x2-y2    tot
    1  2.991  0.002  0.000  0.005  0.004  0.000  0.003  0.000  0.001  3.006
    2  2.991  0.002  0.000  0.005  0.004  0.000  0.003  0.000  0.001  3.006
tot    5.983  0.003  0.000  0.009  0.008  0.000  0.006  0.000  0.003  6.012
 
band    27 # energy   49.09021663 # occ.  0.00000000
 
ion      s     py     pz     px    dxy    dyz    dz2    dxz  x2-y2    tot
    1  0.000  0.198  0.000  0.066  0.080  0.000  0.000  0.000  0.239  0.583
    2  0.000  0.198  0.000  0.066  0.080  0.000  0.000  0.000  0.239  0.583
tot    0.000  0.396  0.000  0.132  0.159  0.000  0.000  0.000  0.478  1.166
 
band    28 # energy   49.37793825 # occ.  0.00000000
 
ion      s     py     pz     px    dxy    dyz    dz2    dxz  x2-y2    tot
    1  0.000  0.000  0.000  0.000  0.000  0.357  0.000  0.119  0.000  0.477
    2  0.000  0.000  0.000  0.000  0.000  0.357  0.000  0.119  0.000  0.477
tot    0.000  0.000  0.000  0.000  0.000  0.715  0.000  0.238  0.000  0.953
 

 k-point     3 :    0.16666667 0.00000000 0.00000000     weight = 0.00520833

band     1 # energy    3.53543565 # occ.  1.00000000
 
ion      s     py     pz     px    dxy    dyz    dz2    dxz  x2-y2    tot
    1  0.379  0.010  0.000  0.029  0.002  0.000  0.001  0.000  0.001  0.421
    2  0.379  0.010  0.000  0.029  0.002  0.000  0.001  0.000  0.001  0.421
tot    0.757  0.019  0.000  0.058  0.005  0.000  0.002  0.000  0.002  0.843
 
band     2 # energy    6.97859021 # occ.  1.00000000
 
ion      s     py     pz     px    dxy    dyz    dz2    dxz  x2-y2    tot
    1  0.059  0.005  0.000  0.015  0.020  0.000  0.367  0.000  0.007  0.474
    2  0.059  0.005  0.000  0.015  0.020  0.000  0.367  0.000  0.007  0.474
tot    0.119  0.010  0.000  0.030  0.041  0.000  0.735  0.000  0.014  0.948
 
band     3 # energy    8.77618471 # occ.  1.00000000
 
ion      s     py     pz     px    dxy    dyz    dz2    dxz  x2-y2    tot
    1  0.000  0.002  0.000  0.006  0.267  0.000  0.117  0.000  0.089  0.482
    2  0.000  0.002  0.000  0.006  0.267  0.000  0.117  0.000  0.089  0.482
tot    0.001  0.004  0.000  0.011  0.535  0.000  0.235  0.000  0.178  0.964
 
band     4 # energy    9.13586799 # occ.  1.00000000
 
ion      s     py     pz     px    dxy    dyz    dz2    dxz  x2-y2    tot
    1  0.000  0.000  0.081  0.000  0.000  0.096  0.000  0.287  0.000  0.463
    2  0.000  0.000  0.081  0.000  0.000  0.096  0.000  0.287  0.000  0.463
tot    0.000  0.000  0.163  0.000  0.000  0.191  0.000  0.573  0.000  0.927
 
band     5 # energy    9.52626061 # occ.  1.00000000
 
ion      s     py     pz     px    dxy    dyz    dz2    dxz  x2-y2    tot
    1  0.005  0.001  0.000  0.002  0.316  0.000  0.059  0.000  0.105  0.488
    2  0.005  0.001  0.000  0.002  0.316  0.000  0.059  0.000  0.105  0.488
tot    0.011  0.001  0.000  0.004  0.632  0.000  0.118  0.000  0.211  0.976
 
band     6 # energy    9.90358496 # occ.  1.00000000
 
ion      s     py     pz     px    dxy    dyz    dz2    dxz  x2-y2    tot
    1  0.000  0.000  0.000  0.000  0.000  0.368  0.000  0.123  0.000  0.491
    2  0.000  0.000  0.000  0.000  0.000  0.368  0.000  0.123  0.000  0.491
tot    0.000  0.000  0.000  0.000  0.000  0.736  0.000  0.245  0.000  0.981
 
band     7 # energy    9.92610891 # occ.  1.00000000
 
ion      s     py     pz     px    dxy    dyz    dz2    dxz  x2-y2    tot
    1  0.000  0.002  0.000  0.001  0.121  0.000  0.000  0.000  0.364  0.487
    2  0.000  0.002  0.000  0.001  0.121  0.000  0.000  0.000  0.364  0.487
tot    0.000  0.004  0.000  0.001  0.242  0.000  0.000  0.000  0.727  0.975
 
band     8 # energy    9.99380064 # occ.  1.00000000
 
ion      s     py     pz     px    dxy    dyz    dz2    dxz  x2-y2    tot
    1  0.002  0.000  0.000  0.001  0.115  0.000  0.333  0.000  0.038  0.490
    2  0.002  0.000  0.000  0.001  0.115  0.000  0.333  0.000  0.038  0.490
tot    0.004  0.001  0.000  0.003  0.230  0.000  0.666  0.000  0.077  0.980
 
band     9 # energy   10.14774314 # occ.  1.00000000
 
ion      s     py     pz     px    dxy    dyz    dz2    dxz  x2-y2    tot
    1  0.000  0.000  0.045  0.000  0.000  0.109  0.000  0.328  0.000  0.482
    2  0.000  0.000  0.045  0.000  0.000  0.109  0.000  0.328  0.000  0.482
tot    0.000  0.000  0.090  0.000  0.000  0.219  0.000  0.656  0.000  0.964
 
band    10 # energy   10.25338377 # occ.  1.00000000
 
ion      s     py     pz     px    dxy    dyz    dz2    dxz  x2-y2    tot
    1  0.000  0.002  0.000  0.001  0.122  0.000  0.000  0.000  0.367  0.491
    2  0.000  0.002  0.000  0.001  0.122  0.000  0.000  0.000  0.367  0.491
tot    0.000  0.004  0.000  0.001  0.244  0.000  0.000  0.000  0.733  0.983
 
band    11 # energy   11.67432252 # occ.  1.00000000
 
ion      s     py     pz     px    dxy    dyz    dz2    dxz  x2-y2    tot
    1  0.000  0.000  0.000  0.000  0.000  0.371  0.000  0.124  0.000  0.495
    2  0.000  0.000  0.000  0.000  0.000  0.371  0.000  0.124  0.000  0.495
tot    0.000  0.000  0.000  0.000  0.000  0.742  0.000  0.247  0.000  0.990
 
band    12 # energy   15.22119852 # occ.  0.00000000
 
ion      s     py     pz     px    dxy    dyz    dz2    dxz  x2-y2    tot
    1  0.000  0.000  0.261  0.000  0.000  0.047  0.000  0.140  0.000  0.448
    2  0.000  0.000  0.261  0.000  0.000  0.047  0.000  0.140  0.000  0.448
tot    0.000  0.000  0.522  0.000  0.000  0.093  0.000  0.280  0.000  0.896
 
band    13 # energy   19.92389015 # occ.  0.00000000
 
ion      s     py     pz     px    dxy    dyz    dz2    dxz  x2-y2    tot
    1  0.211  0.009  0.000  0.027  0.001  0.000  0.232  0.000  0.000  0.480
    2  0.211  0.009  0.000  0.027  0.001  0.000  0.232  0.000  0.000  0.480
tot    0.422  0.018  0.000  0.055  0.001  0.000  0.464  0.000  0.000  0.961
 
band    14 # energy   29.98097655 # occ.  0.00000000
 
ion      s     py     pz     px    dxy    dyz    dz2    dxz  x2-y2    tot
    1  0.042  0.036  0.000  0.107  0.148  0.000  0.026  0.000  0.049  0.407
    2  0.042  0.036  0.000  0.107  0.148  0.000  0.026  0.000  0.049  0.407
tot    0.083  0.071  0.000  0.214  0.296  0.000  0.051  0.000  0.099  0.814
 
band    15 # energy   34.07559542 # occ.  0.00000000
 
ion      s     py     pz     px    dxy    dyz    dz2    dxz  x2-y2    tot
    1  0.000  0.194  0.000  0.065  0.041  0.000  0.000  0.000  0.122  0.421
    2  0.000  0.194  0.000  0.065  0.041  0.000  0.000  0.000  0.122  0.421
tot    0.000  0.388  0.000  0.129  0.081  0.000  0.000  0.000  0.244  0.842
 
band    16 # energy   35.21459367 # occ.  0.00000000
 
ion      s     py     pz     px    dxy    dyz    dz2    dxz  x2-y2    tot
    1  0.023  0.007  0.000  0.020  0.162  0.000  0.054  0.000  0.054  0.320
    2  0.023  0.007  0.000  0.020  0.162  0.000  0.054  0.000  0.054  0.320
tot    0.046  0.013  0.000  0.040  0.325  0.000  0.107  0.000  0.108  0.640
 
band    17 # energy   37.16173517 # occ.  0.00000000
 
ion      s     py     pz     px    dxy    dyz    dz2    dxz  x2-y2    tot
    1  0.000  0.000  0.037  0.000  0.000  0.061  0.000  0.182  0.000  0.279
    2  0.000  0.000  0.037  0.000  0.000  0.061  0.000  0.182  0.000  0.279
tot    0.000  0.000  0.074  0.000  0.000  0.121  0.000  0.363  0.000  0.558
 
band    18 # energy   39.19268645 # occ.  0.00000000
 
ion      s     py     pz     px    dxy    dyz    dz2    dxz  x2-y2    tot
    1  0.000  0.000  0.009  0.000  0.000  0.015  0.000  0.045  0.000  0.069
    2  0.000  0.000  0.009  0.000  0.000  0.015  0.000  0.045  0.000  0.069
tot    0.000  0.000  0.017  0.000  0.000  0.030  0.000  0.091  0.000  0.138
 
band    19 # energy   40.70027249 # occ.  0.00000000
 
ion      s     py     pz     px    dxy    dyz    dz2    dxz  x2-y2    tot
    1  0.021  0.029  0.000  0.088  0.050  0.000  0.023  0.000  0.017  0.228
    2  0.021  0.029  0.000  0.088  0.050  0.000  0.023  0.000  0.017  0.228
tot    0.042  0.059  0.000  0.176  0.100  0.000  0.045  0.000  0.033  0.456
 
band    20 # energy   43.41386877 # occ.  0.00000000
 
ion      s     py     pz     px    dxy    dyz    dz2    dxz  x2-y2    tot
    1  0.083  0.045  0.000  0.136  0.002  0.000  0.191  0.000  0.001  0.458
    2  0.083  0.045  0.000  0.136  0.002  0.000  0.191  0.000  0.001  0.458
tot    0.167  0.091  0.000  0.272  0.004  0.000  0.381  0.000  0.001  0.916
 
band    21 # energy   43.42666129 # occ.  0.00000000
 
ion      s     py     pz     px    dxy    dyz    dz2    dxz  x2-y2    tot
    1  0.000  0.000  0.000  0.000  0.000  0.316  0.000  0.105  0.000  0.421
    2  0.000  0.000  0.000  0.000  0.000  0.316  0.000  0.105  0.000  0.421
tot    0.000  0.000  0.000  0.000  0.000  0.631  0.000  0.210  0.000  0.842
 
band    22 # energy   44.64505326 # occ.  0.00000000
 
ion      s     py     pz     px    dxy    dyz    dz2    dxz  x2-y2    tot
    1  0.000  0.000  0.224  0.000  0.000  0.015  0.000  0.044  0.000  0.283
    2  0.000  0.000  0.224  0.000  0.000  0.015  0.000  0.044  0.000  0.283
tot    0.000  0.000  0.448  0.000  0.000  0.030  0.000  0.089  0.000  0.566
 
band    23 # energy   45.07056217 # occ.  0.00000000
 
ion      s     py     pz     px    dxy    dyz    dz2    dxz  x2-y2    tot
    1  0.000  0.027  0.000  0.009  0.138  0.000  0.000  0.000  0.413  0.587
    2  0.000  0.027  0.000  0.009  0.138  0.000  0.000  0.000  0.413  0.587
tot    0.000  0.054  0.000  0.018  0.275  0.000  0.000  0.000  0.826  1.173
 
band    24 # energy   47.04611663 # occ.  0.00000000
 
ion      s     py     pz     px    dxy    dyz    dz2    dxz  x2-y2    tot
    1  0.464  0.006  0.000  0.019  0.064  0.000  0.340  0.000  0.021  0.916
    2  0.464  0.006  0.000  0.019  0.064  0.000  0.340  0.000  0.021  0.916
tot    0.928  0.013  0.000  0.039  0.129  0.000  0.680  0.000  0.043  1.832
 
band    25 # energy   47.37369072 # occ.  0.00000000
 
ion      s     py     pz     px    dxy    dyz    dz2    dxz  x2-y2    tot
    1  0.000  0.257  0.000  0.086  0.020  0.000  0.000  0.000  0.061  0.424
    2  0.000  0.257  0.000  0.086  0.020  0.000  0.000  0.000  0.061  0.424
tot    0.000  0.515  0.000  0.172  0.040  0.000  0.000  0.000  0.121  0.848
 
band    26 # energy   48.50394525 # occ.  0.00000000
 
ion      s     py     pz     px    dxy    dyz    dz2    dxz  x2-y2    tot
    1  2.635  0.000  0.000  0.001  0.035  0.000  0.016  0.000  0.012  2.699
    2  2.635  0.000  0.000  0.001  0.035  0.000  0.016  0.000  0.012  2.699
tot    5.270  0.001  0.000  0.002  0.070  0.000  0.032  0.000  0.023  5.398
 
band    27 # energy   48.87891150 # occ.  0.00000000
 
ion      s     py     pz     px    dxy    dyz    dz2    dxz  x2-y2    tot
    1  1.733  0.003  0.000  0.009  0.112  0.000  0.002  0.000  0.037  1.897