<?xml version="1.0" encoding="ISO-8859-1"?>
<modeling>
 <generator>
  <i name="program" type="string">vasp </i>
  <i name="version" type="string">6.3.2  </i>
  <i name="subversion" type="string">27Jun22 (build Aug 12 2022 00:53:59) complex                          parallel </i>
  <i name="platform" type="string">tv2STD </i>
  <i name="date" type="string">2024 12 02 </i>
  <i name="time" type="string">17:31:15 </i>
 </generator>
 <incar>
  <i type="string" name="SYSTEM">Co-hcc</i>
  <i type="int" name="ISTART">     0</i>
  <i type="string" name="PREC">Accurate      normal | accurate</i>
  <i type="string" name="ALGO">Normal     Normal, Fast, Very_Fast</i>
  <i type="logical" name="ADDGRID"> F  </i>
  <i type="int" name="ISPIN">     2</i>
  <i type="int" name="ICHARG">     2</i>
  <i type="int" name="INIWAV">     1</i>
  <i type="int" name="NELM">   100</i>
  <i type="int" name="IBRION">     2</i>
  <i name="EDIFF">      0.00000100</i>
  <i name="EDIFFG">     -0.02000000</i>
  <i type="int" name="NSW">   100</i>
  <i type="int" name="ISIF">     2</i>
  <i type="int" name="ISYM">     1</i>
  <i name="ENCUT">    425.00000000</i>
  <v name="MAGMOM">      3.00000000      3.00000000</v>
  <i type="logical" name="LREAL"> F  </i>
  <i type="int" name="ISMEAR">     0</i>
  <i name="SIGMA">      0.05000000</i>
  <i type="int" name="NWRITE">     2</i>
  <i type="logical" name="LWAVE"> F  </i>
  <i type="logical" name="LCHARG"> F  </i>
  <i type="int" name="LORBIT">    11</i>
 </incar>
 <primitive_cell>
  <structure name="primitive_cell" >
   <crystal>
    <varray name="basis" >
     <v>       1.23213507      -2.13412055       0.00000000 </v>
     <v>       1.23213507       2.13412055       0.00000000 </v>
     <v>       0.00000000       0.00000000       3.97498428 </v>
    </varray>
    <i name="volume">     20.90463927 </i>
    <varray name="rec_basis" >
     <v>       0.40579967      -0.23428855       0.00000000 </v>
     <v>       0.40579967       0.23428855       0.00000000 </v>
     <v>       0.00000000       0.00000000       0.25157332 </v>
    </varray>
   </crystal>
   <varray name="positions" >
    <v>       0.33333333       0.66666667       0.25000000 </v>
    <v>       0.66666667       0.33333333       0.75000000 </v>
   </varray>
  </structure>
  <varray name="primitive_index" >
   <v type="int" >        1 </v>
   <v type="int" >        2 </v>
  </varray>
 </primitive_cell>
 <kpoints>
  <generation param="Gamma">
   <v type="int" name="divisions">      12       12        8 </v>
   <v name="usershift">      0.00000000       0.00000000       0.00000000 </v>
   <v name="genvec1">      0.08333333       0.00000000       0.00000000 </v>
   <v name="genvec2">      0.00000000       0.08333333       0.00000000 </v>
   <v name="genvec3">      0.00000000       0.00000000       0.12500000 </v>
   <v name="shift">      0.00000000       0.00000000       0.00000000 </v>
  </generation>
  <varray name="kpointlist" >
   <v>       0.00000000       0.00000000       0.00000000 </v>
   <v>       0.08333333       0.00000000       0.00000000 </v>
   <v>       0.16666667       0.00000000       0.00000000 </v>
   <v>       0.25000000       0.00000000       0.00000000 </v>
   <v>       0.33333333       0.00000000       0.00000000 </v>
   <v>       0.41666667       0.00000000       0.00000000 </v>
   <v>       0.50000000       0.00000000       0.00000000 </v>
   <v>       0.08333333       0.08333333       0.00000000 </v>
   <v>       0.16666667       0.08333333       0.00000000 </v>
   <v>       0.25000000       0.08333333       0.00000000 </v>
   <v>       0.33333333       0.08333333       0.00000000 </v>
   <v>       0.41666667       0.08333333       0.00000000 </v>
   <v>       0.16666667       0.16666667       0.00000000 </v>
   <v>       0.25000000       0.16666667       0.00000000 </v>
   <v>       0.33333333       0.16666667       0.00000000 </v>
   <v>       0.41666667       0.16666667       0.00000000 </v>
   <v>       0.25000000       0.25000000       0.00000000 </v>
   <v>       0.33333333       0.25000000       0.00000000 </v>
   <v>       0.33333333       0.33333333       0.00000000 </v>
   <v>       0.00000000       0.00000000       0.12500000 </v>
   <v>       0.08333333       0.00000000       0.12500000 </v>
   <v>       0.16666667       0.00000000       0.12500000 </v>
   <v>       0.25000000       0.00000000       0.12500000 </v>
   <v>       0.33333333       0.00000000       0.12500000 </v>
   <v>       0.41666667       0.00000000       0.12500000 </v>
   <v>       0.50000000       0.00000000       0.12500000 </v>
   <v>       0.08333333       0.08333333       0.12500000 </v>
   <v>       0.16666667       0.08333333       0.12500000 </v>
   <v>       0.25000000       0.08333333       0.12500000 </v>
   <v>       0.33333333       0.08333333       0.12500000 </v>
   <v>       0.41666667       0.08333333       0.12500000 </v>
   <v>       0.16666667       0.16666667       0.12500000 </v>
   <v>       0.25000000       0.16666667       0.12500000 </v>
   <v>       0.33333333       0.16666667       0.12500000 </v>
   <v>       0.41666667       0.16666667       0.12500000 </v>
   <v>       0.25000000       0.25000000       0.12500000 </v>
   <v>       0.33333333       0.25000000       0.12500000 </v>
   <v>       0.33333333       0.33333333       0.12500000 </v>
   <v>       0.00000000       0.00000000       0.25000000 </v>
   <v>       0.08333333       0.00000000       0.25000000 </v>
   <v>       0.16666667       0.00000000       0.25000000 </v>
   <v>       0.25000000       0.00000000       0.25000000 </v>
   <v>       0.33333333       0.00000000       0.25000000 </v>
   <v>       0.41666667       0.00000000       0.25000000 </v>
   <v>       0.50000000       0.00000000       0.25000000 </v>
   <v>       0.08333333       0.08333333       0.25000000 </v>
   <v>       0.16666667       0.08333333       0.25000000 </v>
   <v>       0.25000000       0.08333333       0.25000000 </v>
   <v>       0.33333333       0.08333333       0.25000000 </v>
   <v>       0.41666667       0.08333333       0.25000000 </v>
   <v>       0.16666667       0.16666667       0.25000000 </v>
   <v>       0.25000000       0.16666667       0.25000000 </v>
   <v>       0.33333333       0.16666667       0.25000000 </v>
   <v>       0.41666667       0.16666667       0.25000000 </v>
   <v>       0.25000000       0.25000000       0.25000000 </v>
   <v>       0.33333333       0.25000000       0.25000000 </v>
   <v>       0.33333333       0.33333333       0.25000000 </v>
   <v>       0.00000000       0.00000000       0.37500000 </v>
   <v>       0.08333333       0.00000000       0.37500000 </v>
   <v>       0.16666667       0.00000000       0.37500000 </v>
   <v>       0.25000000       0.00000000       0.37500000 </v>
   <v>       0.33333333       0.00000000       0.37500000 </v>
   <v>       0.41666667       0.00000000       0.37500000 </v>
   <v>       0.50000000       0.00000000       0.37500000 </v>
   <v>       0.08333333       0.08333333       0.37500000 </v>
   <v>       0.16666667       0.08333333       0.37500000 </v>
   <v>       0.25000000       0.08333333       0.37500000 </v>
   <v>       0.33333333       0.08333333       0.37500000 </v>
   <v>       0.41666667       0.08333333       0.37500000 </v>
   <v>       0.16666667       0.16666667       0.37500000 </v>
   <v>       0.25000000       0.16666667       0.37500000 </v>
   <v>       0.33333333       0.16666667       0.37500000 </v>
   <v>       0.41666667       0.16666667       0.37500000 </v>
   <v>       0.25000000       0.25000000       0.37500000 </v>
   <v>       0.33333333       0.25000000       0.37500000 </v>
   <v>       0.33333333       0.33333333       0.37500000 </v>
   <v>       0.00000000       0.00000000       0.50000000 </v>
   <v>       0.08333333       0.00000000       0.50000000 </v>
   <v>       0.16666667       0.00000000       0.50000000 </v>
   <v>       0.25000000       0.00000000       0.50000000 </v>
   <v>       0.33333333       0.00000000       0.50000000 </v>
   <v>       0.41666667       0.00000000       0.50000000 </v>
   <v>       0.50000000       0.00000000       0.50000000 </v>
   <v>       0.08333333       0.08333333       0.50000000 </v>
   <v>       0.16666667       0.08333333       0.50000000 </v>
   <v>       0.25000000       0.08333333       0.50000000 </v>
   <v>       0.33333333       0.08333333       0.50000000 </v>
   <v>       0.41666667       0.08333333       0.50000000 </v>
   <v>       0.16666667       0.16666667       0.50000000 </v>
   <v>       0.25000000       0.16666667       0.50000000 </v>
   <v>       0.33333333       0.16666667       0.50000000 </v>
   <v>       0.41666667       0.16666667       0.50000000 </v>
   <v>       0.25000000       0.25000000       0.50000000 </v>
   <v>       0.33333333       0.25000000       0.50000000 </v>
   <v>       0.33333333       0.33333333       0.50000000 </v>
  </varray>
  <varray name="weights" >
   <v>       0.00086806 </v>
   <v>       0.00520833 </v>
   <v>       0.00520833 </v>
   <v>       0.00520833 </v>
   <v>       0.00520833 </v>
   <v>       0.00520833 </v>
   <v>       0.00260417 </v>
   <v>       0.00520833 </v>
   <v>       0.01041667 </v>
   <v>       0.01041667 </v>
   <v>       0.01041667 </v>
   <v>       0.01041667 </v>
   <v>       0.00520833 </v>
   <v>       0.01041667 </v>
   <v>       0.01041667 </v>
   <v>       0.00520833 </v>
   <v>       0.00520833 </v>
   <v>       0.01041667 </v>
   <v>       0.00173611 </v>
   <v>       0.00173611 </v>
   <v>       0.01041667 </v>
   <v>       0.01041667 </v>
   <v>       0.01041667 </v>
   <v>       0.01041667 </v>
   <v>       0.01041667 </v>
   <v>       0.00520833 </v>
   <v>       0.01041667 </v>
   <v>       0.02083333 </v>
   <v>       0.02083333 </v>
   <v>       0.02083333 </v>
   <v>       0.02083333 </v>
   <v>       0.01041667 </v>
   <v>       0.02083333 </v>
   <v>       0.02083333 </v>
   <v>       0.01041667 </v>
   <v>       0.01041667 </v>
   <v>       0.02083333 </v>
   <v>       0.00347222 </v>
   <v>       0.00173611 </v>
   <v>       0.01041667 </v>
   <v>       0.01041667 </v>
   <v>       0.01041667 </v>
   <v>       0.01041667 </v>
   <v>       0.01041667 </v>
   <v>       0.00520833 </v>
   <v>       0.01041667 </v>
   <v>       0.02083333 </v>
   <v>       0.02083333 </v>
   <v>       0.02083333 </v>
   <v>       0.02083333 </v>
   <v>       0.01041667 </v>
   <v>       0.02083333 </v>
   <v>       0.02083333 </v>
   <v>       0.01041667 </v>
   <v>       0.01041667 </v>
   <v>       0.02083333 </v>
   <v>       0.00347222 </v>
   <v>       0.00173611 </v>
   <v>       0.01041667 </v>
   <v>       0.01041667 </v>
   <v>       0.01041667 </v>
   <v>       0.01041667 </v>
   <v>       0.01041667 </v>
   <v>       0.00520833 </v>
   <v>       0.01041667 </v>
   <v>       0.02083333 </v>
   <v>       0.02083333 </v>
   <v>       0.02083333 </v>
   <v>       0.02083333 </v>
   <v>       0.01041667 </v>
   <v>       0.02083333 </v>
   <v>       0.02083333 </v>
   <v>       0.01041667 </v>
   <v>       0.01041667 </v>
   <v>       0.02083333 </v>
   <v>       0.00347222 </v>
   <v>       0.00086806 </v>
   <v>       0.00520833 </v>
   <v>       0.00520833 </v>
   <v>       0.00520833 </v>
   <v>       0.00520833 </v>
   <v>       0.00520833 </v>
   <v>       0.00260417 </v>
   <v>       0.00520833 </v>
   <v>       0.01041667 </v>
   <v>       0.01041667 </v>
   <v>       0.01041667 </v>
   <v>       0.01041667 </v>
   <v>       0.00520833 </v>
   <v>       0.01041667 </v>
   <v>       0.01041667 </v>
   <v>       0.00520833 </v>
   <v>       0.00520833 </v>
   <v>       0.01041667 </v>
   <v>       0.00173611 </v>
  </varray>
 </kpoints>
 <parameters>
  <separator name="general" >
   <i type="string" name="SYSTEM">Co-hcc</i>
   <i type="logical" name="LCOMPAT"> F  </i>
  </separator>
  <separator name="electronic" >
   <i type="string" name="PREC">accura</i>
   <i name="ENMAX">    425.00000000</i>
   <i name="ENAUG">    477.81800000</i>
   <i name="EDIFF">      0.00000100</i>
   <i type="int" name="IALGO">    38</i>
   <i type="int" name="IWAVPR">    11</i>
   <i type="int" name="NBANDS">    24</i>
   <i type="int" name="NBANDSLOW">    -1</i>
   <i type="int" name="NBANDSHIGH">    -1</i>
   <i name="NELECT">     18.00000000</i>
   <i type="int" name="TURBO">     0</i>
   <i type="int" name="IRESTART">     0</i>
   <i type="int" name="NREBOOT">     0</i>
   <i type="int" name="NMIN">     0</i>
   <i name="EREF">      0.00000000</i>
   <separator name="electronic smearing" >
    <i type="int" name="ISMEAR">     0</i>
    <i name="SIGMA">      0.05000000</i>
    <i name="KSPACING">      0.50000000</i>
    <i type="logical" name="KGAMMA"> T  </i>
    <i type="logical" name="KBLOWUP"> T  </i>
   </separator>
   <separator name="electronic projectors" >
    <i type="logical" name="LREAL"> F  </i>
    <v name="ROPT">      0.00000000</v>
    <i type="int" name="LMAXPAW">  -100</i>
    <i type="int" name="LMAXMIX">     2</i>
    <i type="logical" name="NLSPLINE"> F  </i>
   </separator>
   <separator name="electronic startup" >
    <i type="int" name="ISTART">     0</i>
    <i type="int" name="ICHARG">     2</i>
    <i type="int" name="INIWAV">     1</i>
   </separator>
   <separator name="electronic spin" >
    <i type="int" name="ISPIN">     2</i>
    <i type="logical" name="LNONCOLLINEAR"> F  </i>
    <v name="MAGMOM">      3.00000000      3.00000000</v>
    <i name="NUPDOWN">     -1.00000000</i>
    <i type="logical" name="LSORBIT"> F  </i>
    <v name="SAXIS">      0.00000000      0.00000000      1.00000000</v>
    <i type="logical" name="LSPIRAL"> F  </i>
    <v name="QSPIRAL">      0.00000000      0.00000000      0.00000000</v>
    <i type="logical" name="LZEROZ"> F  </i>
   </separator>
   <separator name="electronic exchange-correlation" >
    <i type="logical" name="LASPH"> F  </i>
    <i type="logical" name="LMETAGGA"> F  </i>
   </separator>
   <separator name="electronic convergence" >
    <i type="int" name="NELM">   100</i>
    <i type="int" name="NELMDL">    -5</i>
    <i type="int" name="NELMIN">     2</i>
    <i name="ENINI">    425.00000000</i>
    <separator name="electronic convergence detail" >
     <i type="logical" name="LDIAG"> T  </i>
     <i type="logical" name="LSUBROT"> F  </i>
     <i name="WEIMIN">      0.00100000</i>
     <i name="EBREAK">      0.00000001</i>
     <i name="DEPER">      0.30000000</i>
     <i type="int" name="NRMM">     4</i>
     <i name="TIME">      0.40000000</i>
    </separator>
   </separator>
   <separator name="electronic mixer" >
    <i name="AMIX">      0.40000000</i>
    <i name="BMIX">      1.00000000</i>
    <i name="AMIN">      0.10000000</i>
    <i name="AMIX_MAG">      1.60000000</i>
    <i name="BMIX_MAG">      1.00000000</i>
    <separator name="electronic mixer details" >
     <i type="int" name="IMIX">     4</i>
     <i type="logical" name="MIXFIRST"> F  </i>
     <i type="int" name="MAXMIX">   -45</i>
     <i name="WC">    100.00000000</i>
     <i type="int" name="INIMIX">     1</i>
     <i type="int" name="MIXPRE">     1</i>
     <i type="int" name="MREMOVE">     5</i>
    </separator>
   </separator>
   <separator name="electronic dipolcorrection" >
    <i type="logical" name="LDIPOL"> F  </i>
    <i type="logical" name="LMONO"> F  </i>
    <i type="int" name="IDIPOL">     0</i>
    <i name="EPSILON">      1.00000000</i>
    <v name="DIPOL">   -100.00000000   -100.00000000   -100.00000000</v>
    <i name="EFIELD">      0.00000000</i>
   </separator>
  </separator>
  <separator name="grids" >
   <i type="int" name="NGX">    18</i>
   <i type="int" name="NGY">    18</i>
   <i type="int" name="NGZ">    28</i>
   <i type="int" name="NGXF">    36</i>
   <i type="int" name="NGYF">    36</i>
   <i type="int" name="NGZF">    56</i>
   <i type="logical" name="ADDGRID"> F  </i>
  </separator>
  <separator name="ionic" >
   <i type="int" name="NSW">   100</i>
   <i type="int" name="IBRION">     2</i>
   <i type="int" name="MDALGO">     0</i>
   <i type="int" name="ISIF">     2</i>
   <i name="PSTRESS">      0.00000000</i>
   <i name="EDIFFG">     -0.02000000</i>
   <i type="int" name="NFREE">     1</i>
   <i name="POTIM">      0.50000000</i>
   <i name="SMASS">     -3.00000000</i>
   <i name="SCALEE">      1.00000000</i>
  </separator>
  <separator name="ionic md" >
   <i name="TEBEG">      0.00010000</i>
   <i name="TEEND">      0.00010000</i>
   <i type="int" name="NBLOCK">     1</i>
   <i type="int" name="KBLOCK">   100</i>
   <i type="int" name="NPACO">   256</i>
   <i name="APACO">     10.00000000</i>
  </separator>
  <separator name="symmetry" >
   <i type="int" name="ISYM">     1</i>
   <i name="SYMPREC">      0.00001000</i>
  </separator>
  <separator name="dos" >
   <i type="int" name="LORBIT">    11</i>
   <v name="RWIGS">     -1.00000000</v>
   <i type="int" name="NEDOS">   301</i>
   <i name="EMIN">     10.00000000</i>
   <i name="EMAX">    -10.00000000</i>
   <i name="EFERMI">      0.00000000</i>
  </separator>
  <separator name="writing" >
   <i type="int" name="NWRITE">     2</i>
   <i type="logical" name="LWAVE"> F  </i>
   <i type="logical" name="LDOWNSAMPLE"> F  </i>
   <i type="logical" name="LCHARG"> F  </i>
   <i type="logical" name="LPARD"> F  </i>
   <i type="logical" name="LVTOT"> F  </i>
   <i type="logical" name="LVHAR"> F  </i>
   <i type="logical" name="LELF"> F  </i>
   <i type="logical" name="LOPTICS"> F  </i>
   <v name="STM">      0.00000000      0.00000000      0.00000000      0.00000000      0.00000000      0.00000000      0.00000000</v>
  </separator>
  <separator name="performance" >
   <i type="int" name="NPAR">    24</i>
   <i type="int" name="NSIM">     4</i>
   <i type="int" name="NBLK">    -1</i>
   <i type="logical" name="LPLANE"> T  </i>
   <i type="logical" name="LSCALAPACK"> T  </i>
   <i type="logical" name="LSCAAWARE"> T  </i>
   <i type="logical" name="LSCALU"> F  </i>
   <i type="logical" name="LASYNC"> F  </i>
   <i type="logical" name="LORBITALREAL"> F  </i>
  </separator>
  <separator name="miscellaneous" >
   <i type="int" name="IDIOT">     3</i>
   <i type="int" name="PHON_NSTRUCT">    -1</i>
   <i type="logical" name="LMUSIC"> F  </i>
   <v name="POMASS">     58.93300000</v>
   <v name="DARWINR">      0.00000000</v>
   <v name="DARWINV">      1.00000000</v>
   <i type="logical" name="LCORR"> T  </i>
  </separator>
  <i type="logical" name="GGA_COMPAT"> T  </i>
  <i type="logical" name="LBERRY"> F  </i>
  <i type="int" name="ICORELEVEL">     0</i>
  <i type="logical" name="LDAU"> F  </i>
  <i type="int" name="I_CONSTRAINED_M">     0</i>
  <separator name="electronic exchange-correlation" >
   <i type="string" name="GGA">--</i>
   <i type="int" name="VOSKOWN">     0</i>
   <i type="logical" name="LHFCALC"> F  </i>
   <i type="string" name="PRECFOCK"></i>
   <i type="logical" name="LSYMGRAD"> F  </i>
   <i type="logical" name="LHFONE"> F  </i>
   <i type="logical" name="LRHFCALC"> F  </i>
   <i type="logical" name="LTHOMAS"> F  </i>
   <i type="logical" name="LMODELHF"> F  </i>
   <i type="logical" name="LFOCKACE"> F  </i>
   <i name="ENCUT4O">     -1.00000000</i>
   <i type="int" name="EXXOEP">     0</i>
   <i type="int" name="FOURORBIT">     0</i>
   <i name="AEXX">      0.00000000</i>
   <i name="HFALPHA">      0.00000000</i>
   <i name="MCALPHA">      0.00000000</i>
   <i name="ALDAX">      1.00000000</i>
   <i name="AGGAX">      1.00000000</i>
   <i name="ALDAC">      1.00000000</i>
   <i name="AGGAC">      1.00000000</i>
   <i type="int" name="NKREDX">     1</i>
   <i type="int" name="NKREDY">     1</i>
   <i type="int" name="NKREDZ">     1</i>
   <i type="logical" name="SHIFTRED"> F  </i>
   <i type="logical" name="ODDONLY"> F  </i>
   <i type="logical" name="EVENONLY"> F  </i>
   <i type="int" name="LMAXFOCK">     0</i>
   <i type="int" name="NMAXFOCKAE">     0</i>
   <i type="logical" name="LFOCKAEDFT"> F  </i>
   <i name="HFSCREEN">      0.00000000</i>
   <i name="HFSCREENC">      0.00000000</i>
   <i type="int" name="NBANDSGWLOW">     0</i>
  </separator>
  <separator name="vdW DFT" >
   <i type="logical" name="LUSE_VDW"> F  </i>
   <i name="Zab_VDW">     -0.84910000</i>
   <i name="PARAM1">      0.12340000</i>
   <i name="PARAM2">      1.00000000</i>
   <i name="PARAM3">      0.00000000</i>
  </separator>
  <separator name="model GW" >
   <i type="int" name="MODEL_GW">     0</i>
   <i name="MODEL_EPS0">      6.27139178</i>
   <i name="MODEL_ALPHA">      1.00000000</i>
  </separator>
  <separator name="linear response parameters" >
   <i type="logical" name="LEPSILON"> F  </i>
   <i type="logical" name="LRPA"> F  </i>
   <i type="logical" name="LNABLA"> F  </i>
   <i type="logical" name="LVEL"> F  </i>
   <i name="CSHIFT">      0.10000000</i>
   <i name="OMEGAMAX">     -1.00000000</i>
   <i name="DEG_THRESHOLD">      0.00200000</i>
   <i name="RTIME">     -0.10000000</i>
   <i name="WPLASMAI">      0.00000000</i>
   <v name="DFIELD">      0.00000000      0.00000000      0.00000000</v>
   <v name="WPLASMA">      0.00000000      0.00000000      0.00000000      0.00000000      0.00000000      0.00000000      0.00000000      0.00000000      0.00000000</v>
  </separator>
  <separator name="orbital magnetization" >
   <i type="logical" name="NUCIND"> F  </i>
   <v name="MAGPOS">      0.00000000      0.00000000      0.00000000</v>
   <i type="logical" name="LNICSALL"> T  </i>
   <i type="logical" name="ORBITALMAG"> F  </i>
   <i type="logical" name="LMAGBLOCH"> F  </i>
   <i type="logical" name="LCHIMAG"> F  </i>
   <i type="logical" name="LGAUGE"> T  </i>
   <i type="int" name="MAGATOM">     0</i>
   <v name="MAGDIPOL">      0.00000000      0.00000000      0.00000000</v>
   <v name="AVECCONST">      0.00000000      0.00000000      0.00000000</v>
  </separator>
  <separator name="response functions" >
   <i type="logical" name="LFINITE_TEMPERATURE"> F  </i>
   <i type="logical" name="LADDER"> F  </i>
   <i type="logical" name="LRPAFORCE"> F  </i>
   <i type="logical" name="LFXC"> F  </i>
   <i type="logical" name="LHARTREE"> T  </i>
   <i type="int" name="IBSE">     0</i>
   <v type="int" name="KPOINT">    -1     0     0     0</v>
   <i type="logical" name="LTCTC"> F  </i>
   <i type="logical" name="LTCTE"> F  </i>
   <i type="logical" name="LTETE"> F  </i>
   <i type="logical" name="LTRIPLET"> F  </i>
   <i type="logical" name="LFXCEPS"> F  </i>
   <i type="logical" name="LFXHEG"> F  </i>
   <i type="int" name="NATURALO">     2</i>
   <i type="logical" name="LHOLEGF"> F  </i>
   <i type="logical" name="L2ORDER"> F  </i>
   <i type="logical" name="LDMP1"> F  </i>
   <i type="logical" name="LMP2LT"> F  </i>
   <i type="logical" name="LSMP2LT"> F  </i>
   <i type="logical" name="LGWLF"> F  </i>
   <i name="ENCUTGW">     -2.00000000</i>
   <i name="ENCUTGWSOFT">     -2.00000000</i>
   <i name="ENCUTLF">     -1.00000000</i>
   <i type="logical" name="LESF_SPLINES"> F  </i>
   <i type="int" name="LMAXMP2">    -1</i>
   <i name="SCISSOR">      0.00000000</i>
   <i type="int" name="NOMEGA">     0</i>
   <i type="int" name="NOMEGAR">     0</i>
   <i type="int" name="NBANDSGW">    -1</i>
   <i type="int" name="NBANDSO">    -1</i>
   <i type="int" name="NBANDSV">    -1</i>
   <i type="int" name="NELMGW">     1</i>
   <i type="int" name="NELMHF">     1</i>
   <i type="int" name="DIM">     3</i>
   <i type="int" name="IESPILON">     4</i>
   <i type="int" name="ANTIRES">     0</i>
   <i name="OMEGAMAX">    -30.00000000</i>
   <i name="OMEGAMIN">    -30.00000000</i>
   <i name="OMEGATL">   -200.00000000</i>
   <i type="int" name="OMEGAGRID">     0</i>
   <i name="CSHIFT">     -0.10000000</i>
   <i type="logical" name="LSELFENERGY"> F  </i>
   <i type="logical" name="LSPECTRAL"> F  </i>
   <i type="logical" name="LSPECTRALGW"> F  </i>
   <i type="logical" name="LSINGLES"> F  </i>
   <i type="logical" name="LFERMIGW"> F  </i>
   <i type="logical" name="ODDONLYGW"> F  </i>
   <i type="logical" name="EVENONLYGW"> F  </i>
   <i type="int" name="NKREDLFX">     1</i>
   <i type="int" name="NKREDLFY">     1</i>
   <i type="int" name="NKREDLFZ">     1</i>
   <i type="int" name="MAXMEM">  2800</i>
   <i type="int" name="TELESCOPE">     0</i>
   <i type="int" name="NTAUPAR">    -1</i>
   <i type="int" name="NOMEGAPAR">    -1</i>
   <i name="DAMP_NEWTON">      0.80000001</i>
   <i name="LAMBDA">      1.00000000</i>
  </separator>
  <separator name="External order field" >
   <i name="OFIELD_KAPPA">      0.00000000</i>
   <v name="OFIELD_K">      0.00000000      0.00000000      0.00000000</v>
   <i name="OFIELD_Q6_NEAR">      0.00000000</i>
   <i name="OFIELD_Q6_FAR">      0.00000000</i>
   <i name="OFIELD_A">      0.00000000</i>
  </separator>
  <separator name="optional k-points parameters" >
   <i type="int" name="KPOINTS_OPT_MODE">     1</i>
   <i type="logical" name="LKPOINTS_OPT"> F  </i>
  </separator>
 </parameters>
 <atominfo>
  <atoms>       2 </atoms>
  <types>       1 </types>
  <array name="atoms" >
   <dimension dim="1">ion</dimension>
   <field type="string">element</field>
   <field type="int">atomtype</field>
   <set>
    <rc><c>Co</c><c>   1</c></rc>
    <rc><c>Co</c><c>   1</c></rc>
   </set>
  </array>
  <array name="atomtypes" >
   <dimension dim="1">type</dimension>
   <field type="int">atomspertype</field>
   <field type="string">element</field>
   <field>mass</field>
   <field>valence</field>
   <field type="string">pseudopotential</field>
   <set>
    <rc><c>   2</c><c>Co</c><c>     58.93300000</c><c>      9.00000000</c><c>  PAW_PBE Co 02Aug2007                  </c></rc>
   </set>
  </array>
 </atominfo>
 <structure name="initialpos" >
  <crystal>
   <varray name="basis" >
    <v>       1.23213507      -2.13412055       0.00000000 </v>
    <v>       1.23213507       2.13412055       0.00000000 </v>
    <v>       0.00000000       0.00000000       3.97498428 </v>
   </varray>
   <i name="volume">     20.90463927 </i>
   <varray name="rec_basis" >
    <v>       0.40579967      -0.23428855       0.00000000 </v>
    <v>       0.40579967       0.23428855       0.00000000 </v>
    <v>       0.00000000       0.00000000       0.25157332 </v>
   </varray>
  </crystal>
  <varray name="positions" >
   <v>       0.33333333       0.66666667       0.25000000 </v>
   <v>       0.66666667       0.33333333       0.75000000 </v>
  </varray>
 </structure>
 <calculation>
  <scstep>
   <time name="dav">    0.75    0.75</time>
   <time name="total">    0.76    0.77</time>
   <energy>
    <i name="alphaZ">     81.04936008 </i>
    <i name="ewald">  -1540.68710150 </i>
    <i name="hartreedc">   -292.12363252 </i>
    <i name="XCdc">     35.87560679 </i>
    <i name="pawpsdc">   1439.98163886 </i>
    <i name="pawaedc">  -1545.88690193 </i>
    <i name="eentropy">     -0.00225653 </i>
    <i name="bandstr">    198.88118775 </i>
    <i name="atom">   1626.72322989 </i>
    <i name="e_fr_energy">      3.81113089 </i>
    <i name="e_wo_entrp">      3.81338742 </i>
    <i name="e_0_energy">      3.81225915 </i>
   </energy>
  </scstep>
  <scstep>
   <time name="dav">    1.05    1.06</time>
   <time name="total">    1.05    1.06</time>
   <energy>
    <i name="e_fr_energy">    -15.44092684 </i>
    <i name="e_wo_entrp">    -15.43912608 </i>
    <i name="e_0_energy">    -15.44002646 </i>
   </energy>
  </scstep>
  <scstep>
   <time name="dav">    1.16    1.17</time>
   <time name="total">    1.16    1.17</time>
   <energy>
    <i name="e_fr_energy">    -15.55899261 </i>
    <i name="e_wo_entrp">    -15.55712931 </i>
    <i name="e_0_energy">    -15.55806096 </i>
   </energy>
  </scstep>
  <scstep>
   <time name="dav">    1.41    1.42</time>
   <time name="total">    1.41    1.42</time>
   <energy>
    <i name="e_fr_energy">    -15.55968443 </i>
    <i name="e_wo_entrp">    -15.55782082 </i>
    <i name="e_0_energy">    -15.55875262 </i>
   </energy>
  </scstep>
  <scstep>
   <time name="dav">    1.30    1.31</time>
   <time name="total">    1.34    1.34</time>
   <energy>
    <i name="e_fr_energy">    -15.55968505 </i>
    <i name="e_wo_entrp">    -15.55782143 </i>
    <i name="e_0_energy">    -15.55875324 </i>
   </energy>
  </scstep>
  <scstep>
   <time name="dav">    1.88    1.89</time>
   <time name="total">    1.92    1.93</time>
   <energy>
    <i name="e_fr_energy">    -14.39987444 </i>
    <i name="e_wo_entrp">    -14.39738909 </i>
    <i name="e_0_energy">    -14.39863177 </i>
   </energy>
  </scstep>
  <scstep>
   <time name="dav">    1.88    1.89</time>
   <time name="total">    1.92    1.93</time>
   <energy>
    <i name="e_fr_energy">    -14.09098193 </i>
    <i name="e_wo_entrp">    -14.08922981 </i>
    <i name="e_0_energy">    -14.09010587 </i>
   </energy>
  </scstep>
  <scstep>
   <time name="dav">    1.97    1.98</time>
   <time name="total">    2.01    2.02</time>
   <energy>
    <i name="e_fr_energy">    -14.06215697 </i>
    <i name="e_wo_entrp">    -14.06045932 </i>
    <i name="e_0_energy">    -14.06130815 </i>
   </energy>
  </scstep>
  <scstep>
   <time name="dav">    2.17    2.18</time>
   <time name="total">    2.21    2.22</time>
   <energy>
    <i name="e_fr_energy">    -14.04834856 </i>
    <i name="e_wo_entrp">    -14.04655842 </i>
    <i name="e_0_energy">    -14.04745349 </i>
   </energy>
  </scstep>
  <scstep>
   <time name="dav">    2.08    2.10</time>
   <time name="total">    2.13    2.14</time>
   <energy>
    <i name="e_fr_energy">    -14.04726299 </i>
    <i name="e_wo_entrp">    -14.04543889 </i>
    <i name="e_0_energy">    -14.04635094 </i>
   </energy>
  </scstep>
  <scstep>
   <time name="dav">    1.59    1.60</time>
   <time name="total">    1.63    1.64</time>
   <energy>
    <i name="e_fr_energy">    -14.04726801 </i>
    <i name="e_wo_entrp">    -14.04539933 </i>
    <i name="e_0_energy">    -14.04633367 </i>
   </energy>
  </scstep>
  <scstep>
   <time name="dav">    1.35    1.35</time>
   <time name="total">    1.39    1.40</time>
   <energy>
    <i name="e_fr_energy">    -14.04726478 </i>
    <i name="e_wo_entrp">    -14.04539303 </i>
    <i name="e_0_energy">    -14.04632891 </i>
   </energy>
  </scstep>
  <scstep>
   <time name="dav">    2.08    2.09</time>
   <time name="total">    2.09    2.10</time>
   <energy>
    <i name="alphaZ">     81.04936008 </i>
    <i name="ewald">  -1540.68710150 </i>
    <i name="hartreedc">   -256.85035592 </i>
    <i name="XCdc">     33.03810557 </i>
    <i name="pawpsdc">   1849.15940634 </i>
    <i name="pawaedc">  -1955.48887499 </i>
    <i name="eentropy">     -0.00187933 </i>
    <i name="bandstr">    149.01084541 </i>
    <i name="atom">   1626.72322989 </i>
    <i name="e_fr_energy">    -14.04726446 </i>
    <i name="e_wo_entrp">    -14.04538513 </i>
    <i name="e_0_energy">    -14.04632479 </i>
   </energy>
  </scstep>
  <structure>
   <crystal>
    <varray name="basis" >
     <v>       1.23213507      -2.13412055       0.00000000 </v>
     <v>       1.23213507       2.13412055       0.00000000 </v>
     <v>       0.00000000       0.00000000       3.97498428 </v>
    </varray>
    <i name="volume">     20.90463927 </i>
    <varray name="rec_basis" >
     <v>       0.40579967      -0.23428855       0.00000000 </v>
     <v>       0.40579967       0.23428855       0.00000000 </v>
     <v>       0.00000000       0.00000000       0.25157332 </v>
    </varray>
   </crystal>
   <varray name="positions" >
    <v>       0.33333333       0.66666667       0.25000000 </v>
    <v>       0.66666667       0.33333333       0.75000000 </v>
   </varray>
  </structure>
  <varray name="forces" >
   <v>      -0.00000000      -0.00000000      -0.00000000 </v>
   <v>       0.00000000       0.00000000       0.00000000 </v>
  </varray>
  <varray name="stress" >
   <v>      77.35900039      -0.00000000      -0.00000000 </v>
   <v>       0.00000000      77.35900039      -0.00000000 </v>
   <v>       0.00000000       0.00000000      76.27342204 </v>
  </varray>
  <energy>
   <i name="e_fr_energy">    -14.04726446 </i>
   <i name="e_wo_entrp">    -14.04538513 </i>
   <i name="e_0_energy">    -14.04632479 </i>
  </energy>
  <time name="totalsc">   21.29   21.41</time>
  <eigenvalues>
   <array>
    <dimension dim="1">band</dimension>
    <dimension dim="2">kpoint</dimension>
    <dimension dim="3">spin</dimension>
    <field>eigene</field>
    <field>occ</field>
    <set>
     <set comment="spin 1">
      <set comment="kpoint 1">
       <r>    1.6652    1.0000 </r>
       <r>    5.4826    1.0000 </r>
       <r>    8.1325    1.0000 </r>
       <r>    8.1388    1.0000 </r>
       <r>    8.1388    1.0000 </r>
       <r>    8.4736    1.0000 </r>
       <r>    8.4736    1.0000 </r>
       <r>    8.8394    1.0000 </r>
       <r>    8.8394    1.0000 </r>
       <r>   10.0131    1.0000 </r>
       <r>   10.0131    1.0000 </r>
       <r>   10.7316    0.8645 </r>
       <r>   17.5170    0.0000 </r>
       <r>   33.0551    0.0000 </r>
       <r>   35.9706    0.0000 </r>
       <r>   35.9706    0.0000 </r>
       <r>   36.2908    0.0000 </r>
       <r>   36.7178    0.0000 </r>
       <r>   37.2858    0.0000 </r>
       <r>   37.2858    0.0000 </r>
       <r>   41.8074    0.0000 </r>
       <r>   41.8074    0.0000 </r>
       <r>   42.9175    0.0000 </r>
       <r>   43.2555    0.0000 </r>
      </set>
      <set comment="kpoint 2">
       <r>    1.9150    1.0000 </r>
       <r>    5.6324    1.0000 </r>
       <r>    7.8931    1.0000 </r>
       <r>    8.2579    1.0000 </r>
       <r>    8.3369    1.0000 </r>
       <r>    8.4257    1.0000 </r>
       <r>    8.5787    1.0000 </r>
       <r>    8.6798    1.0000 </r>
       <r>    8.7642    1.0000 </r>
       <r>    9.1969    1.0000 </r>
       <r>   10.0455    1.0000 </r>
       <r>   11.8739    0.0000 </r>
       <r>   17.5571    0.0000 </r>
       <r>   31.3112    0.0000 </r>
       <r>   33.6947    0.0000 </r>
       <r>   33.7794    0.0000 </r>
       <r>   36.7315    0.0000 </r>
       <r>   37.2246    0.0000 </r>
       <r>   38.6226    0.0000 </r>
       <r>   39.6960    0.0000 </r>
       <r>   40.4660    0.0000 </r>
       <r>   41.3173    0.0000 </r>
       <r>   42.4892    0.0000 </r>
       <r>   42.7426    0.0000 </r>
      </set>
      <set comment="kpoint 3">
       <r>    2.6363    1.0000 </r>
       <r>    6.0015    1.0000 </r>
       <r>    7.6025    1.0000 </r>
       <r>    7.9356    1.0000 </r>
       <r>    8.2457    1.0000 </r>
       <r>    8.5788    1.0000 </r>
       <r>    8.5949    1.0000 </r>
       <r>    8.6585    1.0000 </r>
       <r>    8.8046    1.0000 </r>
       <r>    8.8739    1.0000 </r>
       <r>   10.1147    1.0000 </r>
       <r>   13.5207    0.0000 </r>
       <r>   17.6985    0.0000 </r>
       <r>   27.4989    0.0000 </r>
       <r>   31.3239    0.0000 </r>
       <r>   32.7267    0.0000 </r>
       <r>   34.6536    0.0000 </r>
       <r>   36.8415    0.0000 </r>
       <r>   37.8297    0.0000 </r>
       <r>   40.1128    0.0000 </r>
       <r>   40.5234    0.0000 </r>
       <r>   41.3592    0.0000 </r>
       <r>   41.8534    0.0000 </r>
       <r>   43.5815    0.0000 </r>
      </set>
      <set comment="kpoint 4">
       <r>    3.7224    1.0000 </r>
       <r>    6.2911    1.0000 </r>
       <r>    7.1743    1.0000 </r>
       <r>    7.4288    1.0000 </r>
       <r>    8.1521    1.0000 </r>
       <r>    8.3561    1.0000 </r>
       <r>    8.5958    1.0000 </r>
       <r>    9.0833    1.0000 </r>
       <r>    9.1088    1.0000 </r>
       <r>    9.2986    1.0000 </r>
       <r>   10.1802    1.0000 </r>
       <r>   15.3707    0.0000 </r>
       <r>   17.9692    0.0000 </r>
       <r>   23.7519    0.0000 </r>
       <r>   29.1898    0.0000 </r>
       <r>   31.2727    0.0000 </r>
       <r>   31.5328    0.0000 </r>
       <r>   35.6805    0.0000 </r>
       <r>   35.8330    0.0000 </r>
       <r>   39.8754    0.0000 </r>
       <r>   39.8831    0.0000 </r>
       <r>   40.6571    0.0000 </r>
       <r>   41.9027    0.0000 </r>
       <r>   44.8022    0.0000 </r>
      </set>
      <set comment="kpoint 5">
       <r>    4.8925    1.0000 </r>
       <r>    6.2128    1.0000 </r>
       <r>    6.6178    1.0000 </r>
       <r>    7.5521    1.0000 </r>
       <r>    8.1558    1.0000 </r>
       <r>    8.2850    1.0000 </r>
       <r>    8.4121    1.0000 </r>
       <r>    9.6036    1.0000 </r>
       <r>    9.7591    1.0000 </r>
       <r>    9.8285    1.0000 </r>
       <r>   10.2252    1.0000 </r>
       <r>   17.3803    0.0000 </r>
       <r>   17.9884    0.0000 </r>
       <r>   20.8776    0.0000 </r>
       <r>   27.4923    0.0000 </r>
       <r>   28.1704    0.0000 </r>
       <r>   29.3004    0.0000 </r>
       <r>   34.1484    0.0000 </r>
       <r>   34.6871    0.0000 </r>
       <r>   38.0441    0.0000 </r>
       <r>   39.4325    0.0000 </r>
       <r>   41.4860    0.0000 </r>
       <r>   43.7112    0.0000 </r>
       <r>   45.7575    0.0000 </r>
      </set>
      <set comment="kpoint 6">
       <r>    5.6366    1.0000 </r>
       <r>    6.0193    1.0000 </r>
       <r>    6.2836    1.0000 </r>
       <r>    7.9424    1.0000 </r>
       <r>    8.0191    1.0000 </r>
       <r>    8.2827    1.0000 </r>
       <r>    8.4986    1.0000 </r>
       <r>    9.9931    1.0000 </r>
       <r>   10.1404    1.0000 </r>
       <r>   10.2495    1.0000 </r>
       <r>   10.9936    0.0000 </r>
       <r>   16.0569    0.0000 </r>
       <r>   19.4518    0.0000 </r>
       <r>   20.7886    0.0000 </r>
       <r>   25.4578    0.0000 </r>
       <r>   26.3737    0.0000 </r>
       <r>   26.6810    0.0000 </r>
       <r>   33.6236    0.0000 </r>
       <r>   33.8973    0.0000 </r>
       <r>   36.8431    0.0000 </r>
       <r>   39.1786    0.0000 </r>
       <r>   42.0092    0.0000 </r>
       <r>   46.1841    0.0000 </r>
       <r>   46.2232    0.0000 </r>
      </set>
      <set comment="kpoint 7">
       <r>    5.8550    1.0000 </r>
       <r>    5.9060    1.0000 </r>
       <r>    6.1722    1.0000 </r>
       <r>    7.9708    1.0000 </r>
       <r>    8.2025    1.0000 </r>
       <r>    8.2361    1.0000 </r>
       <r>    8.5794    1.0000 </r>
       <r>   10.1340    1.0000 </r>
       <r>   10.2568    1.0000 </r>
       <r>   10.2948    1.0000 </r>
       <r>   12.1901    0.0000 </r>
       <r>   14.2890    0.0000 </r>
       <r>   20.8027    0.0000 </r>
       <r>   21.4967    0.0000 </r>
       <r>   23.8962    0.0000 </r>
       <r>   25.2619    0.0000 </r>
       <r>   25.9789    0.0000 </r>
       <r>   33.4969    0.0000 </r>
       <r>   33.6220    0.0000 </r>
       <r>   36.4251    0.0000 </r>
       <r>   39.0964    0.0000 </r>
       <r>   42.2042    0.0000 </r>
       <r>   46.3508    0.0000 </r>
       <r>   47.3455    0.0000 </r>
      </set>
      <set comment="kpoint 8">
       <r>    2.4015    1.0000 </r>
       <r>    5.8981    1.0000 </r>
       <r>    7.6637    1.0000 </r>
       <r>    8.1936    1.0000 </r>
       <r>    8.3149    1.0000 </r>
       <r>    8.5017    1.0000 </r>
       <r>    8.5030    1.0000 </r>
       <r>    8.5504    1.0000 </r>
       <r>    8.8120    1.0000 </r>
       <r>    8.9296    1.0000 </r>
       <r>   10.0860    1.0000 </r>
       <r>   13.0596    0.0000 </r>
       <r>   17.6500    0.0000 </r>
       <r>   29.2285    0.0000 </r>
       <r>   30.0470    0.0000 </r>
       <r>   35.2836    0.0000 </r>
       <r>   36.1621    0.0000 </r>
       <r>   36.3244    0.0000 </r>
       <r>   36.5129    0.0000 </r>
       <r>   39.7885    0.0000 </r>
       <r>   40.8461    0.0000 </r>
       <r>   41.4371    0.0000 </r>
       <r>   43.4159    0.0000 </r>
       <r>   43.8921    0.0000 </r>
      </set>
      <set comment="kpoint 9">
       <r>    3.3146    1.0000 </r>
       <r>    6.2746    1.0000 </r>
       <r>    7.3766    1.0000 </r>
       <r>    7.4551    1.0000 </r>
       <r>    8.1911    1.0000 </r>
       <r>    8.3149    1.0000 </r>
       <r>    8.7677    1.0000 </r>
       <r>    8.7702    1.0000 </r>
       <r>    8.9463    1.0000 </r>
       <r>    9.2491    1.0000 </r>
       <r>   10.1360    1.0000 </r>
       <r>   14.7040    0.0000 </r>
       <r>   17.8788    0.0000 </r>
       <r>   25.6637    0.0000 </r>
       <r>   27.9259    0.0000 </r>
       <r>   32.9719    0.0000 </r>
       <r>   34.0328    0.0000 </r>
       <r>   35.0657    0.0000 </r>
       <r>   36.7645    0.0000 </r>
       <r>   38.2997    0.0000 </r>
       <r>   39.9500    0.0000 </r>
       <r>   42.0704    0.0000 </r>
       <r>   43.4876    0.0000 </r>
       <r>   43.9588    0.0000 </r>
      </set>
      <set comment="kpoint 10">
       <r>    4.4829    1.0000 </r>
       <r>    6.3898    1.0000 </r>
       <r>    6.8465    1.0000 </r>
       <r>    7.3065    1.0000 </r>
       <r>    8.1179    1.0000 </r>
       <r>    8.2076    1.0000 </r>
       <r>    8.5637    1.0000 </r>
       <r>    9.1912    1.0000 </r>
       <r>    9.4736    1.0000 </r>
       <r>    9.8439    1.0000 </r>
       <r>   10.1782    1.0000 </r>
       <r>   16.5940    0.0000 </r>
       <r>   18.2148    0.0000 </r>
       <r>   22.1779    0.0000 </r>
       <r>   26.3474    0.0000 </r>
       <r>   29.7904    0.0000 </r>
       <r>   31.3477    0.0000 </r>
       <r>   33.7837    0.0000 </r>
       <r>   36.1363    0.0000 </r>
       <r>   36.5888    0.0000 </r>
       <r>   40.5966    0.0000 </r>
       <r>   43.3802    0.0000 </r>
       <r>   43.6438    0.0000 </r>
       <r>   44.6311    0.0000 </r>
      </set>
      <set comment="kpoint 11">
       <r>    5.4891    1.0000 </r>
       <r>    6.2048    1.0000 </r>
       <r>    6.4319    1.0000 </r>
       <r>    7.5600    1.0000 </r>
       <r>    7.9903    1.0000 </r>
       <r>    8.3624    1.0000 </r>
       <r>    8.4112    1.0000 </r>
       <r>    9.7176    1.0000 </r>
       <r>    9.9242    1.0000 </r>
       <r>   10.2045    1.0000 </r>
       <r>   10.6854    0.9920 </r>
       <r>   17.4363    0.0000 </r>
       <r>   18.6418    0.0000 </r>
       <r>   20.5624    0.0000 </r>
       <r>   25.1166    0.0000 </r>
       <r>   26.8814    0.0000 </r>
       <r>   28.3653    0.0000 </r>
       <r>   32.8414    0.0000 </r>
       <r>   35.4346    0.0000 </r>
       <r>   35.5487    0.0000 </r>
       <r>   40.6741    0.0000 </r>
       <r>   43.7085    0.0000 </r>
       <r>   45.3046    0.0000 </r>
       <r>   46.0628    0.0000 </r>
      </set>
      <set comment="kpoint 12">
       <r>    5.9127    1.0000 </r>
       <r>    6.0460    1.0000 </r>
       <r>    6.2238    1.0000 </r>
       <r>    7.9393    1.0000 </r>
       <r>    7.9490    1.0000 </r>
       <r>    8.2290    1.0000 </r>
       <r>    8.5748    1.0000 </r>
       <r>   10.0936    1.0000 </r>
       <r>   10.1683    1.0000 </r>
       <r>   10.2161    1.0000 </r>
       <r>   12.0149    0.0000 </r>
       <r>   15.0712    0.0000 </r>
       <r>   20.5995    0.0000 </r>
       <r>   21.4043    0.0000 </r>
       <r>   24.3017    0.0000 </r>
       <r>   24.4989    0.0000 </r>
       <r>   26.1055    0.0000 </r>
       <r>   32.3491    0.0000 </r>
       <r>   34.8314    0.0000 </r>
       <r>   35.2420    0.0000 </r>
       <r>   40.5797    0.0000 </r>
       <r>   43.9317    0.0000 </r>
       <r>   46.3757    0.0000 </r>
       <r>   47.3574    0.0000 </r>
      </set>
      <set comment="kpoint 13">
       <r>    4.3385    1.0000 </r>
       <r>    6.5796    1.0000 </r>
       <r>    6.9667    1.0000 </r>
       <r>    7.0676    1.0000 </r>
       <r>    8.0443    1.0000 </r>
       <r>    8.2027    1.0000 </r>
       <r>    8.6613    1.0000 </r>
       <r>    8.9459    1.0000 </r>
       <r>    9.4615    1.0000 </r>
       <r>    9.8658    1.0000 </r>
       <r>   10.1378    1.0000 </r>
       <r>   16.3280    0.0000 </r>
       <r>   18.2656    0.0000 </r>
       <r>   23.8751    0.0000 </r>
       <r>   24.4032    0.0000 </r>
       <r>   31.2846    0.0000 </r>
       <r>   32.2473    0.0000 </r>
       <r>   33.4198    0.0000 </r>
       <r>   34.2218    0.0000 </r>
       <r>   39.0099    0.0000 </r>
       <r>   40.9740    0.0000 </r>
       <r>   41.7097    0.0000 </r>
       <r>   45.1402    0.0000 </r>
       <r>   46.4089    0.0000 </r>
      </set>
      <set comment="kpoint 14">
       <r>    5.4486    1.0000 </r>
       <r>    6.5573    1.0000 </r>
       <r>    6.5800    1.0000 </r>
       <r>    7.0465    1.0000 </r>
       <r>    7.8819    1.0000 </r>
       <r>    8.3556    1.0000 </r>
       <r>    8.4607    1.0000 </r>
       <r>    9.2684    1.0000 </r>
       <r>    9.9262    1.0000 </r>
       <r>   10.1355    1.0000 </r>
       <r>   10.7089    0.9593 </r>
       <r>   18.2357    0.0000 </r>
       <r>   18.6126    0.0000 </r>
       <r>   21.0384    0.0000 </r>
       <r>   22.9419    0.0000 </r>
       <r>   28.6528    0.0000 </r>
       <r>   30.3669    0.0000 </r>
       <r>   30.7889    0.0000 </r>
       <r>   32.9242    0.0000 </r>
       <r>   39.1712    0.0000 </r>
       <r>   42.3446    0.0000 </r>
       <r>   43.9793    0.0000 </r>
       <r>   45.7572    0.0000 </r>
       <r>   46.3864    0.0000 </r>
      </set>
      <set comment="kpoint 15">
       <r>    6.1249    1.0000 </r>
       <r>    6.3396    1.0000 </r>
       <r>    6.3481    1.0000 </r>
       <r>    7.3851    1.0000 </r>
       <r>    7.8378    1.0000 </r>
       <r>    8.2432    1.0000 </r>
       <r>    8.5680    1.0000 </r>
       <r>    9.6944    1.0000 </r>
       <r>   10.1327    1.0000 </r>
       <r>   10.1577    1.0000 </r>
       <r>   11.9362    0.0000 </r>
       <r>   16.7689    0.0000 </r>
       <r>   20.3007    0.0000 </r>
       <r>   20.9614    0.0000 </r>
       <r>   22.1637    0.0000 </r>
       <r>   25.9555    0.0000 </r>
       <r>   27.4531    0.0000 </r>
       <r>   30.1045    0.0000 </r>
       <r>   32.1583    0.0000 </r>
       <r>   38.8333    0.0000 </r>
       <r>   43.1641    0.0000 </r>
       <r>   45.9009    0.0000 </r>
       <r>   47.0516    0.0000 </r>
       <r>   47.3141    0.0000 </r>
      </set>
      <set comment="kpoint 16">
       <r>    6.2436    1.0000 </r>
       <r>    6.2586    1.0000 </r>
       <r>    6.2900    1.0000 </r>
       <r>    7.6186    1.0000 </r>
       <r>    7.8559    1.0000 </r>
       <r>    8.1300    1.0000 </r>
       <r>    8.6585    1.0000 </r>
       <r>    9.9822    1.0000 </r>
       <r>   10.1312    1.0000 </r>
       <r>   10.1359    1.0000 </r>
       <r>   13.2357    0.0000 </r>
       <r>   14.8840    0.0000 </r>
       <r>   21.4414    0.0000 </r>
       <r>   21.7692    0.0000 </r>
       <r>   22.1963    0.0000 </r>
       <r>   24.2716    0.0000 </r>
       <r>   25.9646    0.0000 </r>
       <r>   29.8813    0.0000 </r>
       <r>   31.8853    0.0000 </r>
       <r>   38.6982    0.0000 </r>
       <r>   43.3306    0.0000 </r>
       <r>   46.5225    0.0000 </r>
       <r>   46.8251    0.0000 </r>
       <r>   47.5233    0.0000 </r>
      </set>
      <set comment="kpoint 17">
       <r>    6.2731    1.0000 </r>
       <r>    6.4060    1.0000 </r>
       <r>    6.7687    1.0000 </r>
       <r>    6.8195    1.0000 </r>
       <r>    7.7707    1.0000 </r>
       <r>    8.2594    1.0000 </r>
       <r>    8.5727    1.0000 </r>
       <r>    9.4570    1.0000 </r>
       <r>   10.0897    1.0000 </r>
       <r>   10.1644    1.0000 </r>
       <r>   11.9443    0.0000 </r>
       <r>   18.5843    0.0000 </r>
       <r>   19.3283    0.0000 </r>
       <r>   20.1828    0.0000 </r>
       <r>   21.6245    0.0000 </r>
       <r>   27.8850    0.0000 </r>
       <r>   27.8934    0.0000 </r>
       <r>   29.1102    0.0000 </r>
       <r>   30.0317    0.0000 </r>
       <r>   42.1800    0.0000 </r>
       <r>   44.0543    0.0000 </r>
       <r>   44.3781    0.0000 </r>
       <r>   46.6899    0.0000 </r>
       <r>   47.7582    0.0000 </r>
      </set>
      <set comment="kpoint 18">
       <r>    6.3227    1.0000 </r>
       <r>    6.5432    1.0000 </r>
       <r>    6.6290    1.0000 </r>
       <r>    7.1575    1.0000 </r>
       <r>    7.7916    1.0000 </r>
       <r>    8.0510    1.0000 </r>
       <r>    8.7482    1.0000 </r>
       <r>    9.7447    1.0000 </r>
       <r>   10.0627    1.0000 </r>
       <r>   10.1077    1.0000 </r>
       <r>   13.6538    0.0000 </r>
       <r>   16.3030    0.0000 </r>
       <r>   18.6757    0.0000 </r>
       <r>   22.2618    0.0000 </r>
       <r>   22.6660    0.0000 </r>
       <r>   25.3351    0.0000 </r>
       <r>   26.9201    0.0000 </r>
       <r>   27.5097    0.0000 </r>
       <r>   29.2195    0.0000 </r>
       <r>   42.6196    0.0000 </r>
       <r>   46.0045    0.0000 </r>
       <r>   46.2232    0.0000 </r>
       <r>   47.1974    0.0000 </r>
       <r>   47.9339    0.0000 </r>
      </set>
      <set comment="kpoint 19">
       <r>    6.3275    1.0000 </r>
       <r>    6.7407    1.0000 </r>
       <r>    6.7407    1.0000 </r>
       <r>    7.0258    1.0000 </r>
       <r>    7.8728    1.0000 </r>
       <r>    7.8728    1.0000 </r>
       <r>    8.8499    1.0000 </r>
       <r>    9.8977    1.0000 </r>
       <r>    9.8977    1.0000 </r>
       <r>   10.0350    1.0000 </r>
       <r>   15.4164    0.0000 </r>
       <r>   16.3090    0.0000 </r>
       <r>   16.3090    0.0000 </r>
       <r>   23.5249    0.0000 </r>
       <r>   24.3002    0.0000 </r>
       <r>   24.3002    0.0000 </r>
       <r>   26.0884    0.0000 </r>
       <r>   27.2588    0.0000 </r>
       <r>   27.2588    0.0000 </r>
       <r>   45.0791    0.0000 </r>
       <r>   46.7844    0.0000 </r>
       <r>   46.7844    0.0000 </r>
       <r>   48.2637    0.0000 </r>
       <r>   48.2637    0.0000 </r>
      </set>
      <set comment="kpoint 20">
       <r>    1.8281    1.0000 </r>
       <r>    5.4550    1.0000 </r>
       <r>    8.0890    1.0000 </r>
       <r>    8.0939    1.0000 </r>
       <r>    8.0939    1.0000 </r>
       <r>    8.4276    1.0000 </r>
       <r>    8.4276    1.0000 </r>
       <r>    8.9440    1.0000 </r>
       <r>    8.9440    1.0000 </r>
       <r>   10.0048    1.0000 </r>
       <r>   10.0048    1.0000 </r>
       <r>   10.1102    1.0000 </r>
       <r>   18.4517    0.0000 </r>
       <r>   32.9876    0.0000 </r>
       <r>   35.5100    0.0000 </r>
       <r>   35.9558    0.0000 </r>
       <r>   36.1138    0.0000 </r>
       <r>   36.1138    0.0000 </r>
       <r>   37.3348    0.0000 </r>
       <r>   37.3348    0.0000 </r>
       <r>   41.4418    0.0000 </r>
       <r>   41.4418    0.0000 </r>
       <r>   43.2414    0.0000 </r>
       <r>   43.6324    0.0000 </r>
      </set>
      <set comment="kpoint 21">
       <r>    2.0753    1.0000 </r>
       <r>    5.6133    1.0000 </r>
       <r>    7.8903    1.0000 </r>
       <r>    8.2003    1.0000 </r>
       <r>    8.2203    1.0000 </r>
       <r>    8.3126    1.0000 </r>
       <r>    8.5274    1.0000 </r>
       <r>    8.8164    1.0000 </r>
       <r>    8.8894    1.0000 </r>
       <r>    9.1095    1.0000 </r>
       <r>   10.0326    1.0000 </r>
       <r>   11.3396    0.0000 </r>
       <r>   18.5415    0.0000 </r>
       <r>   31.3847    0.0000 </r>
       <r>   33.6627    0.0000 </r>
       <r>   33.9337    0.0000 </r>
       <r>   35.5272    0.0000 </r>
       <r>   36.5406    0.0000 </r>
       <r>   38.6195    0.0000 </r>
       <r>   39.6203    0.0000 </r>
       <r>   40.7265    0.0000 </r>
       <r>   41.0259    0.0000 </r>
       <r>   41.6216    0.0000 </r>
       <r>   43.5885    0.0000 </r>
      </set>
      <set comment="kpoint 22">
       <r>    2.7866    1.0000 </r>
       <r>    6.0082    1.0000 </r>
       <r>    7.6200    1.0000 </r>
       <r>    7.7647    1.0000 </r>
       <r>    8.1876    1.0000 </r>
       <r>    8.4282    1.0000 </r>
       <r>    8.5676    1.0000 </r>
       <r>    8.7557    1.0000 </r>
       <r>    8.8847    1.0000 </r>
       <r>    8.9732    1.0000 </r>
       <r>   10.0913    1.0000 </r>
       <r>   12.7529    0.0000 </r>
       <r>   18.8435    0.0000 </r>
       <r>   27.6294    0.0000 </r>
       <r>   31.5089    0.0000 </r>
       <r>   32.4329    0.0000 </r>
       <r>   34.2681    0.0000 </r>
       <r>   35.7162    0.0000 </r>
       <r>   38.2177    0.0000 </r>
       <r>   39.1913    0.0000 </r>
       <r>   40.0795    0.0000 </r>
       <r>   41.0743    0.0000 </r>
       <r>   42.3600    0.0000 </r>
       <r>   44.6889    0.0000 </r>
      </set>
      <set comment="kpoint 23">
       <r>    3.8464    1.0000 </r>
       <r>    6.3271    1.0000 </r>
       <r>    7.0857    1.0000 </r>
       <r>    7.4616    1.0000 </r>
       <r>    8.0508    1.0000 </r>
       <r>    8.3775    1.0000 </r>
       <r>    8.6071    1.0000 </r>
       <r>    9.1199    1.0000 </r>
       <r>    9.1795    1.0000 </r>
       <r>    9.2631    1.0000 </r>
       <r>   10.1467    1.0000 </r>
       <r>   14.2203    0.0000 </r>
       <r>   19.4144    0.0000 </r>
       <r>   23.8984    0.0000 </r>
       <r>   29.4016    0.0000 </r>
       <r>   29.9554    0.0000 </r>
       <r>   32.4396    0.0000 </r>
       <r>   35.2677    0.0000 </r>
       <r>   36.2070    0.0000 </r>
       <r>   37.7765    0.0000 </r>
       <r>   39.6122    0.0000 </r>
       <r>   41.6992    0.0000 </r>
       <r>   41.9639    0.0000 </r>
       <r>   46.4726    0.0000 </r>
      </set>
      <set comment="kpoint 24">
       <r>    4.9452    1.0000 </r>
       <r>    6.2424    1.0000 </r>
       <r>    6.6452    1.0000 </r>
       <r>    7.4465    1.0000 </r>
       <r>    8.2110    1.0000 </r>
       <r>    8.2130    1.0000 </r>
       <r>    8.6548    1.0000 </r>
       <r>    9.6219    1.0000 </r>
       <r>    9.7009    1.0000 </r>
       <r>    9.7864    1.0000 </r>
       <r>   10.1888    1.0000 </r>
       <r>   15.5960    0.0000 </r>
       <r>   19.6818    0.0000 </r>
       <r>   21.3004    0.0000 </r>
       <r>   26.9523    0.0000 </r>
       <r>   27.7269    0.0000 </r>
       <r>   30.5383    0.0000 </r>
       <r>   34.2935    0.0000 </r>
       <r>   34.4883    0.0000 </r>
       <r>   36.4545    0.0000 </r>
       <r>   40.5201    0.0000 </r>
       <r>   41.0963    0.0000 </r>
       <r>   42.8412    0.0000 </r>
       <r>   47.2012    0.0000 </r>
      </set>
      <set comment="kpoint 25">
       <r>    5.5525    1.0000 </r>
       <r>    6.0071    1.0000 </r>
       <r>    6.5134    1.0000 </r>
       <r>    7.4643    1.0000 </r>
       <r>    8.0868    1.0000 </r>
       <r>    8.4908    1.0000 </r>
       <r>    8.8830    1.0000 </r>
       <r>    9.9867    1.0000 </r>
       <r>   10.0619    1.0000 </r>
       <r>   10.2361    1.0000 </r>
       <r>   10.8997    0.0001 </r>
       <r>   15.6013    0.0000 </r>
       <r>   18.8703    0.0000 </r>
       <r>   21.6496    0.0000 </r>
       <r>   24.7696    0.0000 </r>
       <r>   26.6244    0.0000 </r>
       <r>   28.0173    0.0000 </r>
       <r>   33.6901    0.0000 </r>
       <r>   33.7571    0.0000 </r>
       <r>   35.5087    0.0000 </r>
       <r>   40.6101    0.0000 </r>
       <r>   41.7565    0.0000 </r>
       <r>   43.5756    0.0000 </r>
       <r>   47.0679    0.0000 </r>
      </set>
      <set comment="kpoint 26">
       <r>    5.6778    1.0000 </r>
       <r>    5.8898    1.0000 </r>
       <r>    6.5090    1.0000 </r>
       <r>    7.4892    1.0000 </r>
       <r>    8.0420    1.0000 </r>
       <r>    8.5784    1.0000 </r>
       <r>    9.0604    1.0000 </r>
       <r>   10.0857    1.0000 </r>
       <r>   10.2042    1.0000 </r>
       <r>   10.2901    1.0000 </r>
       <r>   12.0670    0.0000 </r>
       <r>   14.1881    0.0000 </r>
       <r>   20.2275    0.0000 </r>
       <r>   20.6068    0.0000 </r>
       <r>   25.0858    0.0000 </r>
       <r>   26.1618    0.0000 </r>
       <r>   26.2358    0.0000 </r>
       <r>   33.4982    0.0000 </r>
       <r>   33.5523    0.0000 </r>
       <r>   35.1658    0.0000 </r>
       <r>   40.4576    0.0000 </r>
       <r>   42.4359    0.0000 </r>
       <r>   43.7886    0.0000 </r>
       <r>   46.6916    0.0000 </r>
      </set>
      <set comment="kpoint 27">
       <r>    2.5556    1.0000 </r>
       <r>    5.8966    1.0000 </r>
       <r>    7.6782    1.0000 </r>
       <r>    7.9573    1.0000 </r>
       <r>    8.2645    1.0000 </r>
       <r>    8.3701    1.0000 </r>
       <r>    8.5061    1.0000 </r>
       <r>    8.6814    1.0000 </r>
       <r>    8.8906    1.0000 </r>
       <r>    8.9909    1.0000 </r>
       <r>   10.0677    1.0000 </r>
       <r>   12.3684    0.0000 </r>
       <r>   18.7394    0.0000 </r>
       <r>   29.3371    0.0000 </r>
       <r>   30.1906    0.0000 </r>
       <r>   34.7307    0.0000 </r>
       <r>   34.8599    0.0000 </r>
       <r>   36.0398    0.0000 </r>
       <r>   37.5446    0.0000 </r>
       <r>   38.2396    0.0000 </r>
       <r>   41.2945    0.0000 </r>
       <r>   41.8926    0.0000 </r>
       <r>   43.2301    0.0000 </r>
       <r>   43.4582    0.0000 </r>
      </set>
      <set comment="kpoint 28">
       <r>    3.4519    1.0000 </r>
       <r>    6.3062    1.0000 </r>
       <r>    7.3182    1.0000 </r>
       <r>    7.4117    1.0000 </r>
       <r>    8.1215    1.0000 </r>
       <r>    8.3312    1.0000 </r>
       <r>    8.6161    1.0000 </r>
       <r>    8.8565    1.0000 </r>
       <r>    9.0930    1.0000 </r>
       <r>    9.2318    1.0000 </r>
       <r>   10.1134    1.0000 </r>
       <r>   13.7134    0.0000 </r>
       <r>   19.1977    0.0000 </r>
       <r>   25.8053    0.0000 </r>
       <r>   28.0792    0.0000 </r>
       <r>   31.8598    0.0000 </r>
       <r>   34.0165    0.0000 </r>
       <r>   34.9699    0.0000 </r>
       <r>   37.4263    0.0000 </r>
       <r>   38.0507    0.0000 </r>
       <r>   39.1570    0.0000 </r>
       <r>   41.2569    0.0000 </r>
       <r>   43.9263    0.0000 </r>
       <r>   44.8395    0.0000 </r>
      </set>
      <set comment="kpoint 29">
       <r>    4.5765    1.0000 </r>
       <r>    6.4381    1.0000 </r>
       <r>    6.7899    1.0000 </r>
       <r>    7.3350    1.0000 </r>
       <r>    8.0218    1.0000 </r>
       <r>    8.3099    1.0000 </r>
       <r>    8.5510    1.0000 </r>
       <r>    9.2016    1.0000 </r>
       <r>    9.5311    1.0000 </r>
       <r>    9.7603    1.0000 </r>
       <r>   10.1816    1.0000 </r>
       <r>   15.1378    0.0000 </r>
       <r>   19.8965    0.0000 </r>
       <r>   22.3501    0.0000 </r>
       <r>   26.5104    0.0000 </r>
       <r>   28.6696    0.0000 </r>
       <r>   32.4797    0.0000 </r>
       <r>   32.9956    0.0000 </r>
       <r>   36.3589    0.0000 </r>
       <r>   37.3150    0.0000 </r>
       <r>   39.0427    0.0000 </r>
       <r>   41.9050    0.0000 </r>
       <r>   44.6484    0.0000 </r>
       <r>   45.8948    0.0000 </r>
      </set>
      <set comment="kpoint 30">
       <r>    5.4724    1.0000 </r>
       <r>    6.2243    1.0000 </r>
       <r>    6.5441    1.0000 </r>
       <r>    7.3736    1.0000 </r>
       <r>    8.0569    1.0000 </r>
       <r>    8.4019    1.0000 </r>
       <r>    8.5994    1.0000 </r>
       <r>    9.6880    1.0000 </r>
       <r>    9.9617    1.0000 </r>
       <r>   10.0858    1.0000 </r>
       <r>   10.6891    0.9894 </r>
       <r>   16.2002    0.0000 </r>
       <r>   19.0938    0.0000 </r>
       <r>   21.5612    0.0000 </r>
       <r>   25.1703    0.0000 </r>
       <r>   25.9921    0.0000 </r>
       <r>   29.6957    0.0000 </r>
       <r>   32.0547    0.0000 </r>
       <r>   35.6196    0.0000 </r>
       <r>   36.1180    0.0000 </r>
       <r>   39.8035    0.0000 </r>
       <r>   42.5935    0.0000 </r>
       <r>   45.0092    0.0000 </r>
       <r>   47.1869    0.0000 </r>
      </set>
      <set comment="kpoint 31">
       <r>    5.7533    1.0000 </r>
       <r>    6.0290    1.0000 </r>
       <r>    6.5490    1.0000 </r>
       <r>    7.4346    1.0000 </r>
       <r>    7.9780    1.0000 </r>
       <r>    8.5980    1.0000 </r>
       <r>    8.7845    1.0000 </r>
       <r>   10.0396    1.0000 </r>
       <r>   10.1496    1.0000 </r>
       <r>   10.1882    1.0000 </r>
       <r>   11.9730    0.0000 </r>
       <r>   14.9255    0.0000 </r>
       <r>   19.6477    0.0000 </r>
       <r>   21.4752    0.0000 </r>
       <r>   24.4249    0.0000 </r>
       <r>   25.0823    0.0000 </r>
       <r>   27.1794    0.0000 </r>
       <r>   31.5724    0.0000 </r>
       <r>   35.3111    0.0000 </r>
       <r>   35.4541    0.0000 </r>
       <r>   40.1308    0.0000 </r>
       <r>   43.5853    0.0000 </r>
       <r>   44.8526    0.0000 </r>
       <r>   46.9314    0.0000 </r>
      </set>
      <set comment="kpoint 32">
       <r>    4.4458    1.0000 </r>
       <r>    6.6366    1.0000 </r>
       <r>    6.8897    1.0000 </r>
       <r>    7.0990    1.0000 </r>
       <r>    8.0332    1.0000 </r>
       <r>    8.2101    1.0000 </r>
       <r>    8.5764    1.0000 </r>
       <r>    8.9911    1.0000 </r>
       <r>    9.5406    1.0000 </r>
       <r>    9.7593    1.0000 </r>
       <r>   10.1765    1.0000 </r>
       <r>   14.9765    0.0000 </r>
       <r>   19.8843    0.0000 </r>
       <r>   24.0223    0.0000 </r>
       <r>   24.5753    0.0000 </r>
       <r>   30.2576    0.0000 </r>
       <r>   31.1390    0.0000 </r>
       <r>   34.6644    0.0000 </r>
       <r>   35.3247    0.0000 </r>
       <r>   38.6445    0.0000 </r>
       <r>   39.5831    0.0000 </r>
       <r>   41.6814    0.0000 </r>
       <r>   45.3696    0.0000 </r>
       <r>   45.5474    0.0000 </r>
      </set>
      <set comment="kpoint 33">
       <r>    5.4890    1.0000 </r>
       <r>    6.5336    1.0000 </r>
       <r>    6.6294    1.0000 </r>
       <r>    7.0932    1.0000 </r>
       <r>    7.9262    1.0000 </r>
       <r>    8.3663    1.0000 </r>
       <r>    8.4033    1.0000 </r>
       <r>    9.2843    1.0000 </r>
       <r>    9.9837    1.0000 </r>
       <r>    9.9921    1.0000 </r>
       <r>   10.7711    0.4941 </r>
       <r>   16.3546    0.0000 </r>
       <r>   20.3362    0.0000 </r>
       <r>   21.5279    0.0000 </r>
       <r>   23.1244    0.0000 </r>
       <r>   27.5205    0.0000 </r>
       <r>   29.7116    0.0000 </r>
       <r>   31.7302    0.0000 </r>
       <r>   34.1682    0.0000 </r>
       <r>   39.1365    0.0000 </r>
       <r>   40.5585    0.0000 </r>
       <r>   43.6060    0.0000 </r>
       <r>   45.3858    0.0000 </r>
       <r>   47.3254    0.0000 </r>
      </set>
      <set comment="kpoint 34">
       <r>    5.9882    1.0000 </r>
       <r>    6.3855    1.0000 </r>
       <r>    6.5561    1.0000 </r>
       <r>    7.2351    1.0000 </r>
       <r>    7.8963    1.0000 </r>
       <r>    8.3264    1.0000 </r>
       <r>    8.6045    1.0000 </r>
       <r>    9.6871    1.0000 </r>
       <r>   10.0051    1.0000 </r>
       <r>   10.1990    1.0000 </r>
       <r>   11.9861    0.0000 </r>
       <r>   16.4706    0.0000 </r>
       <r>   19.2915    0.0000 </r>
       <r>   22.0303    0.0000 </r>
       <r>   22.4441    0.0000 </r>
       <r>   25.2860    0.0000 </r>
       <r>   28.7790    0.0000 </r>
       <r>   29.0703    0.0000 </r>
       <r>   33.4559    0.0000 </r>
       <r>   38.8795    0.0000 </r>
       <r>   41.6950    0.0000 </r>
       <r>   44.2167    0.0000 </r>
       <r>   47.0273    0.0000 </r>
       <r>   47.6010    0.0000 </r>
      </set>
      <set comment="kpoint 35">
       <r>    6.0124    1.0000 </r>
       <r>    6.2913    1.0000 </r>
       <r>    6.6538    1.0000 </r>
       <r>    7.3194    1.0000 </r>
       <r>    7.8312    1.0000 </r>
       <r>    8.3951    1.0000 </r>
       <r>    8.6993    1.0000 </r>
       <r>    9.9799    1.0000 </r>
       <r>    9.9879    1.0000 </r>
       <r>   10.1757    1.0000 </r>
       <r>   13.2949    0.0000 </r>
       <r>   14.8557    0.0000 </r>
       <r>   20.7732    0.0000 </r>
       <r>   21.1741    0.0000 </r>
       <r>   21.9818    0.0000 </r>
       <r>   25.5492    0.0000 </r>
       <r>   26.9342    0.0000 </r>
       <r>   28.8005    0.0000 </r>
       <r>   33.2020    0.0000 </r>
       <r>   38.7540    0.0000 </r>
       <r>   42.2484    0.0000 </r>
       <r>   44.2089    0.0000 </r>
       <r>   47.0693    0.0000 </r>
       <r>   47.6240    0.0000 </r>
      </set>
      <set comment="kpoint 36">
       <r>    6.2750    1.0000 </r>
       <r>    6.3729    1.0000 </r>
       <r>    6.8163    1.0000 </r>
       <r>    6.8835    1.0000 </r>
       <r>    7.8750    1.0000 </r>
       <r>    8.1685    1.0000 </r>
       <r>    8.5671    1.0000 </r>
       <r>    9.4772    1.0000 </r>
       <r>    9.9559    1.0000 </r>
       <r>   10.2072    1.0000 </r>
       <r>   12.0216    0.0000 </r>
       <r>   17.5671    0.0000 </r>
       <r>   19.4943    0.0000 </r>
       <r>   20.3015    0.0000 </r>
       <r>   22.7257    0.0000 </r>
       <r>   26.7484    0.0000 </r>
       <r>   26.7730    0.0000 </r>
       <r>   30.6641    0.0000 </r>
       <r>   31.3541    0.0000 </r>
       <r>   41.5257    0.0000 </r>
       <r>   43.0093    0.0000 </r>
       <r>   44.0590    0.0000 </r>
       <r>   46.5503    0.0000 </r>
       <r>   47.4726    0.0000 </r>
      </set>
      <set comment="kpoint 37">
       <r>    6.2846    1.0000 </r>
       <r>    6.6205    1.0000 </r>
       <r>    6.7127    1.0000 </r>
       <r>    7.0822    1.0000 </r>
       <r>    7.8233    1.0000 </r>
       <r>    8.0443    1.0000 </r>
       <r>    8.7501    1.0000 </r>
       <r>    9.7586    1.0000 </r>
       <r>    9.9222    1.0000 </r>
       <r>   10.1379    1.0000 </r>
       <r>   13.7682    0.0000 </r>
       <r>   16.3228    0.0000 </r>
       <r>   18.7113    0.0000 </r>
       <r>   21.0682    0.0000 </r>
       <r>   22.9202    0.0000 </r>
       <r>   25.2728    0.0000 </r>
       <r>   26.6559    0.0000 </r>
       <r>   28.3136    0.0000 </r>
       <r>   30.6444    0.0000 </r>
       <r>   42.4222    0.0000 </r>
       <r>   44.0880    0.0000 </r>
       <r>   45.4451    0.0000 </r>
       <r>   46.9466    0.0000 </r>
       <r>   47.5625    0.0000 </r>
      </set>
      <set comment="kpoint 38">
       <r>    6.3855    1.0000 </r>
       <r>    6.7540    1.0000 </r>
       <r>    6.7540    1.0000 </r>
       <r>    7.0384    1.0000 </r>
       <r>    7.8561    1.0000 </r>
       <r>    7.8561    1.0000 </r>
       <r>    8.8320    1.0000 </r>
       <r>    9.8869    1.0000 </r>
       <r>    9.9233    1.0000 </r>
       <r>    9.9233    1.0000 </r>
       <r>   15.6562    0.0000 </r>
       <r>   16.3528    0.0000 </r>
       <r>   16.3528    0.0000 </r>
       <r>   22.5424    0.0000 </r>
       <r>   23.3845    0.0000 </r>
       <r>   23.3845    0.0000 </r>
       <r>   27.3039    0.0000 </r>
       <r>   28.4803    0.0000 </r>
       <r>   28.4803    0.0000 </r>
       <r>   44.1027    0.0000 </r>
       <r>   46.0996    0.0000 </r>
       <r>   46.0996    0.0000 </r>
       <r>   46.9438    0.0000 </r>
       <r>   46.9438    0.0000 </r>
      </set>
      <set comment="kpoint 39">
       <r>    2.3048    1.0000 </r>
       <r>    5.2991    1.0000 </r>
       <r>    7.9746    1.0000 </r>
       <r>    8.0284    1.0000 </r>
       <r>    8.0284    1.0000 </r>
       <r>    8.3122    1.0000 </r>
       <r>    8.3122    1.0000 </r>
       <r>    8.9496    1.0000 </r>
       <r>    9.1787    1.0000 </r>
       <r>    9.1787    1.0000 </r>
       <r>    9.9639    1.0000 </r>
       <r>    9.9639    1.0000 </r>
       <r>   20.6153    0.0000 </r>
       <r>   32.1999    0.0000 </r>
       <r>   33.6153    0.0000 </r>
       <r>   35.2071    0.0000 </r>
       <r>   36.5263    0.0000 </r>
       <r>   36.5263    0.0000 </r>
       <r>   37.4709    0.0000 </r>
       <r>   37.4709    0.0000 </r>
       <r>   40.7114    0.0000 </r>
       <r>   40.7114    0.0000 </r>
       <r>   42.4483    0.0000 </r>
       <r>   42.4483    0.0000 </r>
      </set>
      <set comment="kpoint 40">
       <r>    2.5442    1.0000 </r>
       <r>    5.4795    1.0000 </r>
       <r>    7.9004    1.0000 </r>
       <r>    8.0001    1.0000 </r>
       <r>    8.0440    1.0000 </r>
       <r>    8.1244    1.0000 </r>
       <r>    8.4104    1.0000 </r>
       <r>    8.6651    1.0000 </r>
       <r>    9.1431    1.0000 </r>
       <r>    9.1878    1.0000 </r>
       <r>    9.9799    1.0000 </r>
       <r>   10.5609    1.0000 </r>
       <r>   20.7546    0.0000 </r>
       <r>   31.5471    0.0000 </r>
       <r>   32.7053    0.0000 </r>
       <r>   33.8505    0.0000 </r>
       <r>   34.3931    0.0000 </r>
       <r>   35.6304    0.0000 </r>
       <r>   37.8210    0.0000 </r>
       <r>   38.7382    0.0000 </r>
       <r>   40.5005    0.0000 </r>
       <r>   41.5679    0.0000 </r>
       <r>   41.7099    0.0000 </r>
       <r>   43.9260    0.0000 </r>
      </set>
      <set comment="kpoint 41">
       <r>    3.2256    1.0000 </r>
       <r>    5.9422    1.0000 </r>
       <r>    7.4247    1.0000 </r>
       <r>    7.6834    1.0000 </r>
       <r>    7.9647    1.0000 </r>
       <r>    8.3459    1.0000 </r>
       <r>    8.4684    1.0000 </r>
       <r>    8.6824    1.0000 </r>
       <r>    9.1130    1.0000 </r>
       <r>    9.2505    1.0000 </r>
       <r>   10.0130    1.0000 </r>
       <r>   11.5575    0.0000 </r>
       <r>   21.1858    0.0000 </r>
       <r>   28.0172    0.0000 </r>
       <r>   31.4701    0.0000 </r>
       <r>   32.0570    0.0000 </r>
       <r>   33.3636    0.0000 </r>
       <r>   34.0446    0.0000 </r>
       <r>   36.8815    0.0000 </r>
       <r>   37.3465    0.0000 </r>
       <r>   41.2413    0.0000 </r>
       <r>   42.7393    0.0000 </r>
       <r>   42.8203    0.0000 </r>
       <r>   45.0986    0.0000 </r>
      </set>
      <set comment="kpoint 42">
       <r>    4.2032    1.0000 </r>
       <r>    6.3388    1.0000 </r>
       <r>    6.9036    1.0000 </r>
       <r>    7.5355    1.0000 </r>
       <r>    7.8842    1.0000 </r>
       <r>    8.4456    1.0000 </r>
       <r>    8.5374    1.0000 </r>
       <r>    9.0842    1.0000 </r>
       <r>    9.3031    1.0000 </r>
       <r>    9.4065    1.0000 </r>
       <r>   10.0474    1.0000 </r>
       <r>   12.6344    0.0000 </r>
       <r>   21.8759    0.0000 </r>
       <r>   24.3403    0.0000 </r>
       <r>   28.4817    0.0000 </r>
       <r>   30.0240    0.0000 </r>
       <r>   32.9092    0.0000 </r>
       <r>   33.7895    0.0000 </r>
       <r>   35.7771    0.0000 </r>
       <r>   36.0228    0.0000 </r>
       <r>   39.0723    0.0000 </r>
       <r>   43.2378    0.0000 </r>
       <r>   43.8108    0.0000 </r>
       <r>   46.9347    0.0000 </r>
      </set>
      <set comment="kpoint 43">
       <r>    5.0996    1.0000 </r>
       <r>    6.2318    1.0000 </r>
       <r>    6.6951    1.0000 </r>
       <r>    7.3555    1.0000 </r>
       <r>    8.2037    1.0000 </r>
       <r>    8.3710    1.0000 </r>
       <r>    9.0155    1.0000 </r>
       <r>    9.5163    1.0000 </r>
       <r>    9.6845    1.0000 </r>
       <r>    9.7324    1.0000 </r>
       <r>   10.0997    1.0000 </r>
       <r>   13.7435    0.0000 </r>
       <r>   20.7613    0.0000 </r>
       <r>   22.8940    0.0000 </r>
       <r>   25.6977    0.0000 </r>
       <r>   28.4098    0.0000 </r>
       <r>   31.7719    0.0000 </r>
       <r>   33.6902    0.0000 </r>
       <r>   34.4486    0.0000 </r>
       <r>   34.8476    0.0000 </r>
       <r>   38.2599    0.0000 </r>
       <r>   43.3154    0.0000 </r>
       <r>   44.0453    0.0000 </r>
       <r>   46.8514    0.0000 </r>
      </set>
      <set comment="kpoint 44">
       <r>    5.4640    1.0000 </r>
       <r>    6.0235    1.0000 </r>
       <r>    6.7686    1.0000 </r>
       <r>    7.1254    1.0000 </r>
       <r>    8.2839    1.0000 </r>
       <r>    8.5583    1.0000 </r>
       <r>    9.6985    1.0000 </r>
       <r>    9.7657    1.0000 </r>
       <r>   10.0418    1.0000 </r>
       <r>   10.2077    1.0000 </r>
       <r>   10.6307    1.0000 </r>
       <r>   14.4211    0.0000 </r>
       <r>   18.6863    0.0000 </r>
       <r>   21.5258    0.0000 </r>
       <r>   25.6999    0.0000 </r>
       <r>   27.3498    0.0000 </r>
       <r>   29.8538    0.0000 </r>
       <r>   33.3500    0.0000 </r>
       <r>   33.5472    0.0000 </r>
       <r>   33.9473    0.0000 </r>
       <r>   39.3202    0.0000 </r>
       <r>   42.8658    0.0000 </r>
       <r>   43.4362    0.0000 </r>
       <r>   45.7952    0.0000 </r>
      </set>
      <set comment="kpoint 45">
       <r>    5.5066    1.0000 </r>
       <r>    5.9431    1.0000 </r>
       <r>    6.9092    1.0000 </r>
       <r>    6.9609    1.0000 </r>
       <r>    8.2498    1.0000 </r>
       <r>    8.6727    1.0000 </r>
       <r>    9.8220    1.0000 </r>
       <r>    9.9010    1.0000 </r>
       <r>   10.1924    1.0000 </r>
       <r>   10.2767    1.0000 </r>
       <r>   11.7589    0.0000 </r>
       <r>   13.8581    0.0000 </r>
       <r>   19.2822    0.0000 </r>
       <r>   19.4263    0.0000 </r>
       <r>   26.9770    0.0000 </r>
       <r>   27.1807    0.0000 </r>
       <r>   28.0126    0.0000 </r>
       <r>   33.1878    0.0000 </r>
       <r>   33.2262    0.0000 </r>
       <r>   33.7180    0.0000 </r>
       <r>   40.5120    0.0000 </r>
       <r>   42.1301    0.0000 </r>
       <r>   42.7076    0.0000 </r>
       <r>   45.6424    0.0000 </r>
      </set>
      <set comment="kpoint 46">
       <r>    3.0061    1.0000 </r>
       <r>    5.8084    1.0000 </r>
       <r>    7.5908    1.0000 </r>
       <r>    7.7296    1.0000 </r>
       <r>    7.9906    1.0000 </r>
       <r>    8.3025    1.0000 </r>
       <r>    8.4681    1.0000 </r>
       <r>    8.5945    1.0000 </r>
       <r>    9.1696    1.0000 </r>
       <r>    9.1847    1.0000 </r>
       <r>   10.0021    1.0000 </r>
       <r>   11.2827    0.0000 </r>
       <r>   21.0423    0.0000 </r>
       <r>   29.6572    0.0000 </r>
       <r>   30.5981    0.0000 </r>
       <r>   32.7652    0.0000 </r>
       <r>   33.4995    0.0000 </r>
       <r>   35.4482    0.0000 </r>
       <r>   36.5871    0.0000 </r>
       <r>   38.0211    0.0000 </r>
       <r>   41.4854    0.0000 </r>
       <r>   41.9889    0.0000 </r>
       <r>   43.3899    0.0000 </r>
       <r>   44.2065    0.0000 </r>
      </set>
      <set comment="kpoint 47">
       <r>    3.8503    1.0000 </r>
       <r>    6.3078    1.0000 </r>
       <r>    7.0519    1.0000 </r>
       <r>    7.4876    1.0000 </r>
       <r>    7.9299    1.0000 </r>
       <r>    8.3409    1.0000 </r>
       <r>    8.4754    1.0000 </r>
       <r>    8.9082    1.0000 </r>
       <r>    9.2810    1.0000 </r>
       <r>    9.3424    1.0000 </r>
       <r>   10.0407    1.0000 </r>
       <r>   12.2647    0.0000 </r>
       <r>   21.6350    0.0000 </r>
       <r>   26.2231    0.0000 </r>
       <r>   28.4986    0.0000 </r>
       <r>   30.4422    0.0000 </r>
       <r>   32.4737    0.0000 </r>
       <r>   34.7772    0.0000 </r>
       <r>   35.7678    0.0000 </r>
       <r>   38.8324    0.0000 </r>
       <r>   39.7907    0.0000 </r>
       <r>   41.1152    0.0000 </r>
       <r>   44.5954    0.0000 </r>
       <r>   45.3225    0.0000 </r>
      </set>
      <set comment="kpoint 48">
       <r>    4.8411    1.0000 </r>
       <r>    6.4519    1.0000 </r>
       <r>    6.7179    1.0000 </r>
       <r>    7.4226    1.0000 </r>
       <r>    7.9048    1.0000 </r>
       <r>    8.4341    1.0000 </r>
       <r>    8.5173    1.0000 </r>
       <r>    9.2507    1.0000 </r>
       <r>    9.6119    1.0000 </r>
       <r>    9.6818    1.0000 </r>
       <r>   10.1609    1.0000 </r>
       <r>   13.3707    0.0000 </r>
       <r>   22.1131    0.0000 </r>
       <r>   23.0578    0.0000 </r>
       <r>   26.7083    0.0000 </r>
       <r>   27.5389    0.0000 </r>
       <r>   31.5125    0.0000 </r>
       <r>   33.7916    0.0000 </r>
       <r>   35.5834    0.0000 </r>
       <r>   37.7026    0.0000 </r>
       <r>   38.3234    0.0000 </r>
       <r>   41.3586    0.0000 </r>
       <r>   46.2310    0.0000 </r>
       <r>   46.6974    0.0000 </r>
      </set>
      <set comment="kpoint 49">
       <r>    5.4816    1.0000 </r>
       <r>    6.2280    1.0000 </r>
       <r>    6.6883    1.0000 </r>
       <r>    7.2660    1.0000 </r>
       <r>    8.0970    1.0000 </r>
       <r>    8.5088    1.0000 </r>
       <r>    8.9899    1.0000 </r>
       <r>    9.5830    1.0000 </r>
       <r>    9.8543    1.0000 </r>
       <r>   10.0750    1.0000 </r>
       <r>   10.6905    0.9882 </r>
       <r>   14.4670    0.0000 </r>
       <r>   19.5736    0.0000 </r>
       <r>   22.7264    0.0000 </r>
       <r>   25.1542    0.0000 </r>
       <r>   26.2070    0.0000 </r>
       <r>   30.6697    0.0000 </r>
       <r>   31.5500    0.0000 </r>
       <r>   35.6837    0.0000 </r>
       <r>   36.5422    0.0000 </r>
       <r>   38.2794    0.0000 </r>
       <r>   41.4906    0.0000 </r>
       <r>   46.0784    0.0000 </r>
       <r>   46.7813    0.0000 </r>
      </set>
      <set comment="kpoint 50">
       <r>    5.6063    1.0000 </r>
       <r>    6.0830    1.0000 </r>
       <r>    6.8697    1.0000 </r>
       <r>    7.0658    1.0000 </r>
       <r>    8.0449    1.0000 </r>
       <r>    8.7498    1.0000 </r>
       <r>    9.3551    1.0000 </r>
       <r>    9.7580    1.0000 </r>
       <r>   10.1044    1.0000 </r>
       <r>   10.2564    1.0000 </r>
       <r>   11.9145    0.0000 </r>
       <r>   14.4377    0.0000 </r>
       <r>   18.7669    0.0000 </r>
       <r>   20.5139    0.0000 </r>
       <r>   25.2787    0.0000 </r>
       <r>   26.7473    0.0000 </r>
       <r>   29.1580    0.0000 </r>
       <r>   30.2169    0.0000 </r>
       <r>   35.4794    0.0000 </r>
       <r>   35.9170    0.0000 </r>
       <r>   39.4866    0.0000 </r>
       <r>   40.9452    0.0000 </r>
       <r>   44.6041    0.0000 </r>
       <r>   46.7249    0.0000 </r>
      </set>
      <set comment="kpoint 51">
       <r>    4.7515    1.0000 </r>
       <r>    6.6417    1.0000 </r>
       <r>    6.8035    1.0000 </r>
       <r>    7.1955    1.0000 </r>
       <r>    7.9462    1.0000 </r>
       <r>    8.1882    1.0000 </r>
       <r>    8.4645    1.0000 </r>
       <r>    9.1357    1.0000 </r>
       <r>    9.5969    1.0000 </r>
       <r>    9.6994    1.0000 </r>
       <r>   10.2085    1.0000 </r>
       <r>   13.2603    0.0000 </r>
       <r>   22.3854    0.0000 </r>
       <r>   24.4492    0.0000 </r>
       <r>   25.0819    0.0000 </r>
       <r>   28.8290    0.0000 </r>
       <r>   29.5544    0.0000 </r>
       <r>   34.9667    0.0000 </r>
       <r>   36.7088    0.0000 </r>
       <r>   37.8239    0.0000 </r>
       <r>   39.6944    0.0000 </r>
       <r>   41.5240    0.0000 </r>
       <r>   44.2930    0.0000 </r>
       <r>   44.8644    0.0000 </r>
      </set>
      <set comment="kpoint 52">
       <r>    5.6055    1.0000 </r>
       <r>    6.4302    1.0000 </r>
       <r>    6.7759    1.0000 </r>
       <r>    7.2568    1.0000 </r>
       <r>    7.9258    1.0000 </r>
       <r>    8.2583    1.0000 </r>
       <r>    8.4606    1.0000 </r>
       <r>    9.3584    1.0000 </r>
       <r>    9.7358    1.0000 </r>
       <r>   10.1088    1.0000 </r>
       <r>   10.8848    0.0006 </r>
       <r>   14.5011    0.0000 </r>
       <r>   21.2140    0.0000 </r>
       <r>   23.2447    0.0000 </r>
       <r>   23.7093    0.0000 </r>
       <r>   26.2793    0.0000 </r>
       <r>   28.1897    0.0000 </r>
       <r>   33.5923    0.0000 </r>
       <r>   35.8351    0.0000 </r>
       <r>   37.7308    0.0000 </r>
       <r>   39.8634    0.0000 </r>
       <r>   42.5539    0.0000 </r>
       <r>   44.9691    0.0000 </r>
       <r>   46.2949    0.0000 </r>
      </set>
      <set comment="kpoint 53">
       <r>    5.8918    1.0000 </r>
       <r>    6.4475    1.0000 </r>
       <r>    6.7173    1.0000 </r>
       <r>    7.2461    1.0000 </r>
       <r>    7.8259    1.0000 </r>
       <r>    8.4752    1.0000 </r>
[...]
       </set>
       <set comment="band 12">
        <r>  0.0064  0.0589  0.0288  0.1715  0.0731  0.0103  0.0103  0.0118  0.1730 </r>
        <r>  0.0027  0.0244  0.0694  0.0710  0.0303  0.0249  0.0043  0.0284  0.0717 </r>
       </set>
       <set comment="band 13">
        <r>  0.1924  0.0286  0.0124  0.0180  0.1046  0.0221  0.0093  0.0656  0.0367 </r>
        <r>  0.1277  0.0190  0.0186  0.0119  0.0695  0.0334  0.0062  0.0989  0.0243 </r>
       </set>
       <set comment="band 14">
        <r>  0.1277  0.0190  0.0186  0.0119  0.0695  0.0334  0.0062  0.0989  0.0243 </r>
        <r>  0.1924  0.0286  0.0124  0.0180  0.1046  0.0221  0.0093  0.0656  0.0367 </r>
       </set>
       <set comment="band 15">
        <r>  0.0173  0.0241  0.0179  0.0080  0.0083  0.1112  0.0044  0.0441  0.0028 </r>
        <r>  0.1460  0.2028  0.0021  0.0676  0.0699  0.0132  0.0371  0.0052  0.0233 </r>
       </set>
       <set comment="band 16">
        <r>  0.1460  0.2028  0.0021  0.0676  0.0699  0.0132  0.0371  0.0052  0.0233 </r>
        <r>  0.0173  0.0241  0.0179  0.0080  0.0083  0.1112  0.0044  0.0441  0.0028 </r>
       </set>
       <set comment="band 17">
        <r>  0.0021  0.0210  0.0928  0.0595  0.0063  0.0130  0.0047  0.0262  0.0099 </r>
        <r>  0.0011  0.0115  0.1691  0.0327  0.0034  0.0237  0.0026  0.0478  0.0054 </r>
       </set>
       <set comment="band 18">
        <r>  0.0011  0.0115  0.1691  0.0327  0.0034  0.0237  0.0026  0.0478  0.0054 </r>
        <r>  0.0021  0.0210  0.0928  0.0595  0.0063  0.0130  0.0047  0.0262  0.0099 </r>
       </set>
       <set comment="band 19">
        <r>  0.0473  0.0012  0.0005  0.0018  0.1439  0.0015  0.2920  0.0035  0.0480 </r>
        <r>  0.0007  0.0000  0.0329  0.0000  0.0022  0.0959  0.0044  0.2331  0.0007 </r>
       </set>
       <set comment="band 20">
        <r>  0.0007  0.0000  0.0329  0.0000  0.0022  0.0959  0.0044  0.2331  0.0007 </r>
        <r>  0.0473  0.0012  0.0005  0.0018  0.1439  0.0015  0.2920  0.0035  0.0480 </r>
       </set>
       <set comment="band 21">
        <r>  0.0217  0.1513  0.0106  0.0512  0.0091  0.0007  0.0441  0.0006  0.0039 </r>
        <r>  0.0013  0.0089  0.1812  0.0030  0.0005  0.0127  0.0026  0.0103  0.0002 </r>
       </set>
       <set comment="band 22">
        <r>  0.0013  0.0089  0.1812  0.0030  0.0005  0.0127  0.0026  0.0103  0.0002 </r>
        <r>  0.0217  0.1513  0.0106  0.0512  0.0091  0.0007  0.0441  0.0006  0.0039 </r>
       </set>
       <set comment="band 23">
        <r>  0.0168  0.0005  0.0020  0.0002  0.0099  0.2571  0.0045  0.0999  0.0033 </r>
        <r>  0.2454  0.0079  0.0001  0.0029  0.1449  0.0176  0.0660  0.0068  0.0483 </r>
       </set>
       <set comment="band 24">
        <r>  0.2454  0.0079  0.0001  0.0029  0.1449  0.0176  0.0660  0.0068  0.0483 </r>
        <r>  0.0168  0.0005  0.0020  0.0002  0.0099  0.2571  0.0045  0.0999  0.0033 </r>
       </set>
      </set>
      <set comment="kpoint 93">
       <set comment="band 1">
        <r>  0.0798  0.0083  0.0073  0.0459  0.0335  0.0001  0.0370  0.1463  0.0439 </r>
        <r>  0.0356  0.0037  0.0165  0.0204  0.0149  0.0002  0.0165  0.3284  0.0196 </r>
       </set>
       <set comment="band 2">
        <r>  0.0356  0.0037  0.0165  0.0204  0.0149  0.0002  0.0165  0.3284  0.0196 </r>
        <r>  0.0798  0.0083  0.0073  0.0459  0.0335  0.0001  0.0370  0.1463  0.0439 </r>
       </set>
       <set comment="band 3">
        <r>  0.0129  0.0313  0.0175  0.0066  0.3278  0.0386  0.0046  0.0002  0.0194 </r>
        <r>  0.0129  0.0312  0.0175  0.0066  0.3268  0.0387  0.0046  0.0002  0.0193 </r>
       </set>
       <set comment="band 4">
        <r>  0.0129  0.0312  0.0175  0.0066  0.3268  0.0387  0.0046  0.0002  0.0193 </r>
        <r>  0.0129  0.0313  0.0175  0.0066  0.3278  0.0386  0.0046  0.0002  0.0194 </r>
       </set>
       <set comment="band 5">
        <r>  0.0008  0.0000  0.0065  0.0442  0.0014  0.1458  0.1441  0.0147  0.0726 </r>
        <r>  0.0011  0.0000  0.0046  0.0617  0.0020  0.1045  0.2011  0.0105  0.1013 </r>
       </set>
       <set comment="band 6">
        <r>  0.0011  0.0000  0.0046  0.0617  0.0020  0.1045  0.2011  0.0105  0.1013 </r>
        <r>  0.0008  0.0000  0.0065  0.0442  0.0014  0.1458  0.1441  0.0147  0.0726 </r>
       </set>
       <set comment="band 7">
        <r>  0.0098  0.0000  0.0000  0.0014  0.1234  0.0050  0.0407  0.0009  0.2013 </r>
        <r>  0.0001  0.0000  0.0000  0.0000  0.0013  0.4902  0.0004  0.0887  0.0021 </r>
       </set>
       <set comment="band 8">
        <r>  0.0001  0.0000  0.0000  0.0000  0.0013  0.4902  0.0004  0.0887  0.0021 </r>
        <r>  0.0098  0.0000  0.0000  0.0014  0.1234  0.0050  0.0407  0.0009  0.2013 </r>
       </set>
       <set comment="band 9">
        <r>  0.0000  0.0000  0.0023  0.0011  0.0031  0.0600  0.1725  0.1393  0.0556 </r>
        <r>  0.0000  0.0000  0.0012  0.0022  0.0060  0.0308  0.3358  0.0715  0.1083 </r>
       </set>
       <set comment="band 10">
        <r>  0.0000  0.0000  0.0012  0.0022  0.0060  0.0308  0.3358  0.0715  0.1083 </r>
        <r>  0.0000  0.0000  0.0023  0.0011  0.0031  0.0600  0.1725  0.1393  0.0556 </r>
       </set>
       <set comment="band 11">
        <r>  0.0168  0.0008  0.0623  0.0407  0.0041  0.0058  0.0003  0.1153  0.0781 </r>
        <r>  0.0635  0.0029  0.0165  0.1537  0.0154  0.0015  0.0010  0.0305  0.2954 </r>
       </set>
       <set comment="band 12">
        <r>  0.0635  0.0029  0.0165  0.1537  0.0154  0.0015  0.0010  0.0305  0.2954 </r>
        <r>  0.0168  0.0008  0.0623  0.0407  0.0041  0.0058  0.0003  0.1153  0.0781 </r>
       </set>
       <set comment="band 13">
        <r>  0.0000  0.0387  0.0590  0.0010  0.0408  0.0392  0.0003  0.0618  0.0002 </r>
        <r>  0.0002  0.2782  0.0082  0.0071  0.2934  0.0054  0.0020  0.0086  0.0012 </r>
       </set>
       <set comment="band 14">
        <r>  0.0002  0.2782  0.0082  0.0071  0.2934  0.0054  0.0020  0.0086  0.0012 </r>
        <r>  0.0000  0.0387  0.0590  0.0010  0.0408  0.0392  0.0003  0.0618  0.0002 </r>
       </set>
       <set comment="band 15">
        <r>  0.0384  0.0002  0.0041  0.0172  0.0001  0.1163  0.0066  0.0847  0.0000 </r>
        <r>  0.3374  0.0014  0.0005  0.1512  0.0012  0.0132  0.0583  0.0096  0.0001 </r>
       </set>
       <set comment="band 16">
        <r>  0.3374  0.0014  0.0005  0.1512  0.0012  0.0132  0.0583  0.0096  0.0001 </r>
        <r>  0.0384  0.0002  0.0041  0.0172  0.0001  0.1163  0.0066  0.0847  0.0000 </r>
       </set>
       <set comment="band 17">
        <r>  0.0331  0.0000  0.0664  0.0544  0.0018  0.0080  0.0723  0.0253  0.0203 </r>
        <r>  0.0112  0.0000  0.1953  0.0185  0.0006  0.0235  0.0246  0.0744  0.0069 </r>
       </set>
       <set comment="band 18">
        <r>  0.0112  0.0000  0.1953  0.0185  0.0006  0.0235  0.0246  0.0744  0.0069 </r>
        <r>  0.0331  0.0000  0.0664  0.0544  0.0018  0.0080  0.0723  0.0253  0.0203 </r>
       </set>
       <set comment="band 19">
        <r>  0.0028  0.0181  0.0595  0.0048  0.0362  0.0881  0.0201  0.0691  0.0047 </r>
        <r>  0.0065  0.0422  0.0255  0.0113  0.0844  0.0377  0.0470  0.0296  0.0109 </r>
       </set>
       <set comment="band 20">
        <r>  0.0065  0.0422  0.0255  0.0113  0.0844  0.0377  0.0470  0.0296  0.0109 </r>
        <r>  0.0028  0.0181  0.0595  0.0048  0.0362  0.0881  0.0201  0.0691  0.0047 </r>
       </set>
       <set comment="band 21">
        <r>  0.0316  0.0084  0.0002  0.0490  0.0454  0.0000  0.2698  0.0005  0.0388 </r>
        <r>  0.0001  0.0000  0.0810  0.0001  0.0001  0.0044  0.0006  0.2135  0.0001 </r>
       </set>
       <set comment="band 22">
        <r>  0.0001  0.0000  0.0810  0.0001  0.0001  0.0044  0.0006  0.2135  0.0001 </r>
        <r>  0.0316  0.0084  0.0002  0.0490  0.0454  0.0000  0.2698  0.0005  0.0388 </r>
       </set>
       <set comment="band 23">
        <r>  0.0001  0.0195  0.0581  0.0001  0.0145  0.0286  0.0000  0.0124  0.0000 </r>
        <r>  0.0014  0.2518  0.0045  0.0012  0.1866  0.0022  0.0001  0.0010  0.0000 </r>
       </set>
       <set comment="band 24">
        <r>  0.0014  0.2518  0.0045  0.0012  0.1866  0.0022  0.0001  0.0010  0.0000 </r>
        <r>  0.0001  0.0195  0.0581  0.0001  0.0145  0.0286  0.0000  0.0124  0.0000 </r>
       </set>
      </set>
      <set comment="kpoint 94">
       <set comment="band 1">
        <r>  0.0422  0.0175  0.0013  0.0246  0.0742  0.0149  0.0474  0.1609  0.0400 </r>
        <r>  0.0234  0.0097  0.0024  0.0137  0.0412  0.0268  0.0263  0.2898  0.0222 </r>
       </set>
       <set comment="band 2">
        <r>  0.0234  0.0097  0.0024  0.0137  0.0412  0.0268  0.0263  0.2898  0.0222 </r>
        <r>  0.0422  0.0175  0.0013  0.0246  0.0742  0.0149  0.0474  0.1609  0.0400 </r>
       </set>
       <set comment="band 3">
        <r>  0.0092  0.0281  0.0034  0.0015  0.1761  0.1130  0.0985  0.0334  0.0103 </r>
        <r>  0.0075  0.0228  0.0042  0.0013  0.1429  0.1392  0.0800  0.0412  0.0083 </r>
       </set>
       <set comment="band 4">
        <r>  0.0075  0.0228  0.0042  0.0013  0.1429  0.1392  0.0800  0.0412  0.0083 </r>
        <r>  0.0092  0.0281  0.0034  0.0015  0.1761  0.1130  0.0985  0.0334  0.0103 </r>
       </set>
       <set comment="band 5">
        <r>  0.0057  0.0184  0.0111  0.0901  0.1433  0.0440  0.0404  0.0018  0.2065 </r>
        <r>  0.0020  0.0065  0.0318  0.0316  0.0502  0.1256  0.0142  0.0051  0.0724 </r>
       </set>
       <set comment="band 6">
        <r>  0.0020  0.0065  0.0318  0.0316  0.0502  0.1256  0.0142  0.0051  0.0724 </r>
        <r>  0.0057  0.0184  0.0111  0.0901  0.1433  0.0440  0.0404  0.0018  0.2065 </r>
       </set>
       <set comment="band 7">
        <r>  0.0010  0.0008  0.0011  0.0034  0.0473  0.2304  0.0061  0.0935  0.0872 </r>
        <r>  0.0024  0.0020  0.0004  0.0086  0.1182  0.0922  0.0152  0.0374  0.2178 </r>
       </set>
       <set comment="band 8">
        <r>  0.0024  0.0020  0.0004  0.0086  0.1182  0.0922  0.0152  0.0374  0.2178 </r>
        <r>  0.0010  0.0008  0.0011  0.0034  0.0473  0.2304  0.0061  0.0935  0.0872 </r>
       </set>
       <set comment="band 9">
        <r>  0.0009  0.0001  0.0004  0.0011  0.0065  0.0379  0.4068  0.0657  0.0316 </r>
        <r>  0.0005  0.0001  0.0008  0.0006  0.0036  0.0677  0.2279  0.1172  0.0177 </r>
       </set>
       <set comment="band 10">
        <r>  0.0005  0.0001  0.0008  0.0006  0.0036  0.0677  0.2279  0.1172  0.0177 </r>
        <r>  0.0009  0.0001  0.0004  0.0011  0.0065  0.0379  0.4068  0.0657  0.0316 </r>
       </set>
       <set comment="band 11">
        <r>  0.0077  0.0066  0.0864  0.0613  0.0093  0.0082  0.0004  0.0506  0.0707 </r>
        <r>  0.0266  0.0227  0.0251  0.2108  0.0319  0.0024  0.0013  0.0147  0.2434 </r>
       </set>
       <set comment="band 12">
        <r>  0.0266  0.0227  0.0251  0.2108  0.0319  0.0024  0.0013  0.0147  0.2434 </r>
        <r>  0.0077  0.0066  0.0864  0.0613  0.0093  0.0082  0.0004  0.0506  0.0707 </r>
       </set>
       <set comment="band 13">
        <r>  0.0315  0.0557  0.0318  0.0042  0.0618  0.0435  0.0017  0.0848  0.0041 </r>
        <r>  0.0983  0.1735  0.0102  0.0130  0.1926  0.0140  0.0054  0.0272  0.0127 </r>
       </set>
       <set comment="band 14">
        <r>  0.0983  0.1735  0.0102  0.0130  0.1926  0.0140  0.0054  0.0272  0.0127 </r>
        <r>  0.0315  0.0557  0.0318  0.0042  0.0618  0.0435  0.0017  0.0848  0.0041 </r>
       </set>
       <set comment="band 15">
        <r>  0.0300  0.0072  0.0115  0.0059  0.0035  0.1278  0.0038  0.0730  0.0005 </r>
        <r>  0.3288  0.0790  0.0011  0.0645  0.0387  0.0117  0.0416  0.0067  0.0054 </r>
       </set>
       <set comment="band 16">
        <r>  0.3288  0.0790  0.0011  0.0645  0.0387  0.0117  0.0416  0.0067  0.0054 </r>
        <r>  0.0300  0.0072  0.0115  0.0059  0.0035  0.1278  0.0038  0.0730  0.0005 </r>
       </set>
       <set comment="band 17">
        <r>  0.0057  0.0042  0.1244  0.0514  0.0021  0.0234  0.0138  0.0490  0.0197 </r>
        <r>  0.0054  0.0039  0.1319  0.0485  0.0020  0.0248  0.0130  0.0519  0.0186 </r>
       </set>
       <set comment="band 18">
        <r>  0.0054  0.0039  0.1319  0.0485  0.0020  0.0248  0.0130  0.0519  0.0186 </r>
        <r>  0.0057  0.0042  0.1244  0.0514  0.0021  0.0234  0.0138  0.0490  0.0197 </r>
       </set>
       <set comment="band 19">
        <r>  0.0008  0.0025  0.1400  0.0001  0.0040  0.1083  0.0026  0.1616  0.0004 </r>
        <r>  0.0197  0.0660  0.0054  0.0016  0.1025  0.0042  0.0671  0.0062  0.0101 </r>
       </set>
       <set comment="band 20">
        <r>  0.0197  0.0660  0.0054  0.0016  0.1025  0.0042  0.0671  0.0062  0.0101 </r>
        <r>  0.0008  0.0025  0.1400  0.0001  0.0040  0.1083  0.0026  0.1616  0.0004 </r>
       </set>
       <set comment="band 21">
        <r>  0.0440  0.0298  0.0077  0.0243  0.0023  0.0103  0.2866  0.0154  0.0059 </r>
        <r>  0.0087  0.0059  0.0389  0.0048  0.0005  0.0520  0.0569  0.0774  0.0012 </r>
       </set>
       <set comment="band 22">
        <r>  0.0087  0.0059  0.0389  0.0048  0.0005  0.0520  0.0569  0.0774  0.0012 </r>
        <r>  0.0440  0.0298  0.0077  0.0243  0.0023  0.0103  0.2866  0.0154  0.0059 </r>
       </set>
       <set comment="band 23">
        <r>  0.1189  0.1059  0.0106  0.0062  0.1734  0.0360  0.0034  0.0150  0.0276 </r>
        <r>  0.0503  0.0448  0.0251  0.0026  0.0733  0.0850  0.0014  0.0355  0.0117 </r>
       </set>
       <set comment="band 24">
        <r>  0.0503  0.0448  0.0251  0.0026  0.0733  0.0850  0.0014  0.0355  0.0117 </r>
        <r>  0.1189  0.1059  0.0106  0.0062  0.1734  0.0360  0.0034  0.0150  0.0276 </r>
       </set>
      </set>
      <set comment="kpoint 95">
       <set comment="band 1">
        <r>  0.0000  0.0055  0.0000  0.0055  0.0121  0.1945  0.0000  0.1945  0.0121 </r>
        <r>  0.0000  0.0621  0.0000  0.0621  0.1369  0.0171  0.0000  0.0171  0.1369 </r>
       </set>
       <set comment="band 2">
        <r>  0.0000  0.0621  0.0000  0.0621  0.1369  0.0171  0.0000  0.0171  0.1369 </r>
        <r>  0.0000  0.0055  0.0000  0.0055  0.0121  0.1945  0.0000  0.1945  0.0121 </r>
       </set>
       <set comment="band 3">
        <r>  0.0517  0.0000  0.0000  0.0000  0.0000  0.0816  0.1947  0.0816  0.0000 </r>
        <r>  0.0196  0.0000  0.0000  0.0000  0.0000  0.2148  0.0740  0.2148  0.0000 </r>
       </set>
       <set comment="band 4">
        <r>  0.0196  0.0000  0.0000  0.0000  0.0000  0.2148  0.0740  0.2148  0.0000 </r>
        <r>  0.0517  0.0000  0.0000  0.0000  0.0000  0.0816  0.1947  0.0816  0.0000 </r>
       </set>
       <set comment="band 5">
        <r>  0.0000  0.0259  0.0322  0.0259  0.1277  0.0000  0.0000  0.0000  0.1277 </r>
        <r>  0.0000  0.0468  0.0178  0.0468  0.2307  0.0000  0.0000  0.0000  0.2307 </r>
       </set>
       <set comment="band 6">
        <r>  0.0000  0.0468  0.0178  0.0468  0.2307  0.0000  0.0000  0.0000  0.2307 </r>
        <r>  0.0000  0.0259  0.0322  0.0259  0.1277  0.0000  0.0000  0.0000  0.1277 </r>
       </set>
       <set comment="band 7">
        <r>  0.0000  0.0034  0.0000  0.0034  0.2162  0.0366  0.0000  0.0366  0.2162 </r>
        <r>  0.0000  0.0007  0.0000  0.0007  0.0432  0.1832  0.0000  0.1832  0.0432 </r>
       </set>
       <set comment="band 8">
        <r>  0.0000  0.0007  0.0000  0.0007  0.0432  0.1832  0.0000  0.1832  0.0432 </r>
        <r>  0.0000  0.0034  0.0000  0.0034  0.2162  0.0366  0.0000  0.0366  0.2162 </r>
       </set>
       <set comment="band 9">
        <r>  0.0011  0.0000  0.0000  0.0000  0.0000  0.1036  0.1905  0.1036  0.0000 </r>
        <r>  0.0028  0.0000  0.0000  0.0000  0.0000  0.0390  0.5062  0.0390  0.0000 </r>
       </set>
       <set comment="band 10">
        <r>  0.0028  0.0000  0.0000  0.0000  0.0000  0.0390  0.5062  0.0390  0.0000 </r>
        <r>  0.0011  0.0000  0.0000  0.0000  0.0000  0.1036  0.1905  0.1036  0.0000 </r>
       </set>
       <set comment="band 11">
        <r>  0.0000  0.1108  0.0606  0.1108  0.1204  0.0000  0.0000  0.0000  0.1204 </r>
        <r>  0.0000  0.0591  0.1137  0.0591  0.0642  0.0000  0.0000  0.0000  0.0642 </r>
       </set>
       <set comment="band 12">
        <r>  0.0000  0.0591  0.1137  0.0591  0.0642  0.0000  0.0000  0.0000  0.0642 </r>
        <r>  0.0000  0.1108  0.0606  0.1108  0.1204  0.0000  0.0000  0.0000  0.1204 </r>
       </set>
       <set comment="band 13">
        <r>  0.0000  0.1225  0.0000  0.1225  0.0944  0.0312  0.0000  0.0312  0.0944 </r>
        <r>  0.0000  0.0608  0.0000  0.0608  0.0468  0.0629  0.0000  0.0629  0.0468 </r>
       </set>
       <set comment="band 14">
        <r>  0.0000  0.0608  0.0000  0.0608  0.0468  0.0629  0.0000  0.0629  0.0468 </r>
        <r>  0.0000  0.1225  0.0000  0.1225  0.0944  0.0312  0.0000  0.0312  0.0944 </r>
       </set>
       <set comment="band 15">
        <r>  0.0013  0.0000  0.0000  0.0000  0.0000  0.1354  0.0001  0.1354  0.0000 </r>
        <r>  0.5470  0.0000  0.0000  0.0000  0.0000  0.0003  0.0479  0.0003  0.0000 </r>
       </set>
       <set comment="band 16">
        <r>  0.5470  0.0000  0.0000  0.0000  0.0000  0.0003  0.0479  0.0003  0.0000 </r>
        <r>  0.0013  0.0000  0.0000  0.0000  0.0000  0.1354  0.0001  0.1354  0.0000 </r>
       </set>
       <set comment="band 17">
        <r>  0.0000  0.0053  0.4022  0.0053  0.0045  0.0000  0.0000  0.0000  0.0045 </r>
        <r>  0.0000  0.0489  0.0437  0.0489  0.0413  0.0000  0.0000  0.0000  0.0413 </r>
       </set>
       <set comment="band 18">
        <r>  0.0000  0.0489  0.0437  0.0489  0.0413  0.0000  0.0000  0.0000  0.0413 </r>
        <r>  0.0000  0.0053  0.4022  0.0053  0.0045  0.0000  0.0000  0.0000  0.0045 </r>
       </set>
       <set comment="band 19">
        <r>  0.0000  0.0369  0.0000  0.0369  0.0162  0.0756  0.0000  0.0756  0.0163 </r>
        <r>  0.0000  0.0213  0.0000  0.0213  0.0094  0.1308  0.0000  0.1308  0.0094 </r>
       </set>
       <set comment="band 20">
        <r>  0.0000  0.0213  0.0000  0.0213  0.0094  0.1308  0.0000  0.1308  0.0094 </r>
        <r>  0.0000  0.0369  0.0000  0.0369  0.0162  0.0756  0.0000  0.0756  0.0163 </r>
       </set>
       <set comment="band 21">
        <r>  0.0940  0.0000  0.0000  0.0000  0.0000  0.0099  0.4120  0.0099  0.0000 </r>
        <r>  0.0099  0.0000  0.0000  0.0000  0.0000  0.0943  0.0434  0.0943  0.0000 </r>
       </set>
       <set comment="band 22">
        <r>  0.0099  0.0000  0.0000  0.0000  0.0000  0.0943  0.0434  0.0943  0.0000 </r>
        <r>  0.0940  0.0000  0.0000  0.0000  0.0000  0.0099  0.4120  0.0099  0.0000 </r>
       </set>
       <set comment="band 23">
        <r>  0.0000  0.0724  0.0000  0.0724  0.1812  0.0090  0.0000  0.0090  0.1812 </r>
        <r>  0.0000  0.0100  0.0000  0.0100  0.0250  0.0656  0.0000  0.0656  0.0250 </r>
       </set>
       <set comment="band 24">
        <r>  0.0000  0.0100  0.0000  0.0100  0.0250  0.0656  0.0000  0.0656  0.0249 </r>
        <r>  0.0000  0.0724  0.0000  0.0723  0.1812  0.0090  0.0000  0.0090  0.1811 </r>
       </set>
      </set>
     </set>
    </set>
   </array>
  </projected>
 </calculation>
 <structure name="finalpos" >
  <crystal>
   <varray name="basis" >
    <v>       1.23213507      -2.13412055       0.00000000 </v>
    <v>       1.23213507       2.13412055       0.00000000 </v>
    <v>       0.00000000       0.00000000       3.97498428 </v>
   </varray>
   <i name="volume">     20.90463927 </i>
   <varray name="rec_basis" >
    <v>       0.40579967      -0.23428855       0.00000000 </v>
    <v>       0.40579967       0.23428855       0.00000000 </v>
    <v>       0.00000000       0.00000000       0.25157332 </v>
   </varray>
  </crystal>
  <varray name="positions" >
   <v>       0.33333333       0.66666667       0.25000000 </v>
   <v>       0.66666667       0.33333333       0.75000000 </v>
  </varray>
 </structure>
</modeling>
