Co-hcc                                  
           1
     2.464457    0.000000    0.000000
    -1.232229    2.134283    0.000000
     0.000000    0.000000    3.987391
   Co
     2
Direct configuration=     1
   0.00000000  0.00000000  0.00000000
   0.33333333  0.66666667  0.50000000
