    2    2  100    2
  0.1081274E+02  0.2492276E-09  0.2492276E-09  0.4020158E-09  0.5000000E-15
  1.000000000000000E-004
  CAR 
 Co-hcc                                  
     18     95     24
 
  0.0000000E+00  0.0000000E+00  0.0000000E+00  0.8680556E-03
      1          1.375164        1.371974   1.000000   1.000000
      2          5.151578        6.108699   1.000000   1.000000
      3          7.685109        9.336047   1.000000   1.000000
      4          7.690655        9.342541   1.000000   1.000000
      5          7.690656        9.342542   1.000000   1.000000
      6          8.006428        9.713220   1.000000   1.000000
      7          8.006428        9.713220   1.000000   1.000000
      8          8.352572       10.120889   1.000000   0.999981
      9          8.352572       10.120890   1.000000   0.999981
     10          9.466035       10.193128   1.000000   0.981024
     11          9.466036       11.352757   1.000000   0.000000
     12         10.257843       11.352757   0.596763   0.000000
     13         16.713423       17.734623   0.000000   0.000000
     14         32.276310       31.994983   0.000000   0.000000
     15         34.844946       35.199084   0.000000   0.000000
     16         34.844947       35.199084   0.000000   0.000000
     17         35.406067       35.249932   0.000000   0.000000
     18         35.858550       35.626198   0.000000   0.000000
     19         36.196897       36.494328   0.000000   0.000000
     20         36.196897       36.494332   0.000000   0.000000
     21         40.808080       40.743016   0.000000   0.000000
     22         40.808080       40.743018   0.000000   0.000000
     23         41.719165       41.886967   0.000000   0.000000
     24         42.216561       41.963462   0.000000   0.000000
 
  0.8333333E-01  0.6938894E-17  0.0000000E+00  0.5208333E-02
      1          1.618489        1.616215   1.000000   1.000000
      2          5.296082        6.273644   1.000000   1.000000
      3          7.458790        9.064372   1.000000   1.000000
      4          7.803927        9.467316   1.000000   1.000000
      5          7.878475        9.489663   1.000000   1.000000
      6          7.961614        9.555865   1.000000   1.000000
      7          8.106252        9.652038   1.000000   1.000000
      8          8.204316        9.823117   1.000000   1.000000
      9          8.281570       10.037866   1.000000   1.000000
     10          8.710881       10.066610   1.000000   1.000000
     11          9.496425       11.388898   1.000000   0.000000
     12         11.327323       12.261189   0.000000   0.000000
     13         16.756101       17.754099   0.000000   0.000000
     14         30.417021       30.509746   0.000000   0.000000
     15         32.723250       32.819675   0.000000   0.000000
     16         32.760515       33.053686   0.000000   0.000000
     17         35.869036       35.650675   0.000000   0.000000
     18         36.276813       36.217714   0.000000   0.000000
     19         37.668133       37.543818   0.000000   0.000000
     20         38.547686       38.844783   0.000000   0.000000
     21         39.314528       39.550509   0.000000   0.000000
     22         40.287854       40.300432   0.000000   0.000000
     23         41.289095       41.562254   0.000000   0.000000
     24         41.498806       41.797676   0.000000   0.000000
 
  0.1666667E+00  0.1387779E-16  0.0000000E+00  0.5208333E-02
      1          2.322219        2.327153   1.000000   1.000000
      2          5.652313        6.696211   1.000000   1.000000
      3          7.184792        8.616983   1.000000   1.000000
      4          7.506713        8.710219   1.000000   1.000000
      5          7.791632        9.430539   1.000000   1.000000
      6          8.106457        9.821449   1.000000   1.000000
      7          8.123661        9.834499   1.000000   1.000000
      8          8.183667        9.888051   1.000000   1.000000
      9          8.326089        9.907422   1.000000   1.000000
     10          8.386355       10.132299   1.000000   0.999926
     11          9.561388       11.465258   1.000000   0.000000
     12         12.918335       13.757490   0.000000   0.000000
     13         16.905270       17.830654   0.000000   0.000000
     14         26.598694       26.930465   0.000000   0.000000
     15         30.327855       30.636360   0.000000   0.000000
     16         31.820919       31.903087   0.000000   0.000000
     17         33.733815       33.741589   0.000000   0.000000
     18         35.974743       35.746820   0.000000   0.000000
     19         36.750810       36.903367   0.000000   0.000000
     20         38.933670       39.224059   0.000000   0.000000
     21         39.463211       39.569798   0.000000   0.000000
     22         40.155053       40.423391   0.000000   0.000000
     23         40.675327       40.955191   0.000000   0.000000
     24         42.211214       42.755155   0.000000   0.000000
 
  0.2500000E+00 -0.1387779E-16  0.0000000E+00  0.5208333E-02
      1          3.385748        3.428043   1.000000   1.000000
      2          5.933998        7.105813   1.000000   1.000000
      3          6.781870        7.924030   1.000000   1.000000
      4          7.021766        8.402725   1.000000   1.000000
      5          7.703230        9.281727   1.000000   1.000000
      6          7.895894        9.591707   1.000000   1.000000
      7          8.126611        9.693909   1.000000   1.000000
      8          8.586334       10.329853   1.000000   0.036583
      9          8.611219       10.339846   1.000000   0.019019
     10          8.788888       10.578629   1.000000   0.000000
     11          9.622986       11.536619   1.000000   0.000000
     12         14.716851       15.468996   0.000000   0.000000
     13         17.192193       17.989636   0.000000   0.000000
     14         22.890886       23.361902   0.000000   0.000000
     15         28.249633       28.519717   0.000000   0.000000
     16         30.380833       30.513373   0.000000   0.000000
     17         30.617589       30.831135   0.000000   0.000000
     18         34.475108       34.786206   0.000000   0.000000
     19         34.954340       34.946064   0.000000   0.000000
     20         38.670145       38.971553   0.000000   0.000000
     21         38.794544       39.061597   0.000000   0.000000
     22         39.570204       39.639639   0.000000   0.000000
     23         40.729669       40.916778   0.000000   0.000000
     24         43.629729       43.934326   0.000000   0.000000
 
  0.3333333E+00 -0.2775558E-16  0.0000000E+00  0.5208333E-02
      1          4.540909        4.742142   1.000000   1.000000
      2          5.862764        7.131125   1.000000   1.000000
      3          6.252749        7.435344   1.000000   1.000000
      4          7.140637        8.297035   1.000000   1.000000
      5          7.706163        9.374047   1.000000   1.000000
      6          7.829970        9.382802   1.000000   1.000000
      7          7.952115        9.484121   1.000000   1.000000
      8          9.078823       10.901648   1.000000   0.000000
      9          9.225147       10.982896   1.000000   0.000000
     10          9.296784       11.065357   1.000000   0.000000
     11          9.665489       11.585204   1.000000   0.000000
     12         16.678567       17.334084   0.000000   0.000000
     13         17.256772       17.897300   0.000000   0.000000
     14         20.033523       20.641978   0.000000   0.000000
     15         26.601244       26.817825   0.000000   0.000000
     16         27.308739       27.575191   0.000000   0.000000
     17         28.357217       28.728857   0.000000   0.000000
     18         32.991186       33.442686   0.000000   0.000000
     19         33.820743       33.665193   0.000000   0.000000
     20         36.879096       37.236677   0.000000   0.000000
     21         38.336214       38.563641   0.000000   0.000000
     22         40.348682       40.509120   0.000000   0.000000
     23         42.515643       42.679120   0.000000   0.000000
     24         44.684752       45.009634   0.000000   0.000000
 
  0.4166667E+00  0.0000000E+00  0.0000000E+00  0.5208333E-02
      1          5.288004        5.899243   1.000000   1.000000
      2          5.676719        6.919612   1.000000   1.000000
      3          5.935277        7.147165   1.000000   1.000000
      4          7.515731        8.345195   1.000000   1.000000
      5          7.576720        9.226059   1.000000   1.000000
      6          7.829342        9.332505   1.000000   1.000000
      7          8.033351        9.608392   1.000000   1.000000
      8          9.446600       11.325532   1.000000   0.000000
      9          9.585975       11.475925   1.000000   0.000000
     10          9.688337       11.611014   1.000000   0.000000
     11         10.420576       11.929841   0.000007   0.000000
     12         15.365762       16.134852   0.000000   0.000000
     13         18.707886       19.244584   0.000000   0.000000
     14         19.960975       20.466777   0.000000   0.000000
     15         24.625826       25.038306   0.000000   0.000000
     16         25.517804       25.681342   0.000000   0.000000
     17         25.736886       26.217079   0.000000   0.000000
     18         32.493655       32.882621   0.000000   0.000000
     19         33.047568       32.942562   0.000000   0.000000
     20         35.715115       36.035928   0.000000   0.000000
     21         38.073845       38.331917   0.000000   0.000000
     22         40.835524       41.074950   0.000000   0.000000
     23         44.938300       45.104790   0.000000   0.000000
     24         45.223860       45.553538   0.000000   0.000000
 
  0.5000000E+00 -0.2775558E-16  0.0000000E+00  0.2604167E-02
      1          5.525612        6.421664   1.000000   1.000000
      2          5.550525        6.737278   1.000000   1.000000
      3          5.829829        7.052376   1.000000   1.000000
      4          7.530945        8.439558   1.000000   1.000000
      5          7.767376        9.173814   1.000000   1.000000
      6          7.785162        9.277458   1.000000   1.000000
      7          8.109838        9.697852   1.000000   1.000000
      8          9.579534       11.477728   1.000000   0.000000
      9          9.695367       11.618904   1.000000   0.000000
     10          9.731864       11.646439   1.000000   0.000000
     11         11.597508       12.846872   0.000000   0.000000
     12         13.615063       14.605287   0.000000   0.000000
     13         20.034490       20.450877   0.000000   0.000000
     14         20.684655       21.066216   0.000000   0.000000
     15         23.084169       23.626868   0.000000   0.000000
     16         24.316008       24.880073   0.000000   0.000000
     17         25.136128       25.276234   0.000000   0.000000
     18         32.372826       32.608679   0.000000   0.000000
     19         32.779103       32.826201   0.000000   0.000000
     20         35.310802       35.616465   0.000000   0.000000
     21         37.988617       38.257014   0.000000   0.000000
     22         41.017269       41.288054   0.000000   0.000000
     23         45.373311       45.637105   0.000000   0.000000
     24         46.854291       47.451765   0.000000   0.000000
 
  0.8333333E-01  0.8333333E-01  0.0000000E+00  0.5208333E-02
      1          2.092902        2.094330   1.000000   1.000000
      2          5.552322        6.571838   1.000000   1.000000
      3          7.242452        8.796872   1.000000   1.000000
      4          7.752005        8.846062   1.000000   1.000000
      5          7.856952        9.512253   1.000000   1.000000
      6          8.035361        9.721971   1.000000   1.000000
      7          8.036103        9.732362   1.000000   1.000000
      8          8.080029        9.795395   1.000000   1.000000
      9          8.327746       10.054424   1.000000   1.000000
     10          8.444646       10.063257   1.000000   1.000000
     11          9.534468       11.433421   1.000000   0.000000
     12         12.471444       13.335652   0.000000   0.000000
     13         16.853972       17.804144   0.000000   0.000000
     14         28.341696       28.559966   0.000000   0.000000
     15         29.065573       29.407467   0.000000   0.000000
     16         34.312060       34.362035   0.000000   0.000000
     17         35.254093       35.143432   0.000000   0.000000
     18         35.424570       35.315793   0.000000   0.000000
     19         35.547523       35.592267   0.000000   0.000000
     20         38.693813       38.854277   0.000000   0.000000
     21         39.578855       40.022635   0.000000   0.000000
     22         40.148802       40.626685   0.000000   0.000000
     23         42.280533       42.393537   0.000000   0.000000
     24         42.728883       42.872059   0.000000   0.000000
 
  0.1666667E+00  0.8333333E-01  0.0000000E+00  0.1041667E-01
      1          2.985329        3.005033   1.000000   1.000000
      2          5.916047        7.024471   1.000000   1.000000
      3          6.971580        8.169202   1.000000   1.000000
      4          7.049597        8.434771   1.000000   1.000000
      5          7.740126        9.342586   1.000000   1.000000
      6          7.857894        9.524083   1.000000   1.000000
      7          8.288506        9.914543   1.000000   1.000000
      8          8.289599       10.010570   1.000000   1.000000
      9          8.456897       10.185975   1.000000   0.988628
     10          8.742580       10.504661   1.000000   0.000000
     11          9.581494       11.488065   1.000000   0.000000
     12         14.067434       14.855055   0.000000   0.000000
     13         17.093330       17.943923   0.000000   0.000000
     14         24.785843       25.177674   0.000000   0.000000
     15         27.003393       27.335715   0.000000   0.000000
     16         32.079065       32.110066   0.000000   0.000000
     17         33.064571       33.220252   0.000000   0.000000
     18         34.135158       34.148078   0.000000   0.000000
     19         35.707545       35.881708   0.000000   0.000000
     20         37.072749       37.526824   0.000000   0.000000
     21         38.913374       38.940891   0.000000   0.000000
     22         40.783880       41.240770   0.000000   0.000000
     23         42.308151       42.479282   0.000000   0.000000
     24         42.771391       42.976517   0.000000   0.000000
 
  0.2500000E+00  0.8333333E-01  0.0000000E+00  0.1041667E-01
      1          4.132741        4.232121   1.000000   1.000000
      2          6.030488        7.269998   1.000000   1.000000
      3          6.470208        7.637324   1.000000   1.000000
      4          6.906223        8.201999   1.000000   1.000000
      5          7.671290        9.297665   1.000000   1.000000
      6          7.756087        9.312530   1.000000   1.000000
      7          8.094888        9.690238   1.000000   1.000000
      8          8.688792       10.438506   1.000000   0.000001
      9          8.956342       10.747656   1.000000   0.000000
     10          9.308037       11.074984   1.000000   0.000000
     11          9.621193       11.533784   1.000000   0.000000
     12         15.909316       16.611884   0.000000   0.000000
     13         17.452977       18.152560   0.000000   0.000000
     14         21.334630       21.863663   0.000000   0.000000
     15         25.462302       25.782428   0.000000   0.000000
     16         28.916445       29.099630   0.000000   0.000000
     17         30.359548       30.676812   0.000000   0.000000
     18         32.873684       32.890780   0.000000   0.000000
     19         35.004424       35.337192   0.000000   0.000000
     20         35.444512       35.810916   0.000000   0.000000
     21         39.563355       39.574070   0.000000   0.000000
     22         42.180663       42.369315   0.000000   0.000000
     23         42.435632       42.638073   0.000000   0.000000
     24         43.446568       43.751305   0.000000   0.000000
 
  0.3333333E+00  0.8333333E-01  0.0000000E+00  0.1041667E-01
      1          5.132296        5.514549   1.000000   1.000000
      2          5.855315        7.124901   1.000000   1.000000
      3          6.076417        7.283567   1.000000   1.000000
      4          7.148270        8.187988   1.000000   1.000000
      5          7.550191        9.157998   1.000000   1.000000
      6          7.904187        9.454554   1.000000   1.000000
      7          7.950078        9.515940   1.000000   1.000000
      8          9.187316       10.988317   1.000000   0.000000
      9          9.382527       11.233693   1.000000   0.000000
     10          9.645962       11.561927   1.000000   0.000000
     11         10.116219       11.770532   0.999989   0.000000
     12         16.725361       17.375675   0.000000   0.000000
     13         17.912131       18.513918   0.000000   0.000000
     14         19.726128       20.302595   0.000000   0.000000
     15         24.267014       24.555350   0.000000   0.000000
     16         26.033368       26.362978   0.000000   0.000000
     17         27.387081       27.797018   0.000000   0.000000
     18         31.956315       31.953203   0.000000   0.000000
     19         34.329855       34.656260   0.000000   0.000000
     20         34.414021       34.793040   0.000000   0.000000
     21         39.611943       39.687709   0.000000   0.000000
     22         42.514653       42.725877   0.000000   0.000000
     23         44.070953       44.250285   0.000000   0.000000
     24         45.019745       45.346776   0.000000   0.000000
 
  0.4166667E+00  0.8333333E-01  0.0000000E+00  0.1041667E-01
      1          5.565344        6.391089   1.000000   1.000000
      2          5.697544        6.903260   1.000000   1.000000
      3          5.879050        7.108888   1.000000   1.000000
      4          7.501472        8.289435   1.000000   1.000000
      5          7.522600        9.120287   1.000000   1.000000
      6          7.778217        9.280769   1.000000   1.000000
      7          8.105602        9.696919   1.000000   1.000000
      8          9.542126       11.421272   1.000000   0.000000
      9          9.612884       11.499900   1.000000   0.000000
     10          9.656923       11.574213   1.000000   0.000000
     11         11.417677       12.729783   0.000000   0.000000
     12         14.387942       15.284887   0.000000   0.000000
     13         19.832396       20.303689   0.000000   0.000000
     14         20.585699       21.006521   0.000000   0.000000
     15         23.476054       23.775243   0.000000   0.000000
     16         23.678481       24.162257   0.000000   0.000000
     17         25.139445       25.595673   0.000000   0.000000
     18         31.479030       31.461272   0.000000   0.000000
     19         33.740983       34.058536   0.000000   0.000000
     20         34.115160       34.499150   0.000000   0.000000
     21         39.502816       39.614984   0.000000   0.000000
     22         42.729753       42.987983   0.000000   0.000000
     23         45.396398       45.685045   0.000000   0.000000
     24         46.529455       46.672567   0.000000   0.000000
 
  0.1666667E+00  0.1666667E+00  0.0000000E+00  0.5208333E-02
      1          3.988503        4.055468   1.000000   1.000000
      2          6.210189        7.396760   1.000000   1.000000
      3          6.584839        7.742565   1.000000   1.000000
      4          6.679413        8.067492   1.000000   1.000000
      5          7.602122        9.219653   1.000000   1.000000
      6          7.751405        9.315242   1.000000   1.000000
      7          8.186865        9.801596   1.000000   1.000000
      8          8.456095       10.202513   1.000000   0.964848
      9          8.945352       10.724054   1.000000   0.000000
     10          9.328824       11.087956   1.000000   0.000000
     11          9.583234       11.489709   1.000000   0.000000
     12         15.648956       16.371909   0.000000   0.000000
     13         17.492432       18.221544   0.000000   0.000000
     14         23.047346       23.470654   0.000000   0.000000
     15         23.509182       23.934825   0.000000   0.000000
     16         30.447866       30.447128   0.000000   0.000000
     17         31.278811       31.533731   0.000000   0.000000
     18         32.387174       32.702148   0.000000   0.000000
     19         33.155828       33.446913   0.000000   0.000000
     20         37.863655       38.124655   0.000000   0.000000
     21         39.950618       39.894802   0.000000   0.000000
     22         40.446741       40.898868   0.000000   0.000000
     23         43.935472       44.175924   0.000000   0.000000
     24         45.185059       45.342373   0.000000   0.000000
 
  0.2500000E+00  0.1666667E+00  0.0000000E+00  0.1041667E-01
      1          5.081727        5.307726   1.000000   1.000000
      2          6.191960        7.424553   1.000000   1.000000
      3          6.217334        7.460664   1.000000   1.000000
      4          6.658956        7.888720   1.000000   1.000000
      5          7.448287        9.024768   1.000000   1.000000
      6          7.897242        9.456127   1.000000   1.000000
      7          7.996910        9.574648   1.000000   1.000000
      8          8.761864       10.539032   1.000000   0.000000
      9          9.384974       11.225657   1.000000   0.000000
     10          9.581041       11.487051   1.000000   0.000000
     11         10.136112       11.811301   0.999887   0.000000
     12         17.512284       18.156836   0.000000   0.000000
     13         17.870374       18.459478   0.000000   0.000000
     14         20.218111       20.767874   0.000000   0.000000
     15         22.097467       22.510484   0.000000   0.000000
     16         27.795031       28.013452   0.000000   0.000000
     17         29.354037       29.734370   0.000000   0.000000
     18         29.886548       30.067156   0.000000   0.000000
     19         31.861413       32.203221   0.000000   0.000000
     20         38.016274       38.302377   0.000000   0.000000
     21         41.308540       41.227047   0.000000   0.000000
     22         42.764136       43.114046   0.000000   0.000000
     23         44.557524       44.765576   0.000000   0.000000
     24         45.147712       45.306921   0.000000   0.000000
 
  0.3333333E+00  0.1666667E+00  0.0000000E+00  0.1041667E-01
      1          5.757136        6.393660   1.000000   1.000000
      2          5.989446        7.236059   1.000000   1.000000
      3          5.992475        7.239751   1.000000   1.000000
      4          6.980883        7.959525   1.000000   1.000000
      5          7.406159        8.968200   1.000000   1.000000
      6          7.791140        9.320774   1.000000   1.000000
      7          8.099277        9.691871   1.000000   1.000000
      8          9.165248       10.983322   1.000000   0.000000
      9          9.578269       11.483582   1.000000   0.000000
     10          9.603380       11.484653   1.000000   0.000000
     11         11.329500       12.736217   0.000000   0.000000
     12         16.060670       16.777120   0.000000   0.000000
     13         19.534974       20.081094   0.000000   0.000000
     14         20.163212       20.648242   0.000000   0.000000
     15         21.336782       21.721654   0.000000   0.000000
     16         25.115388       25.498116   0.000000   0.000000
     17         26.469044       26.903864   0.000000   0.000000
     18         29.229711       29.378760   0.000000   0.000000
     19         31.107734       31.449802   0.000000   0.000000
     20         37.676502       37.986121   0.000000   0.000000
     21         42.106367       42.043637   0.000000   0.000000
     22         44.794520       45.008156   0.000000   0.000000
     23         46.048702       46.372900   0.000000   0.000000
     24         46.222592       46.377167   0.000000   0.000000
 
  0.4166667E+00  0.1666667E+00  0.0000000E+00  0.5208333E-02
      1          5.895142        6.835773   1.000000   1.000000
      2          5.912872        7.106712   1.000000   1.000000
      3          5.920853        7.174380   1.000000   1.000000
      4          7.205062        8.040403   1.000000   1.000000
      5          7.422873        9.003573   1.000000   1.000000
      6          7.684286        9.171576   1.000000   1.000000
      7          8.185326        9.796862   1.000000   1.000000
      8          9.437438       11.292815   1.000000   0.000000
      9          9.576998       11.467957   1.000000   0.000000
     10          9.582693       11.481970   1.000000   0.000000
     11         12.618819       13.671264   0.000000   0.000000
     12         14.188478       15.171632   0.000000   0.000000
     13         20.660496       21.059431   0.000000   0.000000
     14         20.974569       21.413503   0.000000   0.000000
     15         21.376174       21.750726   0.000000   0.000000
     16         23.453975       23.961748   0.000000   0.000000
     17         24.982756       25.467117   0.000000   0.000000
     18         29.014201       29.156456   0.000000   0.000000
     19         30.840718       31.178858   0.000000   0.000000
     20         37.542677       37.857978   0.000000   0.000000
     21         42.259809       42.218403   0.000000   0.000000
     22         45.565684       45.814006   0.000000   0.000000
     23         45.711712       45.990133   0.000000   0.000000
     24         46.860546       47.898332   0.000000   0.000000
 
  0.2500000E+00  0.2500000E+00  0.0000000E+00  0.5208333E-02
      1          5.894359        6.410867   1.000000   1.000000
      2          6.052836        7.309365   1.000000   1.000000
      3          6.391244        7.590300   1.000000   1.000000
      4          6.444697        7.614780   1.000000   1.000000
      5          7.342813        8.879117   1.000000   1.000000
      6          7.806367        9.345371   1.000000   1.000000
      7          8.103937        9.693031   1.000000   1.000000
      8          8.940563       10.746539   1.000000   0.000000
      9          9.537901       11.437485   1.000000   0.000000
     10          9.609897       11.490091   1.000000   0.000000
     11         11.333340       12.771392   0.000000   0.000000
     12         17.851938       18.385761   0.000000   0.000000
     13         18.577147       19.159543   0.000000   0.000000
     14         19.417361       19.992346   0.000000   0.000000
     15         20.771039       21.234159   0.000000   0.000000
     16         26.967756       27.258576   0.000000   0.000000
     17         27.089433       27.348975   0.000000   0.000000
     18         28.113987       28.523205   0.000000   0.000000
     19         29.005343       29.362032   0.000000   0.000000
     20         41.026816       41.220961   0.000000   0.000000
     21         42.827439       43.203400   0.000000   0.000000
     22         43.309386       43.247628   0.000000   0.000000
     23         45.689159       46.010782   0.000000   0.000000
     24         47.123576       47.695218   0.000000   0.000000
 
  0.3333333E+00  0.2500000E+00  0.0000000E+00  0.1041667E-01
      1          5.974520        7.100574   1.000000   1.000000
      2          6.167464        7.266987   1.000000   1.000000
      3          6.258196        7.431494   1.000000   1.000000
      4          6.764120        7.720684   1.000000   1.000000
      5          7.362621        8.883807   1.000000   1.000000
      6          7.608958        9.108233   1.000000   1.000000
      7          8.270489        9.890846   1.000000   1.000000
      8          9.212771       11.048303   1.000000   0.000000
      9          9.512378       11.408138   1.000000   0.000000
     10          9.556134       11.435627   1.000000   0.000000
     11         13.011895       14.081389   0.000000   0.000000
     12         15.594173       16.363517   0.000000   0.000000
     13         17.935112       18.485486   0.000000   0.000000
     14         21.454426       21.941497   0.000000   0.000000
     15         21.831948       22.223653   0.000000   0.000000
     16         24.490874       24.914883   0.000000   0.000000
     17         25.936972       26.375703   0.000000   0.000000
     18         26.673545       26.928348   0.000000   0.000000
     19         28.210099       28.579628   0.000000   0.000000
     20         41.445078       41.691097   0.000000   0.000000
     21         44.912005       44.790837   0.000000   0.000000
     22         45.169580       45.476541   0.000000   0.000000
     23         46.542818       47.633216   0.000000   0.000000
     24         47.267560       48.155006   0.000000   0.000000
 
  0.3333333E+00  0.3333333E+00  0.0000000E+00  0.1736111E-02
      1          5.979618        7.294935   1.000000   1.000000
      2          6.359347        7.436876   1.000000   1.000000
      3          6.359348        7.436877   1.000000   1.000000
      4          6.642917        7.644673   1.000000   1.000000
      5          7.439816        8.933473   1.000000   1.000000
      6          7.439816        8.933473   1.000000   1.000000
      7          8.367015        9.996691   1.000000   1.000000
      8          9.357667       11.214395   1.000000   0.000000
      9          9.357667       11.214396   1.000000   0.000000
     10          9.486030       11.378061   1.000000   0.000000
     11         14.767128       15.552473   0.000000   0.000000
     12         15.589564       16.355557   0.000000   0.000000
     13         15.589564       16.355560   0.000000   0.000000
     14         22.698379       23.062929   0.000000   0.000000
     15         23.447151       23.888561   0.000000   0.000000