Automatically generated mesh
      95
Reciprocal lattice
    0.00000000000000    0.00000000000000    0.00000000000000             1
    0.08333333333334    0.00000000000000    0.00000000000000             6
    0.16666666666666    0.00000000000000    0.00000000000000             6
    0.25000000000000   -0.00000000000000    0.00000000000000             6
    0.33333333333334   -0.00000000000000    0.00000000000000             6
    0.41666666666666    0.00000000000000    0.00000000000000             6
    0.50000000000000   -0.00000000000000    0.00000000000000             3
    0.08333333333334    0.08333333333334    0.00000000000000             6
    0.16666666666666    0.08333333333334    0.00000000000000            12
    0.25000000000000    0.08333333333334    0.00000000000000            12
    0.33333333333334    0.08333333333334    0.00000000000000            12
    0.41666666666666    0.08333333333334    0.00000000000000            12
    0.16666666666666    0.16666666666666    0.00000000000000             6
    0.25000000000000    0.16666666666666    0.00000000000000            12
    0.33333333333334    0.16666666666666    0.00000000000000            12
    0.41666666666666    0.16666666666666    0.00000000000000             6
    0.25000000000000    0.25000000000000    0.00000000000000             6
    0.33333333333334    0.25000000000000    0.00000000000000            12
    0.33333333333334    0.33333333333334    0.00000000000000             2
    0.00000000000000    0.00000000000000    0.12500000000000             2
    0.08333333333334    0.00000000000000    0.12500000000000            12
    0.16666666666666    0.00000000000000    0.12500000000000            12
    0.25000000000000   -0.00000000000000    0.12500000000000            12
    0.33333333333334   -0.00000000000000    0.12500000000000            12
    0.41666666666666    0.00000000000000    0.12500000000000            12
    0.50000000000000   -0.00000000000000    0.12500000000000             6
    0.08333333333334    0.08333333333334    0.12500000000000            12
    0.16666666666666    0.08333333333334    0.12500000000000            24
    0.25000000000000    0.08333333333334    0.12500000000000            24
    0.33333333333334    0.08333333333334    0.12500000000000            24
    0.41666666666666    0.08333333333334    0.12500000000000            24
    0.16666666666666    0.16666666666666    0.12500000000000            12
    0.25000000000000    0.16666666666666    0.12500000000000            24
    0.33333333333334    0.16666666666666    0.12500000000000            24
    0.41666666666666    0.16666666666666    0.12500000000000            12
    0.25000000000000    0.25000000000000    0.12500000000000            12
    0.33333333333334    0.25000000000000    0.12500000000000            24
    0.33333333333334    0.33333333333334    0.12500000000000             4
    0.00000000000000    0.00000000000000    0.25000000000000             2
    0.08333333333334    0.00000000000000    0.25000000000000            12
    0.16666666666666    0.00000000000000    0.25000000000000            12
    0.25000000000000   -0.00000000000000    0.25000000000000            12
    0.33333333333334   -0.00000000000000    0.25000000000000            12
    0.41666666666666    0.00000000000000    0.25000000000000            12
    0.50000000000000   -0.00000000000000    0.25000000000000             6
    0.08333333333334    0.08333333333334    0.25000000000000            12
    0.16666666666666    0.08333333333334    0.25000000000000            24
    0.25000000000000    0.08333333333334    0.25000000000000            24
    0.33333333333334    0.08333333333334    0.25000000000000            24
    0.41666666666666    0.08333333333334    0.25000000000000            24
    0.16666666666666    0.16666666666666    0.25000000000000            12
    0.25000000000000    0.16666666666666    0.25000000000000            24
    0.33333333333334    0.16666666666666    0.25000000000000            24
    0.41666666666666    0.16666666666666    0.25000000000000            12
    0.25000000000000    0.25000000000000    0.25000000000000            12
    0.33333333333334    0.25000000000000    0.25000000000000            24
    0.33333333333334    0.33333333333334    0.25000000000000             4
    0.00000000000000    0.00000000000000    0.37500000000000             2
    0.08333333333334    0.00000000000000    0.37500000000000            12
    0.16666666666666    0.00000000000000    0.37500000000000            12
    0.25000000000000   -0.00000000000000    0.37500000000000            12
    0.33333333333334   -0.00000000000000    0.37500000000000            12
    0.41666666666666    0.00000000000000    0.37500000000000            12
    0.50000000000000   -0.00000000000000    0.37500000000000             6
    0.08333333333334    0.08333333333334    0.37500000000000            12
    0.16666666666666    0.08333333333334    0.37500000000000            24
    0.25000000000000    0.08333333333334    0.37500000000000            24
    0.33333333333334    0.08333333333334    0.37500000000000            24
    0.41666666666666    0.08333333333334    0.37500000000000            24
    0.16666666666666    0.16666666666666    0.37500000000000            12
    0.25000000000000    0.16666666666666    0.37500000000000            24
    0.33333333333334    0.16666666666666    0.37500000000000            24
    0.41666666666666    0.16666666666666    0.37500000000000            12
    0.25000000000000    0.25000000000000    0.37500000000000            12
    0.33333333333334    0.25000000000000    0.37500000000000            24
    0.33333333333334    0.33333333333334    0.37500000000000             4
    0.00000000000000    0.00000000000000    0.50000000000000             1
    0.08333333333334    0.00000000000000    0.50000000000000             6
    0.16666666666666    0.00000000000000    0.50000000000000             6
    0.25000000000000   -0.00000000000000    0.50000000000000             6
    0.33333333333334   -0.00000000000000    0.50000000000000             6
    0.41666666666666    0.00000000000000    0.50000000000000             6
    0.50000000000000   -0.00000000000000    0.50000000000000             3
    0.08333333333334    0.08333333333334    0.50000000000000             6
    0.16666666666666    0.08333333333334    0.50000000000000            12
    0.25000000000000    0.08333333333334    0.50000000000000            12
    0.33333333333334    0.08333333333334    0.50000000000000            12
    0.41666666666666    0.08333333333334    0.50000000000000            12
    0.16666666666666    0.16666666666666    0.50000000000000             6
    0.25000000000000    0.16666666666666    0.50000000000000            12
    0.33333333333334    0.16666666666666    0.50000000000000            12
    0.41666666666666    0.16666666666666    0.50000000000000             6
    0.25000000000000    0.25000000000000    0.50000000000000             6
    0.33333333333334    0.25000000000000    0.50000000000000            12
    0.33333333333334    0.33333333333334    0.50000000000000             2
