   2   2   0   0
  0.1579990E+02  0.2760000E-09  0.2760000E-09  0.4790000E-09  0.5000000E-15
  1.000000000000000E-004
  CAR 
 Pt-hcp                                  
     35.86211748    -45.37999086  301     11.12312278      1.00000000
    -45.380  0.0000E+00  0.0000E+00
    -45.109  0.0000E+00  0.0000E+00
    -44.838  0.0000E+00  0.0000E+00
    -44.568  0.0000E+00  0.0000E+00
    -44.297  0.0000E+00  0.0000E+00
    -44.026  0.0000E+00  0.0000E+00
    -43.755  0.0000E+00  0.0000E+00
    -43.484  0.0000E+00  0.0000E+00
    -43.214  0.0000E+00  0.0000E+00
    -42.943  0.0000E+00  0.0000E+00
    -42.672  0.0000E+00  0.0000E+00
    -42.401  0.0000E+00  0.0000E+00
    -42.130  0.0000E+00  0.0000E+00
    -41.859  0.1222E-06  0.3308E-07
    -41.589  0.6766E+01  0.1832E+01
    -41.318  0.2323E+02  0.8124E+01
    -41.047  0.1431E+02  0.1200E+02
    -40.776  0.4786E-03  0.1200E+02
    -40.505  0.0000E+00  0.1200E+02
    -40.235  0.0000E+00  0.1200E+02
    -39.964  0.0000E+00  0.1200E+02
    -39.693  0.0000E+00  0.1200E+02
    -39.422  0.0000E+00  0.1200E+02
    -39.151  0.0000E+00  0.1200E+02
    -38.881  0.0000E+00  0.1200E+02
    -38.610  0.0000E+00  0.1200E+02
    -38.339  0.0000E+00  0.1200E+02
    -38.068  0.0000E+00  0.1200E+02
    -37.797  0.0000E+00  0.1200E+02
    -37.527  0.0000E+00  0.1200E+02
    -37.256  0.0000E+00  0.1200E+02
    -36.985  0.0000E+00  0.1200E+02
    -36.714  0.0000E+00  0.1200E+02
    -36.443  0.0000E+00  0.1200E+02
    -36.173  0.0000E+00  0.1200E+02
    -35.902  0.0000E+00  0.1200E+02
    -35.631  0.0000E+00  0.1200E+02
    -35.360  0.0000E+00  0.1200E+02
    -35.089  0.0000E+00  0.1200E+02
    -34.819  0.0000E+00  0.1200E+02
    -34.548  0.0000E+00  0.1200E+02
    -34.277  0.0000E+00  0.1200E+02
    -34.006  0.0000E+00  0.1200E+02
    -33.735  0.0000E+00  0.1200E+02
    -33.464  0.0000E+00  0.1200E+02
    -33.194  0.0000E+00  0.1200E+02
    -32.923  0.0000E+00  0.1200E+02
    -32.652  0.0000E+00  0.1200E+02
    -32.381  0.0000E+00  0.1200E+02
    -32.110  0.0000E+00  0.1200E+02
    -31.840  0.0000E+00  0.1200E+02
    -31.569  0.0000E+00  0.1200E+02
    -31.298  0.0000E+00  0.1200E+02
    -31.027  0.0000E+00  0.1200E+02
    -30.756  0.0000E+00  0.1200E+02
    -30.486  0.0000E+00  0.1200E+02
    -30.215  0.0000E+00  0.1200E+02
    -29.944  0.0000E+00  0.1200E+02
    -29.673  0.0000E+00  0.1200E+02
    -29.402  0.0000E+00  0.1200E+02
    -29.132  0.0000E+00  0.1200E+02
    -28.861  0.0000E+00  0.1200E+02
    -28.590  0.0000E+00  0.1200E+02
    -28.319  0.0000E+00  0.1200E+02
    -28.048  0.0000E+00  0.1200E+02
    -27.778  0.0000E+00  0.1200E+02
    -27.507  0.0000E+00  0.1200E+02
    -27.236  0.0000E+00  0.1200E+02
    -26.965  0.0000E+00  0.1200E+02
    -26.694  0.0000E+00  0.1200E+02
    -26.423  0.0000E+00  0.1200E+02
    -26.153  0.0000E+00  0.1200E+02
    -25.882  0.0000E+00  0.1200E+02
    -25.611  0.0000E+00  0.1200E+02
    -25.340  0.0000E+00  0.1200E+02
    -25.069  0.0000E+00  0.1200E+02
    -24.799  0.0000E+00  0.1200E+02
    -24.528  0.0000E+00  0.1200E+02
    -24.257  0.0000E+00  0.1200E+02
    -23.986  0.0000E+00  0.1200E+02
    -23.715  0.0000E+00  0.1200E+02
    -23.445  0.0000E+00  0.1200E+02
    -23.174  0.0000E+00  0.1200E+02
    -22.903  0.0000E+00  0.1200E+02
    -22.632  0.0000E+00  0.1200E+02
    -22.361  0.0000E+00  0.1200E+02
    -22.091  0.0000E+00  0.1200E+02
    -21.820  0.0000E+00  0.1200E+02
    -21.549  0.0000E+00  0.1200E+02
    -21.278  0.0000E+00  0.1200E+02
    -21.007  0.0000E+00  0.1200E+02
    -20.737  0.0000E+00  0.1200E+02
    -20.466  0.0000E+00  0.1200E+02
    -20.195  0.0000E+00  0.1200E+02
    -19.924  0.0000E+00  0.1200E+02
    -19.653  0.0000E+00  0.1200E+02
    -19.383  0.0000E+00  0.1200E+02
    -19.112  0.0000E+00  0.1200E+02
    -18.841  0.0000E+00  0.1200E+02
    -18.570  0.0000E+00  0.1200E+02
    -18.299  0.0000E+00  0.1200E+02
    -18.028  0.0000E+00  0.1200E+02
    -17.758  0.0000E+00  0.1200E+02
    -17.487  0.0000E+00  0.1200E+02
    -17.216  0.0000E+00  0.1200E+02
    -16.945  0.0000E+00  0.1200E+02
    -16.674  0.0000E+00  0.1200E+02
    -16.404  0.0000E+00  0.1200E+02
    -16.133  0.0000E+00  0.1200E+02
    -15.862  0.0000E+00  0.1200E+02
    -15.591  0.0000E+00  0.1200E+02
    -15.320  0.0000E+00  0.1200E+02
    -15.050  0.0000E+00  0.1200E+02
    -14.779  0.0000E+00  0.1200E+02
    -14.508  0.0000E+00  0.1200E+02
    -14.237  0.0000E+00  0.1200E+02
    -13.966  0.0000E+00  0.1200E+02
    -13.696  0.0000E+00  0.1200E+02
    -13.425  0.0000E+00  0.1200E+02
    -13.154  0.0000E+00  0.1200E+02
    -12.883  0.0000E+00  0.1200E+02
    -12.612  0.0000E+00  0.1200E+02
    -12.342  0.0000E+00  0.1200E+02
    -12.071  0.0000E+00  0.1200E+02
    -11.800  0.0000E+00  0.1200E+02
    -11.529  0.0000E+00  0.1200E+02
    -11.258  0.0000E+00  0.1200E+02
    -10.987  0.0000E+00  0.1200E+02
    -10.717  0.0000E+00  0.1200E+02
    -10.446  0.0000E+00  0.1200E+02
    -10.175  0.0000E+00  0.1200E+02
     -9.904  0.0000E+00  0.1200E+02
     -9.633  0.0000E+00  0.1200E+02
     -9.363  0.0000E+00  0.1200E+02
     -9.092  0.0000E+00  0.1200E+02
     -8.821  0.0000E+00  0.1200E+02
     -8.550  0.0000E+00  0.1200E+02
     -8.279  0.0000E+00  0.1200E+02
     -8.009  0.0000E+00  0.1200E+02
     -7.738  0.0000E+00  0.1200E+02
     -7.467  0.0000E+00  0.1200E+02
     -7.196  0.0000E+00  0.1200E+02
     -6.925  0.0000E+00  0.1200E+02
     -6.655  0.0000E+00  0.1200E+02
     -6.384  0.0000E+00  0.1200E+02
     -6.113  0.0000E+00  0.1200E+02
     -5.842  0.0000E+00  0.1200E+02
     -5.571  0.0000E+00  0.1200E+02
     -5.301  0.0000E+00  0.1200E+02
     -5.030  0.0000E+00  0.1200E+02
     -4.759  0.0000E+00  0.1200E+02
     -4.488  0.0000E+00  0.1200E+02
     -4.217  0.0000E+00  0.1200E+02
     -3.947  0.0000E+00  0.1200E+02
     -3.676  0.0000E+00  0.1200E+02
     -3.405  0.0000E+00  0.1200E+02
     -3.134  0.0000E+00  0.1200E+02
     -2.863  0.0000E+00  0.1200E+02
     -2.592  0.0000E+00  0.1200E+02
     -2.322  0.0000E+00  0.1200E+02
     -2.051  0.0000E+00  0.1200E+02
     -1.780  0.0000E+00  0.1200E+02
     -1.509  0.0000E+00  0.1200E+02
     -1.238  0.0000E+00  0.1200E+02
     -0.968  0.0000E+00  0.1200E+02
     -0.697  0.0000E+00  0.1200E+02
     -0.426  0.0000E+00  0.1200E+02
     -0.155  0.0000E+00  0.1200E+02
      0.116  0.0000E+00  0.1200E+02
      0.386  0.0000E+00  0.1200E+02
      0.657  0.0000E+00  0.1200E+02
      0.928  0.0000E+00  0.1200E+02
      1.199  0.1501E-11  0.1200E+02
      1.470  0.8599E-02  0.1200E+02
      1.740  0.2561E-01  0.1201E+02
      2.011  0.1774E+00  0.1206E+02
      2.282  0.4532E-01  0.1207E+02
      2.553  0.1558E+00  0.1211E+02
      2.824  0.1687E+00  0.1216E+02
      3.094  0.3148E+00  0.1224E+02
      3.365  0.1285E+00  0.1228E+02
      3.636  0.2847E+00  0.1235E+02
      3.907  0.4048E+00  0.1246E+02
      4.178  0.6864E+00  0.1265E+02
      4.449  0.7517E+00  0.1285E+02
      4.719  0.1581E+01  0.1328E+02
      4.990  0.2541E+01  0.1397E+02
      5.261  0.1870E+01  0.1448E+02
      5.532  0.2504E+01  0.1515E+02
      5.803  0.1856E+01  0.1566E+02
      6.073  0.3302E+01  0.1655E+02
      6.344  0.3297E+01  0.1744E+02
      6.615  0.2614E+01  0.1815E+02
      6.886  0.3314E+01  0.1905E+02
      7.157  0.2608E+01  0.1976E+02
      7.427  0.2719E+01  0.2049E+02
      7.698  0.3635E+01  0.2148E+02
      7.969  0.3686E+01  0.2247E+02
      8.240  0.3135E+01  0.2332E+02
      8.511  0.4191E+01  0.2446E+02
      8.781  0.3130E+01  0.2531E+02
      9.052  0.3034E+01  0.2613E+02
      9.323  0.1899E+01  0.2664E+02
      9.594  0.2567E+01  0.2734E+02
      9.865  0.2528E+01  0.2802E+02
     10.135  0.2755E+01  0.2877E+02
     10.406  0.2429E+01  0.2943E+02
     10.677  0.2589E+01  0.3013E+02
     10.948  0.3858E+01  0.3117E+02
     11.219  0.4392E+01  0.3236E+02
     11.489  0.2474E+01  0.3303E+02
     11.760  0.1347E+01  0.3340E+02
     12.031  0.7023E+00  0.3359E+02
     12.302  0.3281E+00  0.3367E+02
     12.573  0.1659E+00  0.3372E+02
     12.844  0.2043E+00  0.3378E+02
     13.114  0.1044E+01  0.3406E+02
     13.385  0.1083E+01  0.3435E+02
     13.656  0.5698E+00  0.3451E+02
     13.927  0.1202E+00  0.3454E+02
     14.198  0.3789E+00  0.3464E+02
     14.468  0.7016E+00  0.3483E+02
     14.739  0.1956E+00  0.3488E+02
     15.010  0.7432E+00  0.3508E+02
     15.281  0.4523E+00  0.3521E+02
     15.552  0.4899E+00  0.3534E+02
     15.822  0.9492E+00  0.3560E+02
     16.093  0.4488E+00  0.3572E+02
     16.364  0.4847E+00  0.3585E+02
     16.635  0.2870E+00  0.3593E+02
     16.906  0.2393E+00  0.3599E+02
     17.176  0.2285E+00  0.3605E+02
     17.447  0.5179E+00  0.3619E+02
     17.718  0.1067E+01  0.3648E+02
     17.989  0.9293E+00  0.3674E+02
     18.260  0.8809E+00  0.3697E+02
     18.530  0.7131E+00  0.3717E+02
     18.801  0.8480E+00  0.3740E+02
     19.072  0.7547E+00  0.3760E+02
     19.343  0.4323E+00  0.3772E+02
     19.614  0.5311E+00  0.3786E+02
     19.885  0.7017E+00  0.3805E+02
     20.155  0.1026E+01  0.3833E+02
     20.426  0.9394E+00  0.3858E+02
     20.697  0.6041E+00  0.3875E+02
     20.968  0.2838E+00  0.3882E+02
     21.239  0.6849E+00  0.3901E+02
     21.509  0.1030E+01  0.3929E+02
     21.780  0.6858E+00  0.3947E+02
     22.051  0.5464E+00  0.3962E+02
     22.322  0.3177E+00  0.3971E+02
     22.593  0.1051E+01  0.3999E+02
     22.863  0.3317E+00  0.4008E+02
     23.134  0.3792E+00  0.4019E+02
     23.405  0.1176E+01  0.4050E+02
     23.676  0.1176E+01  0.4082E+02
     23.947  0.9742E+00  0.4109E+02
     24.217  0.6520E+00  0.4126E+02
     24.488  0.7828E+00  0.4148E+02
     24.759  0.3951E+00  0.4158E+02
     25.030  0.9089E+00  0.4183E+02
     25.301  0.2072E+01  0.4239E+02
     25.571  0.1877E+01  0.4290E+02
     25.842  0.1395E+01  0.4328E+02
     26.113  0.1541E+01  0.4369E+02
     26.384  0.1095E+01  0.4399E+02
     26.655  0.1136E+01  0.4430E+02
     26.925  0.1176E+01  0.4462E+02
     27.196  0.1943E+01  0.4514E+02
     27.467  0.1977E+01  0.4568E+02
     27.738  0.9957E+00  0.4595E+02
     28.009  0.1320E+01  0.4630E+02
     28.280  0.1236E+01  0.4664E+02
     28.550  0.7865E+00  0.4685E+02
     28.821  0.8700E+00  0.4709E+02
     29.092  0.5877E+00  0.4725E+02
     29.363  0.6869E+00  0.4743E+02
     29.634  0.1871E+00  0.4748E+02
     29.904  0.6077E+00  0.4765E+02
     30.175  0.3645E+00  0.4775E+02
     30.446  0.1272E+00  0.4778E+02
     30.717  0.5904E+00  0.4794E+02
     30.988  0.7018E-01  0.4796E+02
     31.258  0.7287E-01  0.4798E+02
     31.529  0.1695E-01  0.4798E+02
     31.800  0.3844E-01  0.4799E+02
     32.071  0.4937E-04  0.4800E+02
     32.342  0.1841E-01  0.4800E+02
     32.612  0.0000E+00  0.4800E+02
     32.883  0.0000E+00  0.4800E+02
     33.154  0.0000E+00  0.4800E+02
     33.425  0.0000E+00  0.4800E+02
     33.696  0.0000E+00  0.4800E+02
     33.966  0.0000E+00  0.4800E+02
     34.237  0.0000E+00  0.4800E+02
     34.508  0.0000E+00  0.4800E+02
     34.779  0.0000E+00  0.4800E+02
     35.050  0.0000E+00  0.4800E+02
     35.321  0.0000E+00  0.4800E+02
     35.591  0.0000E+00  0.4800E+02
     35.862  0.0000E+00  0.4800E+02
