    2    2    1    1
  0.1579990E+02  0.2760000E-09  0.2760000E-09  0.4790000E-09  0.5000000E-15
  1.000000000000000E-004
  CAR 
 Pt-hcp                                  
     32     70     24
 
  0.0000000E+00  0.0000000E+00  0.0000000E+00  0.1250000E-02
      1        -41.475216   1.000000
      2        -41.306918   1.000000
      3        -41.306917   1.000000
      4        -41.267062   1.000000
      5        -41.267061   1.000000
      6        -41.147082   1.000000
      7          1.421071   1.000000
      8          4.066880   1.000000
      9          7.202705   1.000000
     10          7.710104   1.000000
     11          7.710105   1.000000
     12          8.074679   1.000000
     13          8.074679   1.000000
     14          9.343958   1.000000
     15          9.343959   1.000000
     16         10.419783   1.000000
     17         10.920540   1.000000
     18         10.920541   1.000000
     19         15.807848   0.000000
     20         26.226455   0.000000
     21         26.806284   0.000000
     22         28.375748   0.000000
     23         32.169294   0.000000
     24         32.169294   0.000000
 
  0.1000000E+00 -0.1387779E-16  0.0000000E+00  0.7500000E-02
      1        -41.463644   1.000000
      2        -41.343332   1.000000
      3        -41.317495   1.000000
      4        -41.304104   1.000000
      5        -41.274594   1.000000
      6        -41.149549   1.000000
      7          1.782405   1.000000
      8          4.394396   1.000000
      9          7.139666   1.000000
     10          7.716518   1.000000
     11          7.925842   1.000000
     12          7.985638   1.000000
     13          8.336878   1.000000
     14          8.759283   1.000000
     15          9.174060   1.000000
     16          9.318749   1.000000
     17         10.982391   0.999966
     18         12.677931   0.000000
     19         15.771773   0.000000
     20         26.659085   0.000000
     21         27.334726   0.000000
     22         28.703568   0.000000
     23         30.543781   0.000000
     24         30.662689   0.000000
 
  0.2000000E+00 -0.2775558E-16  0.0000000E+00  0.7500000E-02
      1        -41.438076   1.000000
      2        -41.431180   1.000000
      3        -41.399972   1.000000
      4        -41.344528   1.000000
      5        -41.294641   1.000000
      6        -41.158240   1.000000
      7          2.767426   1.000000
      8          5.114857   1.000000
      9          6.915302   1.000000
     10          7.398201   1.000000
     11          7.434594   1.000000
     12          8.335283   1.000000
     13          8.766265   1.000000
     14          8.796526   1.000000
     15          8.806061   1.000000
     16          9.073404   1.000000
     17         11.081063   0.882904
     18         14.847503   0.000000
     19         15.704146   0.000000
     20         25.158099   0.000000
     21         27.956259   0.000000
     22         28.235296   0.000000
     23         29.110505   0.000000
     24         29.309969   0.000000
 
  0.3000000E+00  0.0000000E+00  0.0000000E+00  0.7500000E-02
      1        -41.555015   1.000000
      2        -41.515666   1.000000
      3        -41.385814   1.000000
      4        -41.377141   1.000000
      5        -41.319670   1.000000
      6        -41.174427   1.000000
      7          3.972093   1.000000
      8          5.240547   1.000000
      9          6.345441   1.000000
     10          7.177478   1.000000
     11          7.535393   1.000000
     12          8.294913   1.000000
     13          8.407031   1.000000
     14          9.483524   1.000000
     15          9.887525   1.000000
     16         10.117076   1.000000
     17         11.133845   0.380841
     18         15.827024   0.000000
     19         17.056636   0.000000
     20         21.435366   0.000000
     21         25.853661   0.000000
     22         26.400102   0.000000
     23         27.994040   0.000000
     24         29.100517   0.000000
 
  0.4000000E+00 -0.2775558E-16  0.0000000E+00  0.7500000E-02
      1        -41.649178   1.000000
      2        -41.607075   1.000000
      3        -41.403065   1.000000
      4        -41.340223   1.000000
      5        -41.339869   1.000000
      6        -41.196698   1.000000
      7          4.630920   1.000000
      8          4.927046   1.000000
      9          5.694142   1.000000
     10          7.695038   1.000000
     11          7.921019   1.000000
     12          8.129706   1.000000
     13          8.346955   1.000000
     14         10.968356   0.999994
     15         11.144243   0.275128
     16         11.145016   0.267883
     17         11.353573   0.000000
     18         16.632618   0.000000
     19         17.799277   0.000000
     20         19.020304   0.000000
     21         23.534671   0.000000
     22         23.945996   0.000000
     23         25.047124   0.000000
     24         27.825129   0.000000
 
  0.5000000E+00 -0.2775558E-16  0.0000000E+00  0.3750000E-02
      1        -41.685077   1.000000
      2        -41.641833   1.000000
      3        -41.412524   1.000000
      4        -41.348045   1.000000
      5        -41.316591   1.000000
      6        -41.210399   1.000000
      7          4.721851   1.000000
      8          4.798731   1.000000
      9          5.473860   1.000000
     10          7.785695   1.000000
     11          8.030455   1.000000
     12          8.216101   1.000000
     13          8.551689   1.000000
     14         11.144360   0.274024
     15         11.423313   0.000000
     16         11.623514   0.000000
     17         13.398514   0.000000
     18         14.873373   0.000000
     19         18.393713   0.000000
     20         19.968991   0.000000
     21         20.631985   0.000000
     22         23.166760   0.000000
     23         24.400771   0.000000
     24         27.251224   0.000000
 
  0.1000000E+00  0.1000000E+00  0.0000000E+00  0.7500000E-02
      1        -41.441542   1.000000
      2        -41.402424   1.000000
      3        -41.377061   1.000000
      4        -41.330695   1.000000
      5        -41.293216   1.000000
      6        -41.155216   1.000000
      7          2.463956   1.000000
      8          4.966540   1.000000
      9          6.874521   1.000000
     10          7.631139   1.000000
     11          7.799761   1.000000
     12          7.934600   1.000000
     13          8.568734   1.000000
     14          8.592632   1.000000
     15          8.923554   1.000000
     16          9.233911   1.000000
     17         11.002903   0.999663
     18         14.275092   0.000000
     19         15.722005   0.000000
     20         26.577026   0.000000
     21         27.184804   0.000000
     22         28.240152   0.000000
     23         29.263060   0.000000
     24         30.009739   0.000000
 
  0.2000000E+00  0.1000000E+00  0.0000000E+00  0.1500000E-01
      1        -41.500598   1.000000
      2        -41.475317   1.000000
      3        -41.402462   1.000000
      4        -41.368442   1.000000
      5        -41.323296   1.000000
      6        -41.167929   1.000000
      7          3.633336   1.000000
      8          5.578323   1.000000
      9          6.698391   1.000000
     10          6.754462   1.000000
     11          7.359862   1.000000
     12          8.097938   1.000000
     13          8.544703   1.000000
     14          8.867896   1.000000
     15          9.623813   1.000000
     16         10.024520   1.000000
     17         11.002605   0.999674
     18         15.769588   0.000000
     19         16.358094   0.000000
     20         23.336593   0.000000
     21         25.242973   0.000000
     22         27.394303   0.000000
     23         29.291458   0.000000
     24         29.940016   0.000000
 
  0.3000000E+00  0.1000000E+00  0.0000000E+00  0.1500000E-01
      1        -41.602407   1.000000
      2        -41.567179   1.000000
      3        -41.407257   1.000000
      4        -41.355775   1.000000
      5        -41.351783   1.000000
      6        -41.188112   1.000000
      7          4.689245   1.000000
      8          5.340041   1.000000
      9          5.984176   1.000000
     10          7.193515   1.000000
     11          7.800633   1.000000
     12          7.810392   1.000000
     13          8.379256   1.000000
     14          9.642196   1.000000
     15         10.704048   1.000000
     16         10.988723   0.999928
     17         11.447010   0.000000
     18         16.365893   0.000000
     19         18.486919   0.000000
     20         19.511220   0.000000
     21         23.135943   0.000000
     22         25.936719   0.000000
     23         26.241220   0.000000
     24         28.241562   0.000000
 
  0.4000000E+00  0.1000000E+00  0.0000000E+00  0.1500000E-01
      1        -41.665281   1.000000
      2        -41.623237   1.000000
      3        -41.431270   1.000000
      4        -41.369338   1.000000
      5        -41.317060   1.000000
      6        -41.210110   1.000000
      7          4.995063   1.000000
      8          5.084695   1.000000
      9          5.583880   1.000000
     10          7.743039   1.000000
     11          7.980735   1.000000
     12          7.981288   1.000000
     13          8.310175   1.000000
     14         10.875132   1.000000
     15         10.970882   0.999992
     16         11.255575   0.000090
     17         13.149640   0.000000
     18         16.102979   0.000000
     19         18.050856   0.000000
     20         20.153810   0.000000
     21         20.929187   0.000000
     22         23.274486   0.000000
     23         24.868685   0.000000
     24         27.172707   0.000000
 
  0.2000000E+00  0.2000000E+00  0.0000000E+00  0.7500000E-02
      1        -41.558382   1.000000
      2        -41.557412   1.000000
      3        -41.412975   1.000000
      4        -41.373207   1.000000
      5        -41.361473   1.000000
      6        -41.185156   1.000000
      7          4.843151   1.000000
      8          6.183530   1.000000
      9          6.186460   1.000000
     10          6.247941   1.000000
     11          7.574079   1.000000
     12          7.611568   1.000000
     13          8.570945   1.000000
     14          8.904632   1.000000
     15         10.688243   1.000000
     16         10.820935   1.000000
     17         11.528606   0.000000
     18         16.341404   0.000000
     19         18.363716   0.000000
     20         20.964989   0.000000
     21         21.879040   0.000000
     22         26.686781   0.000000
     23         27.887519   0.000000
     24         28.381267   0.000000
 
  0.3000000E+00  0.2000000E+00  0.0000000E+00  0.1500000E-01
      1        -41.619763   1.000000
      2        -41.591186   1.000000
      3        -41.464064   1.000000
      4        -41.416456   1.000000
      5        -41.317842   1.000000
      6        -41.209450   1.000000
      7          5.624884   1.000000
      8          5.804269   1.000000
      9          5.837282   1.000000
     10          6.983115   1.000000
     11          7.466224   1.000000
     12          8.084828   1.000000
     13          8.123250   1.000000
     14          9.695158   1.000000
     15         10.682340   1.000000
     16         11.123164   0.499534
     17         13.202378   0.000000
     18         17.363250   0.000000
     19         18.284869   0.000000
     20         19.923897   0.000000
     21         20.446067   0.000000
     22         24.850200   0.000000
     23         25.899941   0.000000
     24         26.891243   0.000000
 
  0.4000000E+00  0.2000000E+00  0.0000000E+00  0.7500000E-02
      1        -41.642051   1.000000
      2        -41.599702   1.000000
      3        -41.488726   1.000000
      4        -41.432558   1.000000
      5        -41.292817   1.000000
      6        -41.226774   1.000000
      7          5.670067   1.000000
      8          5.685784   1.000000
      9          5.740434   1.000000
     10          7.556878   1.000000
     11          7.606263   1.000000
     12          7.706425   1.000000
     13          8.390152   1.000000
     14         10.455754   1.000000
     15         10.631764   1.000000
     16         10.929101   1.000000
     17         14.797929   0.000000
     18         15.313549   0.000000
     19         18.624519   0.000000
     20         20.186518   0.000000
     21         21.655073   0.000000
     22         22.681977   0.000000
     23         25.098633   0.000000
     24         26.390414   0.000000
 
  0.3000000E+00  0.3000000E+00  0.0000000E+00  0.7500000E-02
      1        -41.606087   1.000000
      2        -41.573701   1.000000
      3        -41.526676   1.000000
      4        -41.485337   1.000000
      5        -41.278857   1.000000
      6        -41.237562   1.000000
      7          5.764595   1.000000
      8          6.175403   1.000000
      9          6.430418   1.000000
     10          6.866707   1.000000
     11          7.418127   1.000000
     12          7.685031   1.000000
     13          8.478461   1.000000
     14         10.054897   1.000000
     15         10.464943   1.000000
     16         10.768490   1.000000
     17         14.809517   0.000000
     18         16.077638   0.000000
     19         17.499690   0.000000
     20         21.017172   0.000000
     21         22.579291   0.000000
     22         23.802743   0.000000
     23         24.619123   0.000000
     24         25.002736   0.000000
 
  0.0000000E+00  0.0000000E+00  0.1250000E+00  0.2500000E-02
      1        -41.463120   1.000000
      2        -41.305571   1.000000
      3        -41.305570   1.000000
      4        -41.268472   1.000000
      5        -41.268471   1.000000
      6        -41.159543   1.000000
      7          1.554589   1.000000
      8          4.046968   1.000000
      9          7.169854   1.000000
     10          7.690984   1.000000
     11          7.690985   1.000000
     12          8.036428   1.000000
     13          8.036429   1.000000
     14          9.441361   1.000000
     15          9.441361   1.000000
     16          9.804709   1.000000
     17         10.892886   1.000000
     18         10.892887   1.000000
     19         16.672592   0.000000
     20         25.765390   0.000000
     21         27.314087   0.000000
     22         28.092107   0.000000
     23         31.618992   0.000000
     24         31.618992   0.000000
 
  0.1000000E+00 -0.1387779E-16  0.1250000E+00  0.1500000E-01
      1        -41.452846   1.000000
      2        -41.340954   1.000000
      3        -41.315969   1.000000
      4        -41.306258   1.000000
      5        -41.276221   1.000000
      6        -41.160922   1.000000
      7          1.913333   1.000000
      8          4.380867   1.000000
      9          7.142345   1.000000
     10          7.631688   1.000000
     11          7.824151   1.000000
     12          7.957831   1.000000
     13          8.294329   1.000000
     14          8.705039   1.000000
     15          9.288822   1.000000
     16          9.319794   1.000000
     17         10.943897   1.000000
     18         12.141262   0.000000
     19         16.759977   0.000000
     20         26.265787   0.000000
     21         27.739716   0.000000
     22         28.475642   0.000000
     23         29.940856   0.000000
     24         30.584588   0.000000
 
  0.2000000E+00 -0.2775558E-16  0.1250000E+00  0.1500000E-01
      1        -41.448735   1.000000
      2        -41.410762   1.000000
      3        -41.401061   1.000000
      4        -41.342706   1.000000
      5        -41.296583   1.000000
      6        -41.167430   1.000000
      7          2.883099   1.000000
      8          5.124197   1.000000
      9          6.946797   1.000000
     10          7.141571   1.000000
     11          7.442556   1.000000
     12          8.223580   1.000000
     13          8.608983   1.000000
     14          8.950356   1.000000
     15          9.015232   1.000000
     16          9.125588   1.000000
     17         11.020940   0.998075
     18         13.661364   0.000000
     19         17.170782   0.000000
     20         25.255067   0.000000
     21         27.739129   0.000000
     22         28.391738   0.000000
     23         28.597000   0.000000
     24         29.728849   0.000000
 
  0.3000000E+00  0.0000000E+00  0.1250000E+00  0.1500000E-01
      1        -41.556906   1.000000
      2        -41.519134   1.000000
      3        -41.374941   1.000000
      4        -41.374083   1.000000
      5        -41.321861   1.000000
      6        -41.180612   1.000000
      7          4.025427   1.000000
      8          5.268506   1.000000
      9          6.326136   1.000000
     10          7.012503   1.000000
     11          7.562965   1.000000
     12          8.401218   1.000000
     13          8.468405   1.000000
     14          9.537323   1.000000
     15          9.908925   1.000000
     16         10.069429   1.000000
     17         11.063908   0.953018
     18         14.750538   0.000000
     19         18.165626   0.000000
     20         21.705115   0.000000
     21         26.092889   0.000000
     22         26.129246   0.000000
     23         27.694848   0.000000
     24         29.560311   0.000000
 
  0.4000000E+00 -0.2775558E-16  0.1250000E+00  0.1500000E-01
      1        -41.650202   1.000000
      2        -41.611072   1.000000
      3        -41.400511   1.000000
      4        -41.342562   1.000000
      5        -41.331514   1.000000
      6        -41.199697   1.000000
      7          4.566897   1.000000
      8          4.934524   1.000000
      9          5.847813   1.000000
     10          7.064629   1.000000
     11          8.140681   1.000000
     12          8.214257   1.000000
     13          8.892628   1.000000
     14         10.886879   1.000000
     15         10.983596   0.999960
     16         11.242854   0.000354
     17         11.266135   0.000026
     18         15.779778   0.000000
     19         17.841569   0.000000
     20         19.836629   0.000000
     21         23.259555   0.000000
     22         24.221905   0.000000
     23         25.370171   0.000000
     24         28.046882   0.000000
 
  0.5000000E+00 -0.2775558E-16  0.1250000E+00  0.7500000E-02
      1        -41.685929   1.000000
      2        -41.645797   1.000000
      3        -41.410292   1.000000
      4        -41.350459   1.000000
      5        -41.310162   1.000000
      6        -41.212038   1.000000
      7          4.643950   1.000000
      8          4.751078   1.000000
      9          5.694742   1.000000
     10          7.127695   1.000000
     11          8.120077   1.000000
     12          8.290886   1.000000
     13          9.342391   1.000000
     14         10.967941   0.999994
     15         11.443276   0.000000
     16         11.617019   0.000000
     17         13.162021   0.000000
     18         14.761706   0.000000
     19         18.254718   0.000000
     20         18.999394   0.000000
     21         21.856407   0.000000
     22         23.456272   0.000000
     23         24.533138   0.000000
     24         27.531060   0.000000
 
  0.1000000E+00  0.1000000E+00  0.1250000E+00  0.1500000E-01
      1        -41.438294   1.000000
      2        -41.393782   1.000000
      3        -41.378604   1.000000
      4        -41.330218   1.000000
      5        -41.294865   1.000000
      6        -41.164926   1.000000
      7          2.586826   1.000000
      8          4.968242   1.000000
      9          6.905775   1.000000
     10          7.354984   1.000000
     11          7.712244   1.000000
     12          7.940023   1.000000
     13          8.501711   1.000000
     14          8.723275   1.000000
     15          9.013452   1.000000
     16          9.304504   1.000000
     17         10.951895   0.999999
     18         13.309767   0.000000
     19         17.015881   0.000000
     20         26.531495   0.000000
     21         27.252860   0.000000
     22         28.138074   0.000000
     23         28.811036   0.000000
     24         30.264742   0.000000
 
  0.2000000E+00  0.1000000E+00  0.1250000E+00  0.3000000E-01
      1        -41.503935   1.000000
      2        -41.478037   1.000000
      3        -41.388968   1.000000
      4        -41.367151   1.000000
      5        -41.325022   1.000000
      6        -41.175011   1.000000
      7          3.724055   1.000000
      8          5.612253   1.000000
      9          6.576191   1.000000
     10          6.764363   1.000000
     11          7.331185   1.000000
     12          7.992280   1.000000
     13          8.706007   1.000000
     14          8.848457   1.000000
     15          9.734112   1.000000
     16          9.972451   1.000000
     17         10.951741   0.999999
     18         14.477868   0.000000
     19         17.816994   0.000000
     20         23.515958   0.000000
     21         25.372251   0.000000
     22         27.312258   0.000000
     23         28.691248   0.000000
     24         30.518411   0.000000
 
  0.3000000E+00  0.1000000E+00  0.1250000E+00  0.3000000E-01
      1        -41.603697   1.000000
      2        -41.570577   1.000000
      3        -41.406008   1.000000
      4        -41.355398   1.000000
      5        -41.344327   1.000000
      6        -41.192037   1.000000
      7          4.673192   1.000000
      8          5.374280   1.000000
      9          6.048332   1.000000
     10          6.917108   1.000000
     11          7.771072   1.000000
     12          8.150249   1.000000
     13          8.393502   1.000000
     14          9.658978   1.000000
     15         10.746086   1.000000
     16         10.806336   1.000000
     17         11.505494   0.000000
     18         15.568874   0.000000
     19         18.752653   0.000000
     20         20.261531   0.000000
     21         23.247717   0.000000
     22         25.412544   0.000000
     23         26.591366   0.000000
     24         28.438141   0.000000
 
  0.4000000E+00  0.1000000E+00  0.1250000E+00  0.3000000E-01
      1        -41.666132   1.000000
      2        -41.627153   1.000000
      3        -41.429483   1.000000
      4        -41.372081   1.000000
      5        -41.309899   1.000000
      6        -41.211386   1.000000
      7          4.872994   1.000000
      8          5.071795   1.000000
      9          5.837855   1.000000
     10          7.070116   1.000000
     11          7.857330   1.000000
     12          8.416557   1.000000
     13          8.819465   1.000000
     14         10.762645   1.000000
     15         10.878685   1.000000
     16         11.297499   0.000000
     17         13.102918   0.000000
     18         15.907723   0.000000
     19         17.700558   0.000000
     20         20.050506   0.000000
     21         21.425140   0.000000
     22         23.536807   0.000000
     23         25.082889   0.000000
     24         27.255776   0.000000
 
  0.2000000E+00  0.2000000E+00  0.1250000E+00  0.1500000E-01
      1        -41.560523   1.000000
      2        -41.559451   1.000000
      3        -41.412833   1.000000
      4        -41.377285   1.000000
      5        -41.349029   1.000000
      6        -41.189527   1.000000
      7          4.877100   1.000000
      8          6.024094   1.000000
      9          6.266739   1.000000
     10          6.348391   1.000000
     11          7.584172   1.000000
     12          7.592736   1.000000
     13          8.453625   1.000000
     14          9.058322   1.000000
     15         10.609586   1.000000
     16         10.798528   1.000000
     17         11.599306   0.000000
     18         15.565719   0.000000
     19         18.980913   0.000000
     20         21.405146   0.000000
     21         22.041440   0.000000
     22         26.527200   0.000000
     23         27.044648   0.000000
     24         29.033936   0.000000
 
  0.3000000E+00  0.2000000E+00  0.1250000E+00  0.3000000E-01
      1        -41.620334   1.000000
      2        -41.594317   1.000000
      3        -41.464040   1.000000
      4        -41.419459   1.000000
      5        -41.309650   1.000000
      6        -41.210635   1.000000
      7          5.466468   1.000000
      8          5.851152   1.000000
      9          6.021328   1.000000
     10          6.782249   1.000000
     11          7.605633   1.000000
     12          7.978561   1.000000
     13          8.265783   1.000000
     14          9.757187   1.000000
     15         10.481692   1.000000
     16         11.225420   0.001906
     17         13.245515   0.000000
     18         17.364838   0.000000
     19         17.639307   0.000000
     20         20.003045   0.000000
     21         21.263945   0.000000
     22         24.349867   0.000000
     23         25.904224   0.000000
     24         26.946009   0.000000
 
  0.4000000E+00  0.2000000E+00  0.1250000E+00  0.1500000E-01
      1        -41.642456   1.000000
      2        -41.603540   1.000000
      3        -41.488382   1.000000
      4        -41.435827   1.000000
      5        -41.286688   1.000000
      6        -41.226178   1.000000
      7          5.412574   1.000000
      8          5.731579   1.000000
      9          6.112958   1.000000
     10          7.002776   1.000000
     11          7.466106   1.000000
     12          8.170911   1.000000
     13          8.558552   1.000000
     14         10.423612   1.000000
     15         10.481444   1.000000
     16         11.004446   0.999606
     17         14.877236   0.000000
     18         15.347344   0.000000
     19         18.699099   0.000000
     20         19.867464   0.000000
     21         20.841024   0.000000
     22         23.784867   0.000000
     23         25.359812   0.000000
     24         25.627965   0.000000
 
  0.3000000E+00  0.3000000E+00  0.1250000E+00  0.1500000E-01
      1        -41.605042   1.000000
      2        -41.577233   1.000000
      3        -41.528511   1.000000
      4        -41.488738   1.000000
      5        -41.273712   1.000000
      6        -41.236021   1.000000
      7          5.798443   1.000000
      8          6.155122   1.000000
      9          6.464416   1.000000
     10          6.751651   1.000000
     11          7.543604   1.000000
     12          7.584694   1.000000
     13          8.488166   1.000000
     14         10.147847   1.000000
     15         10.255008   1.000000
     16         10.862794   1.000000
     17         14.904889   0.000000
     18         16.220920   0.000000
     19         17.750660   0.000000
     20         20.146154   0.000000
     21         22.777812   0.000000
     22         22.874916   0.000000
     23         24.730573   0.000000
     24         26.026542   0.000000
 
  0.0000000E+00  0.0000000E+00  0.2500000E+00  0.2500000E-02
      1        -41.428122   1.000000
      2        -41.301330   1.000000
      3        -41.301329   1.000000
      4        -41.272976   1.000000
      5        -41.272975   1.000000
      6        -41.195973   1.000000
      7          1.938482   1.000000
      8          3.949888   1.000000
      9          7.095073   1.000000
     10          7.660869   1.000000
     11          7.660870   1.000000
     12          7.937988   1.000000
     13          7.937989   1.000000
     14          8.660725   1.000000
     15          9.693233   1.000000
     16          9.693233   1.000000
     17         10.798652   1.000000
     18         10.798652   1.000000
     19         18.582672   0.000000
     20         25.239054   0.000000
     21         27.481540   0.000000
     22         27.606668   0.000000
     23         31.111982   0.000000
     24         31.111982   0.000000
 
  0.1000000E+00 -0.1387779E-16  0.2500000E+00  0.1500000E-01
      1        -41.422231   1.000000
      2        -41.333507   1.000000
      3        -41.312798   1.000000
      4        -41.311294   1.000000
      5        -41.280811   1.000000
      6        -41.193358   1.000000
      7          2.290733   1.000000
      8          4.298423   1.000000
      9          7.126108   1.000000
     10          7.482901   1.000000
     11          7.559686   1.000000
     12          7.914229   1.000000
     13          8.190131   1.000000
     14          8.302229   1.000000
     15          9.573606   1.000000
     16          9.574637   1.000000
     17         10.820926   1.000000
     18         11.426482   0.000000
     19         18.737489   0.000000
     20         25.741354   0.000000
     21         27.873843   0.000000
     22         27.989813   0.000000
     23         29.660137   0.000000
     24         30.540501   0.000000
 
  0.2000000E+00 -0.2775558E-16  0.2500000E+00  0.1500000E-01
      1        -41.452015   1.000000
      2        -41.412333   1.000000
      3        -41.371183   1.000000
      4        -41.337257   1.000000
      5        -41.301950   1.000000
      6        -41.193071   1.000000
      7          3.218026   1.000000
      8          5.097085   1.000000
      9          6.767053   1.000000
     10          7.054301   1.000000
     11          7.216931   1.000000
     12          8.026435   1.000000
     13          8.526580   1.000000
     14          8.877549   1.000000
     15          9.430648   1.000000
     16          9.451737   1.000000
     17         10.843852   1.000000
     18         12.438460   0.000000
     19         19.195971   0.000000
     20         25.537368   0.000000
     21         27.159892   0.000000
     22         27.929475   0.000000
     23         28.863438   0.000000
     24         29.874756   0.000000
 
  0.3000000E+00  0.0000000E+00  0.2500000E+00  0.1500000E-01
      1        -41.559514   1.000000
      2        -41.528523   1.000000
      3        -41.368616   1.000000
      4        -41.343865   1.000000
      5        -41.328088   1.000000
      6        -41.198473   1.000000
      7          4.186974   1.000000