 vasp.6.3.2 27Jun22 (build Aug 12 2022 00:53:59) complex                        
  
 executed on               tv2STD date 2024.11.30  15:58:19
 running   24 mpi-ranks, with    1 threads/rank
 distrk:  each k-point on   24 cores,    1 groups
 distr:  one band on NCORE=   1 cores,   24 groups


--------------------------------------------------------------------------------------------------------


 INCAR:
   SYSTEM = Pt-hcp
   NWRITE = 2    write-flag
   ISTART = 0    job   : 0-new, 1-cont, 2-samecut
   ICHARG = 2    charge: 0-wave, 1-file, 2-atom, >10-const
   INIWAV = 1    electr: 0-lowe 1-rand  2-diag
   ENCUT = 475     energy cutoff in eV
   PREC = Accurate      normal | accurate
   ADDGRID = .FALSE.  (use fine grid)
   NELM = 100     number of ELM steps
   EDIFF = 1E-06    energy stopping-criterion for ELM
   LREAL = .FALSE.      real-space projection (.FALSE., .TRUE., On, Auto)
   ALGO = Normal     Normal, Fast, Very_Fast
   LWAVE = .FALSE.
   LCHARG = .FALSE.
   NSW = 0       max number of geometry steps
   IBRION = -1     ionic relax: 0-MD, 1-quasi-Newton, 2-CG, 3-Damped MD
   EDIFFG = -0.02  force (eV/A) stopping-criterion for geometry steps
   ISIF = 2     (1:force\=y stress\=trace only ions\=y shape\=n volume\=n)
   ISYM = 1     (1-use symmetry, 0-no symmetry)
   ISMEAR = 0     (-1-Fermi, 1-Methfessel/Paxton)
   SIGMA = 0.05  broadening in eV

 POTCAR:    PAW_PBE Pt_pv 12Dec2005               
 POTCAR:    PAW_PBE Pt_pv 12Dec2005               
   SHA256 =  e5abf7e8cd8db70d0153315afc5ad66b6e3eeee29cc2d5b91b16730957c1d208 Pt_pv/POTCAR          
   COPYR  = (c) Copyright 12Dec2005 Georg Kresse                                                    
   COPYR  = This file is part of the software VASP. Any use, copying, and all other rights are regul
   COPYR  = If you do not have a valid VASP license, you may not use, copy or distribute this file. 
   VRHFIN =Pt: 5ps1d9                                                                               
   LEXCH  = PE                                                                                      
   EATOM  =  2428.2504 eV,  178.4714 Ry                                                             
                                                                                                    
   TITEL  = PAW_PBE Pt_pv 12Dec2005                                                                 
   LULTRA =        F    use ultrasoft PP ?                                                          
   IUNSCR =        1    unscreen: 0-lin 1-nonlin 2-no                                               
   RPACOR =    2.000    partial core radius                                                         
   POMASS =  195.080; ZVAL   =   16.000    mass and valenz                                          
   RCORE  =    2.200    outmost cutoff radius                                                       
   RWIGS  =    2.200; RWIGS  =    1.164    wigner-seitz radius (au A)                               
   ENMAX  =  294.607; ENMIN  =  220.955 eV                                                          
   ICORE  =        3    local potential                                                             
   LCOR   =        T    correct aug charges                                                         
   LPAW   =        T    paw PP                                                                      
   EAUG   =  527.014                                                                                
   DEXC   =    0.000                                                                                
   RMAX   =    2.247    core radius for proj-oper                                                   
   RAUG   =    1.300    factor for augmentation sphere                                              
   RDEP   =    2.279    radius for radial grids                                                     
   RDEPT  =    1.878    core radius for aug-charge                                                  
                                                                                                    
   Atomic configuration                                                                             
   16 entries                                                                                       
     n  l   j            E        occ.                                                              
     1  0  0.50    -78401.1885   2.0000                                                             
     2  0  0.50    -13770.7750   2.0000                                                             
     2  1  1.50    -11931.0468   6.0000                                                             
     3  0  0.50     -3234.7234   2.0000                                                             
     3  1  1.50     -2699.2216   6.0000                                                             
     3  2  2.50     -2119.5714  10.0000                                                             
     4  0  0.50      -695.1528   2.0000                                                             
     4  1  1.50      -519.6034   6.0000                                                             
     4  2  2.50      -306.6786  10.0000                                                             
     4  3  3.50       -70.1041  14.0000                                                             
     5  0  0.50      -101.7747   2.0000                                                             
     5  1  1.50       -55.9873   6.0000                                                             
     6  1  1.50        -6.8029   0.0000                                                             
     5  2  2.50        -6.1423   9.0000                                                             
     6  0  0.50        -5.6573   1.0000                                                             
     5  3  2.50        -1.3606   0.0000                                                             
   Description                                                                                      
     l       E           TYP  RCUT    TYP  RCUT                                                     
     1    -55.9873477     23  2.000                                                                 
     1     27.2116520     23  2.000                                                                 
     2     -6.1423404     23  2.200                                                                 
     2     -4.6754623     23  2.200                                                                 
     0     -5.6573207     23  2.200                                                                 
     0     47.6203910     23  2.200                                                                 
     3      6.8029130     23  2.200                                                                 
  local pseudopotential read in
  partial core-charges read in
  partial kinetic energy density read in
  atomic valenz-charges read in
  non local Contribution for L=           1  read in
    real space projection operators read in
  non local Contribution for L=           1  read in
    real space projection operators read in
  non local Contribution for L=           2  read in
    real space projection operators read in
  non local Contribution for L=           2  read in
    real space projection operators read in
  non local Contribution for L=           0  read in
    real space projection operators read in
  non local Contribution for L=           0  read in
    real space projection operators read in
    PAW grid and wavefunctions read in
 
   number of l-projection  operators is LMAX  =           6
   number of lm-projection operators is LMMAX =          18
 
  PAW_PBE Pt_pv 12Dec2005               :
 energy of atom  1       EATOM=-2428.2504
 kinetic energy error for atom=    0.0223 (will be added to EATOM!!)
 
 
 POSCAR: Pt
  positions in cartesian coordinates
  No initial velocities read in
 exchange correlation table for  LEXCH =        8
   RHO(1)=    0.500       N(1)  =     2000
   RHO(2)=  100.500       N(2)  =     4000
 


--------------------------------------------------------------------------------------------------------


 ion  position               nearest neighbor table
   1  0.000  0.000  0.000-
   2  0.333  0.667  0.500-
 
  LATTYP: Found a hexagonal cell.
 ALAT       =     2.7600000000
 C/A-ratio  =     1.7355072464
  
  Lattice vectors:
  
 A1 = (   2.7600000000,   0.0000000000,   0.0000000000)
 A2 = (  -1.3800000000,   2.3902301144,   0.0000000000)
 A3 = (   0.0000000000,   0.0000000000,   4.7900000000)


Analysis of symmetry for initial positions (statically):
=====================================================================
 Subroutine PRICEL returns:
 Original cell was already a primitive cell.
 

 Routine SETGRP: Setting up the symmetry group for a 
 hexagonal supercell.


 Subroutine GETGRP returns: Found 24 space group operations
 (whereof 12 operations were pure point group operations)
 out of a pool of 24 trial point group operations.


The static configuration has the point symmetry D_3h.
 The point group associated with its full space group is D_6h.


Analysis of symmetry for dynamics (positions and initial velocities):
=====================================================================
 Subroutine PRICEL returns:
 Original cell was already a primitive cell.
 

 Routine SETGRP: Setting up the symmetry group for a 
 hexagonal supercell.


 Subroutine GETGRP returns: Found 24 space group operations
 (whereof 12 operations were pure point group operations)
 out of a pool of 24 trial point group operations.


The dynamic configuration has the point symmetry D_3h.
 The point group associated with its full space group is D_6h.


 Subroutine INISYM returns: Found 24 space group operations
 (whereof 12 operations are pure point group operations),
 and found     1 'primitive' translations


----------------------------------------------------------------------------------------

                                     Primitive cell                                     

  volume of cell :      31.5998

  direct lattice vectors                    reciprocal lattice vectors
     2.760000000  0.000000000  0.000000000     0.362318841  0.209184880  0.000000000
    -1.380000000  2.390230114  0.000000000     0.000000000  0.418369760  0.000000000
     0.000000000  0.000000000  4.790000000     0.000000000  0.000000000  0.208768267

  length of vectors
     2.760000000  2.760000000  4.790000000     0.418369760  0.418369760  0.208768267

  position of ions in fractional coordinates (direct lattice)
     0.000000000  0.000000000  0.000000000
     0.333333333  0.666666667  0.500000000

  ion indices of the primitive-cell ions
   primitive index   ion index
                 1           1
                 2           2

----------------------------------------------------------------------------------------

 
 
 KPOINTS: Automatic mesh                          

Automatic generation of k-mesh.
 Grid dimensions read from file:
 generate k-points for:   10   10    8

 Generating k-lattice:

  Cartesian coordinates                     Fractional coordinates (reciprocal lattice)
     0.036231884  0.020918488  0.000000000     0.100000000  0.000000000  0.000000000
     0.000000000  0.041836976  0.000000000     0.000000000  0.100000000  0.000000000
     0.000000000  0.000000000  0.026096033     0.000000000  0.000000000  0.125000000

  Length of vectors
     0.041836976  0.041836976  0.026096033

  Shift w.r.t. Gamma in fractional coordinates (k-lattice)
     0.000000000  0.000000000  0.000000000

 
 Subroutine IBZKPT returns following result:
 ===========================================
 
 Found     70 irreducible k-points:
 
 Following reciprocal coordinates:
            Coordinates               Weight
  0.000000  0.000000  0.000000      1.000000
  0.100000 -0.000000  0.000000      6.000000
  0.200000 -0.000000  0.000000      6.000000
  0.300000  0.000000  0.000000      6.000000
  0.400000 -0.000000  0.000000      6.000000
  0.500000 -0.000000  0.000000      3.000000
  0.100000  0.100000  0.000000      6.000000
  0.200000  0.100000  0.000000     12.000000
  0.300000  0.100000  0.000000     12.000000
  0.400000  0.100000  0.000000     12.000000
  0.200000  0.200000  0.000000      6.000000
  0.300000  0.200000  0.000000     12.000000
  0.400000  0.200000  0.000000      6.000000
  0.300000  0.300000  0.000000      6.000000
  0.000000  0.000000  0.125000      2.000000
  0.100000 -0.000000  0.125000     12.000000
  0.200000 -0.000000  0.125000     12.000000
  0.300000  0.000000  0.125000     12.000000
  0.400000 -0.000000  0.125000     12.000000
  0.500000 -0.000000  0.125000      6.000000
  0.100000  0.100000  0.125000     12.000000
  0.200000  0.100000  0.125000     24.000000
  0.300000  0.100000  0.125000     24.000000
  0.400000  0.100000  0.125000     24.000000
  0.200000  0.200000  0.125000     12.000000
  0.300000  0.200000  0.125000     24.000000
  0.400000  0.200000  0.125000     12.000000
  0.300000  0.300000  0.125000     12.000000
  0.000000  0.000000  0.250000      2.000000
  0.100000 -0.000000  0.250000     12.000000
  0.200000 -0.000000  0.250000     12.000000
  0.300000  0.000000  0.250000     12.000000
  0.400000 -0.000000  0.250000     12.000000
  0.500000 -0.000000  0.250000      6.000000
  0.100000  0.100000  0.250000     12.000000
  0.200000  0.100000  0.250000     24.000000
  0.300000  0.100000  0.250000     24.000000
  0.400000  0.100000  0.250000     24.000000
  0.200000  0.200000  0.250000     12.000000
  0.300000  0.200000  0.250000     24.000000
  0.400000  0.200000  0.250000     12.000000
  0.300000  0.300000  0.250000     12.000000
  0.000000  0.000000  0.375000      2.000000
  0.100000 -0.000000  0.375000     12.000000
  0.200000 -0.000000  0.375000     12.000000
  0.300000  0.000000  0.375000     12.000000
  0.400000 -0.000000  0.375000     12.000000
  0.500000 -0.000000  0.375000      6.000000
  0.100000  0.100000  0.375000     12.000000
  0.200000  0.100000  0.375000     24.000000
  0.300000  0.100000  0.375000     24.000000
  0.400000  0.100000  0.375000     24.000000
  0.200000  0.200000  0.375000     12.000000
  0.300000  0.200000  0.375000     24.000000
  0.400000  0.200000  0.375000     12.000000
  0.300000  0.300000  0.375000     12.000000
  0.000000  0.000000  0.500000      1.000000
  0.100000 -0.000000  0.500000      6.000000
  0.200000 -0.000000  0.500000      6.000000
  0.300000  0.000000  0.500000      6.000000
  0.400000 -0.000000  0.500000      6.000000
  0.500000 -0.000000  0.500000      3.000000
  0.100000  0.100000  0.500000      6.000000
  0.200000  0.100000  0.500000     12.000000
  0.300000  0.100000  0.500000     12.000000
  0.400000  0.100000  0.500000     12.000000
  0.200000  0.200000  0.500000      6.000000
  0.300000  0.200000  0.500000     12.000000
  0.400000  0.200000  0.500000      6.000000
  0.300000  0.300000  0.500000      6.000000
 
 Following cartesian coordinates:
            Coordinates               Weight
  0.000000  0.000000  0.000000      1.000000
  0.036232  0.020918  0.000000      6.000000
  0.072464  0.041837  0.000000      6.000000
  0.108696  0.062755  0.000000      6.000000
  0.144928  0.083674  0.000000      6.000000
  0.181159  0.104592  0.000000      3.000000
  0.036232  0.062755  0.000000      6.000000
  0.072464  0.083674  0.000000     12.000000
  0.108696  0.104592  0.000000     12.000000
  0.144928  0.125511  0.000000     12.000000
  0.072464  0.125511  0.000000      6.000000
  0.108696  0.146429  0.000000     12.000000
  0.144928  0.167348  0.000000      6.000000
  0.108696  0.188266  0.000000      6.000000
  0.000000  0.000000  0.026096      2.000000
  0.036232  0.020918  0.026096     12.000000
  0.072464  0.041837  0.026096     12.000000
  0.108696  0.062755  0.026096     12.000000
  0.144928  0.083674  0.026096     12.000000
  0.181159  0.104592  0.026096      6.000000
  0.036232  0.062755  0.026096     12.000000
  0.072464  0.083674  0.026096     24.000000
  0.108696  0.104592  0.026096     24.000000
  0.144928  0.125511  0.026096     24.000000
  0.072464  0.125511  0.026096     12.000000
  0.108696  0.146429  0.026096     24.000000
  0.144928  0.167348  0.026096     12.000000
  0.108696  0.188266  0.026096     12.000000
  0.000000  0.000000  0.052192      2.000000
  0.036232  0.020918  0.052192     12.000000
  0.072464  0.041837  0.052192     12.000000
  0.108696  0.062755  0.052192     12.000000
  0.144928  0.083674  0.052192     12.000000
  0.181159  0.104592  0.052192      6.000000
  0.036232  0.062755  0.052192     12.000000
  0.072464  0.083674  0.052192     24.000000
  0.108696  0.104592  0.052192     24.000000
  0.144928  0.125511  0.052192     24.000000
  0.072464  0.125511  0.052192     12.000000
  0.108696  0.146429  0.052192     24.000000
  0.144928  0.167348  0.052192     12.000000
  0.108696  0.188266  0.052192     12.000000
  0.000000  0.000000  0.078288      2.000000
  0.036232  0.020918  0.078288     12.000000
  0.072464  0.041837  0.078288     12.000000
  0.108696  0.062755  0.078288     12.000000
  0.144928  0.083674  0.078288     12.000000
  0.181159  0.104592  0.078288      6.000000
  0.036232  0.062755  0.078288     12.000000
  0.072464  0.083674  0.078288     24.000000
  0.108696  0.104592  0.078288     24.000000
  0.144928  0.125511  0.078288     24.000000
  0.072464  0.125511  0.078288     12.000000
  0.108696  0.146429  0.078288     24.000000
  0.144928  0.167348  0.078288     12.000000
  0.108696  0.188266  0.078288     12.000000
  0.000000  0.000000  0.104384      1.000000
  0.036232  0.020918  0.104384      6.000000
  0.072464  0.041837  0.104384      6.000000
  0.108696  0.062755  0.104384      6.000000
  0.144928  0.083674  0.104384      6.000000
  0.181159  0.104592  0.104384      3.000000
  0.036232  0.062755  0.104384      6.000000
  0.072464  0.083674  0.104384     12.000000
  0.108696  0.104592  0.104384     12.000000
  0.144928  0.125511  0.104384     12.000000
  0.072464  0.125511  0.104384      6.000000
  0.108696  0.146429  0.104384     12.000000
  0.144928  0.167348  0.104384      6.000000
  0.108696  0.188266  0.104384      6.000000
 


--------------------------------------------------------------------------------------------------------




 Dimension of arrays:
   k-points           NKPTS =     70   k-points in BZ     NKDIM =     70   number of bands    NBANDS=     24
   number of dos      NEDOS =    301   number of ions     NIONS =      2
   non local maximal  LDIM  =      6   non local SUM 2l+1 LMDIM =     18
   total plane-waves  NPLWV =  14400
   max r-space proj   IRMAX =      1   max aug-charges    IRDMAX=  15713
   dimension x,y,z NGX =    20 NGY =   20 NGZ =   36
   dimension x,y,z NGXF=    40 NGYF=   40 NGZF=   72
   support grid    NGXF=    40 NGYF=   40 NGZF=   72
   ions per type =               2
   NGX,Y,Z   is equivalent  to a cutoff of  12.05, 12.05, 12.49 a.u.
   NGXF,Y,Z  is equivalent  to a cutoff of  24.09, 24.09, 24.99 a.u.

 SYSTEM =  Pt-hcp                                  
 POSCAR =  Pt                                      

 Startparameter for this run:
   NWRITE =      2    write-flag & timer
   PREC   = accura    normal or accurate (medium, high low for compatibility)
   ISTART =      0    job   : 0-new  1-cont  2-samecut
   ICHARG =      2    charge: 1-file 2-atom 10-const
   ISPIN  =      1    spin polarized calculation?
   LNONCOLLINEAR =      F non collinear calculations
   LSORBIT =      F    spin-orbit coupling
   INIWAV =      1    electr: 0-lowe 1-rand  2-diag
   LASPH  =      F    aspherical Exc in radial PAW
 Electronic Relaxation 1
   ENCUT  =  475.0 eV  34.91 Ry    5.91 a.u.   4.90  4.90  8.51*2*pi/ulx,y,z
   ENINI  =  475.0     initial cutoff
   ENAUG  =  527.0 eV  augmentation charge cutoff
   NELM   =    100;   NELMIN=  2; NELMDL= -5     # of ELM steps 
   EDIFF  = 0.1E-05   stopping-criterion for ELM
   LREAL  =      F    real-space projection
   NLSPLINE    = F    spline interpolate recip. space projectors
   LCOMPAT=      F    compatible to vasp.4.4
   GGA_COMPAT  = T    GGA compatible to vasp.4.4-vasp.4.6
   LMAXPAW     = -100 max onsite density
   LMAXMIX     =    2 max onsite mixed and CHGCAR
   VOSKOWN=      0    Vosko Wilk Nusair interpolation
   ROPT   =    0.00000
 Ionic relaxation
   EDIFFG = -.2E-01   stopping-criterion for IOM
   NSW    =      0    number of steps for IOM
   NBLOCK =      1;   KBLOCK =      1    inner block; outer block 
   IBRION =     -1    ionic relax: 0-MD 1-quasi-New 2-CG
   NFREE  =      0    steps in history (QN), initial steepest desc. (CG)
   ISIF   =      2    stress and relaxation
   IWAVPR =     10    prediction:  0-non 1-charg 2-wave 3-comb
   ISYM   =      1    0-nonsym 1-usesym 2-fastsym
   LCORR  =      T    Harris-Foulkes like correction to forces

   POTIM  = 0.5000    time-step for ionic-motion
   TEIN   =    0.0    initial temperature
   TEBEG  =    0.0;   TEEND  =   0.0 temperature during run
   SMASS  =  -3.00    Nose mass-parameter (am)
   estimated Nose-frequenzy (Omega)   =  0.10E-29 period in steps = 0.13E+47 mass=  -0.174E-27a.u.
   SCALEE = 1.0000    scale energy and forces
   NPACO  =    256;   APACO  = 10.0  distance and # of slots for P.C.
   PSTRESS=    0.0 pullay stress

  Mass of Ions in am
   POMASS = 195.08
  Ionic Valenz
   ZVAL   =  16.00
  Atomic Wigner-Seitz radii
   RWIGS  =  -1.00
  virtual crystal weights 
   VCA    =   1.00
   NELECT =      32.0000    total number of electrons
   NUPDOWN=      -1.0000    fix difference up-down

 DOS related values:
   EMIN   =  10.00;   EMAX   =-10.00  energy-range for DOS
   EFERMI =   0.00
   ISMEAR =     0;   SIGMA  =   0.05  broadening in eV -4-tet -1-fermi 0-gaus

 Electronic relaxation 2 (details)
   IALGO  =     38    algorithm
   LDIAG  =      T    sub-space diagonalisation (order eigenvalues)
   LSUBROT=      F    optimize rotation matrix (better conditioning)
   TURBO    =      0    0=normal 1=particle mesh
   IRESTART =      0    0=no restart 2=restart with 2 vectors
   NREBOOT  =      0    no. of reboots
   NMIN     =      0    reboot dimension
   EREF     =   0.00    reference energy to select bands
   IMIX   =      4    mixing-type and parameters
     AMIX     =   0.40;   BMIX     =  1.00
     AMIX_MAG =   1.60;   BMIX_MAG =  1.00
     AMIN     =   0.10
     WC   =   100.;   INIMIX=   1;  MIXPRE=   1;  MAXMIX= -45

 Intra band minimization:
   WEIMIN = 0.0000     energy-eigenvalue tresh-hold
   EBREAK =  0.10E-07  absolut break condition
   DEPER  =   0.30     relativ break condition  

   TIME   =   0.40     timestep for ELM

  volume/ion in A,a.u.               =      15.80       106.62
  Fermi-wavevector in a.u.,A,eV,Ry     =   1.643981  3.106673 36.772093  2.702673
  Thomas-Fermi vector in A             =   2.734024
 
 Write flags
   LWAVE        =      F    write WAVECAR
   LDOWNSAMPLE  =      F    k-point downsampling of WAVECAR
   LCHARG       =      F    write CHGCAR
   LVTOT        =      F    write LOCPOT, total local potential
   LVHAR        =      F    write LOCPOT, Hartree potential only
   LELF         =      F    write electronic localiz. function (ELF)
   LORBIT       =      0    0 simple, 1 ext, 2 COOP (PROOUT), +10 PAW based schemes


 Dipole corrections
   LMONO  =      F    monopole corrections only (constant potential shift)
   LDIPOL =      F    correct potential (dipole corrections)
   IDIPOL =      0    1-x, 2-y, 3-z, 4-all directions 
   EPSILON=  1.0000000 bulk dielectric constant

 Exchange correlation treatment:
   GGA     =    --    GGA type
   LEXCH   =     8    internal setting for exchange type
   LIBXC   =     F    Libxc                    
   VOSKOWN =     0    Vosko Wilk Nusair interpolation
   LHFCALC =     F    Hartree Fock is set to
   LHFONE  =     F    Hartree Fock one center treatment
   AEXX    =    0.0000 exact exchange contribution

 Linear response parameters
   LEPSILON=     F    determine dielectric tensor
   LRPA    =     F    only Hartree local field effects (RPA)
   LNABLA  =     F    use nabla operator in PAW spheres
   LVEL    =     F    velocity operator in full k-point grid
   CSHIFT  =0.1000    complex shift for real part using Kramers Kronig
   OMEGAMAX=  -1.0    maximum frequency
   DEG_THRESHOLD= 0.2000000E-02 threshold for treating states as degnerate
   RTIME   =   -0.100 relaxation time in fs
  (WPLASMAI=    0.000 imaginary part of plasma frequency in eV, 0.658/RTIME)
   DFIELD  = 0.0000000 0.0000000 0.0000000 field for delta impulse in time
 
  Optional k-point grid parameters
   LKPOINTS_OPT  =     F    use optional k-point grid
   KPOINTS_OPT_MODE=     1    mode for optional k-point grid
 
 Orbital magnetization related:
   ORBITALMAG=     F  switch on orbital magnetization
   LCHIMAG   =     F  perturbation theory with respect to B field
   DQ        =  0.001000  dq finite difference perturbation B field
   LLRAUG    =     F  two centre corrections for induced B field



--------------------------------------------------------------------------------------------------------


 Static calculation
 charge density and potential will be updated during run
 non-spin polarized calculation
 Variant of blocked Davidson
 Davidson routine will perform the subspace rotation
 perform sub-space diagonalisation
    after iterative eigenvector-optimisation
 modified Broyden-mixing scheme, WC =      100.0
 initial mixing is a Kerker type mixing with AMIX =  0.4000 and BMIX =      1.0000
 Hartree-type preconditioning will be used
 using additional bands            8
 reciprocal scheme for non local part
 use partial core corrections
 calculate Harris-corrections to forces 
   (improved forces if not selfconsistent)
 use gradient corrections 
 use of overlap-Matrix (Vanderbilt PP)
 Gauss-broadening in eV      SIGMA  =   0.05


--------------------------------------------------------------------------------------------------------


  energy-cutoff  :      475.00
  volume of cell :       31.60
      direct lattice vectors                 reciprocal lattice vectors
     2.760000000  0.000000000  0.000000000     0.362318841  0.209184880  0.000000000
    -1.380000000  2.390230114  0.000000000     0.000000000  0.418369760  0.000000000
     0.000000000  0.000000000  4.790000000     0.000000000  0.000000000  0.208768267

  length of vectors
     2.760000000  2.760000000  4.790000000     0.418369760  0.418369760  0.208768267


 
 k-points in units of 2pi/SCALE and weight: Automatic mesh                          
   0.00000000  0.00000000  0.00000000       0.001
   0.03623188  0.02091849  0.00000000       0.007
   0.07246377  0.04183698  0.00000000       0.007
   0.10869565  0.06275546  0.00000000       0.007
   0.14492754  0.08367395  0.00000000       0.007
   0.18115942  0.10459244  0.00000000       0.004
   0.03623188  0.06275546  0.00000000       0.007
   0.07246377  0.08367395  0.00000000       0.015
   0.10869565  0.10459244  0.00000000       0.015
   0.14492754  0.12551093  0.00000000       0.015
   0.07246377  0.12551093  0.00000000       0.007
   0.10869565  0.14642942  0.00000000       0.015
   0.14492754  0.16734790  0.00000000       0.007
   0.10869565  0.18826639  0.00000000       0.007
   0.00000000  0.00000000  0.02609603       0.003
   0.03623188  0.02091849  0.02609603       0.015
   0.07246377  0.04183698  0.02609603       0.015
   0.10869565  0.06275546  0.02609603       0.015
   0.14492754  0.08367395  0.02609603       0.015
   0.18115942  0.10459244  0.02609603       0.007
   0.03623188  0.06275546  0.02609603       0.015
   0.07246377  0.08367395  0.02609603       0.030
   0.10869565  0.10459244  0.02609603       0.030
   0.14492754  0.12551093  0.02609603       0.030
   0.07246377  0.12551093  0.02609603       0.015
   0.10869565  0.14642942  0.02609603       0.030
   0.14492754  0.16734790  0.02609603       0.015
   0.10869565  0.18826639  0.02609603       0.015
   0.00000000  0.00000000  0.05219207       0.003
   0.03623188  0.02091849  0.05219207       0.015
   0.07246377  0.04183698  0.05219207       0.015
   0.10869565  0.06275546  0.05219207       0.015
   0.14492754  0.08367395  0.05219207       0.015
   0.18115942  0.10459244  0.05219207       0.007
   0.03623188  0.06275546  0.05219207       0.015
   0.07246377  0.08367395  0.05219207       0.030
   0.10869565  0.10459244  0.05219207       0.030
   0.14492754  0.12551093  0.05219207       0.030
   0.07246377  0.12551093  0.05219207       0.015
   0.10869565  0.14642942  0.05219207       0.030
   0.14492754  0.16734790  0.05219207       0.015
   0.10869565  0.18826639  0.05219207       0.015
   0.00000000  0.00000000  0.07828810       0.003
   0.03623188  0.02091849  0.07828810       0.015
   0.07246377  0.04183698  0.07828810       0.015
   0.10869565  0.06275546  0.07828810       0.015
   0.14492754  0.08367395  0.07828810       0.015
   0.18115942  0.10459244  0.07828810       0.007
   0.03623188  0.06275546  0.07828810       0.015
   0.07246377  0.08367395  0.07828810       0.030
   0.10869565  0.10459244  0.07828810       0.030
   0.14492754  0.12551093  0.07828810       0.030
   0.07246377  0.12551093  0.07828810       0.015
   0.10869565  0.14642942  0.07828810       0.030
   0.14492754  0.16734790  0.07828810       0.015
   0.10869565  0.18826639  0.07828810       0.015
   0.00000000  0.00000000  0.10438413       0.001
   0.03623188  0.02091849  0.10438413       0.007
   0.07246377  0.04183698  0.10438413       0.007
   0.10869565  0.06275546  0.10438413       0.007
   0.14492754  0.08367395  0.10438413       0.007
   0.18115942  0.10459244  0.10438413       0.004
   0.03623188  0.06275546  0.10438413       0.007
   0.07246377  0.08367395  0.10438413       0.015
   0.10869565  0.10459244  0.10438413       0.015
   0.14492754  0.12551093  0.10438413       0.015
   0.07246377  0.12551093  0.10438413       0.007
   0.10869565  0.14642942  0.10438413       0.015
   0.14492754  0.16734790  0.10438413       0.007
   0.10869565  0.18826639  0.10438413       0.007
 
 k-points in reciprocal lattice and weights: Automatic mesh                          
   0.00000000  0.00000000  0.00000000       0.001
   0.10000000 -0.00000000  0.00000000       0.007
   0.20000000 -0.00000000  0.00000000       0.007
   0.30000000  0.00000000  0.00000000       0.007
   0.40000000 -0.00000000  0.00000000       0.007
   0.50000000 -0.00000000  0.00000000       0.004
   0.10000000  0.10000000  0.00000000       0.007
   0.20000000  0.10000000  0.00000000       0.015
   0.30000000  0.10000000  0.00000000       0.015
   0.40000000  0.10000000  0.00000000       0.015
   0.20000000  0.20000000  0.00000000       0.007
   0.30000000  0.20000000  0.00000000       0.015
   0.40000000  0.20000000  0.00000000       0.007
   0.30000000  0.30000000  0.00000000       0.007
   0.00000000  0.00000000  0.12500000       0.003
   0.10000000 -0.00000000  0.12500000       0.015
   0.20000000 -0.00000000  0.12500000       0.015
   0.30000000  0.00000000  0.12500000       0.015
   0.40000000 -0.00000000  0.12500000       0.015
   0.50000000 -0.00000000  0.12500000       0.007
   0.10000000  0.10000000  0.12500000       0.015
   0.20000000  0.10000000  0.12500000       0.030
   0.30000000  0.10000000  0.12500000       0.030
   0.40000000  0.10000000  0.12500000       0.030
   0.20000000  0.20000000  0.12500000       0.015
   0.30000000  0.20000000  0.12500000       0.030
   0.40000000  0.20000000  0.12500000       0.015
   0.30000000  0.30000000  0.12500000       0.015
   0.00000000  0.00000000  0.25000000       0.003
   0.10000000 -0.00000000  0.25000000       0.015
   0.20000000 -0.00000000  0.25000000       0.015
   0.30000000  0.00000000  0.25000000       0.015
   0.40000000 -0.00000000  0.25000000       0.015
   0.50000000 -0.00000000  0.25000000       0.007
   0.10000000  0.10000000  0.25000000       0.015
   0.20000000  0.10000000  0.25000000       0.030
   0.30000000  0.10000000  0.25000000       0.030
   0.40000000  0.10000000  0.25000000       0.030
   0.20000000  0.20000000  0.25000000       0.015
   0.30000000  0.20000000  0.25000000       0.030
   0.40000000  0.20000000  0.25000000       0.015
   0.30000000  0.30000000  0.25000000       0.015
   0.00000000  0.00000000  0.37500000       0.003
   0.10000000 -0.00000000  0.37500000       0.015
   0.20000000 -0.00000000  0.37500000       0.015
   0.30000000  0.00000000  0.37500000       0.015
   0.40000000 -0.00000000  0.37500000       0.015
   0.50000000 -0.00000000  0.37500000       0.007
   0.10000000  0.10000000  0.37500000       0.015
   0.20000000  0.10000000  0.37500000       0.030
   0.30000000  0.10000000  0.37500000       0.030
   0.40000000  0.10000000  0.37500000       0.030
   0.20000000  0.20000000  0.37500000       0.015
   0.30000000  0.20000000  0.37500000       0.030
   0.40000000  0.20000000  0.37500000       0.015
   0.30000000  0.30000000  0.37500000       0.015
   0.00000000  0.00000000  0.50000000       0.001
   0.10000000 -0.00000000  0.50000000       0.007
   0.20000000 -0.00000000  0.50000000       0.007
   0.30000000  0.00000000  0.50000000       0.007
   0.40000000 -0.00000000  0.50000000       0.007
   0.50000000 -0.00000000  0.50000000       0.004
   0.10000000  0.10000000  0.50000000       0.007
   0.20000000  0.10000000  0.50000000       0.015
   0.30000000  0.10000000  0.50000000       0.015
   0.40000000  0.10000000  0.50000000       0.015
   0.20000000  0.20000000  0.50000000       0.007
   0.30000000  0.20000000  0.50000000       0.015
   0.40000000  0.20000000  0.50000000       0.007
   0.30000000  0.30000000  0.50000000       0.007
 
 position of ions in fractional coordinates (direct lattice) 
   0.00000000  0.00000000  0.00000000
   0.33333333  0.66666667  0.50000000
 
 position of ions in cartesian coordinates  (Angst):
   0.00000000  0.00000000  0.00000000
   0.00000000  1.59348674  2.39500000
 


--------------------------------------------------------------------------------------------------------


 k-point   1 :   0.0000 0.0000 0.0000  plane waves:     725
 k-point   2 :   0.1000-0.0000 0.0000  plane waves:     729
 k-point   3 :   0.2000-0.0000 0.0000  plane waves:     739
 k-point   4 :   0.3000 0.0000 0.0000  plane waves:     746
 k-point   5 :   0.4000-0.0000 0.0000  plane waves:     748
 k-point   6 :   0.5000-0.0000 0.0000  plane waves:     740
 k-point   7 :   0.1000 0.1000 0.0000  plane waves:     729
 k-point   8 :   0.2000 0.1000 0.0000  plane waves:     742
 k-point   9 :   0.3000 0.1000 0.0000  plane waves:     745
 k-point  10 :   0.4000 0.1000 0.0000  plane waves:     747
 k-point  11 :   0.2000 0.2000 0.0000  plane waves:     743
 k-point  12 :   0.3000 0.2000 0.0000  plane waves:     753
 k-point  13 :   0.4000 0.2000 0.0000  plane waves:     745
 k-point  14 :   0.3000 0.3000 0.0000  plane waves:     743
 k-point  15 :   0.0000 0.0000 0.1250  plane waves:     725
 k-point  16 :   0.1000-0.0000 0.1250  plane waves:     731
 k-point  17 :   0.2000-0.0000 0.1250  plane waves:     745
 k-point  18 :   0.3000 0.0000 0.1250  plane waves:     743
 k-point  19 :   0.4000-0.0000 0.1250  plane waves:     742
 k-point  20 :   0.5000-0.0000 0.1250  plane waves:     744
 k-point  21 :   0.1000 0.1000 0.1250  plane waves:     732
 k-point  22 :   0.2000 0.1000 0.1250  plane waves:     742
 k-point  23 :   0.3000 0.1000 0.1250  plane waves:     739
 k-point  24 :   0.4000 0.1000 0.1250  plane waves:     746
 k-point  25 :   0.2000 0.2000 0.1250  plane waves:     744
 k-point  26 :   0.3000 0.2000 0.1250  plane waves:     750
 k-point  27 :   0.4000 0.2000 0.1250  plane waves:     752
 k-point  28 :   0.3000 0.3000 0.1250  plane waves:     758
 k-point  29 :   0.0000 0.0000 0.2500  plane waves:     737
 k-point  30 :   0.1000-0.0000 0.2500  plane waves:     731
 k-point  31 :   0.2000-0.0000 0.2500  plane waves:     745
 k-point  32 :   0.3000 0.0000 0.2500  plane waves:     736
 k-point  33 :   0.4000-0.0000 0.2500  plane waves:     742
 k-point  34 :   0.5000-0.0000 0.2500  plane waves:     750
 k-point  35 :   0.1000 0.1000 0.2500  plane waves:     738
 k-point  36 :   0.2000 0.1000 0.2500  plane waves:     737
 k-point  37 :   0.3000 0.1000 0.2500  plane waves:     741
 k-point  38 :   0.4000 0.1000 0.2500  plane waves:     746
 k-point  39 :   0.2000 0.2000 0.2500  plane waves:     738
 k-point  40 :   0.3000 0.2000 0.2500  plane waves:     749
 k-point  41 :   0.4000 0.2000 0.2500  plane waves:     750
 k-point  42 :   0.3000 0.3000 0.2500  plane waves:     757
 k-point  43 :   0.0000 0.0000 0.3750  plane waves:     743
 k-point  44 :   0.1000-0.0000 0.3750  plane waves:     735
 k-point  45 :   0.2000-0.0000 0.3750  plane waves:     737
 k-point  46 :   0.3000 0.0000 0.3750  plane waves:     737
 k-point  47 :   0.4000-0.0000 0.3750  plane waves:     747
 k-point  48 :   0.5000-0.0000 0.3750  plane waves:     742
 k-point  49 :   0.1000 0.1000 0.3750  plane waves:     736
 k-point  50 :   0.2000 0.1000 0.3750  plane waves:     736
 k-point  51 :   0.3000 0.1000 0.3750  plane waves:     737
 k-point  52 :   0.4000 0.1000 0.3750  plane waves:     744
 k-point  53 :   0.2000 0.2000 0.3750  plane waves:     738
 k-point  54 :   0.3000 0.2000 0.3750  plane waves:     747
 k-point  55 :   0.4000 0.2000 0.3750  plane waves:     752
 k-point  56 :   0.3000 0.3000 0.3750  plane waves:     757
 k-point  57 :   0.0000 0.0000 0.5000  plane waves:     738
 k-point  58 :   0.1000-0.0000 0.5000  plane waves:     742
 k-point  59 :   0.2000-0.0000 0.5000  plane waves:     738
 k-point  60 :   0.3000 0.0000 0.5000  plane waves:     742
 k-point  61 :   0.4000-0.0000 0.5000  plane waves:     744
 k-point  62 :   0.5000-0.0000 0.5000  plane waves:     732
 k-point  63 :   0.1000 0.1000 0.5000  plane waves:     740
 k-point  64 :   0.2000 0.1000 0.5000  plane waves:     736
 k-point  65 :   0.3000 0.1000 0.5000  plane waves:     732
 k-point  66 :   0.4000 0.1000 0.5000  plane waves:     744
 k-point  67 :   0.2000 0.2000 0.5000  plane waves:     734
 k-point  68 :   0.3000 0.2000 0.5000  plane waves:     742
 k-point  69 :   0.4000 0.2000 0.5000  plane waves:     750
 k-point  70 :   0.3000 0.3000 0.5000  plane waves:     752

 maximum and minimum number of plane-waves per node :       758      725

 maximum number of plane-waves:       758
 maximum index in each direction: 
   IXMAX=    4   IYMAX=    4   IZMAX=    8
   IXMIN=   -5   IYMIN=   -5   IZMIN=   -9


 serial   3D FFT for wavefunctions
 parallel 3D FFT for charge:
    minimum data exchange during FFTs selected (reduces bandwidth)


 total amount of memory used by VASP MPI-rank0    39828. kBytes
=======================================================================

   base      :      30000. kBytes
   nonl-proj :       7766. kBytes
   fftplans  :        254. kBytes
   grid      :        864. kBytes
   one-center:         31. kBytes
   wavefun   :        913. kBytes
 
     INWAV:  cpu time      0.0000: real time      0.0001
 Broyden mixing: mesh for mixing (old mesh)
   NGX =  9   NGY =  9   NGZ = 17
  (NGX  = 40   NGY  = 40   NGZ  = 72)
  gives a total of   1377 points

 initial charge density was supplied:
 charge density of overlapping atoms calculated
 number of electron      32.0000000 magnetization 
 keeping initial charge density in first step


--------------------------------------------------------------------------------------------------------


 Maximum index for augmentation-charges          730 (set IRDMAX)


--------------------------------------------------------------------------------------------------------


 First call to EWALD:  gamma=   0.561
 Maximum number of real-space cells 3x 3x 2
 Maximum number of reciprocal cells 2x 2x 4

    FEWALD:  cpu time      0.0015: real time      0.0015


--------------------------------------- Iteration      1(   1)  ---------------------------------------


    POTLOK:  cpu time      0.0038: real time      0.0038
    SETDIJ:  cpu time      0.0023: real time      0.0023
     EDDAV:  cpu time      0.3166: real time      0.3183
       DOS:  cpu time      0.0005: real time      0.0005
    --------------------------------------------
      LOOP:  cpu time      0.3232: real time      0.3250

 eigenvalue-minimisations  :  3360
 total energy-change (2. order) : 0.1509058E+03  (-0.2368866E+04)
 number of electron      32.0000000 magnetization 
 augmentation part       32.0000000 magnetization 

 Free energy of the ion-electron system (eV)
  ---------------------------------------------------
  alpha Z        PSCENC =       303.71314961
  Ewald energy   TEWEN  =     -4240.69024974
  -Hartree energ DENC   =      -819.48907223
  -exchange      EXHF   =         0.00000000
  -V(xc)+E(xc)   XCENC  =       127.32804754
  PAW double counting   =      4131.50523274    -4061.67189606
  entropy T*S    EENTRO =        -0.00211427
  eigenvalues    EBANDS =      -146.24340121
  atomic energy  EATOM  =      4856.45612297
  Solvation  Ediel_sol  =         0.00000000
  ---------------------------------------------------
  free energy    TOTEN  =       150.90581936 eV

  energy without entropy =      150.90793362  energy(sigma->0) =      150.90687649


--------------------------------------------------------------------------------------------------------




--------------------------------------- Iteration      1(   2)  ---------------------------------------


     EDDAV:  cpu time      0.3456: real time      0.3480
       DOS:  cpu time      0.0004: real time      0.0004
    --------------------------------------------
      LOOP:  cpu time      0.3459: real time      0.3483

 eigenvalue-minimisations  :  3576
 total energy-change (2. order) :-0.1621837E+03  (-0.1615178E+03)
 number of electron      32.0000000 magnetization 
 augmentation part       32.0000000 magnetization 

 Free energy of the ion-electron system (eV)
  ---------------------------------------------------
  alpha Z        PSCENC =       303.71314961
  Ewald energy   TEWEN  =     -4240.69024974
  -Hartree energ DENC   =      -819.48907223
  -exchange      EXHF   =         0.00000000
  -V(xc)+E(xc)   XCENC  =       127.32804754
  PAW double counting   =      4131.50523274    -4061.67189606
  entropy T*S    EENTRO =        -0.00532374
  eigenvalues    EBANDS =      -308.42389153
  atomic energy  EATOM  =      4856.45612297
  Solvation  Ediel_sol  =         0.00000000
  ---------------------------------------------------
  free energy    TOTEN  =       -11.27788044 eV

  energy without entropy =      -11.27255669  energy(sigma->0) =      -11.27521857


--------------------------------------------------------------------------------------------------------




--------------------------------------- Iteration      1(   3)  ---------------------------------------


     EDDAV:  cpu time      0.4894: real time      0.4920
       DOS:  cpu time      0.0004: real time      0.0004
    --------------------------------------------
      LOOP:  cpu time      0.4898: real time      0.4924

 eigenvalue-minimisations  :  4392
 total energy-change (2. order) :-0.1465594E+01  (-0.1453823E+01)
 number of electron      32.0000000 magnetization 
 augmentation part       32.0000000 magnetization 

 Free energy of the ion-electron system (eV)
  ---------------------------------------------------
  alpha Z        PSCENC =       303.71314961
  Ewald energy   TEWEN  =     -4240.69024974
  -Hartree energ DENC   =      -819.48907223
  -exchange      EXHF   =         0.00000000
  -V(xc)+E(xc)   XCENC  =       127.32804754
  PAW double counting   =      4131.50523274    -4061.67189606
  entropy T*S    EENTRO =        -0.00442924
  eigenvalues    EBANDS =      -309.89037970
  atomic energy  EATOM  =      4856.45612297
  Solvation  Ediel_sol  =         0.00000000
  ---------------------------------------------------
  free energy    TOTEN  =       -12.74347411 eV

  energy without entropy =      -12.73904486  energy(sigma->0) =      -12.74125949


--------------------------------------------------------------------------------------------------------




--------------------------------------- Iteration      1(   4)  ---------------------------------------


     EDDAV:  cpu time      0.6087: real time      0.6116
       DOS:  cpu time      0.0004: real time      0.0004
    --------------------------------------------
      LOOP:  cpu time      0.6091: real time      0.6120

 eigenvalue-minimisations  :  5040
 total energy-change (2. order) :-0.5048353E-02  (-0.5048140E-02)
 number of electron      32.0000000 magnetization 
 augmentation part       32.0000000 magnetization 

 Free energy of the ion-electron system (eV)
  ---------------------------------------------------
  alpha Z        PSCENC =       303.71314961
  Ewald energy   TEWEN  =     -4240.69024974
  -Hartree energ DENC   =      -819.48907223
  -exchange      EXHF   =         0.00000000
  -V(xc)+E(xc)   XCENC  =       127.32804754
  PAW double counting   =      4131.50523274    -4061.67189606
  entropy T*S    EENTRO =        -0.00441769
  eigenvalues    EBANDS =      -309.89543961
  atomic energy  EATOM  =      4856.45612297
  Solvation  Ediel_sol  =         0.00000000
  ---------------------------------------------------
  free energy    TOTEN  =       -12.74852246 eV

  energy without entropy =      -12.74410477  energy(sigma->0) =      -12.74631362


--------------------------------------------------------------------------------------------------------




--------------------------------------- Iteration      1(   5)  ---------------------------------------


     EDDAV:  cpu time      0.5154: real time      0.5200
       DOS:  cpu time      0.0004: real time      0.0004
    CHARGE:  cpu time      0.0239: real time      0.0240
    MIXING:  cpu time      0.0003: real time      0.0003
    --------------------------------------------
      LOOP:  cpu time      0.5400: real time      0.5446

 eigenvalue-minimisations  :  4512
 total energy-change (2. order) :-0.1540781E-05  (-0.1540944E-05)
 number of electron      31.9999996 magnetization 
 augmentation part        7.9541572 magnetization 

 Broyden mixing:
  rms(total) = 0.19704E+01    rms(broyden)= 0.19702E+01
  rms(prec ) = 0.21887E+01
  weight for this iteration     100.00

 Free energy of the ion-electron system (eV)
  ---------------------------------------------------
  alpha Z        PSCENC =       303.71314961
  Ewald energy   TEWEN  =     -4240.69024974
  -Hartree energ DENC   =      -819.48907223
  -exchange      EXHF   =         0.00000000
  -V(xc)+E(xc)   XCENC  =       127.32804754
  PAW double counting   =      4131.50523274    -4061.67189606
  entropy T*S    EENTRO =        -0.00441765
  eigenvalues    EBANDS =      -309.89544119
  atomic energy  EATOM  =      4856.45612297
  Solvation  Ediel_sol  =         0.00000000
  ---------------------------------------------------
  free energy    TOTEN  =       -12.74852400 eV

  energy without entropy =      -12.74410635  energy(sigma->0) =      -12.74631517


--------------------------------------------------------------------------------------------------------




--------------------------------------- Iteration      1(   6)  ---------------------------------------


    POTLOK:  cpu time      0.0035: real time      0.0037
    SETDIJ:  cpu time      0.0021: real time      0.0021
     EDDAV:  cpu time      0.3377: real time      0.3393
       DOS:  cpu time      0.0004: real time      0.0004
    CHARGE:  cpu time      0.0234: real time      0.0235
    MIXING:  cpu time      0.0003: real time      0.0003
    --------------------------------------------
      LOOP:  cpu time      0.3674: real time      0.3693

 eigenvalue-minimisations  :  3528
 total energy-change (2. order) : 0.6746173E+00  (-0.2652407E+00)
 number of electron      31.9999996 magnetization 
 augmentation part        8.1873164 magnetization 

 Broyden mixing:
  rms(total) = 0.59755E+00    rms(broyden)= 0.59754E+00
  rms(prec ) = 0.63683E+00
  weight for this iteration     100.00

 eigenvalues of (default mixing * dielectric matrix)
  average eigenvalue GAMMA=   1.4074
  1.4074

 Free energy of the ion-electron system (eV)
  ---------------------------------------------------
  alpha Z        PSCENC =       303.71314961
  Ewald energy   TEWEN  =     -4240.69024974
  -Hartree energ DENC   =      -788.32949029
  -exchange      EXHF   =         0.00000000
  -V(xc)+E(xc)   XCENC  =       125.99439339
  PAW double counting   =      4438.80864618    -4373.00639815
  entropy T*S    EENTRO =        -0.00447189
  eigenvalues    EBANDS =      -335.01560883
  atomic energy  EATOM  =      4856.45612297
  Solvation  Ediel_sol  =         0.00000000
  ---------------------------------------------------
  free energy    TOTEN  =       -12.07390674 eV

  energy without entropy =      -12.06943485  energy(sigma->0) =      -12.07167080


--------------------------------------------------------------------------------------------------------




--------------------------------------- Iteration      1(   7)  ---------------------------------------


    POTLOK:  cpu time      0.0034: real time      0.0036
    SETDIJ:  cpu time      0.0020: real time      0.0020
     EDDAV:  cpu time      0.5182: real time      0.5207
       DOS:  cpu time      0.0004: real time      0.0004
    CHARGE:  cpu time      0.0225: real time      0.0226
    MIXING:  cpu time      0.0003: real time      0.0003
    --------------------------------------------
      LOOP:  cpu time      0.5469: real time      0.5496

 eigenvalue-minimisations  :  4704
 total energy-change (2. order) : 0.3234782E-01  (-0.1449031E-01)
 number of electron      31.9999996 magnetization 
 augmentation part        8.2368774 magnetization 

 Broyden mixing:
  rms(total) = 0.18449E+00    rms(broyden)= 0.18449E+00
  rms(prec ) = 0.19612E+00
  weight for this iteration     100.00

 eigenvalues of (default mixing * dielectric matrix)
  average eigenvalue GAMMA=   1.9248
  1.1656  2.6840

 Free energy of the ion-electron system (eV)
  ---------------------------------------------------
  alpha Z        PSCENC =       303.71314961
  Ewald energy   TEWEN  =     -4240.69024974
  -Hartree energ DENC   =      -780.74055369
  -exchange      EXHF   =         0.00000000
  -V(xc)+E(xc)   XCENC  =       125.64931061
  PAW double counting   =      4560.65230695    -4495.87042585
  entropy T*S    EENTRO =        -0.00469762
  eigenvalues    EBANDS =      -341.20652217
  atomic energy  EATOM  =      4856.45612297
  Solvation  Ediel_sol  =         0.00000000
  ---------------------------------------------------
  free energy    TOTEN  =       -12.04155893 eV

  energy without entropy =      -12.03686131  energy(sigma->0) =      -12.03921012


--------------------------------------------------------------------------------------------------------




--------------------------------------- Iteration      1(   8)  ---------------------------------------


    POTLOK:  cpu time      0.0034: real time      0.0036
    SETDIJ:  cpu time      0.0019: real time      0.0019
     EDDAV:  cpu time      0.3454: real time      0.3470
       DOS:  cpu time      0.0004: real time      0.0004
    CHARGE:  cpu time      0.0226: real time      0.0226
    MIXING:  cpu time      0.0003: real time      0.0003
    --------------------------------------------
      LOOP:  cpu time      0.3738: real time      0.3758

 eigenvalue-minimisations  :  3600
 total energy-change (2. order) : 0.2105347E-02  (-0.7232914E-03)
 number of electron      31.9999996 magnetization 
 augmentation part        8.2299339 magnetization 

 Broyden mixing:
  rms(total) = 0.25892E-01    rms(broyden)= 0.25880E-01
  rms(prec ) = 0.27910E-01
  weight for this iteration     100.00

 eigenvalues of (default mixing * dielectric matrix)
  average eigenvalue GAMMA=   1.5834
  1.0876  1.2517  2.4108

 Free energy of the ion-electron system (eV)
  ---------------------------------------------------
  alpha Z        PSCENC =       303.71314961
  Ewald energy   TEWEN  =     -4240.69024974
  -Hartree energ DENC   =      -780.48996628
  -exchange      EXHF   =         0.00000000
  -V(xc)+E(xc)   XCENC  =       125.61345386
  PAW double counting   =      4632.73990447    -4567.99313675
  entropy T*S    EENTRO =        -0.00474914
  eigenvalues    EBANDS =      -341.38398259
  atomic energy  EATOM  =      4856.45612297
  Solvation  Ediel_sol  =         0.00000000
  ---------------------------------------------------
  free energy    TOTEN  =       -12.03945358 eV

  energy without entropy =      -12.03470443  energy(sigma->0) =      -12.03707901


--------------------------------------------------------------------------------------------------------




--------------------------------------- Iteration      1(   9)  ---------------------------------------


    POTLOK:  cpu time      0.0032: real time      0.0034
    SETDIJ:  cpu time      0.0019: real time      0.0019
     EDDAV:  cpu time      0.5265: real time      0.5290
       DOS:  cpu time      0.0004: real time      0.0004
    CHARGE:  cpu time      0.0233: real time      0.0234
    MIXING:  cpu time      0.0003: real time      0.0003
    --------------------------------------------
      LOOP:  cpu time      0.5556: real time      0.5584

 eigenvalue-minimisations  :  4560
 total energy-change (2. order) : 0.1727610E-03  (-0.2404789E-04)
 number of electron      31.9999996 magnetization 
 augmentation part        8.2290969 magnetization 

 Broyden mixing:
  rms(total) = 0.29661E-02    rms(broyden)= 0.29645E-02
  rms(prec ) = 0.35785E-02
  weight for this iteration     100.00

 eigenvalues of (default mixing * dielectric matrix)
  average eigenvalue GAMMA=   1.6745
  2.5354  1.0339  1.1968  1.9319

 Free energy of the ion-electron system (eV)
  ---------------------------------------------------
  alpha Z        PSCENC =       303.71314961
  Ewald energy   TEWEN  =     -4240.69024974
  -Hartree energ DENC   =      -780.77491764
  -exchange      EXHF   =         0.00000000
  -V(xc)+E(xc)   XCENC  =       125.62771811
  PAW double counting   =      4625.49162939    -4560.67200594
  entropy T*S    EENTRO =        -0.00472370
  eigenvalues    EBANDS =      -341.18600388
  atomic energy  EATOM  =      4856.45612297
  Solvation  Ediel_sol  =         0.00000000
  ---------------------------------------------------
  free energy    TOTEN  =       -12.03928082 eV

  energy without entropy =      -12.03455712  energy(sigma->0) =      -12.03691897


--------------------------------------------------------------------------------------------------------




--------------------------------------- Iteration      1(  10)  ---------------------------------------


    POTLOK:  cpu time      0.0034: real time      0.0036
    SETDIJ:  cpu time      0.0020: real time      0.0020
     EDDAV:  cpu time      0.4228: real time      0.4248
       DOS:  cpu time      0.0004: real time      0.0004
    CHARGE:  cpu time      0.0226: real time      0.0227
    MIXING:  cpu time      0.0003: real time      0.0003
    --------------------------------------------
      LOOP:  cpu time      0.4516: real time      0.4539

 eigenvalue-minimisations  :  4032
 total energy-change (2. order) :-0.1449941E-04  (-0.1100997E-05)
 number of electron      31.9999996 magnetization 
 augmentation part        8.2292601 magnetization 

 Broyden mixing:
  rms(total) = 0.11235E-02    rms(broyden)= 0.11231E-02
  rms(prec ) = 0.12866E-02
  weight for this iteration     100.00

 eigenvalues of (default mixing * dielectric matrix)
  average eigenvalue GAMMA=   1.7221
  2.6503  2.2750  0.9893  1.1944  1.5017

 Free energy of the ion-electron system (eV)
  ---------------------------------------------------
  alpha Z        PSCENC =       303.71314961
  Ewald energy   TEWEN  =     -4240.69024974
  -Hartree energ DENC   =      -780.78993838
  -exchange      EXHF   =         0.00000000
  -V(xc)+E(xc)   XCENC  =       125.62799132
  PAW double counting   =      4628.19708978    -4563.34422359
  entropy T*S    EENTRO =        -0.00471976
  eigenvalues    EBANDS =      -341.20451752
  atomic energy  EATOM  =      4856.45612297
  Solvation  Ediel_sol  =         0.00000000
  ---------------------------------------------------
  free energy    TOTEN  =       -12.03929532 eV

  energy without entropy =      -12.03457555  energy(sigma->0) =      -12.03693544


--------------------------------------------------------------------------------------------------------




--------------------------------------- Iteration      1(  11)  ---------------------------------------


    POTLOK:  cpu time      0.0033: real time      0.0035
    SETDIJ:  cpu time      0.0020: real time      0.0020
     EDDAV:  cpu time      0.3848: real time      0.3867
       DOS:  cpu time      0.0004: real time      0.0004
    --------------------------------------------
      LOOP:  cpu time      0.3905: real time      0.3926

 eigenvalue-minimisations  :  3720
 total energy-change (2. order) : 0.4536969E-06  (-0.1194861E-06)
 number of electron      31.9999996 magnetization 
 augmentation part        8.2292601 magnetization 

 Free energy of the ion-electron system (eV)
  ---------------------------------------------------
  alpha Z        PSCENC =       303.71314961
  Ewald energy   TEWEN  =     -4240.69024974
  -Hartree energ DENC   =      -780.80507468
  -exchange      EXHF   =         0.00000000
  -V(xc)+E(xc)   XCENC  =       125.62860707
  PAW double counting   =      4628.60168139    -4563.73357832
  entropy T*S    EENTRO =        -0.00472049
  eigenvalues    EBANDS =      -341.20523267
  atomic energy  EATOM  =      4856.45612297
  Solvation  Ediel_sol  =         0.00000000
  ---------------------------------------------------
  free energy    TOTEN  =       -12.03929486 eV

  energy without entropy =      -12.03457437  energy(sigma->0) =      -12.03693462


--------------------------------------------------------------------------------------------------------




 average (electrostatic) potential at core
  the test charge radii are     0.9952
  (the norm of the test charge is              1.0000)
       1 -89.4870       2 -89.4870
 
 
 
 E-fermi :  11.1231     XC(G=0): -13.6991     alpha+bet :-16.6031

 Fermi energy:        11.1231227822

 k-point     1 :       0.0000    0.0000    0.0000
  band No.  band energies     occupation 
      1     -41.4752      2.00000
      2     -41.3069      2.00000
      3     -41.3069      2.00000
      4     -41.2671      2.00000
      5     -41.2671      2.00000
      6     -41.1471      2.00000
      7       1.4211      2.00000
      8       4.0669      2.00000
      9       7.2027      2.00000
     10       7.7101      2.00000
     11       7.7101      2.00000
     12       8.0747      2.00000
     13       8.0747      2.00000
     14       9.3440      2.00000
     15       9.3440      2.00000
     16      10.4198      2.00000
     17      10.9205      2.00000
     18      10.9205      2.00000
     19      15.8078      0.00000
     20      26.2265      0.00000
     21      26.8063      0.00000
     22      28.3757      0.00000
     23      32.1693      0.00000
     24      32.1693      0.00000

 k-point     2 :       0.1000   -0.0000    0.0000
  band No.  band energies     occupation 
      1     -41.4636      2.00000
      2     -41.3433      2.00000
      3     -41.3175      2.00000
      4     -41.3041      2.00000
      5     -41.2746      2.00000
      6     -41.1495      2.00000
      7       1.7824      2.00000
      8       4.3944      2.00000
      9       7.1397      2.00000
     10       7.7165      2.00000
     11       7.9258      2.00000
     12       7.9856      2.00000
     13       8.3369      2.00000
     14       8.7593      2.00000
     15       9.1741      2.00000
     16       9.3187      2.00000
     17      10.9824      1.99993
     18      12.6779      0.00000
     19      15.7718      0.00000
     20      26.6591      0.00000
     21      27.3347      0.00000
     22      28.7036      0.00000
     23      30.5438      0.00000
     24      30.6627      0.00000

 k-point     3 :       0.2000   -0.0000    0.0000
  band No.  band energies     occupation 
      1     -41.4381      2.00000
      2     -41.4312      2.00000
      3     -41.4000      2.00000
      4     -41.3445      2.00000
      5     -41.2946      2.00000
      6     -41.1582      2.00000
      7       2.7674      2.00000
      8       5.1149      2.00000
      9       6.9153      2.00000
     10       7.3982      2.00000
     11       7.4346      2.00000
     12       8.3353      2.00000
     13       8.7663      2.00000
     14       8.7965      2.00000
     15       8.8061      2.00000
     16       9.0734      2.00000
     17      11.0811      1.76581
     18      14.8475      0.00000
     19      15.7041      0.00000
     20      25.1581      0.00000
     21      27.9563      0.00000
     22      28.2353      0.00000
     23      29.1105      0.00000
     24      29.3100      0.00000

 k-point     4 :       0.3000    0.0000    0.0000
  band No.  band energies     occupation 
      1     -41.5550      2.00000
      2     -41.5157      2.00000
      3     -41.3858      2.00000
      4     -41.3771      2.00000
      5     -41.3197      2.00000
      6     -41.1744      2.00000
      7       3.9721      2.00000
      8       5.2405      2.00000
      9       6.3454      2.00000
     10       7.1775      2.00000
     11       7.5354      2.00000
     12       8.2949      2.00000
     13       8.4070      2.00000
     14       9.4835      2.00000
     15       9.8875      2.00000
     16      10.1171      2.00000
     17      11.1338      0.76168
     18      15.8270      0.00000
     19      17.0566      0.00000
     20      21.4354      0.00000
     21      25.8537      0.00000
     22      26.4001      0.00000
     23      27.9940      0.00000
     24      29.1005      0.00000

 k-point     5 :       0.4000   -0.0000    0.0000
  band No.  band energies     occupation 
      1     -41.6492      2.00000
      2     -41.6071      2.00000
      3     -41.4031      2.00000
      4     -41.3402      2.00000
      5     -41.3399      2.00000
      6     -41.1967      2.00000
      7       4.6309      2.00000
      8       4.9270      2.00000
      9       5.6941      2.00000
     10       7.6950      2.00000
     11       7.9210      2.00000
     12       8.1297      2.00000
     13       8.3470      2.00000
     14      10.9684      1.99999
     15      11.1442      0.55026
     16      11.1450      0.53577
     17      11.3536      0.00000
     18      16.6326      0.00000
     19      17.7993      0.00000
     20      19.0203      0.00000
     21      23.5347      0.00000
     22      23.9460      0.00000
     23      25.0471      0.00000
     24      27.8251      0.00000

 k-point     6 :       0.5000   -0.0000    0.0000
  band No.  band energies     occupation 
      1     -41.6851      2.00000
      2     -41.6418      2.00000
      3     -41.4125      2.00000
      4     -41.3480      2.00000
      5     -41.3166      2.00000
      6     -41.2104      2.00000
      7       4.7219      2.00000
      8       4.7987      2.00000
      9       5.4739      2.00000
     10       7.7857      2.00000
     11       8.0305      2.00000
     12       8.2161      2.00000
     13       8.5517      2.00000
     14      11.1444      0.54805
     15      11.4233      0.00000
     16      11.6235      0.00000
     17      13.3985      0.00000
     18      14.8734      0.00000
     19      18.3937      0.00000
     20      19.9690      0.00000
     21      20.6320      0.00000
     22      23.1668      0.00000
     23      24.4008      0.00000
     24      27.2512      0.00000

 k-point     7 :       0.1000    0.1000    0.0000
  band No.  band energies     occupation 
      1     -41.4415      2.00000
      2     -41.4024      2.00000
      3     -41.3771      2.00000
      4     -41.3307      2.00000
      5     -41.2932      2.00000
      6     -41.1552      2.00000
      7       2.4640      2.00000
      8       4.9665      2.00000
      9       6.8745      2.00000
     10       7.6311      2.00000
     11       7.7998      2.00000
     12       7.9346      2.00000
     13       8.5687      2.00000
     14       8.5926      2.00000
     15       8.9236      2.00000
     16       9.2339      2.00000
     17      11.0029      1.99933
     18      14.2751      0.00000
     19      15.7220      0.00000
     20      26.5770      0.00000
     21      27.1848      0.00000
     22      28.2402      0.00000
     23      29.2631      0.00000
     24      30.0097      0.00000

 k-point     8 :       0.2000    0.1000    0.0000
  band No.  band energies     occupation 
      1     -41.5006      2.00000
      2     -41.4753      2.00000
      3     -41.4025      2.00000
      4     -41.3684      2.00000
      5     -41.3233      2.00000
      6     -41.1679      2.00000
      7       3.6333      2.00000
      8       5.5783      2.00000
      9       6.6984      2.00000
     10       6.7545      2.00000
     11       7.3599      2.00000
     12       8.0979      2.00000
     13       8.5447      2.00000
     14       8.8679      2.00000
     15       9.6238      2.00000
     16      10.0245      2.00000
     17      11.0026      1.99935
     18      15.7696      0.00000
     19      16.3581      0.00000
     20      23.3366      0.00000
     21      25.2430      0.00000
     22      27.3943      0.00000
     23      29.2915      0.00000
     24      29.9400      0.00000

 k-point     9 :       0.3000    0.1000    0.0000
  band No.  band energies     occupation 
      1     -41.6024      2.00000
      2     -41.5672      2.00000
      3     -41.4073      2.00000
      4     -41.3558      2.00000
      5     -41.3518      2.00000
      6     -41.1881      2.00000
      7       4.6892      2.00000
      8       5.3400      2.00000
      9       5.9842      2.00000
     10       7.1935      2.00000
     11       7.8006      2.00000
     12       7.8104      2.00000
     13       8.3793      2.00000
     14       9.6422      2.00000
     15      10.7040      2.00000
     16      10.9887      1.99986
     17      11.4470      0.00000
     18      16.3659      0.00000
     19      18.4869      0.00000
     20      19.5112      0.00000
     21      23.1359      0.00000
     22      25.9367      0.00000
     23      26.2412      0.00000
     24      28.2416      0.00000

 k-point    10 :       0.4000    0.1000    0.0000
  band No.  band energies     occupation 
      1     -41.6653      2.00000
      2     -41.6232      2.00000
      3     -41.4313      2.00000
      4     -41.3693      2.00000
      5     -41.3171      2.00000
      6     -41.2101      2.00000
      7       4.9951      2.00000
      8       5.0847      2.00000
      9       5.5839      2.00000
     10       7.7430      2.00000
     11       7.9807      2.00000
     12       7.9813      2.00000
     13       8.3102      2.00000
     14      10.8751      2.00000
     15      10.9709      1.99998
     16      11.2556      0.00018
     17      13.1496      0.00000
     18      16.1030      0.00000
     19      18.0509      0.00000
     20      20.1538      0.00000
     21      20.9292      0.00000
     22      23.2745      0.00000
     23      24.8687      0.00000
     24      27.1727      0.00000

 k-point    11 :       0.2000    0.2000    0.0000
  band No.  band energies     occupation 
      1     -41.5584      2.00000
      2     -41.5574      2.00000
      3     -41.4130      2.00000
      4     -41.3732      2.00000
      5     -41.3615      2.00000
      6     -41.1852      2.00000
      7       4.8432      2.00000
      8       6.1835      2.00000
      9       6.1865      2.00000
     10       6.2479      2.00000
     11       7.5741      2.00000
     12       7.6116      2.00000
     13       8.5709      2.00000
     14       8.9046      2.00000
     15      10.6882      2.00000
     16      10.8209      2.00000
     17      11.5286      0.00000
     18      16.3414      0.00000
     19      18.3637      0.00000
     20      20.9650      0.00000
     21      21.8790      0.00000
     22      26.6868      0.00000
     23      27.8875      0.00000
     24      28.3813      0.00000

 k-point    12 :       0.3000    0.2000    0.0000
  band No.  band energies     occupation 
      1     -41.6198      2.00000
      2     -41.5912      2.00000
      3     -41.4641      2.00000
      4     -41.4165      2.00000
      5     -41.3178      2.00000
      6     -41.2094      2.00000
      7       5.6249      2.00000
      8       5.8043      2.00000
      9       5.8373      2.00000
     10       6.9831      2.00000
     11       7.4662      2.00000
     12       8.0848      2.00000
     13       8.1232      2.00000
     14       9.6952      2.00000
     15      10.6823      2.00000
     16      11.1232      0.99907
     17      13.2024      0.00000
     18      17.3632      0.00000
     19      18.2849      0.00000
     20      19.9239      0.00000
     21      20.4461      0.00000
     22      24.8502      0.00000
     23      25.8999      0.00000
     24      26.8912      0.00000

 k-point    13 :       0.4000    0.2000    0.0000
  band No.  band energies     occupation 
      1     -41.6421      2.00000
      2     -41.5997      2.00000
      3     -41.4887      2.00000
      4     -41.4326      2.00000
      5     -41.2928      2.00000
      6     -41.2268      2.00000
      7       5.6701      2.00000
      8       5.6858      2.00000
      9       5.7404      2.00000
     10       7.5569      2.00000
     11       7.6063      2.00000
     12       7.7064      2.00000
     13       8.3902      2.00000
     14      10.4558      2.00000
     15      10.6318      2.00000
     16      10.9291      2.00000
     17      14.7979      0.00000
     18      15.3135      0.00000
     19      18.6245      0.00000
     20      20.1865      0.00000
     21      21.6551      0.00000
     22      22.6820      0.00000
     23      25.0986      0.00000
     24      26.3904      0.00000

 k-point    14 :       0.3000    0.3000    0.0000
  band No.  band energies     occupation 
      1     -41.6061      2.00000
      2     -41.5737      2.00000
      3     -41.5267      2.00000
      4     -41.4853      2.00000
      5     -41.2789      2.00000
      6     -41.2376      2.00000
      7       5.7646      2.00000
      8       6.1754      2.00000
      9       6.4304      2.00000
     10       6.8667      2.00000
     11       7.4181      2.00000
     12       7.6850      2.00000
     13       8.4785      2.00000
     14      10.0549      2.00000
     15      10.4649      2.00000
     16      10.7685      2.00000
     17      14.8095      0.00000
     18      16.0776      0.00000
     19      17.4997      0.00000
     20      21.0172      0.00000
     21      22.5793      0.00000
     22      23.8027      0.00000
     23      24.6191      0.00000
     24      25.0027      0.00000

 k-point    15 :       0.0000    0.0000    0.1250
  band No.  band energies     occupation 
      1     -41.4631      2.00000
      2     -41.3056      2.00000
      3     -41.3056      2.00000
      4     -41.2685      2.00000
      5     -41.2685      2.00000
      6     -41.1595      2.00000
      7       1.5546      2.00000
      8       4.0470      2.00000
      9       7.1699      2.00000
     10       7.6910      2.00000
     11       7.6910      2.00000
     12       8.0364      2.00000
     13       8.0364      2.00000
     14       9.4414      2.00000
     15       9.4414      2.00000
     16       9.8047      2.00000
     17      10.8929      2.00000
     18      10.8929      2.00000
     19      16.6726      0.00000
     20      25.7654      0.00000
     21      27.3141      0.00000
     22      28.0921      0.00000
     23      31.6190      0.00000
     24      31.6190      0.00000

 k-point    16 :       0.1000   -0.0000    0.1250
  band No.  band energies     occupation 
      1     -41.4528      2.00000
      2     -41.3410      2.00000
      3     -41.3160      2.00000
      4     -41.3063      2.00000
      5     -41.2762      2.00000
      6     -41.1609      2.00000
      7       1.9133      2.00000
      8       4.3809      2.00000
      9       7.1423      2.00000
     10       7.6317      2.00000
     11       7.8242      2.00000
     12       7.9578      2.00000
     13       8.2943      2.00000
     14       8.7050      2.00000
     15       9.2888      2.00000
     16       9.3198      2.00000
     17      10.9439      2.00000
     18      12.1413      0.00000
     19      16.7600      0.00000
     20      26.2658      0.00000
     21      27.7397      0.00000
     22      28.4756      0.00000
     23      29.9409      0.00000
     24      30.5846      0.00000

 k-point    17 :       0.2000   -0.0000    0.1250
  band No.  band energies     occupation 
      1     -41.4487      2.00000
      2     -41.4108      2.00000
      3     -41.4011      2.00000
      4     -41.3427      2.00000
      5     -41.2966      2.00000
      6     -41.1674      2.00000
      7       2.8831      2.00000
      8       5.1242      2.00000
      9       6.9468      2.00000
     10       7.1416      2.00000
     11       7.4426      2.00000
     12       8.2236      2.00000
     13       8.6090      2.00000
     14       8.9504      2.00000
     15       9.0152      2.00000
     16       9.1256      2.00000
     17      11.0209      1.99615
     18      13.6614      0.00000
     19      17.1708      0.00000
     20      25.2551      0.00000
     21      27.7391      0.00000
     22      28.3917      0.00000
     23      28.5970      0.00000
     24      29.7288      0.00000

 k-point    18 :       0.3000    0.0000    0.1250
  band No.  band energies     occupation 
      1     -41.5569      2.00000
      2     -41.5191      2.00000
      3     -41.3749      2.00000
      4     -41.3741      2.00000
      5     -41.3219      2.00000
      6     -41.1806      2.00000
      7       4.0254      2.00000
      8       5.2685      2.00000
      9       6.3261      2.00000
     10       7.0125      2.00000
     11       7.5630      2.00000
     12       8.4012      2.00000
     13       8.4684      2.00000
     14       9.5373      2.00000
     15       9.9089      2.00000
     16      10.0694      2.00000
     17      11.0639      1.90604
     18      14.7505      0.00000
     19      18.1656      0.00000
     20      21.7051      0.00000
     21      26.0929      0.00000
     22      26.1292      0.00000
     23      27.6948      0.00000
     24      29.5603      0.00000

 k-point    19 :       0.4000   -0.0000    0.1250
  band No.  band energies     occupation 
      1     -41.6502      2.00000
      2     -41.6111      2.00000
      3     -41.4005      2.00000
      4     -41.3426      2.00000
      5     -41.3315      2.00000
      6     -41.1997      2.00000
      7       4.5669      2.00000
      8       4.9345      2.00000
      9       5.8478      2.00000
     10       7.0646      2.00000
     11       8.1407      2.00000
     12       8.2143      2.00000
     13       8.8926      2.00000
     14      10.8869      2.00000
     15      10.9836      1.99992
     16      11.2429      0.00071
     17      11.2661      0.00005
     18      15.7798      0.00000
     19      17.8416      0.00000
     20      19.8366      0.00000
     21      23.2596      0.00000
     22      24.2219      0.00000
     23      25.3702      0.00000
     24      28.0469      0.00000

 k-point    20 :       0.5000   -0.0000    0.1250
  band No.  band energies     occupation 
      1     -41.6859      2.00000
      2     -41.6458      2.00000
      3     -41.4103      2.00000
      4     -41.3505      2.00000
      5     -41.3102      2.00000
      6     -41.2120      2.00000
      7       4.6439      2.00000
      8       4.7511      2.00000
      9       5.6947      2.00000
     10       7.1277      2.00000
     11       8.1201      2.00000
     12       8.2909      2.00000
     13       9.3424      2.00000
     14      10.9679      1.99999
     15      11.4433      0.00000
     16      11.6170      0.00000
     17      13.1620      0.00000
     18      14.7617      0.00000
     19      18.2547      0.00000
     20      18.9994      0.00000
     21      21.8564      0.00000
     22      23.4563      0.00000
     23      24.5331      0.00000
     24      27.5311      0.00000

 k-point    21 :       0.1000    0.1000    0.1250
  band No.  band energies     occupation 
      1     -41.4383      2.00000
      2     -41.3938      2.00000
      3     -41.3786      2.00000
      4     -41.3302      2.00000
      5     -41.2949      2.00000
      6     -41.1649      2.00000
      7       2.5868      2.00000
      8       4.9682      2.00000
      9       6.9058      2.00000
     10       7.3550      2.00000
     11       7.7122      2.00000
     12       7.9400      2.00000
     13       8.5017      2.00000
     14       8.7233      2.00000
     15       9.0135      2.00000
     16       9.3045      2.00000
     17      10.9519      2.00000
     18      13.3098      0.00000
     19      17.0159      0.00000
     20      26.5315      0.00000
     21      27.2529      0.00000
     22      28.1381      0.00000
     23      28.8110      0.00000
     24      30.2647      0.00000

 k-point    22 :       0.2000    0.1000    0.1250
  band No.  band energies     occupation 
      1     -41.5039      2.00000
      2     -41.4780      2.00000
      3     -41.3890      2.00000
      4     -41.3672      2.00000
      5     -41.3250      2.00000
      6     -41.1750      2.00000
      7       3.7241      2.00000
      8       5.6123      2.00000
      9       6.5762      2.00000
     10       6.7644      2.00000
     11       7.3312      2.00000
     12       7.9923      2.00000
     13       8.7060      2.00000
     14       8.8485      2.00000
     15       9.7341      2.00000
     16       9.9725      2.00000
     17      10.9517      2.00000
     18      14.4779      0.00000
     19      17.8170      0.00000
     20      23.5160      0.00000
     21      25.3723      0.00000
     22      27.3123      0.00000
     23      28.6912      0.00000
     24      30.5184      0.00000

 k-point    23 :       0.3000    0.1000    0.1250
  band No.  band energies     occupation 
      1     -41.6037      2.00000
      2     -41.5706      2.00000
      3     -41.4060      2.00000
      4     -41.3554      2.00000
      5     -41.3443      2.00000
      6     -41.1920      2.00000
      7       4.6732      2.00000
      8       5.3743      2.00000
      9       6.0483      2.00000
     10       6.9171      2.00000
     11       7.7711      2.00000
     12       8.1502      2.00000
     13       8.3935      2.00000
     14       9.6590      2.00000
     15      10.7461      2.00000
     16      10.8063      2.00000
     17      11.5055      0.00000
     18      15.5689      0.00000
     19      18.7527      0.00000
     20      20.2615      0.00000
     21      23.2477      0.00000
     22      25.4125      0.00000
     23      26.5914      0.00000
     24      28.4381      0.00000

 k-point    24 :       0.4000    0.1000    0.1250
  band No.  band energies     occupation 
      1     -41.6661      2.00000
      2     -41.6272      2.00000
      3     -41.4295      2.00000
      4     -41.3721      2.00000
      5     -41.3099      2.00000
      6     -41.2114      2.00000
      7       4.8730      2.00000
      8       5.0718      2.00000
      9       5.8379      2.00000
     10       7.0701      2.00000
     11       7.8573      2.00000
     12       8.4166      2.00000
     13       8.8195      2.00000
     14      10.7626      2.00000
     15      10.8787      2.00000
     16      11.2975      0.00000
[...]
      5     -41.2783      2.00000
      6     -41.2783      2.00000
      7       4.3349      2.00000
      8       4.3349      2.00000
      9       6.6365      2.00000
     10       6.6365      2.00000
     11       7.4772      2.00000
     12       7.4772      2.00000
     13       8.6143      2.00000
     14       8.6143      2.00000
     15      10.2054      2.00000
     16      10.2054      2.00000
     17      10.6830      2.00000
     18      10.6830      2.00000
     19      23.5656      0.00000
     20      23.5656      0.00000
     21      26.7034      0.00000
     22      26.7034      0.00000
     23      29.2814      0.00000
     24      29.2814      0.00000

 k-point    60 :       0.3000    0.0000    0.5000
  band No.  band energies     occupation 
      1     -41.5514      2.00000
      2     -41.5514      2.00000
      3     -41.3486      2.00000
      4     -41.3486      2.00000
      5     -41.2639      2.00000
      6     -41.2639      2.00000
      7       4.8044      2.00000
      8       4.8044      2.00000
      9       6.3252      2.00000
     10       6.3252      2.00000
     11       8.1914      2.00000
     12       8.1914      2.00000
     13       9.2445      2.00000
     14       9.2445      2.00000
     15      10.4120      2.00000
     16      10.4120      2.00000
     17      11.0458      1.97116
     18      11.0458      1.97116
     19      22.4590      0.00000
     20      22.4590      0.00000
     21      25.3481      0.00000
     22      25.3481      0.00000
     23      29.1541      0.00000
     24      29.1541      0.00000

 k-point    61 :       0.4000   -0.0000    0.5000
  band No.  band energies     occupation 
      1     -41.6441      2.00000
      2     -41.6441      2.00000
      3     -41.3718      2.00000
      4     -41.3718      2.00000
      5     -41.2518      2.00000
      6     -41.2518      2.00000
      7       4.6984      2.00000
      8       4.6984      2.00000
      9       6.0567      2.00000
     10       6.0567      2.00000
     11       9.3566      2.00000
     12       9.3566      2.00000
     13       9.7259      2.00000
     14       9.7259      2.00000
     15      11.1435      0.56379
     16      11.1435      0.56375
     17      11.7826      0.00000
     18      11.7826      0.00000
     19      19.4897      0.00000
     20      19.4897      0.00000
     21      25.2532      0.00000
     22      25.2532      0.00000
     23      27.4582      0.00000
     24      27.4582      0.00000

 k-point    62 :       0.5000   -0.0000    0.5000
  band No.  band energies     occupation 
      1     -41.6790      2.00000
      2     -41.6790      2.00000
      3     -41.3805      2.00000
      4     -41.3804      2.00000
      5     -41.2471      2.00000
      6     -41.2471      2.00000
      7       4.6070      2.00000
      8       4.6070      2.00000
      9       5.9512      2.00000
     10       5.9512      2.00000
     11       9.3404      2.00000
     12       9.3404      2.00000
     13      10.2907      2.00000
     14      10.2907      2.00000
     15      11.5387      0.00000
     16      11.5387      0.00000
     17      12.8354      0.00000
     18      12.8354      0.00000
     19      17.5839      0.00000
     20      17.5839      0.00000
     21      25.2638      0.00000
     22      25.2638      0.00000
     23      26.7275      0.00000
     24      26.7275      0.00000

 k-point    63 :       0.1000    0.1000    0.5000
  band No.  band energies     occupation 
      1     -41.4047      2.00000
      2     -41.4047      2.00000
      3     -41.3163      2.00000
      4     -41.3163      2.00000
      5     -41.2805      2.00000
      6     -41.2805      2.00000
      7       4.1225      2.00000
      8       4.1225      2.00000
      9       6.7349      2.00000
     10       6.7349      2.00000
     11       7.4066      2.00000
     12       7.4066      2.00000
     13       8.4574      2.00000
     14       8.4574      2.00000
     15      10.2047      2.00000
     16      10.2047      2.00000
     17      10.6307      2.00000
     18      10.6307      2.00000
     19      23.5460      0.00000
     20      23.5460      0.00000
     21      27.4451      0.00000
     22      27.4451      0.00000
     23      28.3897      0.00000
     24      28.3897      0.00000

 k-point    64 :       0.2000    0.1000    0.5000
  band No.  band energies     occupation 
      1     -41.5027      2.00000
      2     -41.5027      2.00000
      3     -41.3497      2.00000
      4     -41.3497      2.00000
      5     -41.2667      2.00000
      6     -41.2667      2.00000
      7       4.8976      2.00000
      8       4.8976      2.00000
      9       6.5065      2.00000
     10       6.5065      2.00000
     11       7.3389      2.00000
     12       7.3389      2.00000
     13       9.0856      2.00000
     14       9.0856      2.00000
     15      10.3913      2.00000
     16      10.3913      2.00000
     17      10.9603      2.00000
     18      10.9603      2.00000
     19      23.5052      0.00000
     20      23.5052      0.00000
     21      25.8033      0.00000
     22      25.8033      0.00000
     23      27.4778      0.00000
     24      27.4778      0.00000

 k-point    65 :       0.3000    0.1000    0.5000
  band No.  band energies     occupation 
      1     -41.5998      2.00000
      2     -41.5998      2.00000
      3     -41.3827      2.00000
      4     -41.3827      2.00000
      5     -41.2532      2.00000
      6     -41.2532      2.00000
      7       5.0139      2.00000
      8       5.0139      2.00000
      9       6.2830      2.00000
     10       6.2830      2.00000
     11       8.3185      2.00000
     12       8.3186      2.00000
     13       9.2009      2.00000
     14       9.2009      2.00000
     15      11.0209      1.99615
     16      11.0209      1.99615
     17      11.8246      0.00000
     18      11.8246      0.00000
     19      21.1102      0.00000
     20      21.1102      0.00000
     21      25.2931      0.00000
     22      25.2931      0.00000
     23      26.4001      0.00000
     24      26.4001      0.00000

 k-point    66 :       0.4000    0.1000    0.5000
  band No.  band energies     occupation 
      1     -41.6595      2.00000
      2     -41.6595      2.00000
      3     -41.4032      2.00000
      4     -41.4032      2.00000
      5     -41.2448      2.00000
      6     -41.2448      2.00000
      7       4.8769      2.00000
      8       4.8769      2.00000
      9       6.1100      2.00000
     10       6.1100      2.00000
     11       8.8072      2.00000
     12       8.8072      2.00000
     13       9.9040      2.00000
     14       9.9040      2.00000
     15      11.1131      1.22382
     16      11.1131      1.22376
     17      13.5029      0.00000
     18      13.5029      0.00000
     19      18.2214      0.00000
     20      18.2214      0.00000
     21      25.1011      0.00000
     22      25.1011      0.00000
     23      25.7779      0.00000
     24      25.7779      0.00000

 k-point    67 :       0.2000    0.2000    0.5000
  band No.  band energies     occupation 
      1     -41.5704      2.00000
      2     -41.5704      2.00000
      3     -41.4009      2.00000
      4     -41.4009      2.00000
      5     -41.2525      2.00000
      6     -41.2525      2.00000
      7       5.3785      2.00000
      8       5.3785      2.00000
      9       6.6518      2.00000
     10       6.6518      2.00000
     11       7.2295      2.00000
     12       7.2295      2.00000
     13       8.9498      2.00000
     14       8.9498      2.00000
     15      11.1164      1.15058
     16      11.1164      1.15052
     17      11.9373      0.00000
     18      11.9373      0.00000
     19      22.3433      0.00000
     20      22.3433      0.00000
     21      24.4272      0.00000
     22      24.4272      0.00000
     23      26.0676      0.00000
     24      26.0676      0.00000

 k-point    68 :       0.3000    0.2000    0.5000
  band No.  band energies     occupation 
      1     -41.6179      2.00000
      2     -41.6179      2.00000
      3     -41.4488      2.00000
      4     -41.4488      2.00000
      5     -41.2418      2.00000
      6     -41.2418      2.00000
      7       5.4608      2.00000
      8       5.4608      2.00000
      9       6.5437      2.00000
     10       6.5437      2.00000
     11       7.8339      2.00000
     12       7.8339      2.00000
     13       8.8904      2.00000
     14       8.8904      2.00000
     15      11.1853      0.07885
     16      11.1853      0.07884
     17      14.0081      0.00000
     18      14.0082      0.00000
     19      19.6635      0.00000
     20      19.6635      0.00000
     21      23.0440      0.00000
     22      23.0440      0.00000
     23      26.4831      0.00000
     24      26.4831      0.00000

 k-point    69 :       0.4000    0.2000    0.5000
  band No.  band energies     occupation 
      1     -41.6346      2.00000
      2     -41.6346      2.00000
      3     -41.4686      2.00000
      4     -41.4686      2.00000
      5     -41.2378      2.00000
      6     -41.2378      2.00000
      7       5.4532      2.00000
      8       5.4532      2.00000
      9       6.4721      2.00000
     10       6.4721      2.00000
     11       7.9228      2.00000
     12       7.9228      2.00000
     13       9.3136      2.00000
     14       9.3136      2.00000
     15      11.0442      1.97439
     16      11.0442      1.97439
     17      15.7002      0.00000
     18      15.7002      0.00000
     19      17.6864      0.00000
     20      17.6864      0.00000
     21      22.4475      0.00000
     22      22.4475      0.00000
     23      26.8938      0.00000
     24      26.8938      0.00000

 k-point    70 :       0.3000    0.3000    0.5000
  band No.  band energies     occupation 
      1     -41.5979      2.00000
      2     -41.5979      2.00000
      3     -41.5210      2.00000
      4     -41.5210      2.00000
      5     -41.2350      2.00000
      6     -41.2350      2.00000
      7       5.9108      2.00000
      8       5.9108      2.00000
      9       6.7306      2.00000
     10       6.7306      2.00000
     11       7.4904      2.00000
     12       7.4904      2.00000
     13       8.7669      2.00000
     14       8.7669      2.00000
     15      11.0286      1.99247
     16      11.0286      1.99247
     17      16.4655      0.00000
     18      16.4655      0.00000
     19      18.4170      0.00000
     20      18.4170      0.00000
     21      20.6367      0.00000
     22      20.6367      0.00000
     23      27.9601      0.00000
     24      27.9601      0.00000


--------------------------------------------------------------------------------------------------------


 soft charge-density along one line, spin component           1
         0         1         2         3         4         5         6         7         8         9
 total charge-density along one line
 
 pseudopotential strength for first ion, spin component:           1
-31.686  -0.000   0.000  10.739   0.000  -0.000  -0.000  -0.000
 -0.000 -31.620  -0.000   0.000  10.674   0.000   0.000   0.000
  0.000  -0.000 -31.686  -0.000   0.000  10.739  -0.000   0.000
 10.739   0.000  -0.000  16.249  -0.000   0.000   0.000   0.000
  0.000  10.674   0.000  -0.000  16.273  -0.000  -0.000  -0.000
 -0.000   0.000  10.739   0.000  -0.000  16.249   0.000  -0.000
 -0.000   0.000  -0.000   0.000  -0.000   0.000  -3.721   0.000
 -0.000   0.000   0.000   0.000  -0.000  -0.000   0.000  -3.677
 -0.000  -0.000   0.000   0.000   0.000  -0.000  -0.000   0.000
  0.000  -0.000   0.000  -0.000   0.000  -0.000  -0.000   0.000
 -0.000   0.000  -0.000   0.000  -0.000   0.000  -0.000   0.000
 -0.000   0.000  -0.000   0.000  -0.000   0.000  -3.951   0.000
 -0.000   0.000   0.000   0.000  -0.000  -0.000   0.000  -3.902
 -0.000  -0.000   0.000   0.000   0.000  -0.000  -0.000   0.000
  0.000  -0.000   0.000  -0.000   0.000  -0.000  -0.000   0.000
 -0.000   0.000  -0.000   0.000  -0.000   0.000  -0.000   0.000
 -0.000   0.000   0.000  -0.000   0.000   0.000  -0.000   0.000
  0.000  -0.000  -0.000   0.000  -0.000  -0.000   0.000  -0.000
 total augmentation occupancy for first ion, spin component:           1
  2.002   0.000  -0.000  -0.021   0.000   0.000   0.000   0.000  -0.000   0.000   0.004   0.000   0.000   0.000   0.000  -0.004
  0.000   2.002   0.000   0.000  -0.020   0.000   0.000   0.000   0.000   0.000  -0.000   0.000   0.000   0.000  -0.000  -0.000
 -0.000   0.000   2.002   0.000   0.000  -0.021   0.004   0.000   0.000   0.000   0.000  -0.004   0.000  -0.000   0.000  -0.000
 -0.021  -0.000  -0.000   0.049   0.000   0.000  -0.000   0.000   0.000   0.000  -0.025   0.000   0.000  -0.000   0.000   0.024
  0.000  -0.020   0.000   0.000   0.042   0.000  -0.000   0.000   0.000  -0.000  -0.000   0.000   0.000   0.000   0.000   0.000
  0.000   0.000  -0.021   0.000   0.000   0.049  -0.025   0.000  -0.000   0.000   0.000   0.024  -0.000   0.000  -0.000   0.000
  0.000   0.000   0.004  -0.000   0.000  -0.025   4.979   0.000   0.000   0.000   0.000  -2.702   0.000  -0.000   0.000  -0.000
  0.000  -0.000   0.000   0.000   0.000  -0.000   0.000   4.237  -0.000  -0.000   0.000   0.000  -2.300   0.000  -0.000   0.000
 -0.000   0.000   0.000   0.000   0.000  -0.000   0.000  -0.000   5.028   0.000  -0.000  -0.000   0.000  -2.750   0.000   0.000
  0.000   0.000  -0.000   0.000  -0.000   0.000   0.000   0.000   0.000   4.237   0.000   0.000   0.000   0.000  -2.300  -0.000
  0.004   0.000  -0.000  -0.025  -0.000  -0.000   0.000  -0.000  -0.000   0.000   4.979  -0.000   0.000   0.000   0.000  -2.702
 -0.000   0.000  -0.004   0.000   0.000   0.024  -2.702   0.000  -0.000  -0.000  -0.000   2.161   0.000   0.000   0.000   0.000
  0.000   0.000   0.000   0.000   0.000   0.000   0.000  -2.300  -0.000  -0.000   0.000   0.000   2.207  -0.000   0.000   0.000
  0.000   0.000  -0.000  -0.000   0.000   0.000  -0.000  -0.000  -2.750   0.000   0.000   0.000   0.000   2.197   0.000  -0.000
  0.000  -0.000  -0.000  -0.000   0.000  -0.000   0.000   0.000   0.000  -2.300   0.000   0.000  -0.000   0.000   2.207   0.000
 -0.004   0.000   0.000   0.024   0.000   0.000  -0.000  -0.000   0.000   0.000  -2.702   0.000  -0.000  -0.000   0.000   2.161
  0.000   0.000   0.000   0.000   0.000   0.000  -0.000   0.000  -0.216  -0.000   0.000   0.000   0.000   0.198   0.000  -0.000
  0.000   0.000  -0.000   0.000   0.000   0.000  -0.000   0.000   0.004   0.000   0.000   0.000   0.000   0.001   0.000  -0.000


------------------------ aborting loop because EDIFF is reached ----------------------------------------


    CHARGE:  cpu time      0.0226: real time      0.0227
    FORLOC:  cpu time      0.0002: real time      0.0002
    FORNL :  cpu time      0.0172: real time      0.0172
    STRESS:  cpu time      0.1921: real time      0.1927
    FORCOR:  cpu time      0.0030: real time      0.0030
    FORHAR:  cpu time      0.0006: real time      0.0006
    MIXING:  cpu time      0.0002: real time      0.0002
    OFIELD:  cpu time      0.0000: real time      0.0000

  FORCE on cell =-STRESS in cart. coord.  units (eV):
  Direction    XX          YY          ZZ          XY          YZ          ZX
  --------------------------------------------------------------------------------------
  Alpha Z   303.71315   303.71315   303.71315
  Ewald   -1374.27429 -1374.27429 -1492.14368     0.00000     0.00000    -0.00000
  Hartree   277.64857   277.64857   225.50974    -0.00000    -0.00000    -0.00000
  E(xc)    -170.76229  -170.76229  -171.00149    -0.00000    -0.00000    -0.00000
  Local     183.55610   183.55608   341.24083    -0.00002    -0.00000    -0.00000
  n-local   -58.89229   -61.31554   -62.26408   -13.14733     3.59029     3.33629
  augment   145.59111   145.59112   149.18004     0.00001    -0.00000    -0.00000
  Kinetic   697.35498   691.28097   705.43068   -16.72754     3.60333     1.04307
  Fock        0.00000     0.00000     0.00000     0.00000     0.00000     0.00000
  -------------------------------------------------------------------------------------
  Total      -0.31359    -0.31359    -0.33481     0.00000     0.00000     0.00000
  in kB     -15.89961   -15.89961   -16.97567     0.00000     0.00000     0.00000
  external pressure =      -16.26 kB  Pullay stress =        0.00 kB


 VOLUME and BASIS-vectors are now :
 -----------------------------------------------------------------------------
  energy-cutoff  :      475.00
  volume of cell :       31.60
      direct lattice vectors                 reciprocal lattice vectors
     2.760000000  0.000000000  0.000000000     0.362318841  0.209184880  0.000000000
    -1.380000000  2.390230114  0.000000000     0.000000000  0.418369760  0.000000000
     0.000000000  0.000000000  4.790000000     0.000000000  0.000000000  0.208768267

  length of vectors
     2.760000000  2.760000000  4.790000000     0.418369760  0.418369760  0.208768267


 FORCES acting on ions
    electron-ion (+dipol)            ewald-force                    non-local-force                 convergence-correction
 -----------------------------------------------------------------------------------------------
   0.374E-06 -.216E-06 -.600E-13   0.179E-11 -.111E-11 -.683E-13   -.486E-16 0.000E+00 0.000E+00   -.523E-08 0.302E-08 -.144E-13
   -.288E-06 0.166E-06 -.301E-11   -.176E-11 0.110E-11 0.683E-13   0.451E-16 0.000E+00 0.000E+00   0.523E-08 -.302E-08 -.385E-13
 -----------------------------------------------------------------------------------------------
   0.862E-07 -.498E-07 -.307E-11   0.219E-13 -.314E-14 0.000E+00   -.347E-17 0.000E+00 0.000E+00   0.243E-11 -.134E-11 -.529E-13
 
 
 POSITION                                       TOTAL-FORCE (eV/Angst)
 -----------------------------------------------------------------------------------
      0.00000      0.00000      0.00000         0.000000      0.000000      0.000000
      0.00000      1.59349      2.39500        -0.000000      0.000000      0.000000
 -----------------------------------------------------------------------------------
    total drift:                                0.000000     -0.000000     -0.000000


--------------------------------------------------------------------------------------------------------



  FREE ENERGIE OF THE ION-ELECTRON SYSTEM (eV)
  ---------------------------------------------------
  free  energy   TOTEN  =       -12.03929486 eV

  energy  without entropy=      -12.03457437  energy(sigma->0) =      -12.03693462
 


--------------------------------------------------------------------------------------------------------


    POTLOK:  cpu time      0.0056: real time      0.0057


--------------------------------------------------------------------------------------------------------


     LOOP+:  cpu time      5.2419: real time      5.2765
    4ORBIT:  cpu time      0.0000: real time      0.0000

 total amount of memory used by VASP MPI-rank0    39828. kBytes
=======================================================================

   base      :      30000. kBytes
   nonl-proj :       7766. kBytes
   fftplans  :        254. kBytes
   grid      :        864. kBytes
   one-center:         31. kBytes
   wavefun   :        913. kBytes
 
  
  
 General timing and accounting informations for this job:
 ========================================================
  
                  Total CPU time used (sec):        6.052
                            User time (sec):        5.540
                          System time (sec):        0.512
                         Elapsed time (sec):        7.726
  
                   Maximum memory used (kb):      237324.
                   Average memory used (kb):          N/A
  
                          Minor page faults:        29779
                          Major page faults:           63
                 Voluntary context switches:         2154
