<?xml version="1.0" encoding="ISO-8859-1"?>
<modeling>
 <generator>
  <i name="program" type="string">vasp </i>
  <i name="version" type="string">6.3.2  </i>
  <i name="subversion" type="string">27Jun22 (build Aug 12 2022 00:53:59) complex                          parallel </i>
  <i name="platform" type="string">tv2STD </i>
  <i name="date" type="string">2024 11 30 </i>
  <i name="time" type="string">15:58:19 </i>
 </generator>
 <incar>
  <i type="string" name="SYSTEM">Pt-hcp</i>
  <i type="int" name="ISTART">     0</i>
  <i type="string" name="PREC">Accurate      normal | accurate</i>
  <i type="string" name="ALGO">Normal     Normal, Fast, Very_Fast</i>
  <i type="logical" name="ADDGRID"> F  </i>
  <i type="int" name="ICHARG">     2</i>
  <i type="int" name="INIWAV">     1</i>
  <i type="int" name="NELM">   100</i>
  <i type="int" name="IBRION">    -1</i>
  <i name="EDIFF">      0.00000100</i>
  <i name="EDIFFG">     -0.02000000</i>
  <i type="int" name="NSW">     0</i>
  <i type="int" name="ISIF">     2</i>
  <i type="int" name="ISYM">     1</i>
  <i name="ENCUT">    475.00000000</i>
  <i type="logical" name="LREAL"> F  </i>
  <i type="int" name="ISMEAR">     0</i>
  <i name="SIGMA">      0.05000000</i>
  <i type="int" name="NWRITE">     2</i>
  <i type="logical" name="LWAVE"> F  </i>
  <i type="logical" name="LCHARG"> F  </i>
 </incar>
 <primitive_cell>
  <structure name="primitive_cell" >
   <crystal>
    <varray name="basis" >
     <v>       2.76000000       0.00000000       0.00000000 </v>
     <v>      -1.38000000       2.39023011       0.00000000 </v>
     <v>       0.00000000       0.00000000       4.79000000 </v>
    </varray>
    <i name="volume">     31.59979821 </i>
    <varray name="rec_basis" >
     <v>       0.36231884       0.20918488       0.00000000 </v>
     <v>       0.00000000       0.41836976       0.00000000 </v>
     <v>       0.00000000       0.00000000       0.20876827 </v>
    </varray>
   </crystal>
   <varray name="positions" >
    <v>       0.00000000       0.00000000       0.00000000 </v>
    <v>       0.33333333       0.66666667       0.50000000 </v>
   </varray>
  </structure>
  <varray name="primitive_index" >
   <v type="int" >        1 </v>
   <v type="int" >        2 </v>
  </varray>
 </primitive_cell>
 <kpoints>
  <generation param="Gamma">
   <v type="int" name="divisions">      10       10        8 </v>
   <v name="usershift">      0.00000000       0.00000000       0.00000000 </v>
   <v name="genvec1">      0.10000000       0.00000000       0.00000000 </v>
   <v name="genvec2">      0.00000000       0.10000000       0.00000000 </v>
   <v name="genvec3">      0.00000000       0.00000000       0.12500000 </v>
   <v name="shift">      0.00000000       0.00000000       0.00000000 </v>
  </generation>
  <varray name="kpointlist" >
   <v>       0.00000000       0.00000000       0.00000000 </v>
   <v>       0.10000000      -0.00000000       0.00000000 </v>
   <v>       0.20000000      -0.00000000       0.00000000 </v>
   <v>       0.30000000       0.00000000       0.00000000 </v>
   <v>       0.40000000      -0.00000000       0.00000000 </v>
   <v>       0.50000000      -0.00000000       0.00000000 </v>
   <v>       0.10000000       0.10000000       0.00000000 </v>
   <v>       0.20000000       0.10000000       0.00000000 </v>
   <v>       0.30000000       0.10000000       0.00000000 </v>
   <v>       0.40000000       0.10000000       0.00000000 </v>
   <v>       0.20000000       0.20000000       0.00000000 </v>
   <v>       0.30000000       0.20000000       0.00000000 </v>
   <v>       0.40000000       0.20000000       0.00000000 </v>
   <v>       0.30000000       0.30000000       0.00000000 </v>
   <v>       0.00000000       0.00000000       0.12500000 </v>
   <v>       0.10000000      -0.00000000       0.12500000 </v>
   <v>       0.20000000      -0.00000000       0.12500000 </v>
   <v>       0.30000000       0.00000000       0.12500000 </v>
   <v>       0.40000000      -0.00000000       0.12500000 </v>
   <v>       0.50000000      -0.00000000       0.12500000 </v>
   <v>       0.10000000       0.10000000       0.12500000 </v>
   <v>       0.20000000       0.10000000       0.12500000 </v>
   <v>       0.30000000       0.10000000       0.12500000 </v>
   <v>       0.40000000       0.10000000       0.12500000 </v>
   <v>       0.20000000       0.20000000       0.12500000 </v>
   <v>       0.30000000       0.20000000       0.12500000 </v>
   <v>       0.40000000       0.20000000       0.12500000 </v>
   <v>       0.30000000       0.30000000       0.12500000 </v>
   <v>       0.00000000       0.00000000       0.25000000 </v>
   <v>       0.10000000      -0.00000000       0.25000000 </v>
   <v>       0.20000000      -0.00000000       0.25000000 </v>
   <v>       0.30000000       0.00000000       0.25000000 </v>
   <v>       0.40000000      -0.00000000       0.25000000 </v>
   <v>       0.50000000      -0.00000000       0.25000000 </v>
   <v>       0.10000000       0.10000000       0.25000000 </v>
   <v>       0.20000000       0.10000000       0.25000000 </v>
   <v>       0.30000000       0.10000000       0.25000000 </v>
   <v>       0.40000000       0.10000000       0.25000000 </v>
   <v>       0.20000000       0.20000000       0.25000000 </v>
   <v>       0.30000000       0.20000000       0.25000000 </v>
   <v>       0.40000000       0.20000000       0.25000000 </v>
   <v>       0.30000000       0.30000000       0.25000000 </v>
   <v>       0.00000000       0.00000000       0.37500000 </v>
   <v>       0.10000000      -0.00000000       0.37500000 </v>
   <v>       0.20000000      -0.00000000       0.37500000 </v>
   <v>       0.30000000       0.00000000       0.37500000 </v>
   <v>       0.40000000      -0.00000000       0.37500000 </v>
   <v>       0.50000000      -0.00000000       0.37500000 </v>
   <v>       0.10000000       0.10000000       0.37500000 </v>
   <v>       0.20000000       0.10000000       0.37500000 </v>
   <v>       0.30000000       0.10000000       0.37500000 </v>
   <v>       0.40000000       0.10000000       0.37500000 </v>
   <v>       0.20000000       0.20000000       0.37500000 </v>
   <v>       0.30000000       0.20000000       0.37500000 </v>
   <v>       0.40000000       0.20000000       0.37500000 </v>
   <v>       0.30000000       0.30000000       0.37500000 </v>
   <v>       0.00000000       0.00000000       0.50000000 </v>
   <v>       0.10000000      -0.00000000       0.50000000 </v>
   <v>       0.20000000      -0.00000000       0.50000000 </v>
   <v>       0.30000000       0.00000000       0.50000000 </v>
   <v>       0.40000000      -0.00000000       0.50000000 </v>
   <v>       0.50000000      -0.00000000       0.50000000 </v>
   <v>       0.10000000       0.10000000       0.50000000 </v>
   <v>       0.20000000       0.10000000       0.50000000 </v>
   <v>       0.30000000       0.10000000       0.50000000 </v>
   <v>       0.40000000       0.10000000       0.50000000 </v>
   <v>       0.20000000       0.20000000       0.50000000 </v>
   <v>       0.30000000       0.20000000       0.50000000 </v>
   <v>       0.40000000       0.20000000       0.50000000 </v>
   <v>       0.30000000       0.30000000       0.50000000 </v>
  </varray>
  <varray name="weights" >
   <v>       0.00125000 </v>
   <v>       0.00750000 </v>
   <v>       0.00750000 </v>
   <v>       0.00750000 </v>
   <v>       0.00750000 </v>
   <v>       0.00375000 </v>
   <v>       0.00750000 </v>
   <v>       0.01500000 </v>
   <v>       0.01500000 </v>
   <v>       0.01500000 </v>
   <v>       0.00750000 </v>
   <v>       0.01500000 </v>
   <v>       0.00750000 </v>
   <v>       0.00750000 </v>
   <v>       0.00250000 </v>
   <v>       0.01500000 </v>
   <v>       0.01500000 </v>
   <v>       0.01500000 </v>
   <v>       0.01500000 </v>
   <v>       0.00750000 </v>
   <v>       0.01500000 </v>
   <v>       0.03000000 </v>
   <v>       0.03000000 </v>
   <v>       0.03000000 </v>
   <v>       0.01500000 </v>
   <v>       0.03000000 </v>
   <v>       0.01500000 </v>
   <v>       0.01500000 </v>
   <v>       0.00250000 </v>
   <v>       0.01500000 </v>
   <v>       0.01500000 </v>
   <v>       0.01500000 </v>
   <v>       0.01500000 </v>
   <v>       0.00750000 </v>
   <v>       0.01500000 </v>
   <v>       0.03000000 </v>
   <v>       0.03000000 </v>
   <v>       0.03000000 </v>
   <v>       0.01500000 </v>
   <v>       0.03000000 </v>
   <v>       0.01500000 </v>
   <v>       0.01500000 </v>
   <v>       0.00250000 </v>
   <v>       0.01500000 </v>
   <v>       0.01500000 </v>
   <v>       0.01500000 </v>
   <v>       0.01500000 </v>
   <v>       0.00750000 </v>
   <v>       0.01500000 </v>
   <v>       0.03000000 </v>
   <v>       0.03000000 </v>
   <v>       0.03000000 </v>
   <v>       0.01500000 </v>
   <v>       0.03000000 </v>
   <v>       0.01500000 </v>
   <v>       0.01500000 </v>
   <v>       0.00125000 </v>
   <v>       0.00750000 </v>
   <v>       0.00750000 </v>
   <v>       0.00750000 </v>
   <v>       0.00750000 </v>
   <v>       0.00375000 </v>
   <v>       0.00750000 </v>
   <v>       0.01500000 </v>
   <v>       0.01500000 </v>
   <v>       0.01500000 </v>
   <v>       0.00750000 </v>
   <v>       0.01500000 </v>
   <v>       0.00750000 </v>
   <v>       0.00750000 </v>
  </varray>
 </kpoints>
 <parameters>
  <separator name="general" >
   <i type="string" name="SYSTEM">Pt-hcp</i>
   <i type="logical" name="LCOMPAT"> F  </i>
  </separator>
  <separator name="electronic" >
   <i type="string" name="PREC">accura</i>
   <i name="ENMAX">    475.00000000</i>
   <i name="ENAUG">    527.01400000</i>
   <i name="EDIFF">      0.00000100</i>
   <i type="int" name="IALGO">    38</i>
   <i type="int" name="IWAVPR">    10</i>
   <i type="int" name="NBANDS">    24</i>
   <i type="int" name="NBANDSLOW">    -1</i>
   <i type="int" name="NBANDSHIGH">    -1</i>
   <i name="NELECT">     32.00000000</i>
   <i type="int" name="TURBO">     0</i>
   <i type="int" name="IRESTART">     0</i>
   <i type="int" name="NREBOOT">     0</i>
   <i type="int" name="NMIN">     0</i>
   <i name="EREF">      0.00000000</i>
   <separator name="electronic smearing" >
    <i type="int" name="ISMEAR">     0</i>
    <i name="SIGMA">      0.05000000</i>
    <i name="KSPACING">      0.50000000</i>
    <i type="logical" name="KGAMMA"> T  </i>
    <i type="logical" name="KBLOWUP"> T  </i>
   </separator>
   <separator name="electronic projectors" >
    <i type="logical" name="LREAL"> F  </i>
    <v name="ROPT">      0.00000000</v>
    <i type="int" name="LMAXPAW">  -100</i>
    <i type="int" name="LMAXMIX">     2</i>
    <i type="logical" name="NLSPLINE"> F  </i>
   </separator>
   <separator name="electronic startup" >
    <i type="int" name="ISTART">     0</i>
    <i type="int" name="ICHARG">     2</i>
    <i type="int" name="INIWAV">     1</i>
   </separator>
   <separator name="electronic spin" >
    <i type="int" name="ISPIN">     1</i>
    <i type="logical" name="LNONCOLLINEAR"> F  </i>
    <v name="MAGMOM">      1.00000000      1.00000000</v>
    <i name="NUPDOWN">     -1.00000000</i>
    <i type="logical" name="LSORBIT"> F  </i>
    <v name="SAXIS">      0.00000000      0.00000000      1.00000000</v>
    <i type="logical" name="LSPIRAL"> F  </i>
    <v name="QSPIRAL">      0.00000000      0.00000000      0.00000000</v>
    <i type="logical" name="LZEROZ"> F  </i>
   </separator>
   <separator name="electronic exchange-correlation" >
    <i type="logical" name="LASPH"> F  </i>
    <i type="logical" name="LMETAGGA"> F  </i>
   </separator>
   <separator name="electronic convergence" >
    <i type="int" name="NELM">   100</i>
    <i type="int" name="NELMDL">    -5</i>
    <i type="int" name="NELMIN">     2</i>
    <i name="ENINI">    475.00000000</i>
    <separator name="electronic convergence detail" >
     <i type="logical" name="LDIAG"> T  </i>
     <i type="logical" name="LSUBROT"> F  </i>
     <i name="WEIMIN">      0.00000000</i>
     <i name="EBREAK">      0.00000001</i>
     <i name="DEPER">      0.30000000</i>
     <i type="int" name="NRMM">     4</i>
     <i name="TIME">      0.40000000</i>
    </separator>
   </separator>
   <separator name="electronic mixer" >
    <i name="AMIX">      0.40000000</i>
    <i name="BMIX">      1.00000000</i>
    <i name="AMIN">      0.10000000</i>
    <i name="AMIX_MAG">      1.60000000</i>
    <i name="BMIX_MAG">      1.00000000</i>
    <separator name="electronic mixer details" >
     <i type="int" name="IMIX">     4</i>
     <i type="logical" name="MIXFIRST"> F  </i>
     <i type="int" name="MAXMIX">   -45</i>
     <i name="WC">    100.00000000</i>
     <i type="int" name="INIMIX">     1</i>
     <i type="int" name="MIXPRE">     1</i>
     <i type="int" name="MREMOVE">     5</i>
    </separator>
   </separator>
   <separator name="electronic dipolcorrection" >
    <i type="logical" name="LDIPOL"> F  </i>
    <i type="logical" name="LMONO"> F  </i>
    <i type="int" name="IDIPOL">     0</i>
    <i name="EPSILON">      1.00000000</i>
    <v name="DIPOL">   -100.00000000   -100.00000000   -100.00000000</v>
    <i name="EFIELD">      0.00000000</i>
   </separator>
  </separator>
  <separator name="grids" >
   <i type="int" name="NGX">    20</i>
   <i type="int" name="NGY">    20</i>
   <i type="int" name="NGZ">    36</i>
   <i type="int" name="NGXF">    40</i>
   <i type="int" name="NGYF">    40</i>
   <i type="int" name="NGZF">    72</i>
   <i type="logical" name="ADDGRID"> F  </i>
  </separator>
  <separator name="ionic" >
   <i type="int" name="NSW">     0</i>
   <i type="int" name="IBRION">    -1</i>
   <i type="int" name="MDALGO">     0</i>
   <i type="int" name="ISIF">     2</i>
   <i name="PSTRESS">      0.00000000</i>
   <i name="EDIFFG">     -0.02000000</i>
   <i type="int" name="NFREE">     0</i>
   <i name="POTIM">      0.50000000</i>
   <i name="SMASS">     -3.00000000</i>
   <i name="SCALEE">      1.00000000</i>
  </separator>
  <separator name="ionic md" >
   <i name="TEBEG">      0.00010000</i>
   <i name="TEEND">      0.00010000</i>
   <i type="int" name="NBLOCK">     1</i>
   <i type="int" name="KBLOCK">     1</i>
   <i type="int" name="NPACO">   256</i>
   <i name="APACO">     10.00000000</i>
  </separator>
  <separator name="symmetry" >
   <i type="int" name="ISYM">     1</i>
   <i name="SYMPREC">      0.00001000</i>
  </separator>
  <separator name="dos" >
   <i type="int" name="LORBIT">     0</i>
   <v name="RWIGS">     -1.00000000</v>
   <i type="int" name="NEDOS">   301</i>
   <i name="EMIN">     10.00000000</i>
   <i name="EMAX">    -10.00000000</i>
   <i name="EFERMI">      0.00000000</i>
  </separator>
  <separator name="writing" >
   <i type="int" name="NWRITE">     2</i>
   <i type="logical" name="LWAVE"> F  </i>
   <i type="logical" name="LDOWNSAMPLE"> F  </i>
   <i type="logical" name="LCHARG"> F  </i>
   <i type="logical" name="LPARD"> F  </i>
   <i type="logical" name="LVTOT"> F  </i>
   <i type="logical" name="LVHAR"> F  </i>
   <i type="logical" name="LELF"> F  </i>
   <i type="logical" name="LOPTICS"> F  </i>
   <v name="STM">      0.00000000      0.00000000      0.00000000      0.00000000      0.00000000      0.00000000      0.00000000</v>
  </separator>
  <separator name="performance" >
   <i type="int" name="NPAR">    24</i>
   <i type="int" name="NSIM">     4</i>
   <i type="int" name="NBLK">    -1</i>
   <i type="logical" name="LPLANE"> T  </i>
   <i type="logical" name="LSCALAPACK"> T  </i>
   <i type="logical" name="LSCAAWARE"> F  </i>
   <i type="logical" name="LSCALU"> F  </i>
   <i type="logical" name="LASYNC"> F  </i>
   <i type="logical" name="LORBITALREAL"> F  </i>
  </separator>
  <separator name="miscellaneous" >
   <i type="int" name="IDIOT">     3</i>
   <i type="int" name="PHON_NSTRUCT">    -1</i>
   <i type="logical" name="LMUSIC"> F  </i>
   <v name="POMASS">    195.08000000</v>
   <v name="DARWINR">      0.00000000</v>
   <v name="DARWINV">      1.00000000</v>
   <i type="logical" name="LCORR"> T  </i>
  </separator>
  <i type="logical" name="GGA_COMPAT"> T  </i>
  <i type="logical" name="LBERRY"> F  </i>
  <i type="int" name="ICORELEVEL">     0</i>
  <i type="logical" name="LDAU"> F  </i>
  <i type="int" name="I_CONSTRAINED_M">     0</i>
  <separator name="electronic exchange-correlation" >
   <i type="string" name="GGA">--</i>
   <i type="int" name="VOSKOWN">     0</i>
   <i type="logical" name="LHFCALC"> F  </i>
   <i type="string" name="PRECFOCK"></i>
   <i type="logical" name="LSYMGRAD"> F  </i>
   <i type="logical" name="LHFONE"> F  </i>
   <i type="logical" name="LRHFCALC"> F  </i>
   <i type="logical" name="LTHOMAS"> F  </i>
   <i type="logical" name="LMODELHF"> F  </i>
   <i type="logical" name="LFOCKACE"> F  </i>
   <i name="ENCUT4O">     -1.00000000</i>
   <i type="int" name="EXXOEP">     0</i>
   <i type="int" name="FOURORBIT">     0</i>
   <i name="AEXX">      0.00000000</i>
   <i name="HFALPHA">      0.00000000</i>
   <i name="MCALPHA">      0.00000000</i>
   <i name="ALDAX">      1.00000000</i>
   <i name="AGGAX">      1.00000000</i>
   <i name="ALDAC">      1.00000000</i>
   <i name="AGGAC">      1.00000000</i>
   <i type="int" name="NKREDX">     1</i>
   <i type="int" name="NKREDY">     1</i>
   <i type="int" name="NKREDZ">     1</i>
   <i type="logical" name="SHIFTRED"> F  </i>
   <i type="logical" name="ODDONLY"> F  </i>
   <i type="logical" name="EVENONLY"> F  </i>
   <i type="int" name="LMAXFOCK">     0</i>
   <i type="int" name="NMAXFOCKAE">     0</i>
   <i type="logical" name="LFOCKAEDFT"> F  </i>
   <i name="HFSCREEN">      0.00000000</i>
   <i name="HFSCREENC">      0.00000000</i>
   <i type="int" name="NBANDSGWLOW">     0</i>
  </separator>
  <separator name="vdW DFT" >
   <i type="logical" name="LUSE_VDW"> F  </i>
   <i name="Zab_VDW">     -0.84910000</i>
   <i name="PARAM1">      0.12340000</i>
   <i name="PARAM2">      1.00000000</i>
   <i name="PARAM3">      0.00000000</i>
  </separator>
  <separator name="model GW" >
   <i type="int" name="MODEL_GW">     0</i>
   <i name="MODEL_EPS0">      9.47993946</i>
   <i name="MODEL_ALPHA">      1.00000000</i>
  </separator>
  <separator name="linear response parameters" >
   <i type="logical" name="LEPSILON"> F  </i>
   <i type="logical" name="LRPA"> F  </i>
   <i type="logical" name="LNABLA"> F  </i>
   <i type="logical" name="LVEL"> F  </i>
   <i name="CSHIFT">      0.10000000</i>
   <i name="OMEGAMAX">     -1.00000000</i>
   <i name="DEG_THRESHOLD">      0.00200000</i>
   <i name="RTIME">     -0.10000000</i>
   <i name="WPLASMAI">      0.00000000</i>
   <v name="DFIELD">      0.00000000      0.00000000      0.00000000</v>
   <v name="WPLASMA">      0.00000000      0.00000000      0.00000000      0.00000000      0.00000000      0.00000000      0.00000000      0.00000000      0.00000000</v>
  </separator>
  <separator name="orbital magnetization" >
   <i type="logical" name="NUCIND"> F  </i>
   <v name="MAGPOS">      0.00000000      0.00000000      0.00000000</v>
   <i type="logical" name="LNICSALL"> T  </i>
   <i type="logical" name="ORBITALMAG"> F  </i>
   <i type="logical" name="LMAGBLOCH"> F  </i>
   <i type="logical" name="LCHIMAG"> F  </i>
   <i type="logical" name="LGAUGE"> T  </i>
   <i type="int" name="MAGATOM">     0</i>
   <v name="MAGDIPOL">      0.00000000      0.00000000      0.00000000</v>
   <v name="AVECCONST">      0.00000000      0.00000000      0.00000000</v>
  </separator>
  <separator name="response functions" >
   <i type="logical" name="LFINITE_TEMPERATURE"> F  </i>
   <i type="logical" name="LADDER"> F  </i>
   <i type="logical" name="LRPAFORCE"> F  </i>
   <i type="logical" name="LFXC"> F  </i>
   <i type="logical" name="LHARTREE"> T  </i>
   <i type="int" name="IBSE">     0</i>
   <v type="int" name="KPOINT">    -1     0     0     0</v>
   <i type="logical" name="LTCTC"> F  </i>
   <i type="logical" name="LTCTE"> F  </i>
   <i type="logical" name="LTETE"> F  </i>
   <i type="logical" name="LTRIPLET"> F  </i>
   <i type="logical" name="LFXCEPS"> F  </i>
   <i type="logical" name="LFXHEG"> F  </i>
   <i type="int" name="NATURALO">     2</i>
   <i type="logical" name="LHOLEGF"> F  </i>
   <i type="logical" name="L2ORDER"> F  </i>
   <i type="logical" name="LDMP1"> F  </i>
   <i type="logical" name="LMP2LT"> F  </i>
   <i type="logical" name="LSMP2LT"> F  </i>
   <i type="logical" name="LGWLF"> F  </i>
   <i name="ENCUTGW">     -2.00000000</i>
   <i name="ENCUTGWSOFT">     -2.00000000</i>
   <i name="ENCUTLF">     -1.00000000</i>
   <i type="logical" name="LESF_SPLINES"> F  </i>
   <i type="int" name="LMAXMP2">    -1</i>
   <i name="SCISSOR">      0.00000000</i>
   <i type="int" name="NOMEGA">     0</i>
   <i type="int" name="NOMEGAR">     0</i>
   <i type="int" name="NBANDSGW">    -1</i>
   <i type="int" name="NBANDSO">    -1</i>
   <i type="int" name="NBANDSV">    -1</i>
   <i type="int" name="NELMGW">     1</i>
   <i type="int" name="NELMHF">     1</i>
   <i type="int" name="DIM">     3</i>
   <i type="int" name="IESPILON">     4</i>
   <i type="int" name="ANTIRES">     0</i>
   <i name="OMEGAMAX">    -30.00000000</i>
   <i name="OMEGAMIN">    -30.00000000</i>
   <i name="OMEGATL">   -200.00000000</i>
   <i type="int" name="OMEGAGRID">     0</i>
   <i name="CSHIFT">     -0.10000000</i>
   <i type="logical" name="LSELFENERGY"> F  </i>
   <i type="logical" name="LSPECTRAL"> F  </i>
   <i type="logical" name="LSPECTRALGW"> F  </i>
   <i type="logical" name="LSINGLES"> F  </i>
   <i type="logical" name="LFERMIGW"> F  </i>
   <i type="logical" name="ODDONLYGW"> F  </i>
   <i type="logical" name="EVENONLYGW"> F  </i>
   <i type="int" name="NKREDLFX">     1</i>
   <i type="int" name="NKREDLFY">     1</i>
   <i type="int" name="NKREDLFZ">     1</i>
   <i type="int" name="MAXMEM">  2800</i>
   <i type="int" name="TELESCOPE">     0</i>
   <i type="int" name="NTAUPAR">    -1</i>
   <i type="int" name="NOMEGAPAR">    -1</i>
   <i name="DAMP_NEWTON">      0.80000001</i>
   <i name="LAMBDA">      1.00000000</i>
  </separator>
  <separator name="External order field" >
   <i name="OFIELD_KAPPA">      0.00000000</i>
   <v name="OFIELD_K">      0.00000000      0.00000000      0.00000000</v>
   <i name="OFIELD_Q6_NEAR">      0.00000000</i>
   <i name="OFIELD_Q6_FAR">      0.00000000</i>
   <i name="OFIELD_A">      0.00000000</i>
  </separator>
  <separator name="optional k-points parameters" >
   <i type="int" name="KPOINTS_OPT_MODE">     1</i>
   <i type="logical" name="LKPOINTS_OPT"> F  </i>
  </separator>
 </parameters>
 <atominfo>
  <atoms>       2 </atoms>
  <types>       1 </types>
  <array name="atoms" >
   <dimension dim="1">ion</dimension>
   <field type="string">element</field>
   <field type="int">atomtype</field>
   <set>
    <rc><c>Pt</c><c>   1</c></rc>
    <rc><c>Pt</c><c>   1</c></rc>
   </set>
  </array>
  <array name="atomtypes" >
   <dimension dim="1">type</dimension>
   <field type="int">atomspertype</field>
   <field type="string">element</field>
   <field>mass</field>
   <field>valence</field>
   <field type="string">pseudopotential</field>
   <set>
    <rc><c>   2</c><c>Pt</c><c>    195.08000000</c><c>     16.00000000</c><c>  PAW_PBE Pt_pv 12Dec2005               </c></rc>
   </set>
  </array>
 </atominfo>
 <structure name="initialpos" >
  <crystal>
   <varray name="basis" >
    <v>       2.76000000       0.00000000       0.00000000 </v>
    <v>      -1.38000000       2.39023011       0.00000000 </v>
    <v>       0.00000000       0.00000000       4.79000000 </v>
   </varray>
   <i name="volume">     31.59979821 </i>
   <varray name="rec_basis" >
    <v>       0.36231884       0.20918488       0.00000000 </v>
    <v>       0.00000000       0.41836976       0.00000000 </v>
    <v>       0.00000000       0.00000000       0.20876827 </v>
   </varray>
  </crystal>
  <varray name="positions" >
   <v>       0.00000000       0.00000000       0.00000000 </v>
   <v>       0.33333333       0.66666667       0.50000000 </v>
  </varray>
 </structure>
 <calculation>
  <scstep>
   <time name="dav">    0.32    0.32</time>
   <time name="total">    0.32    0.33</time>
   <energy>
    <i name="alphaZ">    303.71314961 </i>
    <i name="ewald">  -4240.69024974 </i>
    <i name="hartreedc">   -819.48907223 </i>
    <i name="XCdc">    127.32804754 </i>
    <i name="pawpsdc">   4131.50523274 </i>
    <i name="pawaedc">  -4061.67189606 </i>
    <i name="eentropy">     -0.00211427 </i>
    <i name="bandstr">   -146.24340121 </i>
    <i name="atom">   4856.45612297 </i>
    <i name="e_fr_energy">    150.90581936 </i>
    <i name="e_wo_entrp">    150.90793362 </i>
    <i name="e_0_energy">    150.90687649 </i>
   </energy>
  </scstep>
  <scstep>
   <time name="dav">    0.35    0.35</time>
   <time name="total">    0.35    0.35</time>
   <energy>
    <i name="e_fr_energy">    -11.27788044 </i>
    <i name="e_wo_entrp">    -11.27255669 </i>
    <i name="e_0_energy">    -11.27521857 </i>
   </energy>
  </scstep>
  <scstep>
   <time name="dav">    0.49    0.49</time>
   <time name="total">    0.49    0.49</time>
   <energy>
    <i name="e_fr_energy">    -12.74347411 </i>
    <i name="e_wo_entrp">    -12.73904486 </i>
    <i name="e_0_energy">    -12.74125949 </i>
   </energy>
  </scstep>
  <scstep>
   <time name="dav">    0.61    0.61</time>
   <time name="total">    0.61    0.61</time>
   <energy>
    <i name="e_fr_energy">    -12.74852246 </i>
    <i name="e_wo_entrp">    -12.74410477 </i>
    <i name="e_0_energy">    -12.74631362 </i>
   </energy>
  </scstep>
  <scstep>
   <time name="dav">    0.52    0.52</time>
   <time name="total">    0.54    0.54</time>
   <energy>
    <i name="e_fr_energy">    -12.74852400 </i>
    <i name="e_wo_entrp">    -12.74410635 </i>
    <i name="e_0_energy">    -12.74631517 </i>
   </energy>
  </scstep>
  <scstep>
   <time name="dav">    0.34    0.34</time>
   <time name="total">    0.37    0.37</time>
   <energy>
    <i name="e_fr_energy">    -12.07390674 </i>
    <i name="e_wo_entrp">    -12.06943485 </i>
    <i name="e_0_energy">    -12.07167080 </i>
   </energy>
  </scstep>
  <scstep>
   <time name="dav">    0.52    0.52</time>
   <time name="total">    0.55    0.55</time>
   <energy>
    <i name="e_fr_energy">    -12.04155893 </i>
    <i name="e_wo_entrp">    -12.03686131 </i>
    <i name="e_0_energy">    -12.03921012 </i>
   </energy>
  </scstep>
  <scstep>
   <time name="dav">    0.35    0.35</time>
   <time name="total">    0.37    0.38</time>
   <energy>
    <i name="e_fr_energy">    -12.03945358 </i>
    <i name="e_wo_entrp">    -12.03470443 </i>
    <i name="e_0_energy">    -12.03707901 </i>
   </energy>
  </scstep>
  <scstep>
   <time name="dav">    0.53    0.53</time>
   <time name="total">    0.56    0.56</time>
   <energy>
    <i name="e_fr_energy">    -12.03928082 </i>
    <i name="e_wo_entrp">    -12.03455712 </i>
    <i name="e_0_energy">    -12.03691897 </i>
   </energy>
  </scstep>
  <scstep>
   <time name="dav">    0.42    0.42</time>
   <time name="total">    0.45    0.45</time>
   <energy>
    <i name="e_fr_energy">    -12.03929532 </i>
    <i name="e_wo_entrp">    -12.03457555 </i>
    <i name="e_0_energy">    -12.03693544 </i>
   </energy>
  </scstep>
  <scstep>
   <time name="dav">    0.38    0.39</time>
   <time name="total">    0.39    0.39</time>
   <energy>
    <i name="alphaZ">    303.71314961 </i>
    <i name="ewald">  -4240.69024974 </i>
    <i name="hartreedc">   -780.80507468 </i>
    <i name="XCdc">    125.62860707 </i>
    <i name="pawpsdc">   4628.60168139 </i>
    <i name="pawaedc">  -4563.73357832 </i>
    <i name="eentropy">     -0.00472049 </i>
    <i name="bandstr">   -341.20523267 </i>
    <i name="atom">   4856.45612297 </i>
    <i name="e_fr_energy">    -12.03929486 </i>
    <i name="e_wo_entrp">    -12.03457437 </i>
    <i name="e_0_energy">    -12.03693462 </i>
   </energy>
  </scstep>
  <structure>
   <crystal>
    <varray name="basis" >
     <v>       2.76000000       0.00000000       0.00000000 </v>
     <v>      -1.38000000       2.39023011       0.00000000 </v>
     <v>       0.00000000       0.00000000       4.79000000 </v>
    </varray>
    <i name="volume">     31.59979821 </i>
    <varray name="rec_basis" >
     <v>       0.36231884       0.20918488       0.00000000 </v>
     <v>       0.00000000       0.41836976       0.00000000 </v>
     <v>       0.00000000       0.00000000       0.20876827 </v>
    </varray>
   </crystal>
   <varray name="positions" >
    <v>       0.00000000       0.00000000       0.00000000 </v>
    <v>       0.33333333       0.66666667       0.50000000 </v>
   </varray>
  </structure>
  <varray name="forces" >
   <v>       0.00000000       0.00000000       0.00000000 </v>
   <v>      -0.00000000       0.00000000       0.00000000 </v>
  </varray>
  <varray name="stress" >
   <v>     -15.89960617      -0.00000000       0.00000000 </v>
   <v>       0.00000000     -15.89960617       0.00000000 </v>
   <v>       0.00000000       0.00000000     -16.97566641 </v>
  </varray>
  <energy>
   <i name="e_fr_energy">    -12.03929486 </i>
   <i name="e_wo_entrp">    -12.03457437 </i>
   <i name="e_0_energy">    -12.03693462 </i>
  </energy>
  <time name="totalsc">    5.24    5.28</time>
  <eigenvalues>
   <array>
    <dimension dim="1">band</dimension>
    <dimension dim="2">kpoint</dimension>
    <dimension dim="3">spin</dimension>
    <field>eigene</field>
    <field>occ</field>
    <set>
     <set comment="spin 1">
      <set comment="kpoint 1">
       <r>  -41.4752    1.0000 </r>
       <r>  -41.3069    1.0000 </r>
       <r>  -41.3069    1.0000 </r>
       <r>  -41.2671    1.0000 </r>
       <r>  -41.2671    1.0000 </r>
       <r>  -41.1471    1.0000 </r>
       <r>    1.4211    1.0000 </r>
       <r>    4.0669    1.0000 </r>
       <r>    7.2027    1.0000 </r>
       <r>    7.7101    1.0000 </r>
       <r>    7.7101    1.0000 </r>
       <r>    8.0747    1.0000 </r>
       <r>    8.0747    1.0000 </r>
       <r>    9.3440    1.0000 </r>
       <r>    9.3440    1.0000 </r>
       <r>   10.4198    1.0000 </r>
       <r>   10.9205    1.0000 </r>
       <r>   10.9205    1.0000 </r>
       <r>   15.8078    0.0000 </r>
       <r>   26.2265    0.0000 </r>
       <r>   26.8063    0.0000 </r>
       <r>   28.3757    0.0000 </r>
       <r>   32.1693    0.0000 </r>
       <r>   32.1693    0.0000 </r>
      </set>
      <set comment="kpoint 2">
       <r>  -41.4636    1.0000 </r>
       <r>  -41.3433    1.0000 </r>
       <r>  -41.3175    1.0000 </r>
       <r>  -41.3041    1.0000 </r>
       <r>  -41.2746    1.0000 </r>
       <r>  -41.1495    1.0000 </r>
       <r>    1.7824    1.0000 </r>
       <r>    4.3944    1.0000 </r>
       <r>    7.1397    1.0000 </r>
       <r>    7.7165    1.0000 </r>
       <r>    7.9258    1.0000 </r>
       <r>    7.9856    1.0000 </r>
       <r>    8.3369    1.0000 </r>
       <r>    8.7593    1.0000 </r>
       <r>    9.1741    1.0000 </r>
       <r>    9.3187    1.0000 </r>
       <r>   10.9824    1.0000 </r>
       <r>   12.6779    0.0000 </r>
       <r>   15.7718    0.0000 </r>
       <r>   26.6591    0.0000 </r>
       <r>   27.3347    0.0000 </r>
       <r>   28.7036    0.0000 </r>
       <r>   30.5438    0.0000 </r>
       <r>   30.6627    0.0000 </r>
      </set>
      <set comment="kpoint 3">
       <r>  -41.4381    1.0000 </r>
       <r>  -41.4312    1.0000 </r>
       <r>  -41.4000    1.0000 </r>
       <r>  -41.3445    1.0000 </r>
       <r>  -41.2946    1.0000 </r>
       <r>  -41.1582    1.0000 </r>
       <r>    2.7674    1.0000 </r>
       <r>    5.1149    1.0000 </r>
       <r>    6.9153    1.0000 </r>
       <r>    7.3982    1.0000 </r>
       <r>    7.4346    1.0000 </r>
       <r>    8.3353    1.0000 </r>
       <r>    8.7663    1.0000 </r>
       <r>    8.7965    1.0000 </r>
       <r>    8.8061    1.0000 </r>
       <r>    9.0734    1.0000 </r>
       <r>   11.0811    0.8829 </r>
       <r>   14.8475    0.0000 </r>
       <r>   15.7041    0.0000 </r>
       <r>   25.1581    0.0000 </r>
       <r>   27.9563    0.0000 </r>
       <r>   28.2353    0.0000 </r>
       <r>   29.1105    0.0000 </r>
       <r>   29.3100    0.0000 </r>
      </set>
      <set comment="kpoint 4">
       <r>  -41.5550    1.0000 </r>
       <r>  -41.5157    1.0000 </r>
       <r>  -41.3858    1.0000 </r>
       <r>  -41.3771    1.0000 </r>
       <r>  -41.3197    1.0000 </r>
       <r>  -41.1744    1.0000 </r>
       <r>    3.9721    1.0000 </r>
       <r>    5.2405    1.0000 </r>
       <r>    6.3454    1.0000 </r>
       <r>    7.1775    1.0000 </r>
       <r>    7.5354    1.0000 </r>
       <r>    8.2949    1.0000 </r>
       <r>    8.4070    1.0000 </r>
       <r>    9.4835    1.0000 </r>
       <r>    9.8875    1.0000 </r>
       <r>   10.1171    1.0000 </r>
       <r>   11.1338    0.3808 </r>
       <r>   15.8270    0.0000 </r>
       <r>   17.0566    0.0000 </r>
       <r>   21.4354    0.0000 </r>
       <r>   25.8537    0.0000 </r>
       <r>   26.4001    0.0000 </r>
       <r>   27.9940    0.0000 </r>
       <r>   29.1005    0.0000 </r>
      </set>
      <set comment="kpoint 5">
       <r>  -41.6492    1.0000 </r>
       <r>  -41.6071    1.0000 </r>
       <r>  -41.4031    1.0000 </r>
       <r>  -41.3402    1.0000 </r>
       <r>  -41.3399    1.0000 </r>
       <r>  -41.1967    1.0000 </r>
       <r>    4.6309    1.0000 </r>
       <r>    4.9270    1.0000 </r>
       <r>    5.6941    1.0000 </r>
       <r>    7.6950    1.0000 </r>
       <r>    7.9210    1.0000 </r>
       <r>    8.1297    1.0000 </r>
       <r>    8.3470    1.0000 </r>
       <r>   10.9684    1.0000 </r>
       <r>   11.1442    0.2751 </r>
       <r>   11.1450    0.2679 </r>
       <r>   11.3536    0.0000 </r>
       <r>   16.6326    0.0000 </r>
       <r>   17.7993    0.0000 </r>
       <r>   19.0203    0.0000 </r>
       <r>   23.5347    0.0000 </r>
       <r>   23.9460    0.0000 </r>
       <r>   25.0471    0.0000 </r>
       <r>   27.8251    0.0000 </r>
      </set>
      <set comment="kpoint 6">
       <r>  -41.6851    1.0000 </r>
       <r>  -41.6418    1.0000 </r>
       <r>  -41.4125    1.0000 </r>
       <r>  -41.3480    1.0000 </r>
       <r>  -41.3166    1.0000 </r>
       <r>  -41.2104    1.0000 </r>
       <r>    4.7219    1.0000 </r>
       <r>    4.7987    1.0000 </r>
       <r>    5.4739    1.0000 </r>
       <r>    7.7857    1.0000 </r>
       <r>    8.0305    1.0000 </r>
       <r>    8.2161    1.0000 </r>
       <r>    8.5517    1.0000 </r>
       <r>   11.1444    0.2740 </r>
       <r>   11.4233    0.0000 </r>
       <r>   11.6235    0.0000 </r>
       <r>   13.3985    0.0000 </r>
       <r>   14.8734    0.0000 </r>
       <r>   18.3937    0.0000 </r>
       <r>   19.9690    0.0000 </r>
       <r>   20.6320    0.0000 </r>
       <r>   23.1668    0.0000 </r>
       <r>   24.4008    0.0000 </r>
       <r>   27.2512    0.0000 </r>
      </set>
      <set comment="kpoint 7">
       <r>  -41.4415    1.0000 </r>
       <r>  -41.4024    1.0000 </r>
       <r>  -41.3771    1.0000 </r>
       <r>  -41.3307    1.0000 </r>
       <r>  -41.2932    1.0000 </r>
       <r>  -41.1552    1.0000 </r>
       <r>    2.4640    1.0000 </r>
       <r>    4.9665    1.0000 </r>
       <r>    6.8745    1.0000 </r>
       <r>    7.6311    1.0000 </r>
       <r>    7.7998    1.0000 </r>
       <r>    7.9346    1.0000 </r>
       <r>    8.5687    1.0000 </r>
       <r>    8.5926    1.0000 </r>
       <r>    8.9236    1.0000 </r>
       <r>    9.2339    1.0000 </r>
       <r>   11.0029    0.9997 </r>
       <r>   14.2751    0.0000 </r>
       <r>   15.7220    0.0000 </r>
       <r>   26.5770    0.0000 </r>
       <r>   27.1848    0.0000 </r>
       <r>   28.2402    0.0000 </r>
       <r>   29.2631    0.0000 </r>
       <r>   30.0097    0.0000 </r>
      </set>
      <set comment="kpoint 8">
       <r>  -41.5006    1.0000 </r>
       <r>  -41.4753    1.0000 </r>
       <r>  -41.4025    1.0000 </r>
       <r>  -41.3684    1.0000 </r>
       <r>  -41.3233    1.0000 </r>
       <r>  -41.1679    1.0000 </r>
       <r>    3.6333    1.0000 </r>
       <r>    5.5783    1.0000 </r>
       <r>    6.6984    1.0000 </r>
       <r>    6.7545    1.0000 </r>
       <r>    7.3599    1.0000 </r>
       <r>    8.0979    1.0000 </r>
       <r>    8.5447    1.0000 </r>
       <r>    8.8679    1.0000 </r>
       <r>    9.6238    1.0000 </r>
       <r>   10.0245    1.0000 </r>
       <r>   11.0026    0.9997 </r>
       <r>   15.7696    0.0000 </r>
       <r>   16.3581    0.0000 </r>
       <r>   23.3366    0.0000 </r>
       <r>   25.2430    0.0000 </r>
       <r>   27.3943    0.0000 </r>
       <r>   29.2915    0.0000 </r>
       <r>   29.9400    0.0000 </r>
      </set>
      <set comment="kpoint 9">
       <r>  -41.6024    1.0000 </r>
       <r>  -41.5672    1.0000 </r>
       <r>  -41.4073    1.0000 </r>
       <r>  -41.3558    1.0000 </r>
       <r>  -41.3518    1.0000 </r>
       <r>  -41.1881    1.0000 </r>
       <r>    4.6892    1.0000 </r>
       <r>    5.3400    1.0000 </r>
       <r>    5.9842    1.0000 </r>
       <r>    7.1935    1.0000 </r>
       <r>    7.8006    1.0000 </r>
       <r>    7.8104    1.0000 </r>
       <r>    8.3793    1.0000 </r>
       <r>    9.6422    1.0000 </r>
       <r>   10.7040    1.0000 </r>
       <r>   10.9887    0.9999 </r>
       <r>   11.4470    0.0000 </r>
       <r>   16.3659    0.0000 </r>
       <r>   18.4869    0.0000 </r>
       <r>   19.5112    0.0000 </r>
       <r>   23.1359    0.0000 </r>
       <r>   25.9367    0.0000 </r>
       <r>   26.2412    0.0000 </r>
       <r>   28.2416    0.0000 </r>
      </set>
      <set comment="kpoint 10">
       <r>  -41.6653    1.0000 </r>
       <r>  -41.6232    1.0000 </r>
       <r>  -41.4313    1.0000 </r>
       <r>  -41.3693    1.0000 </r>
       <r>  -41.3171    1.0000 </r>
       <r>  -41.2101    1.0000 </r>
       <r>    4.9951    1.0000 </r>
       <r>    5.0847    1.0000 </r>
       <r>    5.5839    1.0000 </r>
       <r>    7.7430    1.0000 </r>
       <r>    7.9807    1.0000 </r>
       <r>    7.9813    1.0000 </r>
       <r>    8.3102    1.0000 </r>
       <r>   10.8751    1.0000 </r>
       <r>   10.9709    1.0000 </r>
       <r>   11.2556    0.0001 </r>
       <r>   13.1496    0.0000 </r>
       <r>   16.1030    0.0000 </r>
       <r>   18.0509    0.0000 </r>
       <r>   20.1538    0.0000 </r>
       <r>   20.9292    0.0000 </r>
       <r>   23.2745    0.0000 </r>
       <r>   24.8687    0.0000 </r>
       <r>   27.1727    0.0000 </r>
      </set>
      <set comment="kpoint 11">
       <r>  -41.5584    1.0000 </r>
       <r>  -41.5574    1.0000 </r>
       <r>  -41.4130    1.0000 </r>
       <r>  -41.3732    1.0000 </r>
       <r>  -41.3615    1.0000 </r>
       <r>  -41.1852    1.0000 </r>
       <r>    4.8432    1.0000 </r>
       <r>    6.1835    1.0000 </r>
       <r>    6.1865    1.0000 </r>
       <r>    6.2479    1.0000 </r>
       <r>    7.5741    1.0000 </r>
       <r>    7.6116    1.0000 </r>
       <r>    8.5709    1.0000 </r>
       <r>    8.9046    1.0000 </r>
       <r>   10.6882    1.0000 </r>
       <r>   10.8209    1.0000 </r>
       <r>   11.5286    0.0000 </r>
       <r>   16.3414    0.0000 </r>
       <r>   18.3637    0.0000 </r>
       <r>   20.9650    0.0000 </r>
       <r>   21.8790    0.0000 </r>
       <r>   26.6868    0.0000 </r>
       <r>   27.8875    0.0000 </r>
       <r>   28.3813    0.0000 </r>
      </set>
      <set comment="kpoint 12">
       <r>  -41.6198    1.0000 </r>
       <r>  -41.5912    1.0000 </r>
       <r>  -41.4641    1.0000 </r>
       <r>  -41.4165    1.0000 </r>
       <r>  -41.3178    1.0000 </r>
       <r>  -41.2094    1.0000 </r>
       <r>    5.6249    1.0000 </r>
       <r>    5.8043    1.0000 </r>
       <r>    5.8373    1.0000 </r>
       <r>    6.9831    1.0000 </r>
       <r>    7.4662    1.0000 </r>
       <r>    8.0848    1.0000 </r>
       <r>    8.1232    1.0000 </r>
       <r>    9.6952    1.0000 </r>
       <r>   10.6823    1.0000 </r>
       <r>   11.1232    0.4995 </r>
       <r>   13.2024    0.0000 </r>
       <r>   17.3632    0.0000 </r>
       <r>   18.2849    0.0000 </r>
       <r>   19.9239    0.0000 </r>
       <r>   20.4461    0.0000 </r>
       <r>   24.8502    0.0000 </r>
       <r>   25.8999    0.0000 </r>
       <r>   26.8912    0.0000 </r>
      </set>
      <set comment="kpoint 13">
       <r>  -41.6421    1.0000 </r>
       <r>  -41.5997    1.0000 </r>
       <r>  -41.4887    1.0000 </r>
       <r>  -41.4326    1.0000 </r>
       <r>  -41.2928    1.0000 </r>
       <r>  -41.2268    1.0000 </r>
       <r>    5.6701    1.0000 </r>
       <r>    5.6858    1.0000 </r>
       <r>    5.7404    1.0000 </r>
       <r>    7.5569    1.0000 </r>
       <r>    7.6063    1.0000 </r>
       <r>    7.7064    1.0000 </r>
       <r>    8.3902    1.0000 </r>
       <r>   10.4558    1.0000 </r>
       <r>   10.6318    1.0000 </r>
       <r>   10.9291    1.0000 </r>
       <r>   14.7979    0.0000 </r>
       <r>   15.3135    0.0000 </r>
       <r>   18.6245    0.0000 </r>
       <r>   20.1865    0.0000 </r>
       <r>   21.6551    0.0000 </r>
       <r>   22.6820    0.0000 </r>
       <r>   25.0986    0.0000 </r>
       <r>   26.3904    0.0000 </r>
      </set>
      <set comment="kpoint 14">
       <r>  -41.6061    1.0000 </r>
       <r>  -41.5737    1.0000 </r>
       <r>  -41.5267    1.0000 </r>
       <r>  -41.4853    1.0000 </r>
       <r>  -41.2789    1.0000 </r>
       <r>  -41.2376    1.0000 </r>
       <r>    5.7646    1.0000 </r>
       <r>    6.1754    1.0000 </r>
       <r>    6.4304    1.0000 </r>
       <r>    6.8667    1.0000 </r>
       <r>    7.4181    1.0000 </r>
       <r>    7.6850    1.0000 </r>
       <r>    8.4785    1.0000 </r>
       <r>   10.0549    1.0000 </r>
       <r>   10.4649    1.0000 </r>
       <r>   10.7685    1.0000 </r>
       <r>   14.8095    0.0000 </r>
       <r>   16.0776    0.0000 </r>
       <r>   17.4997    0.0000 </r>
       <r>   21.0172    0.0000 </r>
       <r>   22.5793    0.0000 </r>
       <r>   23.8027    0.0000 </r>
       <r>   24.6191    0.0000 </r>
       <r>   25.0027    0.0000 </r>
      </set>
      <set comment="kpoint 15">
       <r>  -41.4631    1.0000 </r>
       <r>  -41.3056    1.0000 </r>
       <r>  -41.3056    1.0000 </r>
       <r>  -41.2685    1.0000 </r>
       <r>  -41.2685    1.0000 </r>
       <r>  -41.1595    1.0000 </r>
       <r>    1.5546    1.0000 </r>
       <r>    4.0470    1.0000 </r>
       <r>    7.1699    1.0000 </r>
       <r>    7.6910    1.0000 </r>
       <r>    7.6910    1.0000 </r>
       <r>    8.0364    1.0000 </r>
       <r>    8.0364    1.0000 </r>
       <r>    9.4414    1.0000 </r>
       <r>    9.4414    1.0000 </r>
       <r>    9.8047    1.0000 </r>
       <r>   10.8929    1.0000 </r>
       <r>   10.8929    1.0000 </r>
       <r>   16.6726    0.0000 </r>
       <r>   25.7654    0.0000 </r>
       <r>   27.3141    0.0000 </r>
       <r>   28.0921    0.0000 </r>
       <r>   31.6190    0.0000 </r>
       <r>   31.6190    0.0000 </r>
      </set>
      <set comment="kpoint 16">
       <r>  -41.4528    1.0000 </r>
       <r>  -41.3410    1.0000 </r>
       <r>  -41.3160    1.0000 </r>
       <r>  -41.3063    1.0000 </r>
       <r>  -41.2762    1.0000 </r>
       <r>  -41.1609    1.0000 </r>
       <r>    1.9133    1.0000 </r>
       <r>    4.3809    1.0000 </r>
       <r>    7.1423    1.0000 </r>
       <r>    7.6317    1.0000 </r>
       <r>    7.8242    1.0000 </r>
       <r>    7.9578    1.0000 </r>
       <r>    8.2943    1.0000 </r>
       <r>    8.7050    1.0000 </r>
       <r>    9.2888    1.0000 </r>
       <r>    9.3198    1.0000 </r>
       <r>   10.9439    1.0000 </r>
       <r>   12.1413    0.0000 </r>
       <r>   16.7600    0.0000 </r>
       <r>   26.2658    0.0000 </r>
       <r>   27.7397    0.0000 </r>
       <r>   28.4756    0.0000 </r>
       <r>   29.9409    0.0000 </r>
       <r>   30.5846    0.0000 </r>
      </set>
      <set comment="kpoint 17">
       <r>  -41.4487    1.0000 </r>
       <r>  -41.4108    1.0000 </r>
       <r>  -41.4011    1.0000 </r>
       <r>  -41.3427    1.0000 </r>
       <r>  -41.2966    1.0000 </r>
       <r>  -41.1674    1.0000 </r>
       <r>    2.8831    1.0000 </r>
       <r>    5.1242    1.0000 </r>
       <r>    6.9468    1.0000 </r>
       <r>    7.1416    1.0000 </r>
       <r>    7.4426    1.0000 </r>
       <r>    8.2236    1.0000 </r>
       <r>    8.6090    1.0000 </r>
       <r>    8.9504    1.0000 </r>
       <r>    9.0152    1.0000 </r>
       <r>    9.1256    1.0000 </r>
       <r>   11.0209    0.9981 </r>
       <r>   13.6614    0.0000 </r>
       <r>   17.1708    0.0000 </r>
       <r>   25.2551    0.0000 </r>
       <r>   27.7391    0.0000 </r>
       <r>   28.3917    0.0000 </r>
       <r>   28.5970    0.0000 </r>
       <r>   29.7288    0.0000 </r>
      </set>
      <set comment="kpoint 18">
       <r>  -41.5569    1.0000 </r>
       <r>  -41.5191    1.0000 </r>
       <r>  -41.3749    1.0000 </r>
       <r>  -41.3741    1.0000 </r>
       <r>  -41.3219    1.0000 </r>
       <r>  -41.1806    1.0000 </r>
       <r>    4.0254    1.0000 </r>
       <r>    5.2685    1.0000 </r>
       <r>    6.3261    1.0000 </r>
       <r>    7.0125    1.0000 </r>
       <r>    7.5630    1.0000 </r>
       <r>    8.4012    1.0000 </r>
       <r>    8.4684    1.0000 </r>
       <r>    9.5373    1.0000 </r>
       <r>    9.9089    1.0000 </r>
       <r>   10.0694    1.0000 </r>
       <r>   11.0639    0.9530 </r>
       <r>   14.7505    0.0000 </r>
       <r>   18.1656    0.0000 </r>
       <r>   21.7051    0.0000 </r>
       <r>   26.0929    0.0000 </r>
       <r>   26.1292    0.0000 </r>
       <r>   27.6948    0.0000 </r>
       <r>   29.5603    0.0000 </r>
      </set>
      <set comment="kpoint 19">
       <r>  -41.6502    1.0000 </r>
       <r>  -41.6111    1.0000 </r>
       <r>  -41.4005    1.0000 </r>
       <r>  -41.3426    1.0000 </r>
       <r>  -41.3315    1.0000 </r>
       <r>  -41.1997    1.0000 </r>
       <r>    4.5669    1.0000 </r>
       <r>    4.9345    1.0000 </r>
       <r>    5.8478    1.0000 </r>
       <r>    7.0646    1.0000 </r>
       <r>    8.1407    1.0000 </r>
       <r>    8.2143    1.0000 </r>
       <r>    8.8926    1.0000 </r>
       <r>   10.8869    1.0000 </r>
       <r>   10.9836    1.0000 </r>
       <r>   11.2429    0.0004 </r>
       <r>   11.2661    0.0000 </r>
       <r>   15.7798    0.0000 </r>
       <r>   17.8416    0.0000 </r>
       <r>   19.8366    0.0000 </r>
       <r>   23.2596    0.0000 </r>
       <r>   24.2219    0.0000 </r>
       <r>   25.3702    0.0000 </r>
       <r>   28.0469    0.0000 </r>
      </set>
      <set comment="kpoint 20">
       <r>  -41.6859    1.0000 </r>
       <r>  -41.6458    1.0000 </r>
       <r>  -41.4103    1.0000 </r>
       <r>  -41.3505    1.0000 </r>
       <r>  -41.3102    1.0000 </r>
       <r>  -41.2120    1.0000 </r>
       <r>    4.6439    1.0000 </r>
       <r>    4.7511    1.0000 </r>
       <r>    5.6947    1.0000 </r>
       <r>    7.1277    1.0000 </r>
       <r>    8.1201    1.0000 </r>
       <r>    8.2909    1.0000 </r>
       <r>    9.3424    1.0000 </r>
       <r>   10.9679    1.0000 </r>
       <r>   11.4433    0.0000 </r>
       <r>   11.6170    0.0000 </r>
       <r>   13.1620    0.0000 </r>
       <r>   14.7617    0.0000 </r>
       <r>   18.2547    0.0000 </r>
       <r>   18.9994    0.0000 </r>
       <r>   21.8564    0.0000 </r>
       <r>   23.4563    0.0000 </r>
       <r>   24.5331    0.0000 </r>
       <r>   27.5311    0.0000 </r>
      </set>
      <set comment="kpoint 21">
       <r>  -41.4383    1.0000 </r>
       <r>  -41.3938    1.0000 </r>
       <r>  -41.3786    1.0000 </r>
       <r>  -41.3302    1.0000 </r>
       <r>  -41.2949    1.0000 </r>
       <r>  -41.1649    1.0000 </r>
       <r>    2.5868    1.0000 </r>
       <r>    4.9682    1.0000 </r>
       <r>    6.9058    1.0000 </r>
       <r>    7.3550    1.0000 </r>
       <r>    7.7122    1.0000 </r>
       <r>    7.9400    1.0000 </r>
       <r>    8.5017    1.0000 </r>
       <r>    8.7233    1.0000 </r>
       <r>    9.0135    1.0000 </r>
       <r>    9.3045    1.0000 </r>
       <r>   10.9519    1.0000 </r>
       <r>   13.3098    0.0000 </r>
       <r>   17.0159    0.0000 </r>
       <r>   26.5315    0.0000 </r>
       <r>   27.2529    0.0000 </r>
       <r>   28.1381    0.0000 </r>
       <r>   28.8110    0.0000 </r>
       <r>   30.2647    0.0000 </r>
      </set>
      <set comment="kpoint 22">
       <r>  -41.5039    1.0000 </r>
       <r>  -41.4780    1.0000 </r>
       <r>  -41.3890    1.0000 </r>
       <r>  -41.3672    1.0000 </r>
       <r>  -41.3250    1.0000 </r>
       <r>  -41.1750    1.0000 </r>
       <r>    3.7241    1.0000 </r>
       <r>    5.6123    1.0000 </r>
       <r>    6.5762    1.0000 </r>
       <r>    6.7644    1.0000 </r>
       <r>    7.3312    1.0000 </r>
       <r>    7.9923    1.0000 </r>
       <r>    8.7060    1.0000 </r>
       <r>    8.8485    1.0000 </r>
       <r>    9.7341    1.0000 </r>
       <r>    9.9725    1.0000 </r>
       <r>   10.9517    1.0000 </r>
       <r>   14.4779    0.0000 </r>
       <r>   17.8170    0.0000 </r>
       <r>   23.5160    0.0000 </r>
       <r>   25.3723    0.0000 </r>
       <r>   27.3123    0.0000 </r>
       <r>   28.6912    0.0000 </r>
       <r>   30.5184    0.0000 </r>
      </set>
      <set comment="kpoint 23">
       <r>  -41.6037    1.0000 </r>
       <r>  -41.5706    1.0000 </r>
       <r>  -41.4060    1.0000 </r>
       <r>  -41.3554    1.0000 </r>
       <r>  -41.3443    1.0000 </r>
       <r>  -41.1920    1.0000 </r>
       <r>    4.6732    1.0000 </r>
       <r>    5.3743    1.0000 </r>
       <r>    6.0483    1.0000 </r>
       <r>    6.9171    1.0000 </r>
       <r>    7.7711    1.0000 </r>
       <r>    8.1502    1.0000 </r>
       <r>    8.3935    1.0000 </r>
       <r>    9.6590    1.0000 </r>
       <r>   10.7461    1.0000 </r>
       <r>   10.8063    1.0000 </r>
       <r>   11.5055    0.0000 </r>
       <r>   15.5689    0.0000 </r>
       <r>   18.7527    0.0000 </r>
       <r>   20.2615    0.0000 </r>
       <r>   23.2477    0.0000 </r>
       <r>   25.4125    0.0000 </r>
       <r>   26.5914    0.0000 </r>
       <r>   28.4381    0.0000 </r>
      </set>
      <set comment="kpoint 24">
       <r>  -41.6661    1.0000 </r>
       <r>  -41.6272    1.0000 </r>
       <r>  -41.4295    1.0000 </r>
       <r>  -41.3721    1.0000 </r>
       <r>  -41.3099    1.0000 </r>
       <r>  -41.2114    1.0000 </r>
       <r>    4.8730    1.0000 </r>
       <r>    5.0718    1.0000 </r>
       <r>    5.8379    1.0000 </r>
       <r>    7.0701    1.0000 </r>
       <r>    7.8573    1.0000 </r>
       <r>    8.4166    1.0000 </r>
       <r>    8.8195    1.0000 </r>
       <r>   10.7626    1.0000 </r>
       <r>   10.8787    1.0000 </r>
       <r>   11.2975    0.0000 </r>
       <r>   13.1029    0.0000 </r>
       <r>   15.9077    0.0000 </r>
       <r>   17.7006    0.0000 </r>
       <r>   20.0505    0.0000 </r>
       <r>   21.4251    0.0000 </r>
       <r>   23.5368    0.0000 </r>
       <r>   25.0829    0.0000 </r>
       <r>   27.2558    0.0000 </r>
      </set>
      <set comment="kpoint 25">
       <r>  -41.5605    1.0000 </r>
       <r>  -41.5595    1.0000 </r>
       <r>  -41.4128    1.0000 </r>
       <r>  -41.3773    1.0000 </r>
       <r>  -41.3490    1.0000 </r>
       <r>  -41.1895    1.0000 </r>
       <r>    4.8771    1.0000 </r>
       <r>    6.0241    1.0000 </r>
       <r>    6.2667    1.0000 </r>
       <r>    6.3484    1.0000 </r>
       <r>    7.5842    1.0000 </r>
       <r>    7.5927    1.0000 </r>
       <r>    8.4536    1.0000 </r>
       <r>    9.0583    1.0000 </r>
       <r>   10.6096    1.0000 </r>
       <r>   10.7985    1.0000 </r>
       <r>   11.5993    0.0000 </r>
       <r>   15.5657    0.0000 </r>
       <r>   18.9809    0.0000 </r>
       <r>   21.4051    0.0000 </r>
       <r>   22.0414    0.0000 </r>
       <r>   26.5272    0.0000 </r>
       <r>   27.0446    0.0000 </r>
       <r>   29.0339    0.0000 </r>
      </set>
      <set comment="kpoint 26">
       <r>  -41.6203    1.0000 </r>
       <r>  -41.5943    1.0000 </r>
       <r>  -41.4640    1.0000 </r>
       <r>  -41.4195    1.0000 </r>
       <r>  -41.3096    1.0000 </r>
       <r>  -41.2106    1.0000 </r>
       <r>    5.4665    1.0000 </r>
       <r>    5.8512    1.0000 </r>
       <r>    6.0213    1.0000 </r>
       <r>    6.7822    1.0000 </r>
       <r>    7.6056    1.0000 </r>
       <r>    7.9786    1.0000 </r>
       <r>    8.2658    1.0000 </r>
       <r>    9.7572    1.0000 </r>
       <r>   10.4817    1.0000 </r>
       <r>   11.2254    0.0019 </r>
       <r>   13.2455    0.0000 </r>
       <r>   17.3648    0.0000 </r>
       <r>   17.6393    0.0000 </r>
       <r>   20.0030    0.0000 </r>
       <r>   21.2639    0.0000 </r>
       <r>   24.3499    0.0000 </r>
       <r>   25.9042    0.0000 </r>
       <r>   26.9460    0.0000 </r>
      </set>
      <set comment="kpoint 27">
       <r>  -41.6425    1.0000 </r>
       <r>  -41.6035    1.0000 </r>
       <r>  -41.4884    1.0000 </r>
       <r>  -41.4358    1.0000 </r>
       <r>  -41.2867    1.0000 </r>
       <r>  -41.2262    1.0000 </r>
       <r>    5.4126    1.0000 </r>
       <r>    5.7316    1.0000 </r>
       <r>    6.1130    1.0000 </r>
       <r>    7.0028    1.0000 </r>
       <r>    7.4661    1.0000 </r>
       <r>    8.1709    1.0000 </r>
       <r>    8.5586    1.0000 </r>
       <r>   10.4236    1.0000 </r>
       <r>   10.4814    1.0000 </r>
       <r>   11.0044    0.9996 </r>
       <r>   14.8772    0.0000 </r>
       <r>   15.3473    0.0000 </r>
       <r>   18.6991    0.0000 </r>
       <r>   19.8675    0.0000 </r>
       <r>   20.8410    0.0000 </r>
       <r>   23.7849    0.0000 </r>
       <r>   25.3598    0.0000 </r>
       <r>   25.6280    0.0000 </r>
      </set>
      <set comment="kpoint 28">
       <r>  -41.6050    1.0000 </r>
       <r>  -41.5772    1.0000 </r>
       <r>  -41.5285    1.0000 </r>
       <r>  -41.4887    1.0000 </r>
       <r>  -41.2737    1.0000 </r>
       <r>  -41.2360    1.0000 </r>
       <r>    5.7984    1.0000 </r>
       <r>    6.1551    1.0000 </r>
       <r>    6.4644    1.0000 </r>
       <r>    6.7517    1.0000 </r>
       <r>    7.5436    1.0000 </r>
       <r>    7.5847    1.0000 </r>
       <r>    8.4882    1.0000 </r>
       <r>   10.1478    1.0000 </r>
       <r>   10.2550    1.0000 </r>
       <r>   10.8628    1.0000 </r>
       <r>   14.9049    0.0000 </r>
       <r>   16.2209    0.0000 </r>
       <r>   17.7507    0.0000 </r>
       <r>   20.1462    0.0000 </r>
       <r>   22.7778    0.0000 </r>
       <r>   22.8749    0.0000 </r>
       <r>   24.7306    0.0000 </r>
       <r>   26.0265    0.0000 </r>
      </set>
      <set comment="kpoint 29">
       <r>  -41.4281    1.0000 </r>
       <r>  -41.3013    1.0000 </r>
       <r>  -41.3013    1.0000 </r>
       <r>  -41.2730    1.0000 </r>
       <r>  -41.2730    1.0000 </r>
       <r>  -41.1960    1.0000 </r>
       <r>    1.9385    1.0000 </r>
       <r>    3.9499    1.0000 </r>
       <r>    7.0951    1.0000 </r>
       <r>    7.6609    1.0000 </r>
       <r>    7.6609    1.0000 </r>
       <r>    7.9380    1.0000 </r>
       <r>    7.9380    1.0000 </r>
       <r>    8.6607    1.0000 </r>
       <r>    9.6932    1.0000 </r>
       <r>    9.6932    1.0000 </r>
       <r>   10.7987    1.0000 </r>
       <r>   10.7987    1.0000 </r>
       <r>   18.5827    0.0000 </r>
       <r>   25.2391    0.0000 </r>
       <r>   27.4815    0.0000 </r>
       <r>   27.6067    0.0000 </r>
       <r>   31.1120    0.0000 </r>
       <r>   31.1120    0.0000 </r>
      </set>
      <set comment="kpoint 30">
       <r>  -41.4222    1.0000 </r>
       <r>  -41.3335    1.0000 </r>
       <r>  -41.3128    1.0000 </r>
       <r>  -41.3113    1.0000 </r>
       <r>  -41.2808    1.0000 </r>
       <r>  -41.1934    1.0000 </r>
       <r>    2.2907    1.0000 </r>
       <r>    4.2984    1.0000 </r>
       <r>    7.1261    1.0000 </r>
       <r>    7.4829    1.0000 </r>
       <r>    7.5597    1.0000 </r>
       <r>    7.9142    1.0000 </r>
       <r>    8.1901    1.0000 </r>
       <r>    8.3022    1.0000 </r>
       <r>    9.5736    1.0000 </r>
       <r>    9.5746    1.0000 </r>
       <r>   10.8209    1.0000 </r>
       <r>   11.4265    0.0000 </r>
       <r>   18.7375    0.0000 </r>
       <r>   25.7414    0.0000 </r>
       <r>   27.8738    0.0000 </r>
       <r>   27.9898    0.0000 </r>
       <r>   29.6601    0.0000 </r>
       <r>   30.5405    0.0000 </r>
      </set>
      <set comment="kpoint 31">
       <r>  -41.4520    1.0000 </r>
       <r>  -41.4123    1.0000 </r>
       <r>  -41.3712    1.0000 </r>
       <r>  -41.3373    1.0000 </r>
       <r>  -41.3019    1.0000 </r>
       <r>  -41.1931    1.0000 </r>
       <r>    3.2180    1.0000 </r>
       <r>    5.0971    1.0000 </r>
       <r>    6.7671    1.0000 </r>
       <r>    7.0543    1.0000 </r>
       <r>    7.2169    1.0000 </r>
       <r>    8.0264    1.0000 </r>
       <r>    8.5266    1.0000 </r>
       <r>    8.8775    1.0000 </r>
       <r>    9.4306    1.0000 </r>
       <r>    9.4517    1.0000 </r>
       <r>   10.8439    1.0000 </r>
       <r>   12.4385    0.0000 </r>
       <r>   19.1960    0.0000 </r>
       <r>   25.5374    0.0000 </r>
       <r>   27.1599    0.0000 </r>
       <r>   27.9295    0.0000 </r>
       <r>   28.8634    0.0000 </r>
       <r>   29.8748    0.0000 </r>
      </set>
      <set comment="kpoint 32">
       <r>  -41.5595    1.0000 </r>
       <r>  -41.5285    1.0000 </r>
       <r>  -41.3686    1.0000 </r>
       <r>  -41.3439    1.0000 </r>
       <r>  -41.3281    1.0000 </r>
       <r>  -41.1985    1.0000 </r>
       <r>    4.1870    1.0000 </r>
       <r>    5.2982    1.0000 </r>
       <r>    6.2160    1.0000 </r>
       <r>    6.7566    1.0000 </r>
       <r>    7.6870    1.0000 </r>
       <r>    8.4939    1.0000 </r>
       <r>    8.6458    1.0000 </r>
       <r>    9.7681    1.0000 </r>
       <r>    9.8368    1.0000 </r>
       <r>   10.0637    1.0000 </r>
       <r>   10.8817    1.0000 </r>
       <r>   13.3463    0.0000 </r>
       <r>   19.6560    0.0000 </r>
       <r>   22.4902    0.0000 </r>
       <r>   25.2277    0.0000 </r>
       <r>   26.7801    0.0000 </r>
       <r>   27.6769    0.0000 </r>
       <r>   29.0509    0.0000 </r>
      </set>
      <set comment="kpoint 33">
       <r>  -41.6518    1.0000 </r>
       <r>  -41.6210    1.0000 </r>
       <r>  -41.3939    1.0000 </r>
       <r>  -41.3494    1.0000 </r>
       <r>  -41.3096    1.0000 </r>
       <r>  -41.2097    1.0000 </r>
       <r>    4.4885    1.0000 </r>
       <r>    4.9653    1.0000 </r>
       <r>    6.0512    1.0000 </r>
       <r>    6.4512    1.0000 </r>
       <r>    8.4216    1.0000 </r>
       <r>    8.4617    1.0000 </r>
       <r>    9.7498    1.0000 </r>
       <r>   10.4573    1.0000 </r>
       <r>   11.0116    0.9992 </r>
       <r>   11.0210    0.9981 </r>
       <r>   11.2473    0.0002 </r>
       <r>   14.3299    0.0000 </r>
       <r>   18.1755    0.0000 </r>
       <r>   20.5932    0.0000 </r>
       <r>   23.2127    0.0000 </r>
       <r>   24.9944    0.0000 </r>
       <r>   25.9294    0.0000 </r>
       <r>   28.4462    0.0000 </r>
      </set>
      <set comment="kpoint 34">
       <r>  -41.6872    1.0000 </r>
       <r>  -41.6561    1.0000 </r>
       <r>  -41.4035    1.0000 </r>
       <r>  -41.3575    1.0000 </r>
       <r>  -41.2928    1.0000 </r>
       <r>  -41.2178    1.0000 </r>
       <r>    4.4785    1.0000 </r>
       <r>    4.8064    1.0000 </r>
       <r>    5.9701    1.0000 </r>
       <r>    6.4023    1.0000 </r>
       <r>    8.3832    1.0000 </r>
       <r>    8.6134    1.0000 </r>
       <r>   10.4710    1.0000 </r>
       <r>   10.5247    1.0000 </r>
       <r>   11.4726    0.0000 </r>
       <r>   11.5988    0.0000 </r>
       <r>   12.4919    0.0000 </r>
       <r>   14.3992    0.0000 </r>
       <r>   17.9472    0.0000 </r>
       <r>   18.1621    0.0000 </r>
       <r>   23.3801    0.0000 </r>
       <r>   24.2572    0.0000 </r>
       <r>   24.8690    0.0000 </r>
       <r>   28.2663    0.0000 </r>
      </set>
      <set comment="kpoint 35">
       <r>  -41.4296    1.0000 </r>
       <r>  -41.3836    1.0000 </r>
       <r>  -41.3683    1.0000 </r>
       <r>  -41.3280    1.0000 </r>
       <r>  -41.2998    1.0000 </r>
       <r>  -41.1924    1.0000 </r>
       <r>    2.9425    1.0000 </r>
       <r>    4.9205    1.0000 </r>
       <r>    6.9609    1.0000 </r>
       <r>    7.0023    1.0000 </r>
       <r>    7.3411    1.0000 </r>
       <r>    7.9215    1.0000 </r>
       <r>    8.3971    1.0000 </r>
       <r>    8.6836    1.0000 </r>
       <r>    9.4404    1.0000 </r>
       <r>    9.5188    1.0000 </r>
       <r>   10.7968    1.0000 </r>
       <r>   12.2007    0.0000 </r>
       <r>   19.0580    0.0000 </r>
       <r>   26.3251    0.0000 </r>
       <r>   27.4853    0.0000 </r>
       <r>   27.9744    0.0000 </r>
       <r>   28.1948    0.0000 </r>
       <r>   29.6902    0.0000 </r>
      </set>
      <set comment="kpoint 36">
       <r>  -41.5085    1.0000 </r>
       <r>  -41.4847    1.0000 </r>
       <r>  -41.3653    1.0000 </r>
       <r>  -41.3549    1.0000 </r>
       <r>  -41.3294    1.0000 </r>
       <r>  -41.1954    1.0000 </r>
       <r>    3.9874    1.0000 </r>
       <r>    5.6504    1.0000 </r>
       <r>    6.2926    1.0000 </r>
       <r>    6.8495    1.0000 </r>
       <r>    7.1756    1.0000 </r>
       <r>    7.8479    1.0000 </r>
       <r>    8.6749    1.0000 </r>
       <r>    9.2347    1.0000 </r>
       <r>    9.8661    1.0000 </r>
       <r>    9.9533    1.0000 </r>
       <r>   10.8119    1.0000 </r>
       <r>   13.1212    0.0000 </r>
       <r>   19.6575    0.0000 </r>
       <r>   24.0351    0.0000 </r>
       <r>   25.6185    0.0000 </r>
       <r>   27.0110    0.0000 </r>
       <r>   28.1487    0.0000 </r>
       <r>   28.8190    0.0000 </r>
      </set>
      <set comment="kpoint 37">
       <r>  -41.6059    1.0000 </r>
       <r>  -41.5795    1.0000 </r>
       <r>  -41.4014    1.0000 </r>
       <r>  -41.3619    1.0000 </r>
       <r>  -41.3190    1.0000 </r>
       <r>  -41.2044    1.0000 </r>
       <r>    4.6815    1.0000 </r>
       <r>    5.4245    1.0000 </r>
       <r>    6.0692    1.0000 </r>
       <r>    6.6428    1.0000 </r>
       <r>    7.8178    1.0000 </r>
       <r>    8.4366    1.0000 </r>
       <r>    8.5923    1.0000 </r>
       <r>    9.7771    1.0000 </r>
       <r>   10.3374    1.0000 </r>
       <r>   10.9679    1.0000 </r>
       <r>   11.5370    0.0000 </r>
       <r>   14.1853    0.0000 </r>
       <r>   19.3129    0.0000 </r>
       <r>   21.6490    0.0000 </r>
       <r>   23.2829    0.0000 </r>
       <r>   25.1049    0.0000 </r>
       <r>   26.9085    0.0000 </r>
       <r>   28.1432    0.0000 </r>
      </set>
      <set comment="kpoint 38">
       <r>  -41.6672    1.0000 </r>
       <r>  -41.6370    1.0000 </r>
       <r>  -41.4241    1.0000 </r>
       <r>  -41.3797    1.0000 </r>
       <r>  -41.2912    1.0000 </r>
       <r>  -41.2167    1.0000 </r>
       <r>    4.7165    1.0000 </r>
       <r>    5.1323    1.0000 </r>
       <r>    6.1481    1.0000 </r>
       <r>    6.4277    1.0000 </r>
       <r>    7.8617    1.0000 </r>
       <r>    8.8667    1.0000 </r>
       <r>    9.5027    1.0000 </r>
       <r>   10.3055    1.0000 </r>
       <r>   10.8290    1.0000 </r>
       <r>   11.3989    0.0000 </r>
       <r>   12.9969    0.0000 </r>
       <r>   15.2040    0.0000 </r>
       <r>   17.4894    0.0000 </r>
       <r>   19.5535    0.0000 </r>
       <r>   22.5203    0.0000 </r>
       <r>   24.2651    0.0000 </r>
       <r>   25.5572    0.0000 </r>
       <r>   27.1083    0.0000 </r>
      </set>
      <set comment="kpoint 39">
       <r>  -41.5666    1.0000 </r>
       <r>  -41.5626    1.0000 </r>
       <r>  -41.4114    1.0000 </r>
       <r>  -41.3840    1.0000 </r>
       <r>  -41.3213    1.0000 </r>
       <r>  -41.2022    1.0000 </r>
       <r>    4.9803    1.0000 </r>
       <r>    5.8446    1.0000 </r>
       <r>    6.3425    1.0000 </r>
       <r>    6.5101    1.0000 </r>
       <r>    7.5019    1.0000 </r>
       <r>    7.5430    1.0000 </r>
       <r>    8.3226    1.0000 </r>
       <r>    9.5003    1.0000 </r>
       <r>   10.1773    1.0000 </r>
       <r>   11.0224    0.9978 </r>
       <r>   11.6811    0.0000 </r>
       <r>   14.2350    0.0000 </r>
       <r>   20.0091    0.0000 </r>
       <r>   22.4537    0.0000 </r>
       <r>   22.5002    0.0000 </r>
       <r>   25.9386    0.0000 </r>
       <r>   26.1465    0.0000 </r>
       <r>   28.6811    0.0000 </r>
      </set>
      <set comment="kpoint 40">
       <r>  -41.6215    1.0000 </r>
       <r>  -41.6022    1.0000 </r>
       <r>  -41.4625    1.0000 </r>
       <r>  -41.4274    1.0000 </r>
       <r>  -41.2893    1.0000 </r>
       <r>  -41.2152    1.0000 </r>
       <r>    5.3340    1.0000 </r>
       <r>    5.9831    1.0000 </r>
       <r>    6.0127    1.0000 </r>
       <r>    6.7856    1.0000 </r>
       <r>    7.4600    1.0000 </r>
       <r>    8.0460    1.0000 </r>
       <r>    8.4756    1.0000 </r>
       <r>    9.8781    1.0000 </r>
       <r>   10.1330    1.0000 </r>
       <r>   11.4162    0.0000 </r>
       <r>   13.3550    0.0000 </r>
       <r>   16.1015    0.0000 </r>
       <r>   18.0268    0.0000 </r>
       <r>   20.4137    0.0000 </r>
       <r>   22.0220    0.0000 </r>
       <r>   24.0165    0.0000 </r>
       <r>   25.3490    0.0000 </r>
       <r>   27.4631    0.0000 </r>
      </set>
      <set comment="kpoint 41">
       <r>  -41.6424    1.0000 </r>
       <r>  -41.6132    1.0000 </r>
       <r>  -41.4859    1.0000 </r>
       <r>  -41.4442    1.0000 </r>
       <r>  -41.2713    1.0000 </r>
       <r>  -41.2256    1.0000 </r>
       <r>    5.2629    1.0000 </r>
       <r>    5.8451    1.0000 </r>
       <r>    6.4289    1.0000 </r>
       <r>    6.5943    1.0000 </r>
       <r>    7.2081    1.0000 </r>
       <r>    8.4866    1.0000 </r>
       <r>    8.8812    1.0000 </r>
       <r>    9.9319    1.0000 </r>
       <r>   10.5784    1.0000 </r>
       <r>   11.1547    0.1857 </r>
       <r>   15.1136    0.0000 </r>
       <r>   15.4506    0.0000 </r>
       <r>   18.4303    0.0000 </r>
       <r>   19.1125    0.0000 </r>
       <r>   20.6247    0.0000 </r>
       <r>   24.6130    0.0000 </r>
       <r>   25.2420    0.0000 </r>
       <r>   26.0177    0.0000 </r>
      </set>
      <set comment="kpoint 42">
       <r>  -41.6025    1.0000 </r>
       <r>  -41.5849    1.0000 </r>
       <r>  -41.5310    1.0000 </r>
       <r>  -41.4974    1.0000 </r>
       <r>  -41.2606    1.0000 </r>
       <r>  -41.2323    1.0000 </r>
       <r>    5.8607    1.0000 </r>
       <r>    6.0755    1.0000 </r>
       <r>    6.5801    1.0000 </r>
       <r>    6.6481    1.0000 </r>
       <r>    7.3935    1.0000 </r>
       <r>    7.6835    1.0000 </r>
       <r>    8.5112    1.0000 </r>
       <r>    9.7368    1.0000 </r>
       <r>   10.4184    1.0000 </r>
       <r>   11.0425    0.9887 </r>
       <r>   15.1904    0.0000 </r>
       <r>   16.6620    0.0000 </r>
       <r>   18.3878    0.0000 </r>
       <r>   18.8046    0.0000 </r>
       <r>   21.3976    0.0000 </r>
       <r>   22.3868    0.0000 </r>
       <r>   25.7491    0.0000 </r>
       <r>   27.3358    0.0000 </r>
      </set>
      <set comment="kpoint 43">
       <r>  -41.3753    1.0000 </r>
       <r>  -41.2949    1.0000 </r>
       <r>  -41.2949    1.0000 </r>
       <r>  -41.2795    1.0000 </r>
       <r>  -41.2795    1.0000 </r>
       <r>  -41.2500    1.0000 </r>
       <r>    2.5143    1.0000 </r>
       <r>    3.6744    1.0000 </r>
       <r>    7.0561    1.0000 </r>
       <r>    7.6631    1.0000 </r>
       <r>    7.6631    1.0000 </r>
       <r>    7.7074    1.0000 </r>
       <r>    7.8184    1.0000 </r>
       <r>    7.8184    1.0000 </r>
       <r>   10.0203    1.0000 </r>
       <r>   10.0203    1.0000 </r>
       <r>   10.6171    1.0000 </r>
       <r>   10.6171    1.0000 </r>
       <r>   20.8422    0.0000 </r>
       <r>   24.5665    0.0000 </r>
       <r>   26.9068    0.0000 </r>
       <r>   27.0468    0.0000 </r>
       <r>   31.0561    0.0000 </r>
       <r>   31.0561    0.0000 </r>
      </set>
      <set comment="kpoint 44">
       <r>  -41.3798    1.0000 </r>
       <r>  -41.3246    1.0000 </r>
       <r>  -41.3186    1.0000 </r>
       <r>  -41.3044    1.0000 </r>
       <r>  -41.2879    1.0000 </r>
       <r>  -41.2401    1.0000 </r>
       <r>    2.8608    1.0000 </r>
       <r>    4.0299    1.0000 </r>
       <r>    7.0354    1.0000 </r>
       <r>    7.2004    1.0000 </r>
       <r>    7.4737    1.0000 </r>
       <r>    7.8793    1.0000 </r>
       <r>    7.9096    1.0000 </r>
       <r>    8.0666    1.0000 </r>
       <r>    9.9334    1.0000 </r>
       <r>    9.9882    1.0000 </r>
       <r>   10.6020    1.0000 </r>
       <r>   10.8981    1.0000 </r>
       <r>   21.0040    0.0000 </r>
       <r>   24.9451    0.0000 </r>
       <r>   27.3386    0.0000 </r>
       <r>   27.4110    0.0000 </r>
       <r>   29.7103    0.0000 </r>
       <r>   30.7251    0.0000 </r>
      </set>
      <set comment="kpoint 45">
       <r>  -41.4467    1.0000 </r>
       <r>  -41.4237    1.0000 </r>
       <r>  -41.3291    1.0000 </r>
       <r>  -41.3266    1.0000 </r>
       <r>  -41.3100    1.0000 </r>
       <r>  -41.2317    1.0000 </r>
       <r>    3.7312    1.0000 </r>
       <r>    4.8568    1.0000 </r>
       <r>    6.5512    1.0000 </r>
       <r>    6.9019    1.0000 </r>
       <r>    7.2331    1.0000 </r>
       <r>    7.7619    1.0000 </r>
       <r>    8.5333    1.0000 </r>
       <r>    8.7422    1.0000 </r>
       <r>    9.8129    1.0000 </r>
       <r>   10.0149    1.0000 </r>
       <r>   10.5626    1.0000 </r>
       <r>   11.4705    0.0000 </r>
       <r>   21.3653    0.0000 </r>
       <r>   25.4982    0.0000 </r>
       <r>   26.2617    0.0000 </r>
       <r>   27.2995    0.0000 </r>
       <r>   29.1053    0.0000 </r>
       <r>   29.6480    0.0000 </r>
      </set>
      <set comment="kpoint 46">
       <r>  -41.5581    1.0000 </r>
       <r>  -41.5405    1.0000 </r>
       <r>  -41.3595    1.0000 </r>
       <r>  -41.3376    1.0000 </r>
       <r>  -41.3045    1.0000 </r>
       <r>  -41.2271    1.0000 </r>
       <r>    4.4546    1.0000 </r>
       <r>    5.1482    1.0000 </r>
       <r>    6.1669    1.0000 </r>
       <r>    6.5459    1.0000 </r>
       <r>    7.9207    1.0000 </r>
       <r>    8.4088    1.0000 </r>
       <r>    8.9171    1.0000 </r>
       <r>    9.5734    1.0000 </r>
       <r>   10.2090    1.0000 </r>
       <r>   10.2667    1.0000 </r>
       <r>   10.6467    1.0000 </r>
       <r>   12.0865    0.0000 </r>
       <r>   21.0859    0.0000 </r>
       <r>   23.4048    0.0000 </r>
       <r>   24.3094    0.0000 </r>
       <r>   26.7952    0.0000 </r>
       <r>   27.8361    0.0000 </r>
       <r>   29.1270    0.0000 </r>
      </set>
      <set comment="kpoint 47">
       <r>  -41.6505    1.0000 </r>
       <r>  -41.6334    1.0000 </r>
       <r>  -41.3838    1.0000 </r>
       <r>  -41.3597    1.0000 </r>
       <r>  -41.2809    1.0000 </r>
       <r>  -41.2274    1.0000 </r>
       <r>    4.5273    1.0000 </r>
       <r>    4.9017    1.0000 </r>
       <r>    6.0198    1.0000 </r>
       <r>    6.1870    1.0000 </r>
       <r>    8.8536    1.0000 </r>
       <r>    8.9934    1.0000 </r>
       <r>    9.9167    1.0000 </r>
       <r>   10.2818    1.0000 </r>
       <r>   10.9117    1.0000 </r>
       <r>   11.0777    0.9004 </r>
       <r>   11.2056    0.0099 </r>
       <r>   12.9473    0.0000 </r>
       <r>   18.7495    0.0000 </r>
       <r>   20.2493    0.0000 </r>
       <r>   24.1211    0.0000 </r>
       <r>   26.0173    0.0000 </r>
       <r>   26.1285    0.0000 </r>
       <r>   28.8031    0.0000 </r>
      </set>
      <set comment="kpoint 48">
       <r>  -41.6854    1.0000 </r>
       <r>  -41.6683    1.0000 </r>
       <r>  -41.3930    1.0000 </r>
       <r>  -41.3681    1.0000 </r>
       <r>  -41.2696    1.0000 </r>
       <r>  -41.2296    1.0000 </r>
       <r>    4.4679    1.0000 </r>
       <r>    4.7765    1.0000 </r>
       <r>    5.9951    1.0000 </r>
       <r>    6.0272    1.0000 </r>
       <r>    8.8011    1.0000 </r>
       <r>    9.3094    1.0000 </r>
       <r>    9.9434    1.0000 </r>
       <r>   11.2325    0.0010 </r>
       <r>   11.5045    0.0000 </r>
       <r>   11.5715    0.0000 </r>
       <r>   11.8982    0.0000 </r>
       <r>   13.7461    0.0000 </r>
       <r>   17.6791    0.0000 </r>
       <r>   17.7200    0.0000 </r>
       <r>   24.6356    0.0000 </r>
       <r>   25.2234    0.0000 </r>
       <r>   25.4099    0.0000 </r>
       <r>   28.0180    0.0000 </r>
      </set>
      <set comment="kpoint 49">
       <r>  -41.4178    1.0000 </r>
       <r>  -41.3927    1.0000 </r>
       <r>  -41.3294    1.0000 </r>
       <r>  -41.3231    1.0000 </r>
       <r>  -41.3063    1.0000 </r>
       <r>  -41.2331    1.0000 </r>
       <r>    3.4869    1.0000 </r>
       <r>    4.6627    1.0000 </r>
       <r>    6.6989    1.0000 </r>
       <r>    6.9878    1.0000 </r>
       <r>    7.1711    1.0000 </r>
       <r>    7.6870    1.0000 </r>
       <r>    8.3906    1.0000 </r>
       <r>    8.5668    1.0000 </r>
       <r>    9.8435    1.0000 </r>
       <r>    9.9999    1.0000 </r>
       <r>   10.5414    1.0000 </r>
       <r>   11.3379    0.0000 </r>
       <r>   21.2895    0.0000 </r>
       <r>   25.4702    0.0000 </r>
       <r>   27.5598    0.0000 </r>
       <r>   27.7044    0.0000 </r>
       <r>   27.9158    0.0000 </r>
       <r>   28.7611    0.0000 </r>
      </set>
      <set comment="kpoint 50">
       <r>  -41.5083    1.0000 </r>
       <r>  -41.4938    1.0000 </r>
       <r>  -41.3581    1.0000 </r>
       <r>  -41.3415    1.0000 </r>
       <r>  -41.3095    1.0000 </r>
       <r>  -41.2270    1.0000 </r>
       <r>    4.3957    1.0000 </r>
       <r>    5.3970    1.0000 </r>
       <r>    6.2632    1.0000 </r>
       <r>    6.7959    1.0000 </r>
       <r>    7.1189    1.0000 </r>
       <r>    7.6133    1.0000 </r>
       <r>    8.8184    1.0000 </r>
       <r>    9.3370    1.0000 </r>
       <r>   10.1397    1.0000 </r>
       <r>   10.2066    1.0000 </r>
       <r>   10.6141    1.0000 </r>
       <r>   11.9485    0.0000 </r>
       <r>   21.5830    0.0000 </r>
       <r>   24.8151    0.0000 </r>
       <r>   25.1386    0.0000 </r>
       <r>   26.9933    0.0000 </r>
       <r>   27.0028    0.0000 </r>
       <r>   27.9150    0.0000 </r>
      </set>
      <set comment="kpoint 51">
       <r>  -41.6052    1.0000 </r>
       <r>  -41.5904    1.0000 </r>
       <r>  -41.3933    1.0000 </r>
       <r>  -41.3716    1.0000 </r>
       <r>  -41.2862    1.0000 </r>
       <r>  -41.2251    1.0000 </r>
       <r>    4.7892    1.0000 </r>
       <r>    5.2940    1.0000 </r>
       <r>    6.0863    1.0000 </r>
       <r>    6.4964    1.0000 </r>
       <r>    8.0360    1.0000 </r>
       <r>    8.4553    1.0000 </r>
       <r>    8.8844    1.0000 </r>
       <r>    9.6602    1.0000 </r>
       <r>   10.4073    1.0000 </r>
       <r>   11.1577    0.1637 </r>
       <r>   11.5186    0.0000 </r>
       <r>   12.8423    0.0000 </r>
       <r>   20.1300    0.0000 </r>
       <r>   22.0120    0.0000 </r>
       <r>   23.7966    0.0000 </r>
       <r>   25.6104    0.0000 </r>
       <r>   26.7756    0.0000 </r>
       <r>   27.0041    0.0000 </r>
      </set>
      <set comment="kpoint 52">
       <r>  -41.6657    1.0000 </r>
       <r>  -41.6492    1.0000 </r>
       <r>  -41.4149    1.0000 </r>
       <r>  -41.3908    1.0000 </r>
       <r>  -41.2672    1.0000 </r>
       <r>  -41.2275    1.0000 </r>
       <r>    4.7172    1.0000 </r>
       <r>    5.0871    1.0000 </r>
       <r>    6.0563    1.0000 </r>
       <r>    6.2494    1.0000 </r>
       <r>    8.2047    1.0000 </r>
       <r>    9.3588    1.0000 </r>
       <r>    9.5259    1.0000 </r>
       <r>   10.0735    1.0000 </r>
       <r>   10.8542    1.0000 </r>
       <r>   11.3912    0.0000 </r>
       <r>   13.0429    0.0000 </r>
       <r>   14.2813    0.0000 </r>
       <r>   17.7236    0.0000 </r>
       <r>   18.8739    0.0000 </r>
       <r>   23.7922    0.0000 </r>
       <r>   25.1231    0.0000 </r>
       <r>   25.9136    0.0000 </r>
       <r>   26.3165    0.0000 </r>
      </set>
      <set comment="kpoint 53">
       <r>  -41.5706    1.0000 </r>
       <r>  -41.5670    1.0000 </r>
       <r>  -41.4076    1.0000 </r>
       <r>  -41.3925    1.0000 </r>
       <r>  -41.2868    1.0000 </r>
       <r>  -41.2236    1.0000 </r>
       <r>    5.1521    1.0000 </r>
       <r>    5.6239    1.0000 </r>
       <r>    6.4908    1.0000 </r>
       <r>    6.6462    1.0000 </r>
       <r>    7.3419    1.0000 </r>
       <r>    7.3448    1.0000 </r>
       <r>    8.5116    1.0000 </r>
       <r>    9.4745    1.0000 </r>
       <r>   10.3976    1.0000 </r>
       <r>   11.2053    0.0100 </r>
       <r>   11.7194    0.0000 </r>
       <r>   12.9208    0.0000 </r>
       <r>   21.1780    0.0000 </r>
       <r>   22.8163    0.0000 </r>
       <r>   23.7549    0.0000 </r>
       <r>   24.8798    0.0000 </r>
       <r>   25.7606    0.0000 </r>
       <r>   27.3095    0.0000 </r>
      </set>
      <set comment="kpoint 54">
       <r>  -41.6213    1.0000 </r>
       <r>  -41.6110    1.0000 </r>
       <r>  -41.4576    1.0000 </r>
       <r>  -41.4380    1.0000 </r>
       <r>  -41.2646    1.0000 </r>
       <r>  -41.2251    1.0000 </r>
       <r>    5.3289    1.0000 </r>
       <r>    5.7081    1.0000 </r>
       <r>    6.2444    1.0000 </r>
       <r>    6.8250    1.0000 </r>
       <r>    7.4821    1.0000 </r>
       <r>    8.0401    1.0000 </r>
       <r>    8.6534    1.0000 </r>
       <r>    9.3486    1.0000 </r>
       <r>   10.6147    1.0000 </r>
       <r>   11.4666    0.0000 </r>
       <r>   13.5586    0.0000 </r>
       <r>   14.8749    0.0000 </r>
       <r>   18.7672    0.0000 </r>
       <r>   20.4188    0.0000 </r>
       <r>   22.2986    0.0000 </r>
       <r>   23.8491    0.0000 </r>
       <r>   25.4985    0.0000 </r>
       <r>   27.3196    0.0000 </r>
      </set>
      <set comment="kpoint 55">
       <r>  -41.6404    1.0000 </r>
       <r>  -41.6247    1.0000 </r>
       <r>  -41.4792    1.0000 </r>
       <r>  -41.4561    1.0000 </r>
       <r>  -41.2532    1.0000 </r>
       <r>  -41.2287    1.0000 </r>
       <r>    5.2739    1.0000 </r>
       <r>    5.7622    1.0000 </r>
       <r>    6.2342    1.0000 </r>
       <r>    6.7523    1.0000 </r>
       <r>    7.3226    1.0000 </r>
       <r>    8.4235    1.0000 </r>
       <r>    9.1566    1.0000 </r>
       <r>    9.4902    1.0000 </r>
       <r>   10.7822    1.0000 </r>
       <r>   11.2009    0.0139 </r>
       <r>   15.4709    0.0000 </r>
       <r>   15.6101    0.0000 </r>
       <r>   17.8177    0.0000 </r>
       <r>   18.2604    0.0000 </r>
       <r>   21.3827    0.0000 </r>
       <r>   23.5573    0.0000 </r>
       <r>   26.4015    0.0000 </r>
       <r>   26.6486    0.0000 </r>
      </set>
      <set comment="kpoint 56">
       <r>  -41.6003    1.0000 </r>
       <r>  -41.5929    1.0000 </r>
       <r>  -41.5292    1.0000 </r>
       <r>  -41.5093    1.0000 </r>
       <r>  -41.2460    1.0000 </r>
       <r>  -41.2309    1.0000 </r>
       <r>    5.8919    1.0000 </r>
       <r>    5.9707    1.0000 </r>
       <r>    6.6654    1.0000 </r>
       <r>    6.7266    1.0000 </r>
       <r>    7.3176    1.0000 </r>
       <r>    7.6711    1.0000 </r>
       <r>    8.5766    1.0000 </r>
       <r>    9.1721    1.0000 </r>
[...]
       <r>   13.5029    0.0000 </r>
       <r>   13.5029    0.0000 </r>
       <r>   18.2214    0.0000 </r>
       <r>   18.2214    0.0000 </r>
       <r>   25.1011    0.0000 </r>
       <r>   25.1011    0.0000 </r>
       <r>   25.7779    0.0000 </r>
       <r>   25.7779    0.0000 </r>
      </set>
      <set comment="kpoint 67">
       <r>  -41.5704    1.0000 </r>
       <r>  -41.5704    1.0000 </r>
       <r>  -41.4009    1.0000 </r>
       <r>  -41.4009    1.0000 </r>
       <r>  -41.2525    1.0000 </r>
       <r>  -41.2525    1.0000 </r>
       <r>    5.3785    1.0000 </r>
       <r>    5.3785    1.0000 </r>
       <r>    6.6518    1.0000 </r>
       <r>    6.6518    1.0000 </r>
       <r>    7.2295    1.0000 </r>
       <r>    7.2295    1.0000 </r>
       <r>    8.9498    1.0000 </r>
       <r>    8.9498    1.0000 </r>
       <r>   11.1164    0.5753 </r>
       <r>   11.1164    0.5753 </r>
       <r>   11.9373    0.0000 </r>
       <r>   11.9373    0.0000 </r>
       <r>   22.3433    0.0000 </r>
       <r>   22.3433    0.0000 </r>
       <r>   24.4272    0.0000 </r>
       <r>   24.4272    0.0000 </r>
       <r>   26.0676    0.0000 </r>
       <r>   26.0676    0.0000 </r>
      </set>
      <set comment="kpoint 68">
       <r>  -41.6179    1.0000 </r>
       <r>  -41.6179    1.0000 </r>
       <r>  -41.4488    1.0000 </r>
       <r>  -41.4488    1.0000 </r>
       <r>  -41.2418    1.0000 </r>
       <r>  -41.2418    1.0000 </r>
       <r>    5.4608    1.0000 </r>
       <r>    5.4608    1.0000 </r>
       <r>    6.5437    1.0000 </r>
       <r>    6.5437    1.0000 </r>
       <r>    7.8339    1.0000 </r>
       <r>    7.8339    1.0000 </r>
       <r>    8.8904    1.0000 </r>
       <r>    8.8904    1.0000 </r>
       <r>   11.1853    0.0394 </r>
       <r>   11.1853    0.0394 </r>
       <r>   14.0081    0.0000 </r>
       <r>   14.0082    0.0000 </r>
       <r>   19.6635    0.0000 </r>
       <r>   19.6635    0.0000 </r>
       <r>   23.0440    0.0000 </r>
       <r>   23.0440    0.0000 </r>
       <r>   26.4831    0.0000 </r>
       <r>   26.4831    0.0000 </r>
      </set>
      <set comment="kpoint 69">
       <r>  -41.6346    1.0000 </r>
       <r>  -41.6346    1.0000 </r>
       <r>  -41.4686    1.0000 </r>
       <r>  -41.4686    1.0000 </r>
       <r>  -41.2378    1.0000 </r>
       <r>  -41.2378    1.0000 </r>
       <r>    5.4532    1.0000 </r>
       <r>    5.4532    1.0000 </r>
       <r>    6.4721    1.0000 </r>
       <r>    6.4721    1.0000 </r>
       <r>    7.9228    1.0000 </r>
       <r>    7.9228    1.0000 </r>
       <r>    9.3136    1.0000 </r>
       <r>    9.3136    1.0000 </r>
       <r>   11.0442    0.9872 </r>
       <r>   11.0442    0.9872 </r>
       <r>   15.7002    0.0000 </r>
       <r>   15.7002    0.0000 </r>
       <r>   17.6864    0.0000 </r>
       <r>   17.6864    0.0000 </r>
       <r>   22.4475    0.0000 </r>
       <r>   22.4475    0.0000 </r>
       <r>   26.8938    0.0000 </r>
       <r>   26.8938    0.0000 </r>
      </set>
      <set comment="kpoint 70">
       <r>  -41.5979    1.0000 </r>
       <r>  -41.5979    1.0000 </r>
       <r>  -41.5210    1.0000 </r>
       <r>  -41.5210    1.0000 </r>
       <r>  -41.2350    1.0000 </r>
       <r>  -41.2350    1.0000 </r>
       <r>    5.9108    1.0000 </r>
       <r>    5.9108    1.0000 </r>
       <r>    6.7306    1.0000 </r>
       <r>    6.7306    1.0000 </r>
       <r>    7.4904    1.0000 </r>
       <r>    7.4904    1.0000 </r>
       <r>    8.7669    1.0000 </r>
       <r>    8.7669    1.0000 </r>
       <r>   11.0286    0.9962 </r>
       <r>   11.0286    0.9962 </r>
       <r>   16.4655    0.0000 </r>
       <r>   16.4655    0.0000 </r>
       <r>   18.4170    0.0000 </r>
       <r>   18.4170    0.0000 </r>
       <r>   20.6367    0.0000 </r>
       <r>   20.6367    0.0000 </r>
       <r>   27.9601    0.0000 </r>
       <r>   27.9601    0.0000 </r>
      </set>
     </set>
    </set>
   </array>
  </eigenvalues>
  <separator name="orbital magnetization" >
   <v name="MAGDIPOLOUT">      0.00000000      0.00000000      0.00000000</v>
  </separator>
  <dos>
   <i name="efermi">     11.12312278 </i>
   <total>
    <array>
     <dimension dim="1">gridpoints</dimension>
     <dimension dim="2">spin</dimension>
     <field>energy</field>
     <field>total</field>
     <field>integrated</field>
     <set>
      <set comment="spin 1">
       <r>   -45.3800     0.0000     0.0000 </r>
       <r>   -45.1092     0.0000     0.0000 </r>
       <r>   -44.8384     0.0000     0.0000 </r>
       <r>   -44.5676     0.0000     0.0000 </r>
       <r>   -44.2968     0.0000     0.0000 </r>
       <r>   -44.0260     0.0000     0.0000 </r>
       <r>   -43.7551     0.0000     0.0000 </r>
       <r>   -43.4843     0.0000     0.0000 </r>
       <r>   -43.2135     0.0000     0.0000 </r>
       <r>   -42.9427     0.0000     0.0000 </r>
       <r>   -42.6719     0.0000     0.0000 </r>
       <r>   -42.4011     0.0000     0.0000 </r>
       <r>   -42.1303     0.0000     0.0000 </r>
       <r>   -41.8595     0.0000     0.0000 </r>
       <r>   -41.5887     6.7659     1.8323 </r>
       <r>   -41.3179    23.2321     8.1237 </r>
       <r>   -41.0471    14.3134    11.9999 </r>
       <r>   -40.7763     0.0005    12.0000 </r>
       <r>   -40.5055     0.0000    12.0000 </r>
       <r>   -40.2347     0.0000    12.0000 </r>
       <r>   -39.9639     0.0000    12.0000 </r>
       <r>   -39.6930     0.0000    12.0000 </r>
       <r>   -39.4222     0.0000    12.0000 </r>
       <r>   -39.1514     0.0000    12.0000 </r>
       <r>   -38.8806     0.0000    12.0000 </r>
       <r>   -38.6098     0.0000    12.0000 </r>
       <r>   -38.3390     0.0000    12.0000 </r>
       <r>   -38.0682     0.0000    12.0000 </r>
       <r>   -37.7974     0.0000    12.0000 </r>
       <r>   -37.5266     0.0000    12.0000 </r>
       <r>   -37.2558     0.0000    12.0000 </r>
       <r>   -36.9850     0.0000    12.0000 </r>
       <r>   -36.7142     0.0000    12.0000 </r>
       <r>   -36.4434     0.0000    12.0000 </r>
       <r>   -36.1726     0.0000    12.0000 </r>
       <r>   -35.9017     0.0000    12.0000 </r>
       <r>   -35.6309     0.0000    12.0000 </r>
       <r>   -35.3601     0.0000    12.0000 </r>
       <r>   -35.0893     0.0000    12.0000 </r>
       <r>   -34.8185     0.0000    12.0000 </r>
       <r>   -34.5477     0.0000    12.0000 </r>
       <r>   -34.2769     0.0000    12.0000 </r>
       <r>   -34.0061     0.0000    12.0000 </r>
       <r>   -33.7353     0.0000    12.0000 </r>
       <r>   -33.4645     0.0000    12.0000 </r>
       <r>   -33.1937     0.0000    12.0000 </r>
       <r>   -32.9229     0.0000    12.0000 </r>
       <r>   -32.6521     0.0000    12.0000 </r>
       <r>   -32.3813     0.0000    12.0000 </r>
       <r>   -32.1104     0.0000    12.0000 </r>
       <r>   -31.8396     0.0000    12.0000 </r>
       <r>   -31.5688     0.0000    12.0000 </r>
       <r>   -31.2980     0.0000    12.0000 </r>
       <r>   -31.0272     0.0000    12.0000 </r>
       <r>   -30.7564     0.0000    12.0000 </r>
       <r>   -30.4856     0.0000    12.0000 </r>
       <r>   -30.2148     0.0000    12.0000 </r>
       <r>   -29.9440     0.0000    12.0000 </r>
       <r>   -29.6732     0.0000    12.0000 </r>
       <r>   -29.4024     0.0000    12.0000 </r>
       <r>   -29.1316     0.0000    12.0000 </r>
       <r>   -28.8608     0.0000    12.0000 </r>
       <r>   -28.5900     0.0000    12.0000 </r>
       <r>   -28.3191     0.0000    12.0000 </r>
       <r>   -28.0483     0.0000    12.0000 </r>
       <r>   -27.7775     0.0000    12.0000 </r>
       <r>   -27.5067     0.0000    12.0000 </r>
       <r>   -27.2359     0.0000    12.0000 </r>
       <r>   -26.9651     0.0000    12.0000 </r>
       <r>   -26.6943     0.0000    12.0000 </r>
       <r>   -26.4235     0.0000    12.0000 </r>
       <r>   -26.1527     0.0000    12.0000 </r>
       <r>   -25.8819     0.0000    12.0000 </r>
       <r>   -25.6111     0.0000    12.0000 </r>
       <r>   -25.3403     0.0000    12.0000 </r>
       <r>   -25.0695     0.0000    12.0000 </r>
       <r>   -24.7987     0.0000    12.0000 </r>
       <r>   -24.5278     0.0000    12.0000 </r>
       <r>   -24.2570     0.0000    12.0000 </r>
       <r>   -23.9862     0.0000    12.0000 </r>
       <r>   -23.7154     0.0000    12.0000 </r>
       <r>   -23.4446     0.0000    12.0000 </r>
       <r>   -23.1738     0.0000    12.0000 </r>
       <r>   -22.9030     0.0000    12.0000 </r>
       <r>   -22.6322     0.0000    12.0000 </r>
       <r>   -22.3614     0.0000    12.0000 </r>
       <r>   -22.0906     0.0000    12.0000 </r>
       <r>   -21.8198     0.0000    12.0000 </r>
       <r>   -21.5490     0.0000    12.0000 </r>
       <r>   -21.2782     0.0000    12.0000 </r>
       <r>   -21.0074     0.0000    12.0000 </r>
       <r>   -20.7366     0.0000    12.0000 </r>
       <r>   -20.4657     0.0000    12.0000 </r>
       <r>   -20.1949     0.0000    12.0000 </r>
       <r>   -19.9241     0.0000    12.0000 </r>
       <r>   -19.6533     0.0000    12.0000 </r>
       <r>   -19.3825     0.0000    12.0000 </r>
       <r>   -19.1117     0.0000    12.0000 </r>
       <r>   -18.8409     0.0000    12.0000 </r>
       <r>   -18.5701     0.0000    12.0000 </r>
       <r>   -18.2993     0.0000    12.0000 </r>
       <r>   -18.0285     0.0000    12.0000 </r>
       <r>   -17.7577     0.0000    12.0000 </r>
       <r>   -17.4869     0.0000    12.0000 </r>
       <r>   -17.2161     0.0000    12.0000 </r>
       <r>   -16.9453     0.0000    12.0000 </r>
       <r>   -16.6744     0.0000    12.0000 </r>
       <r>   -16.4036     0.0000    12.0000 </r>
       <r>   -16.1328     0.0000    12.0000 </r>
       <r>   -15.8620     0.0000    12.0000 </r>
       <r>   -15.5912     0.0000    12.0000 </r>
       <r>   -15.3204     0.0000    12.0000 </r>
       <r>   -15.0496     0.0000    12.0000 </r>
       <r>   -14.7788     0.0000    12.0000 </r>
       <r>   -14.5080     0.0000    12.0000 </r>
       <r>   -14.2372     0.0000    12.0000 </r>
       <r>   -13.9664     0.0000    12.0000 </r>
       <r>   -13.6956     0.0000    12.0000 </r>
       <r>   -13.4248     0.0000    12.0000 </r>
       <r>   -13.1540     0.0000    12.0000 </r>
       <r>   -12.8831     0.0000    12.0000 </r>
       <r>   -12.6123     0.0000    12.0000 </r>
       <r>   -12.3415     0.0000    12.0000 </r>
       <r>   -12.0707     0.0000    12.0000 </r>
       <r>   -11.7999     0.0000    12.0000 </r>
       <r>   -11.5291     0.0000    12.0000 </r>
       <r>   -11.2583     0.0000    12.0000 </r>
       <r>   -10.9875     0.0000    12.0000 </r>
       <r>   -10.7167     0.0000    12.0000 </r>
       <r>   -10.4459     0.0000    12.0000 </r>
       <r>   -10.1751     0.0000    12.0000 </r>
       <r>    -9.9043     0.0000    12.0000 </r>
       <r>    -9.6335     0.0000    12.0000 </r>
       <r>    -9.3627     0.0000    12.0000 </r>
       <r>    -9.0918     0.0000    12.0000 </r>
       <r>    -8.8210     0.0000    12.0000 </r>
       <r>    -8.5502     0.0000    12.0000 </r>
       <r>    -8.2794     0.0000    12.0000 </r>
       <r>    -8.0086     0.0000    12.0000 </r>
       <r>    -7.7378     0.0000    12.0000 </r>
       <r>    -7.4670     0.0000    12.0000 </r>
       <r>    -7.1962     0.0000    12.0000 </r>
       <r>    -6.9254     0.0000    12.0000 </r>
       <r>    -6.6546     0.0000    12.0000 </r>
       <r>    -6.3838     0.0000    12.0000 </r>
       <r>    -6.1130     0.0000    12.0000 </r>
       <r>    -5.8422     0.0000    12.0000 </r>
       <r>    -5.5714     0.0000    12.0000 </r>
       <r>    -5.3006     0.0000    12.0000 </r>
       <r>    -5.0297     0.0000    12.0000 </r>
       <r>    -4.7589     0.0000    12.0000 </r>
       <r>    -4.4881     0.0000    12.0000 </r>
       <r>    -4.2173     0.0000    12.0000 </r>
       <r>    -3.9465     0.0000    12.0000 </r>
       <r>    -3.6757     0.0000    12.0000 </r>
       <r>    -3.4049     0.0000    12.0000 </r>
       <r>    -3.1341     0.0000    12.0000 </r>
       <r>    -2.8633     0.0000    12.0000 </r>
       <r>    -2.5925     0.0000    12.0000 </r>
       <r>    -2.3217     0.0000    12.0000 </r>
       <r>    -2.0509     0.0000    12.0000 </r>
       <r>    -1.7801     0.0000    12.0000 </r>
       <r>    -1.5093     0.0000    12.0000 </r>
       <r>    -1.2384     0.0000    12.0000 </r>
       <r>    -0.9676     0.0000    12.0000 </r>
       <r>    -0.6968     0.0000    12.0000 </r>
       <r>    -0.4260     0.0000    12.0000 </r>
       <r>    -0.1552     0.0000    12.0000 </r>
       <r>     0.1156     0.0000    12.0000 </r>
       <r>     0.3864     0.0000    12.0000 </r>
       <r>     0.6572     0.0000    12.0000 </r>
       <r>     0.9280     0.0000    12.0000 </r>
       <r>     1.1988     0.0000    12.0000 </r>
       <r>     1.4696     0.0086    12.0023 </r>
       <r>     1.7404     0.0256    12.0093 </r>
       <r>     2.0112     0.1774    12.0573 </r>
       <r>     2.2820     0.0453    12.0696 </r>
       <r>     2.5529     0.1558    12.1118 </r>
       <r>     2.8237     0.1687    12.1575 </r>
       <r>     3.0945     0.3148    12.2427 </r>
       <r>     3.3653     0.1285    12.2775 </r>
       <r>     3.6361     0.2847    12.3546 </r>
       <r>     3.9069     0.4048    12.4643 </r>
       <r>     4.1777     0.6864    12.6501 </r>
       <r>     4.4485     0.7517    12.8537 </r>
       <r>     4.7193     1.5807    13.2818 </r>
       <r>     4.9901     2.5413    13.9699 </r>
       <r>     5.2609     1.8696    14.4762 </r>
       <r>     5.5317     2.5035    15.1542 </r>
       <r>     5.8025     1.8565    15.6570 </r>
       <r>     6.0733     3.3023    16.5513 </r>
       <r>     6.3442     3.2974    17.4442 </r>
       <r>     6.6150     2.6140    18.1521 </r>
       <r>     6.8858     3.3144    19.0497 </r>
       <r>     7.1566     2.6080    19.7559 </r>
       <r>     7.4274     2.7189    20.4922 </r>
       <r>     7.6982     3.6351    21.4766 </r>
       <r>     7.9690     3.6858    22.4748 </r>
       <r>     8.2398     3.1352    23.3238 </r>
       <r>     8.5106     4.1909    24.4588 </r>
       <r>     8.7814     3.1297    25.3063 </r>
       <r>     9.0522     3.0341    26.1280 </r>
       <r>     9.3230     1.8987    26.6422 </r>
       <r>     9.5938     2.5670    27.3373 </r>
       <r>     9.8646     2.5276    28.0218 </r>
       <r>    10.1354     2.7552    28.7679 </r>
       <r>    10.4063     2.4293    29.4258 </r>
       <r>    10.6771     2.5886    30.1268 </r>
       <r>    10.9479     3.8585    31.1717 </r>
       <r>    11.2187     4.3922    32.3612 </r>
       <r>    11.4895     2.4741    33.0312 </r>
       <r>    11.7603     1.3467    33.3959 </r>
       <r>    12.0311     0.7023    33.5861 </r>
       <r>    12.3019     0.3281    33.6749 </r>
       <r>    12.5727     0.1659    33.7199 </r>
       <r>    12.8435     0.2043    33.7752 </r>
       <r>    13.1143     1.0440    34.0579 </r>
       <r>    13.3851     1.0833    34.3513 </r>
       <r>    13.6559     0.5698    34.5056 </r>
       <r>    13.9267     0.1202    34.5381 </r>
       <r>    14.1976     0.3789    34.6408 </r>
       <r>    14.4684     0.7016    34.8308 </r>
       <r>    14.7392     0.1956    34.8837 </r>
       <r>    15.0100     0.7432    35.0850 </r>
       <r>    15.2808     0.4523    35.2075 </r>
       <r>    15.5516     0.4899    35.3402 </r>
       <r>    15.8224     0.9492    35.5972 </r>
       <r>    16.0932     0.4488    35.7187 </r>
       <r>    16.3640     0.4847    35.8500 </r>
       <r>    16.6348     0.2870    35.9277 </r>
       <r>    16.9056     0.2393    35.9925 </r>
       <r>    17.1764     0.2285    36.0544 </r>
       <r>    17.4472     0.5179    36.1947 </r>
       <r>    17.7180     1.0674    36.4837 </r>
       <r>    17.9889     0.9293    36.7354 </r>
       <r>    18.2597     0.8809    36.9739 </r>
       <r>    18.5305     0.7131    37.1670 </r>
       <r>    18.8013     0.8480    37.3967 </r>
       <r>    19.0721     0.7547    37.6011 </r>
       <r>    19.3429     0.4323    37.7181 </r>
       <r>    19.6137     0.5311    37.8620 </r>
       <r>    19.8845     0.7017    38.0520 </r>
       <r>    20.1553     1.0258    38.3298 </r>
       <r>    20.4261     0.9394    38.5842 </r>
       <r>    20.6969     0.6041    38.7478 </r>
       <r>    20.9677     0.2838    38.8246 </r>
       <r>    21.2385     0.6849    39.0101 </r>
       <r>    21.5093     1.0300    39.2890 </r>
       <r>    21.7802     0.6858    39.4748 </r>
       <r>    22.0510     0.5464    39.6227 </r>
       <r>    22.3218     0.3177    39.7087 </r>
       <r>    22.5926     1.0510    39.9934 </r>
       <r>    22.8634     0.3317    40.0832 </r>
       <r>    23.1342     0.3792    40.1859 </r>
       <r>    23.4050     1.1764    40.5044 </r>
       <r>    23.6758     1.1760    40.8229 </r>
       <r>    23.9466     0.9742    41.0867 </r>
       <r>    24.2174     0.6520    41.2633 </r>
       <r>    24.4882     0.7828    41.4753 </r>
       <r>    24.7590     0.3951    41.5823 </r>
       <r>    25.0298     0.9089    41.8284 </r>
       <r>    25.3006     2.0718    42.3895 </r>
       <r>    25.5715     1.8771    42.8978 </r>
       <r>    25.8423     1.3947    43.2755 </r>
       <r>    26.1131     1.5412    43.6929 </r>
       <r>    26.3839     1.0950    43.9894 </r>
       <r>    26.6547     1.1364    44.2972 </r>
       <r>    26.9255     1.1761    44.6157 </r>
       <r>    27.1963     1.9431    45.1419 </r>
       <r>    27.4671     1.9769    45.6772 </r>
       <r>    27.7379     0.9957    45.9469 </r>
       <r>    28.0087     1.3202    46.3044 </r>
       <r>    28.2795     1.2362    46.6392 </r>
       <r>    28.5503     0.7865    46.8522 </r>
       <r>    28.8211     0.8700    47.0878 </r>
       <r>    29.0919     0.5877    47.2470 </r>
       <r>    29.3627     0.6869    47.4330 </r>
       <r>    29.6336     0.1871    47.4836 </r>
       <r>    29.9044     0.6077    47.6482 </r>
       <r>    30.1752     0.3645    47.7469 </r>
       <r>    30.4460     0.1272    47.7814 </r>
       <r>    30.7168     0.5904    47.9413 </r>
       <r>    30.9876     0.0702    47.9603 </r>
       <r>    31.2584     0.0729    47.9800 </r>
       <r>    31.5292     0.0169    47.9846 </r>
       <r>    31.8000     0.0384    47.9950 </r>
       <r>    32.0708     0.0000    47.9950 </r>
       <r>    32.3416     0.0184    48.0000 </r>
       <r>    32.6124     0.0000    48.0000 </r>
       <r>    32.8832     0.0000    48.0000 </r>
       <r>    33.1540     0.0000    48.0000 </r>
       <r>    33.4249     0.0000    48.0000 </r>
       <r>    33.6957     0.0000    48.0000 </r>
       <r>    33.9665     0.0000    48.0000 </r>
       <r>    34.2373     0.0000    48.0000 </r>
       <r>    34.5081     0.0000    48.0000 </r>
       <r>    34.7789     0.0000    48.0000 </r>
       <r>    35.0497     0.0000    48.0000 </r>
       <r>    35.3205     0.0000    48.0000 </r>
       <r>    35.5913     0.0000    48.0000 </r>
       <r>    35.8621     0.0000    48.0000 </r>
      </set>
     </set>
    </array>
   </total>
  </dos>
 </calculation>
 <structure name="finalpos" >
  <crystal>
   <varray name="basis" >
    <v>       2.76000000       0.00000000       0.00000000 </v>
    <v>      -1.38000000       2.39023011       0.00000000 </v>
    <v>       0.00000000       0.00000000       4.79000000 </v>
   </varray>
   <i name="volume">     31.59979821 </i>
   <varray name="rec_basis" >
    <v>       0.36231884       0.20918488       0.00000000 </v>
    <v>       0.00000000       0.41836976       0.00000000 </v>
    <v>       0.00000000       0.00000000       0.20876827 </v>
   </varray>
  </crystal>
  <varray name="positions" >
   <v>       0.00000000       0.00000000       0.00000000 </v>
   <v>       0.33333333       0.66666667       0.50000000 </v>
  </varray>
 </structure>
</modeling>
