Pt-hcc                                  
   1.00000000000000     
     2.737592    0.000000    0.000000
    -1.368796    2.370824    0.000000
     0.000000    0.000000    4.742814
   Pt
     2
Direct
  0.000000  0.000000  0.000000
  0.333333  0.666667  0.500000
 
   40   40   72
  269.46      269.14      267.61      263.34      254.45      239.36      217.58      189.95      158.66      126.65    
  96.899      71.679      52.129      38.165      28.777      22.453      18.123      15.301      13.578      12.664    
  12.376      12.664      13.578      15.302      18.122      22.455      28.775      38.166      52.129      71.679    
  96.899      126.65      158.66      189.95      217.58      239.36      254.45      263.35      267.61      269.14    
  269.14      269.14      268.21      265.28      258.61      246.45      227.77      202.77      173.01      141.13    
  110.15      82.729      60.547      44.084      32.731      25.155      19.959      16.470      14.265      12.985    
  12.405      12.404      12.986      14.263      16.471      19.957      25.155      32.733      44.083      60.548    
  82.729      110.16      141.13      173.01      202.77      227.77      246.45      258.61      265.28      268.21    
  267.61      268.22      267.61      265.28      259.88      249.76      233.65      211.24      183.52      152.66    
  121.48      92.794      68.666      50.078      36.846      27.936      21.879      17.723      15.014      13.356    
  12.475      12.197      12.475      13.355      15.014      17.722      21.882      27.933      36.848      50.076    
  68.667      92.793      121.48      152.65      183.52      211.24      233.65      249.77      259.88      265.28    
  263.35      265.30      265.30      263.35      258.61      249.76      235.56      215.43      189.88      160.61    
  130.10      101.08      75.827      55.678      40.866      30.679      23.788      19.007      15.797      13.763    
  12.580      12.042      12.041      12.581      13.762      15.799      19.005      23.790      30.678      40.866    
  55.678      75.827      101.08      130.10      160.61      189.88      215.43      235.56      249.77      258.61    
  254.45      258.64      259.92      258.64      254.45      246.45      233.65      215.43      192.01      164.66    
  135.48      106.97      81.422      60.402      44.472      33.228      25.579      20.250      16.581      14.186    
  12.714      11.929      11.681      11.928      12.715      14.185      16.582      20.249      25.579      33.229    
  44.471      60.403      81.422      106.97      135.48      164.66      192.01      215.43      233.65      246.45    
  239.36      246.49      249.82      249.82      246.49      239.36      227.77      211.24      189.88      164.66    
  137.30      110.02      84.979      63.820      47.333      35.386      27.140      21.373      17.321      14.601    
  12.865      11.851      11.386      11.386      11.851      12.865      14.601      17.320      21.374      27.138    
  35.387      47.333      63.821      84.978      110.02      137.30      164.66      189.88      211.24      227.77    
  217.58      227.81      233.71      235.63      233.71      227.81      217.58      202.77      183.52      160.61    
  135.48      110.02      86.197      65.614      49.174      36.959      28.359      22.299      17.964      14.982    
  13.017      11.803      11.146      10.940      11.146      11.803      13.017      14.983      17.963      22.300    
  28.358      36.960      49.174      65.614      86.198      110.02      135.48      160.61      183.52      202.77    
  189.95      202.79      211.29      215.49      215.49      211.29      202.79      189.95      173.01      152.65    
  130.10      106.97      84.978      65.614      49.808      37.789      29.138      22.959      18.466      15.299    
  13.157      11.775      10.957      10.578      10.579      10.957      11.775      13.156      15.300      18.465    
  22.960      29.138      37.789      49.809      65.614      84.978      106.97      130.10      152.65      173.01    
  158.66      173.02      183.54      189.92      192.06      189.92      183.54      173.02      158.66      141.13    
  121.48      101.08      81.422      63.821      49.173      37.789      29.406      23.304      18.783      15.528    
  13.269      11.761      10.813      10.294      10.128      10.294      10.813      11.761      13.269      15.528    
  18.783      23.304      29.407      37.789      49.174      63.821      81.422      101.08      121.48      141.13    
  126.65      141.12      152.64      160.60      164.66      164.66      160.60      152.64      141.12      126.65    
  110.15      92.793      75.828      60.402      47.333      36.960      29.138      23.304      18.892      15.647    
  13.342      11.755      10.711      10.080      9.7845      9.7844      10.081      10.711      11.755      13.342    
  15.647      18.893      23.304      29.138      36.960      47.333      60.403      75.827      92.793      110.16    
  96.899      110.12      121.43      130.05      135.42      137.25      135.42      130.05      121.44      110.12    
  96.899      82.729      68.668      55.677      44.472      35.387      28.358      22.960      18.783      15.647    
  13.367      11.754      10.650      9.9384      9.5403      9.4124      9.5403      9.9385      10.650      11.754    
  13.367      15.647      18.783      22.960      28.358      35.387      44.471      55.678      68.667      82.729    
  71.679      82.687      92.718      100.99      106.86      109.90      109.90      106.86      100.99      92.718    
  82.687      71.679      60.547      50.076      40.868      33.227      27.139      22.299      18.465      15.528    
  13.341      11.754      10.630      9.8671      9.3939      9.1674      9.1674      9.3938      9.8673      10.630    
  11.754      13.342      15.528      18.465      22.300      27.138      33.229      40.866      50.076      60.548    
  52.129      60.499      68.577      75.702      81.274      84.816      86.031      84.816      81.274      75.703    
  68.577      60.499      52.128      44.084      36.848      30.677      25.581      21.372      17.964      15.300    
  13.269      11.756      10.650      9.8673      9.3449      9.0459      8.9477      9.0460      9.3446      9.8673    
  10.650      11.755      13.269      15.300      17.963      21.374      25.579      30.678      36.848      44.083    
  38.166      44.037      49.983      55.543      60.234      63.629      65.410      65.410      63.628      60.233    
  55.541      49.983      44.038      38.167      32.730      27.935      23.791      20.248      17.322      14.982    
  13.157      11.761      10.711      9.9382      9.3941      9.0455      8.8754      8.8751      9.0460      9.3938    
  9.9385      10.711      11.761      13.156      14.983      17.320      20.249      23.790      27.933      32.733    
  28.775      32.691      36.760      40.735      44.301      47.133      48.955      49.584      48.955      47.134    
  44.302      40.737      36.760      32.689      28.775      25.158      21.879      19.006      16.583      14.601    
  13.018      11.775      10.813      10.081      9.5404      9.1674      8.9480      8.8754      8.9477      9.1674    
  9.5403      10.081      10.813      11.775      13.017      14.601      16.582      19.005      21.882      25.155    
  22.455      25.121      27.859      30.564      33.076      35.202      36.750      37.567      37.567      36.750    
  35.201      33.074      30.563      27.860      25.123      22.453      19.957      17.724      15.798      14.185    
  12.865      11.802      10.957      10.293      9.7845      9.4123      9.1674      9.0455      9.0459      9.1674    
  9.4124      9.7844      10.294      10.957      11.803      12.865      14.185      15.799      17.722      19.957    
  18.122      19.930      21.822      23.696      25.449      26.977      28.172      28.937      29.200      28.936    
  28.172      26.978      25.451      23.697      21.819      19.929      18.124      16.471      15.012      13.762    
  12.715      11.851      11.147      10.579      10.128      9.7845      9.5404      9.3941      9.3449      9.3939    
  9.5403      9.7845      10.128      10.579      11.146      11.851      12.715      13.762      15.014      16.471    
  15.302      16.450      17.675      18.930      20.146      21.243      22.148      22.792      23.127      23.127    
  22.792      22.147      21.242      20.144      18.931      17.677      16.450      15.301      14.264      13.357    
  12.581      11.928      11.386      10.940      10.579      10.293      10.081      9.9382      9.8673      9.8671    
  9.9384      10.080      10.294      10.578      10.940      11.386      11.928      12.581      13.355      14.263    
  13.578      14.247      14.978      15.741      16.502      17.219      17.843      18.328      18.636      18.742    
  18.636      18.328      17.844      17.220      16.503      15.740      14.976      14.247      13.579      12.986    
  12.474      12.042      11.682      11.386      11.147      10.957      10.813      10.711      10.650      10.630    
  10.650      10.711      10.813      10.957      11.146      11.386      11.681      12.041      12.475      12.986    
  12.664      12.973      13.327      13.717      14.124      14.524      14.891      15.196      15.416      15.531    
  15.531      15.416      15.195      14.890      14.523      14.124      13.718      13.328      12.972      12.663    
  12.404      12.198      12.042      11.928      11.851      11.802      11.775      11.761      11.756      11.754    
  11.754      11.755      11.761      11.775      11.803      11.851      11.929      12.042      12.197      12.404    
  12.376      12.392      12.451      12.545      12.667      12.806      12.948      13.079      13.185      13.253    
  13.277      13.253      13.185      13.080      12.949      12.806      12.667      12.545      12.450      12.392    
  12.377      12.404      12.474      12.581      12.715      12.865      13.018      13.157      13.269      13.341    
  13.367      13.342      13.269      13.157      13.017      12.865      12.714      12.580      12.475      12.405    
  12.664      12.393      12.175      12.009      11.889      11.804      11.751      11.718      11.701      11.693    
  11.690      11.690      11.692      11.700      11.717      11.750      11.804      11.888      12.010      12.176    
  12.392      12.663      12.986      13.357      13.762      14.185      14.601      14.982      15.300      15.528    
  15.647      15.647      15.528      15.299      14.982      14.601      14.186      13.763      13.356      12.985    
  13.578      12.972      12.451      12.010      11.644      11.345      11.103      10.913      10.768      10.666    
  10.606      10.586      10.606      10.667      10.768      10.913      11.104      11.345      11.644      12.010    
  12.450      12.972      13.579      14.264      15.012      15.798      16.583      17.322      17.964      18.465    
  18.783      18.892      18.783      18.466      17.964      17.321      16.581      15.797      15.014      14.265    
  15.301      14.248      13.327      12.544      11.889      11.345      10.901      10.541      10.259      10.049    
  9.9092      9.8392      9.8389      9.9090      10.049      10.259      10.541      10.900      11.345      11.888    
  12.545      13.328      14.247      15.301      16.471      17.724      19.006      20.248      21.372      22.299    
  22.960      23.304      23.304      22.959      22.299      21.373      20.250      19.007      17.723      16.470    
  18.123      16.448      14.977      13.718      12.666      11.805      11.103      10.541      10.097      9.7588    
  9.5196      9.3763      9.3290      9.3766      9.5198      9.7589      10.097      10.541      11.104      11.804    
  12.667      13.718      14.976      16.450      18.124      19.957      21.879      23.791      25.581      27.139    
  28.358      29.138      29.406      29.138      28.359      27.140      25.579      23.788      21.879      19.959    
  22.453      19.932      17.676      15.740      14.125      12.806      11.750      10.913      10.259      9.7592    
  9.3947      9.1557      9.0364      9.0367      9.1554      9.3947      9.7589      10.259      10.913      11.750    
  12.806      14.124      15.740      17.677      19.929      22.453      25.158      27.935      30.677      33.227    
  35.387      36.960      37.789      37.789      36.959      35.386      33.228      30.679      27.936      25.155    
  28.777      25.120      21.819      18.933      16.501      14.524      12.948      11.717      10.768      10.049    
  9.5196      9.1552      8.9414      8.8706      8.9413      9.1554      9.5198      10.049      10.768      11.717    
  12.949      14.523      16.503      18.931      21.819      25.123      28.775      32.730      36.848      40.868    
  44.472      47.333      49.173      49.808      49.174      47.333      44.472      40.866      36.846      32.731    
  38.165      32.690      27.862      23.694      20.146      17.219      14.890      13.080      11.700      10.667    
  9.9090      9.3769      9.0364      8.8707      8.8706      9.0367      9.3766      9.9090      10.667      11.700    
  13.080      14.890      17.220      20.144      23.697      27.860      32.689      38.167      44.084      50.076    
  55.677      60.402      63.821      65.614      65.614      63.820      60.402      55.678      50.078      44.084    
  52.129      44.038      36.758      30.565      25.449      21.242      17.844      15.195      13.185      11.692    
  10.606      9.8385      9.3292      9.0364      8.9414      9.0364      9.3290      9.8389      10.606      11.692    
  13.185      15.195      17.844      21.242      25.451      30.563      36.760      44.038      52.128      60.547    
  68.668      75.828      81.422      84.978      86.197      84.979      81.422      75.827      68.666      60.547    
  71.679      60.499      49.984      40.735      33.075      26.978      22.147      18.329      15.415      13.254    
  11.689      10.586      9.8385      9.3769      9.1552      9.1557      9.3763      9.8392      10.586      11.690    
  13.253      15.416      18.328      22.147      26.978      33.074      40.737      49.983      60.499      71.679    
  82.729      92.793      101.08      106.97      110.02      110.02      106.97      101.08      92.794      82.729    
  96.899      82.687      68.576      55.542      44.302      35.200      28.173      22.791      18.637      15.530    
  13.277      11.689      10.606      9.9090      9.5196      9.3947      9.5196      9.9092      10.606      11.690    
  13.277      15.531      18.636      22.792      28.172      35.201      44.302      55.541      68.577      82.687    
  96.899      110.15      121.48      130.10      135.48      137.30      135.48      130.10      121.48      110.15    
  126.65      110.12      92.719      75.703      60.233      47.134      36.749      28.937      23.127      18.743    
  15.530      13.254      11.692      10.667      10.049      9.7592      9.7588      10.049      10.666      11.693    
  13.253      15.531      18.742      23.127      28.936      36.750      47.134      60.233      75.703      92.718    
  110.12      126.65      141.13      152.65      160.61      164.66      164.66      160.61      152.66      141.13    
  158.66      141.12      121.43      100.99      81.274      63.628      48.956      37.567      29.200      23.127    
  18.637      15.415      13.185      11.700      10.768      10.259      10.097      10.259      10.768      11.701    
  13.185      15.416      18.636      23.127      29.200      37.567      48.955      63.628      81.274      100.99    
  121.44      141.12      158.66      173.01      183.52      189.88      192.01      189.88      183.52      173.01    
  189.95      173.02      152.64      130.05      106.86      84.817      65.410      49.585      37.567      28.937    
  22.791      18.329      15.195      13.080      11.717      10.913      10.541      10.541      10.913      11.718    
  13.079      15.196      18.328      22.792      28.937      37.567      49.584      65.410      84.816      106.86    
  130.05      152.64      173.02      189.95      202.77      211.24      215.43      215.43      211.24      202.77    
  217.58      202.79      183.54      160.60      135.42      109.90      86.031      65.410      48.956      36.749    
  28.173      22.147      17.844      14.890      12.948      11.750      11.103      10.901      11.103      11.751    
  12.948      14.891      17.843      22.148      28.172      36.750      48.955      65.410      86.031      109.90    
  135.42      160.60      183.54      202.79      217.58      227.77      233.65      235.56      233.65      227.77    
  239.36      227.81      211.29      189.92      164.66      137.25      109.90      84.817      63.628      47.134    
  35.200      26.978      21.242      17.219      14.524      12.806      11.805      11.345      11.345      11.804    
  12.806      14.524      17.219      21.243      26.977      35.202      47.133      63.629      84.816      109.90    
  137.25      164.66      189.92      211.29      227.81      239.36      246.45      249.76      249.76      246.45    
  254.45      246.49      233.71      215.49      192.06      164.66      135.42      106.86      81.274      60.233    
  44.302      33.075      25.449      20.146      16.501      14.125      12.666      11.889      11.644      11.889    
  12.667      14.124      16.502      20.146      25.449      33.076      44.301      60.234      81.274      106.86    
  135.42      164.66      192.06      215.49      233.71      246.49      254.45      258.61      259.88      258.61    
  263.34      258.64      249.82      235.63      215.49      189.92      160.60      130.05      100.99      75.703    
  55.542      40.735      30.565      23.694      18.933      15.740      13.718      12.544      12.010      12.009    
  12.545      13.717      15.741      18.930      23.696      30.564      40.735      55.543      75.702      100.99    
  130.05      160.60      189.92      215.49      235.63      249.82      258.64      263.35      265.28      265.28    
  267.61      265.30      259.92      249.82      233.71      211.29      183.54      152.64      121.43      92.719    
  68.576      49.984      36.758      27.862      21.819      17.676      14.977      13.327      12.451      12.175    
  12.451      13.327      14.978      17.675      21.822      27.859      36.760      49.983      68.577      92.718    
  121.43      152.64      183.54      211.29      233.71      249.82      259.92      265.30      267.61      268.21    
  269.14      268.21      265.30      258.64      246.49      227.81      202.79      173.02      141.12      110.12    
  82.687      60.499      44.038      32.690      25.120      19.932      16.448      14.248      12.972      12.393    
  12.392      12.973      14.247      16.450      19.930      25.121      32.691      44.037      60.499      82.687    
  110.12      141.12      173.02      202.79      227.81      246.49      258.64      265.30      268.22      269.14    
  269.32      268.93      267.21      262.67      253.46      238.09      216.11      188.40      157.16      125.31    
  95.800      70.846      51.543      37.777      28.523      22.273      17.992      15.203      13.498      12.594    
  12.309      12.594      13.498      15.203      17.991      22.276      28.520      37.778      51.543      70.846    
  95.799      125.31      157.16      188.40      216.11      238.10      253.46      262.67      267.21      268.93    
  268.93      268.93      267.87      264.71      257.75      245.30      226.38      201.23      171.47      139.71    
  108.94      81.770      59.848      43.610      32.421      24.944      19.806      16.357      14.177      12.911    
  12.337      12.336      12.912      14.175      16.358      19.805      24.944      32.423      43.608      59.849    
  81.769      108.94      139.71      171.47      201.23      226.38      245.30      257.75      264.71      267.87    
  267.21      267.88      267.21      264.71      259.06      248.67      232.31      209.74      181.96      151.17    
  120.18      91.730      67.865      49.516      36.475      27.690      21.704      17.594      14.916      13.276    
  12.405      12.131      12.405      13.276      14.916      17.594      21.706      27.687      36.476      49.515    
  67.866      91.729      120.18      151.17      181.96      209.74      232.31      248.67      259.06      264.71    
  262.67      264.73      264.73      262.67      257.75      248.67      234.24      213.94      188.33      159.10    
  128.73      99.940      74.941      55.040      40.434      30.395      23.590      18.863      15.690      13.678    
  12.508      11.976      11.975      12.509      13.677      15.691      18.860      23.592      30.394      40.435    
  55.040      74.940      99.940      128.73      159.10      188.33      213.94      234.24      248.67      257.75    
  253.46      257.78      259.10      257.78      253.46      245.30      232.31      213.94      190.46      163.13    
  134.08      105.77      80.473      59.701      43.987      32.906      25.360      20.090      16.464      14.095    
  12.640      11.862      11.617      11.862      12.640      14.095      16.465      20.090      25.359      32.907    
  43.986      59.702      80.472      105.77      134.08      163.13      190.46      213.94      232.31      245.30    
  238.10      245.33      248.73      248.73      245.33      238.09      226.38      209.74      188.33      163.13    
  135.89      108.79      83.991      63.075      46.807      35.032      26.900      21.200      17.194      14.505    
  12.787      11.784      11.324      11.324      11.784      12.787      14.505      17.193      21.201      26.899    
  35.034      46.806      63.075      83.990      108.79      135.89      163.13      188.33      209.74      226.38    
  216.11      226.41      232.38      234.32      232.38      226.41      216.11      201.23      181.96      159.10    
  134.08      108.79      85.196      64.846      48.621      36.582      28.103      22.115      17.829      14.881    
  12.937      11.736      11.085      10.882      11.085      11.736      12.937      14.881      17.828      22.116    
  28.102      36.582      48.621      64.846      85.196      108.79      134.08      159.10      181.96      201.23    
  188.40      201.26      209.79      214.02      214.02      209.79      201.26      188.40      171.47      151.17    
  128.74      105.77      83.990      64.846      49.247      37.399      28.872      22.768      18.324      15.194    
  13.075      11.707      10.897      10.522      10.522      10.897      11.707      13.074      15.195      18.324    
  22.769      28.871      37.399      49.247      64.846      83.990      105.77      128.73      151.17      171.47    
  157.16      171.48      182.00      188.38      190.51      188.38      182.00      171.48      157.16      139.71    
  120.18      99.939      80.473      63.075      48.621      37.399      29.136      23.109      18.638      15.419    
  13.185      11.693      10.753      10.239      10.075      10.239      10.753      11.693      13.184      15.420    
  18.638      23.109      29.136      37.399      48.621      63.075      80.472      99.940      120.18      139.71    
  125.31      139.70      151.17      159.10      163.15      163.15      159.10      151.17      139.70      125.31    
  108.94      91.729      74.941      59.701      46.806      36.582      28.871      23.109      18.746      15.537    
  13.257      11.686      10.652      10.027      9.7335      9.7336      10.027      10.652      11.687      13.256    
  15.537      18.746      23.108      28.872      36.582      46.806      59.702      74.940      91.729      108.94    
  95.800      108.91      120.14      128.70      134.04      135.85      134.04      128.70      120.14      108.91    
  95.799      81.770      67.866      55.038      43.987      35.033      28.103      22.769      18.638      15.537    
  13.281      11.685      10.591      9.8860      9.4909      9.3641      9.4910      9.8860      10.591      11.685    
  13.281      15.537      18.638      22.769      28.102      35.033      43.986      55.040      67.866      81.769    
  70.846      81.732      91.664      99.858      105.68      108.70      108.70      105.68      99.857      91.663    
  81.732      70.846      59.848      49.515      40.436      32.905      26.900      22.116      18.324      15.420    
  13.256      11.685      10.571      9.8151      9.3455      9.1207      9.1207      9.3455      9.8153      10.571    
  11.685      13.256      15.419      18.324      22.116      26.899      32.907      40.435      49.515      59.849    
  51.544      59.805      67.784      74.828      80.340      83.846      85.049      83.846      80.341      74.830    
  67.785      59.805      51.543      43.609      36.476      30.393      25.361      21.200      17.829      15.194    
  13.185      11.687      10.591      9.8152      9.2969      8.9999      8.9025      9.0000      9.2966      9.8153    
  10.591      11.687      13.184      15.195      17.828      21.201      25.359      30.394      36.476      43.608    
  37.778      43.566      49.430      54.916      59.548      62.901      64.661      64.661      62.901      59.547    
  54.915      49.430      43.567      37.779      32.420      27.689      23.592      20.088      17.195      14.880    
  13.075      11.692      10.652      9.8857      9.3457      8.9996      8.8307      8.8303      9.0001      9.3454    
  9.8862      10.652      11.693      13.074      14.881      17.194      20.090      23.592      27.687      32.422    
  28.520      32.384      36.396      40.315      43.830      46.624      48.422      49.042      48.422      46.625    
  43.832      40.316      36.396      32.382      28.521      24.947      21.703      18.862      16.465      14.504    
  12.938      11.707      10.753      10.027      9.4911      9.1207      8.9027      8.8306      8.9024      9.1207    
  9.4909      10.027      10.753      11.707      12.937      14.505      16.465      18.860      21.706      24.945    
  22.276      24.913      27.619      30.290      32.767      34.863      36.390      37.196      37.196      36.390    
  34.863      32.765      30.288      27.621      24.915      22.273      19.804      17.596      15.690      14.094    
  12.788      11.735      10.897      10.239      9.7336      9.3640      9.1207      8.9996      9.0000      9.1207    
  9.3642      9.7334      10.239      10.897      11.736      12.788      14.095      15.691      17.594      19.804    
  17.991      19.780      21.652      23.507      25.241      26.752      27.933      28.688      28.947      28.688    
  27.933      26.753      25.243      23.507      21.649      19.780      17.993      16.358      14.915      13.677    
  12.640      11.784      11.086      10.522      10.075      9.7335      9.4911      9.3457      9.2968      9.3456    
  9.4909      9.7337      10.075      10.522      11.085      11.784      12.640      13.677      14.916      16.359    
  15.203      16.340      17.552      18.794      19.997      21.083      21.979      22.617      22.949      22.949    
  22.617      21.978      21.082      19.995      18.795      17.554      16.339      15.202      14.176      13.277    
  12.508      11.862      11.324      10.881      10.522      10.239      10.027      9.8858      9.8153      9.8150    
  9.8860      10.027      10.239      10.522      10.881      11.324      11.862      12.509      13.276      14.175    
  13.498      14.161      14.885      15.641      16.394      17.104      17.721      18.202      18.507      18.612    
  18.508      18.203      17.723      17.105      16.395      15.640      14.884      14.161      13.499      12.912    
  12.404      11.975      11.617      11.324      11.086      10.897      10.753      10.652      10.591      10.571    
  10.591      10.652      10.753      10.897      11.085      11.323      11.617      11.975      12.405      12.913    
  12.594      12.901      13.252      13.639      14.043      14.439      14.802      15.105      15.322      15.436    
  15.436      15.322      15.104      14.801      14.438      14.042      13.640      13.253      12.901      12.593    
  12.337      12.132      11.975      11.862      11.784      11.735      11.707      11.692      11.687      11.685    
  11.685      11.686      11.692      11.707      11.735      11.785      11.862      11.975      12.131      12.336    
  12.309      12.326      12.386      12.480      12.601      12.739      12.880      13.010      13.115      13.183    
  13.207      13.183      13.116      13.011      12.881      12.739      12.601      12.479      12.385      12.327    
  12.310      12.337      12.404      12.508      12.640      12.788      12.938      13.075      13.185      13.256    
  13.281      13.257      13.185      13.075      12.937      12.787      12.639      12.508      12.405      12.337    
  12.594      12.327      12.113      11.949      11.831      11.747      11.695      11.663      11.646      11.638    