Pt-hcc                                  
   1.00000000000000     
     2.737592    0.000000    0.000000
    -1.368796    2.370824    0.000000
     0.000000    0.000000    4.742814
   Pt
     2
Direct
  0.000000  0.000000  0.000000
  0.333333  0.666667  0.500000
 
   40   40   72
 0.26945805557E+03 0.26913936324E+03 0.26760878524E+03 0.26334479096E+03 0.25444576185E+03
 0.23936233909E+03 0.21757697737E+03 0.18995317066E+03 0.15866239025E+03 0.12665099937E+03
 0.96898968605E+02 0.71679348451E+02 0.52129059007E+02 0.38164945547E+02 0.28777322924E+02
 0.22452524741E+02 0.18122822440E+02 0.15301467509E+02 0.13577824758E+02 0.12663657669E+02
 0.12375629689E+02 0.12663751428E+02 0.13577605756E+02 0.15301918748E+02 0.18121872333E+02
 0.22455201559E+02 0.28774574968E+02 0.38165552864E+02 0.52129302362E+02 0.71679290491E+02
 0.96898860811E+02 0.12665112888E+03 0.15866224183E+03 0.18995329085E+03 0.21757682285E+03
 0.23936262949E+03 0.25444557548E+03 0.26334500150E+03 0.26760876122E+03 0.26913913845E+03
 0.26913913845E+03 0.26913943363E+03 0.26820801300E+03 0.26527834568E+03 0.25860964063E+03
 0.24645409798E+03 0.22777240074E+03 0.20276744295E+03 0.17301077007E+03 0.14113299414E+03
 0.11015449754E+03 0.82729398609E+02 0.60546845499E+02 0.44084406344E+02 0.32731343783E+02
 0.25154972140E+02 0.19959295228E+02 0.16469685199E+02 0.14264781413E+02 0.12985278324E+02
 0.12405036493E+02 0.12403905111E+02 0.12986460982E+02 0.14263436066E+02 0.16471251068E+02
 0.19957297530E+02 0.25155363623E+02 0.32733006501E+02 0.44083032401E+02 0.60547563690E+02
 0.82728823762E+02 0.11015506544E+03 0.14113245692E+03 0.17301138433E+03 0.20276692140E+03
 0.22777297250E+03 0.24645385373E+03 0.25860985188E+03 0.26527830900E+03 0.26820824169E+03
 0.26760876122E+03 0.26821512747E+03 0.26760829806E+03 0.26527824821E+03 0.25988031535E+03
 0.24976483588E+03 0.23365146844E+03 0.21124062891E+03 0.18351957904E+03 0.15265530080E+03
 0.12148166264E+03 0.92793714932E+02 0.68666466993E+02 0.50077521559E+02 0.36845985882E+02
 0.27936190879E+02 0.21879441355E+02 0.17722693126E+02 0.15013525061E+02 0.13355500278E+02
 0.12475217119E+02 0.12197438836E+02 0.12475250524E+02 0.13355364686E+02 0.15013784788E+02
 0.17722105937E+02 0.21881626595E+02 0.27933324357E+02 0.36847757956E+02 0.50076439794E+02
 0.68667269386E+02 0.92793191522E+02 0.12148191702E+03 0.15265498501E+03 0.18351971877E+03
 0.21124061630E+03 0.23365125709E+03 0.24976525108E+03 0.25988026620E+03 0.26527830900E+03
 0.26334500150E+03 0.26529577648E+03 0.26529624463E+03 0.26334506590E+03 0.25860977632E+03
 0.24976480559E+03 0.23556044497E+03 0.21542700861E+03 0.18988418850E+03 0.16060915943E+03
 0.13010135916E+03 0.10108296093E+03 0.75827307498E+02 0.55677947137E+02 0.40866235464E+02
 0.30679023268E+02 0.23787953134E+02 0.19007030506E+02 0.15797115391E+02 0.13762834183E+02
 0.12580187719E+02 0.12042024137E+02 0.12041018382E+02 0.12581233849E+02 0.13761576089E+02
 0.15798583674E+02 0.19004692114E+02 0.23790019393E+02 0.30678263926E+02 0.40866446260E+02
 0.55678226603E+02 0.75826825520E+02 0.10108323383E+03 0.13010126759E+03 0.16060926238E+03
 0.18988417248E+03 0.21542747570E+03 0.23556031936E+03 0.24976525108E+03 0.25860985188E+03
 0.25444557548E+03 0.25863864837E+03 0.25991998897E+03 0.25863823479E+03 0.25444537131E+03
 0.24645370867E+03 0.23365186735E+03 0.21542685865E+03 0.19201116104E+03 0.16465674318E+03
 0.13547582812E+03 0.10696695788E+03 0.81422452504E+02 0.60402206333E+02 0.44471770145E+02
 0.33227669928E+02 0.25579256304E+02 0.20249729396E+02 0.16581378644E+02 0.14185940262E+02
 0.12714227660E+02 0.11928632394E+02 0.11681139588E+02 0.11928457601E+02 0.12714553371E+02
 0.14185434179E+02 0.16582279159E+02 0.20249391394E+02 0.25578612587E+02 0.33228791120E+02
 0.44470511049E+02 0.60403144433E+02 0.81421904559E+02 0.10696730030E+03 0.13547532148E+03
 0.16465706995E+03 0.19201038636E+03 0.21542747570E+03 0.23365125709E+03 0.24645385373E+03
 0.23936262949E+03 0.24648817764E+03 0.24982140361E+03 0.24982118951E+03 0.24648863468E+03
 0.23936263031E+03 0.22777281612E+03 0.21124007379E+03 0.18988467423E+03 0.16465642881E+03
 0.13729945638E+03 0.11001585658E+03 0.84978823160E+02 0.63820387880E+02 0.47333276716E+02
 0.35386262835E+02 0.27139620415E+02 0.21372554357E+02 0.17320511051E+02 0.14601434705E+02
 0.12864647546E+02 0.11851350061E+02 0.11385692964E+02 0.11385979105E+02 0.11851045969E+02
 0.12864860056E+02 0.14601107723E+02 0.17320186862E+02 0.21373702237E+02 0.27138294627E+02
 0.35387446810E+02 0.47332610390E+02 0.63820853351E+02 0.84978380449E+02 0.11001616202E+03
 0.13729923801E+03 0.16465706995E+03 0.18988417248E+03 0.21124061630E+03 0.22777297250E+03
 0.21757682285E+03 0.22780550469E+03 0.23371207976E+03 0.23563181144E+03 0.23371221499E+03
 0.22780535935E+03 0.21757692352E+03 0.20276726117E+03 0.18352028928E+03 0.16060890235E+03
 0.13547593672E+03 0.11001627749E+03 0.86197327649E+02 0.65614129872E+02 0.49173715607E+02
 0.36959443610E+02 0.28358649246E+02 0.22298601564E+02 0.17964358131E+02 0.14982180052E+02
 0.13016967884E+02 0.11802916154E+02 0.11146072459E+02 0.10940494990E+02 0.11146030396E+02
 0.11803054832E+02 0.13016854231E+02 0.14982792162E+02 0.17963241881E+02 0.22299629557E+02
 0.28357990384E+02 0.36959751598E+02 0.49173546742E+02 0.65614083376E+02 0.86197504056E+02
 0.11001616202E+03 0.13547532148E+03 0.16060926238E+03 0.18351971877E+03 0.20276692140E+03
 0.18995329085E+03 0.20278943355E+03 0.21128918771E+03 0.21549306522E+03 0.21549296073E+03
 0.21128897894E+03 0.20278953261E+03 0.18995347872E+03 0.17301105406E+03 0.15265463616E+03
 0.13010174340E+03 0.10696670807E+03 0.84978436631E+02 0.65614300225E+02 0.49808471661E+02
 0.37788924618E+02 0.29138096426E+02 0.22959408625E+02 0.18465513333E+02 0.15299112411E+02
 0.13157007376E+02 0.11774585616E+02 0.10957143610E+02 0.10578383890E+02 0.10578678028E+02
 0.10956799615E+02 0.11774881144E+02 0.13156367469E+02 0.15300042099E+02 0.18464791550E+02
 0.22959800123E+02 0.29137959918E+02 0.37788844952E+02 0.49808826387E+02 0.65614083376E+02
 0.84978380449E+02 0.10696730030E+03 0.13010126759E+03 0.15265498501E+03 0.17301138433E+03
 0.15866224183E+03 0.17301699761E+03 0.18354197441E+03 0.18992265581E+03 0.19205593426E+03
 0.18992312591E+03 0.18354252431E+03 0.17301702624E+03 0.15866227582E+03 0.14113297294E+03
 0.12148238385E+03 0.10108270759E+03 0.81422329919E+02 0.63820871989E+02 0.49173279883E+02
 0.37789386776E+02 0.29406050457E+02 0.23304148149E+02 0.18783304435E+02 0.15527563881E+02
 0.13268995968E+02 0.11760892600E+02 0.10812619065E+02 0.10293542090E+02 0.10128376147E+02
 0.10293614201E+02 0.10812613125E+02 0.11761191680E+02 0.13268508398E+02 0.15527790767E+02
 0.18783303460E+02 0.23303862608E+02 0.29406525345E+02 0.37788844952E+02 0.49173546742E+02
 0.63820853351E+02 0.81421904559E+02 0.10108323383E+03 0.12148191702E+03 0.14113245692E+03
 0.12665112888E+03 0.14111930431E+03 0.15264274215E+03 0.16060479984E+03 0.16465898361E+03
 0.16465862122E+03 0.16060419647E+03 0.15264227994E+03 0.14111944337E+03 0.12665124348E+03
 0.11015455933E+03 0.92792659078E+02 0.75827777519E+02 0.60402350347E+02 0.47332557739E+02
 0.36959902339E+02 0.29137540651E+02 0.23304342525E+02 0.18892231921E+02 0.15647096162E+02
 0.13341668271E+02 0.11755133858E+02 0.10710807862E+02 0.10080487709E+02 0.97845032369E+01
 0.97844100351E+01 0.10080532745E+02 0.10710595600E+02 0.11755498467E+02 0.13341576271E+02
 0.15646961760E+02 0.18892540982E+02 0.23303862608E+02 0.29137959918E+02 0.36959751598E+02
 0.47332610390E+02 0.60403144433E+02 0.75826825520E+02 0.92793191522E+02 0.11015506544E+03
 0.96898860811E+02 0.11012463502E+03 0.12143477556E+03 0.13004793539E+03 0.13542175055E+03
 0.13724610972E+03 0.13542235121E+03 0.13004871374E+03 0.12143536899E+03 0.11012441313E+03
 0.96898731573E+02 0.82729333948E+02 0.68667547125E+02 0.55676849680E+02 0.44471792494E+02
 0.35387104790E+02 0.28357921731E+02 0.22960211680E+02 0.18782867035E+02 0.15647368607E+02
 0.13366606430E+02 0.11753566531E+02 0.10649854807E+02 0.99384150780E+01 0.95402605122E+01
 0.94124294446E+01 0.95403226521E+01 0.99385300957E+01 0.10649666809E+02 0.11753503458E+02
 0.13366814276E+02 0.15646961760E+02 0.18783303460E+02 0.22959800123E+02 0.28357990384E+02
 0.35387446810E+02 0.44470511049E+02 0.55678226603E+02 0.68667269386E+02 0.82728823762E+02
 0.71679290491E+02 0.82686690051E+02 0.92718445569E+02 0.10098740725E+03 0.10685973600E+03
 0.10990373889E+03 0.10990361703E+03 0.10685894961E+03 0.10098644897E+03 0.92717797036E+02
 0.82686928066E+02 0.71679482412E+02 0.60546949824E+02 0.50076181533E+02 0.40867804116E+02
 0.33226955875E+02 0.27139245605E+02 0.22299184084E+02 0.18464730324E+02 0.15528031922E+02
 0.13341334721E+02 0.11753637352E+02 0.10629602966E+02 0.98670845903E+01 0.93938960658E+01
 0.91674439841E+01 0.91673862808E+01 0.93938395736E+01 0.98672793228E+01 0.10629680735E+02
 0.11753503458E+02 0.13341576271E+02 0.15527790767E+02 0.18464791550E+02 0.22299629557E+02
 0.27138294627E+02 0.33228791120E+02 0.40866446260E+02 0.50076439794E+02 0.60547563690E+02
 0.52129302362E+02 0.60499414493E+02 0.68576956582E+02 0.75701963469E+02 0.81273530487E+02
 0.84815731258E+02 0.86030813308E+02 0.84815967478E+02 0.81274354936E+02 0.75703087301E+02
 0.68577446530E+02 0.60498918490E+02 0.52128441113E+02 0.44084085495E+02 0.36847674322E+02
 0.30676895595E+02 0.25580622186E+02 0.21372347922E+02 0.17964212536E+02 0.15299721757E+02
 0.13268595533E+02 0.11755509224E+02 0.10649686306E+02 0.98672516680E+01 0.93448836718E+01
 0.90458708052E+01 0.89477074976E+01 0.90459790635E+01 0.93446476068E+01 0.98672793228E+01
 0.10649666809E+02 0.11755498467E+02 0.13268508398E+02 0.15300042099E+02 0.17963241881E+02
 0.21373702237E+02 0.25578612587E+02 0.30678263926E+02 0.36847757956E+02 0.44083032401E+02
 0.38165552864E+02 0.44036711235E+02 0.49982822616E+02 0.55542765294E+02 0.60233776069E+02
 0.63628719328E+02 0.65410074730E+02 0.65410173728E+02 0.63628165721E+02 0.60232880662E+02
 0.55541042482E+02 0.49982582183E+02 0.44037609945E+02 0.38166850752E+02 0.32730421071E+02
 0.27934862618E+02 0.23790548946E+02 0.20247757883E+02 0.17321513029E+02 0.14981600136E+02
 0.13156965371E+02 0.11760812906E+02 0.10710840283E+02 0.99382469020E+01 0.93940540141E+01
 0.90455170337E+01 0.88754173763E+01 0.88751213081E+01 0.90459790635E+01 0.93938395736E+01
 0.99385300957E+01 0.10710595600E+02 0.11761191680E+02 0.13156367469E+02 0.14982792162E+02
 0.17320186862E+02 0.20249391394E+02 0.23790019393E+02 0.27933324357E+02 0.32733006501E+02
 0.28774574968E+02 0.32691295428E+02 0.36760172270E+02 0.40735364307E+02 0.44300854091E+02
 0.47133374652E+02 0.48955330196E+02 0.49584357686E+02 0.48955444033E+02 0.47133731611E+02
 0.44302337743E+02 0.40736953616E+02 0.36760124868E+02 0.32688890264E+02 0.28774978060E+02
 0.25157980864E+02 0.21878834586E+02 0.19005651085E+02 0.16582833090E+02 0.14600619743E+02
 0.13017567441E+02 0.11774620605E+02 0.10812715595E+02 0.10080512584E+02 0.95403875856E+01
 0.91674164849E+01 0.89479646094E+01 0.88754173763E+01 0.89477074976E+01 0.91673862808E+01
 0.95403226521E+01 0.10080532745E+02 0.10812613125E+02 0.11774881144E+02 0.13016854231E+02
 0.14601107723E+02 0.16582279159E+02 0.19004692114E+02 0.21881626595E+02 0.25155363623E+02
 0.22455201559E+02 0.25120738540E+02 0.27858953264E+02 0.30564159983E+02 0.33075697031E+02
 0.35201654425E+02 0.36750187907E+02 0.37567006136E+02 0.37567055441E+02 0.36750040165E+02
 0.35200939519E+02 0.33073816743E+02 0.30562641030E+02 0.27860474827E+02 0.25123227581E+02
 0.22452752507E+02 0.19956868906E+02 0.17724153216E+02 0.15797695716E+02 0.14185112505E+02
 0.12865098009E+02 0.11802418382E+02 0.10957020502E+02 0.10293490351E+02 0.97844684658E+01
 0.94123364237E+01 0.91674164849E+01 0.90455170337E+01 0.90458708052E+01 0.91674439841E+01
 0.94124294446E+01 0.97844100351E+01 0.10293614201E+02 0.10956799615E+02 0.11803054832E+02
 0.12864860056E+02 0.14185434179E+02 0.15798583674E+02 0.17722105937E+02 0.19957297530E+02
 0.18121872333E+02 0.19929817415E+02 0.21821627944E+02 0.23695929736E+02 0.25448524077E+02
 0.26976565263E+02 0.28172022515E+02 0.28936573490E+02 0.29199575750E+02 0.28936454669E+02
 0.28172402186E+02 0.26977711065E+02 0.25450672772E+02 0.23696593565E+02 0.21818909769E+02
 0.19929466610E+02 0.18123991427E+02 0.16470990756E+02 0.15012432499E+02 0.13762288064E+02
 0.12714885912E+02 0.11850961972E+02 0.11146605180E+02 0.10578506248E+02 0.10128488571E+02
 0.97844684658E+01 0.95403875856E+01 0.93940540141E+01 0.93448836718E+01 0.93938960658E+01
 0.95402605122E+01 0.97845032369E+01 0.10128376147E+02 0.10578678028E+02 0.11146030396E+02
 0.11851045969E+02 0.12714553371E+02 0.13761576089E+02 0.15013784788E+02 0.16471251068E+02
 0.15301918748E+02 0.16449981732E+02 0.17675422672E+02 0.18930309854E+02 0.20145827598E+02
 0.21243395800E+02 0.22147932276E+02 0.22791989844E+02 0.23127355640E+02 0.23127418893E+02
 0.22792046983E+02 0.22147140464E+02 0.21241930762E+02 0.20144092300E+02 0.18931155571E+02
 0.17677419690E+02 0.16449658198E+02 0.15300531252E+02 0.14263809679E+02 0.13356549161E+02
 0.12580596948E+02 0.11928126584E+02 0.11385883435E+02 0.10939962219E+02 0.10578506248E+02
 0.10293490351E+02 0.10080512584E+02 0.99382469020E+01 0.98672516680E+01 0.98670845903E+01
 0.99384150780E+01 0.10080487709E+02 0.10293542090E+02 0.10578383890E+02 0.10940494990E+02
 0.11385979105E+02 0.11928457601E+02 0.12581233849E+02 0.13355364686E+02 0.14263436066E+02
 0.13577605756E+02 0.14246826556E+02 0.14977719392E+02 0.15741094267E+02 0.16502151864E+02
 0.17218895788E+02 0.17842513710E+02 0.18328167534E+02 0.18636423800E+02 0.18742099431E+02
 0.18636368781E+02 0.18328374573E+02 0.17843788687E+02 0.17220239459E+02 0.16502866739E+02
 0.15740220700E+02 0.14976413825E+02 0.14247202919E+02 0.13578813153E+02 0.12985961511E+02
 0.12474216836E+02 0.12041512740E+02 0.11681521989E+02 0.11385883435E+02 0.11146605180E+02
 0.10957020502E+02 0.10812715595E+02 0.10710840283E+02 0.10649686306E+02 0.10629602966E+02
 0.10649854807E+02 0.10710807862E+02 0.10812619065E+02 0.10957143610E+02 0.11146072459E+02
 0.11385692964E+02 0.11681139588E+02 0.12041018382E+02 0.12475250524E+02 0.12986460982E+02
 0.12663751428E+02 0.12973004222E+02 0.13327004333E+02 0.13717150126E+02 0.14124461832E+02
 0.14524102109E+02 0.14890889612E+02 0.15195959429E+02 0.15415586839E+02 0.15530540015E+02
 0.15530555338E+02 0.15415501109E+02 0.15195320133E+02 0.14889561405E+02 0.14523487426E+02
 0.14124037275E+02 0.13717782713E+02 0.13328144796E+02 0.12972481872E+02 0.12662702697E+02
 0.12404382557E+02 0.12198395702E+02 0.12041512740E+02 0.11928126584E+02 0.11850961972E+02
 0.11802418382E+02 0.11774620605E+02 0.11760812906E+02 0.11755509224E+02 0.11753637352E+02
 0.11753566531E+02 0.11755133858E+02 0.11760892600E+02 0.11774585616E+02 0.11802916154E+02
 0.11851350061E+02 0.11928632394E+02 0.12042024137E+02 0.12197438836E+02 0.12403905111E+02
 0.12375629689E+02 0.12391980743E+02 0.12451320494E+02 0.12545360854E+02 0.12666836099E+02
 0.12806055145E+02 0.12947673192E+02 0.13078926251E+02 0.13184568335E+02 0.13253221061E+02
 0.13277016974E+02 0.13253253383E+02 0.13185039897E+02 0.13079611183E+02 0.12948609352E+02
 0.12806299696E+02 0.12667277001E+02 0.12544701511E+02 0.12450322812E+02 0.12392446035E+02
 0.12376579954E+02 0.12404382557E+02 0.12474216836E+02 0.12580596948E+02 0.12714885912E+02
 0.12865098009E+02 0.13017567441E+02 0.13156965371E+02 0.13268595533E+02 0.13341334721E+02
 0.13366606430E+02 0.13341668271E+02 0.13268995968E+02 0.13157007376E+02 0.13016967884E+02
 0.12864647546E+02 0.12714227660E+02 0.12580187719E+02 0.12475217119E+02 0.12405036493E+02
 0.12663657669E+02 0.12393084318E+02 0.12175047152E+02 0.12009385126E+02 0.11888838808E+02
 0.11804398877E+02 0.11750617107E+02 0.11717840209E+02 0.11700553192E+02 0.11692531043E+02
 0.11689630580E+02 0.11689640502E+02 0.11692156332E+02 0.11700046207E+02 0.11717387401E+02
 0.11749860060E+02 0.11804230682E+02 0.11888439121E+02 0.12009857102E+02 0.12175987643E+02
 0.12392446035E+02 0.12662702697E+02 0.12985961511E+02 0.13356549161E+02 0.13762288064E+02
 0.14185112505E+02 0.14600619743E+02 0.14981600136E+02 0.15299721757E+02 0.15528031922E+02
 0.15647368607E+02 0.15647096162E+02 0.15527563881E+02 0.15299112411E+02 0.14982180052E+02
 0.14601434705E+02 0.14185940262E+02 0.13762834183E+02 0.13355500278E+02 0.12985278324E+02
 0.13577824758E+02 0.12971822722E+02 0.12451263086E+02 0.12010389756E+02 0.11643950576E+02
 0.11345217943E+02 0.11102942888E+02 0.10912700667E+02 0.10767991706E+02 0.10666256967E+02
 0.10605733802E+02 0.10585581196E+02 0.10606046618E+02 0.10666619027E+02 0.10768384918E+02
 0.10912983474E+02 0.11103714943E+02 0.11345107614E+02 0.11644442806E+02 0.12009857102E+02
 0.12450322812E+02 0.12972481872E+02 0.13578813153E+02 0.14263809679E+02 0.15012432499E+02
 0.15797695716E+02 0.16582833090E+02 0.17321513029E+02 0.17964212536E+02 0.18464730324E+02
 0.18782867035E+02 0.18892231921E+02 0.18783304435E+02 0.18465513333E+02 0.17964358131E+02
 0.17320511051E+02 0.16581378644E+02 0.15797115391E+02 0.15013525061E+02 0.14264781413E+02
 0.15301467509E+02 0.14248120683E+02 0.13327097206E+02 0.12544257554E+02 0.11888982451E+02
 0.11344943993E+02 0.10900872001E+02 0.10541273462E+02 0.10259195695E+02 0.10049121088E+02
 0.99091858324E+01 0.98392201544E+01 0.98388743882E+01 0.99089764401E+01 0.10048840573E+02
 0.10258955411E+02 0.10540971872E+02 0.10900241839E+02 0.11345107614E+02 0.11888439121E+02
 0.12544701511E+02 0.13328144796E+02 0.14247202919E+02 0.15300531252E+02 0.16470990756E+02
 0.17724153216E+02 0.19005651085E+02 0.20247757883E+02 0.21372347922E+02 0.22299184084E+02
 0.22960211680E+02 0.23304342525E+02 0.23304148149E+02 0.22959408625E+02 0.22298601564E+02
 0.21372554357E+02 0.20249729396E+02 0.19007030506E+02 0.17722693126E+02 0.16469685199E+02
 0.18122822440E+02 0.16448430395E+02 0.14977438745E+02 0.13718377644E+02 0.12666491787E+02
 0.11804655795E+02 0.11102999562E+02 0.10540847823E+02 0.10096825851E+02 0.97587505858E+01
 0.95195802360E+01 0.93763131252E+01 0.93289756955E+01 0.93765605968E+01 0.95197966977E+01
 0.97589240622E+01 0.10097176933E+02 0.10540971872E+02 0.11103714943E+02 0.11804230682E+02
 0.12667277001E+02 0.13717782713E+02 0.14976413825E+02 0.16449658198E+02 0.18123991427E+02
 0.19956868906E+02 0.21878834586E+02 0.23790548946E+02 0.25580622186E+02 0.27139245605E+02
 0.28357921731E+02 0.29137540651E+02 0.29406050457E+02 0.29138096426E+02 0.28358649246E+02
 0.27139620415E+02 0.25579256304E+02 0.23787953134E+02 0.21879441355E+02 0.19959295228E+02
 0.22452524741E+02 0.19931801047E+02 0.17675965290E+02 0.15739583494E+02 0.14124898189E+02
 0.12805851300E+02 0.11750441701E+02 0.10913201513E+02 0.10259090967E+02 0.97592242283E+01
 0.93947279923E+01 0.91556832254E+01 0.90364428391E+01 0.90366635951E+01 0.91553632455E+01
 0.93947263376E+01 0.97589240622E+01 0.10258955411E+02 0.10912983474E+02 0.11749860060E+02
 0.12806299696E+02 0.14124037275E+02 0.15740220700E+02 0.17677419690E+02 0.19929466610E+02
 0.22452752507E+02 0.25157980864E+02 0.27934862618E+02 0.30676895595E+02 0.33226955875E+02
 0.35387104790E+02 0.36959902339E+02 0.37789386776E+02 0.37788924618E+02 0.36959443610E+02
 0.35386262835E+02 0.33227669928E+02 0.30679023268E+02 0.27936190879E+02 0.25154972140E+02
 0.28777322924E+02 0.25120352402E+02 0.21819495332E+02 0.18932667389E+02 0.16501307053E+02
 0.14524371626E+02 0.12947835404E+02 0.11717396099E+02 0.10768120178E+02 0.10048730156E+02
 0.95196233098E+01 0.91551931818E+01 0.89414453131E+01 0.88705516476E+01 0.89413357798E+01
 0.91553632455E+01 0.95197966977E+01 0.10048840573E+02 0.10768384918E+02 0.11717387401E+02
 0.12948609352E+02 0.14523487426E+02 0.16502866739E+02 0.18931155571E+02 0.21818909769E+02
 0.25123227581E+02 0.28774978060E+02 0.32730421071E+02 0.36847674322E+02 0.40867804116E+02
 0.44471792494E+02 0.47332557739E+02 0.49173279883E+02 0.49808471661E+02 0.49173715607E+02
 0.47333276716E+02 0.44471770145E+02 0.40866235464E+02 0.36845985882E+02 0.32731343783E+02
 0.38164945547E+02 0.32689723899E+02 0.27861800747E+02 0.23693926221E+02 0.20146061932E+02
 0.17219262107E+02 0.14890212962E+02 0.13079731514E+02 0.11700154796E+02 0.10666861108E+02
 0.99089664419E+01 0.93769038251E+01 0.90363681047E+01 0.88707194430E+01 0.88705516476E+01
 0.90366635951E+01 0.93765605968E+01 0.99089764401E+01 0.10666619027E+02 0.11700046207E+02
 0.13079611183E+02 0.14889561405E+02 0.17220239459E+02 0.20144092300E+02 0.23696593565E+02
 0.27860474827E+02 0.32688890264E+02 0.38166850752E+02 0.44084085495E+02 0.50076181533E+02
 0.55676849680E+02 0.60402350347E+02 0.63820871989E+02 0.65614300225E+02 0.65614129872E+02
 0.63820387880E+02 0.60402206333E+02 0.55677947137E+02 0.50077521559E+02 0.44084406344E+02
 0.52129059007E+02 0.44037994795E+02 0.36758467895E+02 0.30564932237E+02 0.25449305284E+02
 0.21242305606E+02 0.17843679798E+02 0.15194857050E+02 0.13185210545E+02 0.11691806282E+02
 0.10606158336E+02 0.98385479975E+01 0.93292222633E+01 0.90363681047E+01 0.89414453131E+01
 0.90364428391E+01 0.93289756955E+01 0.98388743882E+01 0.10606046618E+02 0.11692156332E+02
 0.13185039897E+02 0.15195320133E+02 0.17843788687E+02 0.21241930762E+02 0.25450672772E+02
 0.30562641030E+02 0.36760124868E+02 0.44037609945E+02 0.52128441113E+02 0.60546949824E+02
 0.68667547125E+02 0.75827777519E+02 0.81422329919E+02 0.84978436631E+02 0.86197327649E+02
 0.84978823160E+02 0.81422452504E+02 0.75827307498E+02 0.68666466993E+02 0.60546845499E+02
 0.71679348451E+02 0.60498744003E+02 0.49983983161E+02 0.40735260005E+02 0.33074543144E+02
 0.26977942502E+02 0.22146669942E+02 0.18329228454E+02 0.15414951723E+02 0.13253917804E+02
 0.11689179059E+02 0.10586306214E+02 0.98385479975E+01 0.93769038251E+01 0.91551931818E+01
 0.91556832254E+01 0.93763131252E+01 0.98392201544E+01 0.10585581196E+02 0.11689640502E+02
 0.13253253383E+02 0.15415501109E+02 0.18328374573E+02 0.22147140464E+02 0.26977711065E+02
 0.33073816743E+02 0.40736953616E+02 0.49982582183E+02 0.60498918490E+02 0.71679482412E+02
 0.82729333948E+02 0.92792659078E+02 0.10108270759E+03 0.10696670807E+03 0.11001627749E+03
 0.11001585658E+03 0.10696695788E+03 0.10108296093E+03 0.92793714932E+02 0.82729398609E+02
 0.96898968605E+02 0.82687161803E+02 0.68576215385E+02 0.55542279545E+02 0.44302268783E+02
 0.35200372217E+02 0.28173037466E+02 0.22791244077E+02 0.18636742796E+02 0.15530100309E+02
 0.13277256721E+02 0.11689179059E+02 0.10606158336E+02 0.99089664419E+01 0.95196233098E+01
 0.93947279923E+01 0.95195802360E+01 0.99091858324E+01 0.10605733802E+02 0.11689630580E+02
 0.13277016974E+02 0.15530555338E+02 0.18636368781E+02 0.22792046983E+02 0.28172402186E+02
 0.35200939519E+02 0.44302337743E+02 0.55541042482E+02 0.68577446530E+02 0.82686928066E+02
 0.96898731573E+02 0.11015455933E+03 0.12148238385E+03 0.13010174340E+03 0.13547593672E+03
 0.13729945638E+03 0.13547582812E+03 0.13010135916E+03 0.12148166264E+03 0.11015449754E+03
 0.12665099937E+03 0.11012425846E+03 0.92718744141E+02 0.75702639623E+02 0.60232721206E+02
 0.47134364895E+02 0.36749427603E+02 0.28937150168E+02 0.23126985509E+02 0.18742570480E+02
 0.15530100309E+02 0.13253917804E+02 0.11691806282E+02 0.10666861108E+02 0.10048730156E+02
 0.97592242283E+01 0.97587505858E+01 0.10049121088E+02 0.10666256967E+02 0.11692531043E+02
 0.13253221061E+02 0.15530540015E+02 0.18742099431E+02 0.23127418893E+02 0.28936454669E+02
 0.36750040165E+02 0.47133731611E+02 0.60232880662E+02 0.75703087301E+02 0.92717797036E+02
 0.11012441313E+03 0.12665124348E+03 0.14113297294E+03 0.15265463616E+03 0.16060890235E+03
 0.16465642881E+03 0.16465674318E+03 0.16060915943E+03 0.15265530080E+03 0.14113299414E+03
 0.15866239025E+03 0.14111953098E+03 0.12143459656E+03 0.10098683653E+03 0.81274330368E+02
 0.63627718912E+02 0.48956030195E+02 0.37566528895E+02 0.29199856937E+02 0.23126985509E+02
 0.18636742796E+02 0.15414951723E+02 0.13185210545E+02 0.11700154796E+02 0.10768120178E+02
 0.10259090967E+02 0.10096825851E+02 0.10259195695E+02 0.10767991706E+02 0.11700553192E+02
 0.13184568335E+02 0.15415586839E+02 0.18636423800E+02 0.23127355640E+02 0.29199575750E+02
 0.37567055441E+02 0.48955444033E+02 0.63628165721E+02 0.81274354936E+02 0.10098644897E+03
 0.12143536899E+03 0.14111944337E+03 0.15866227582E+03 0.17301105406E+03 0.18352028928E+03
 0.18988467423E+03 0.19201116104E+03 0.18988418850E+03 0.18351957904E+03 0.17301077007E+03
 0.18995317066E+03 0.17301686849E+03 0.15264270096E+03 0.13004851817E+03 0.10685874292E+03
 0.84816803338E+02 0.65409506640E+02 0.49584914700E+02 0.37566528895E+02 0.28937150168E+02
 0.22791244077E+02 0.18329228454E+02 0.15194857050E+02 0.13079731514E+02 0.11717396099E+02
 0.10913201513E+02 0.10540847823E+02 0.10541273462E+02 0.10912700667E+02 0.11717840209E+02
 0.13078926251E+02 0.15195959429E+02 0.18328167534E+02 0.22791989844E+02 0.28936573490E+02
 0.37567006136E+02 0.49584357686E+02 0.65410173728E+02 0.84815967478E+02 0.10685894961E+03
 0.13004871374E+03 0.15264227994E+03 0.17301702624E+03 0.18995347872E+03 0.20276726117E+03
 0.21124007379E+03 0.21542685865E+03 0.21542700861E+03 0.21124062891E+03 0.20276744295E+03
 0.21757697737E+03 0.20278946014E+03 0.18354206617E+03 0.16060421381E+03 0.13542254408E+03
 0.10990289820E+03 0.86031243879E+02 0.65409506640E+02 0.48956030195E+02 0.36749427603E+02
 0.28173037466E+02 0.22146669942E+02 0.17843679798E+02 0.14890212962E+02 0.12947835404E+02
 0.11750441701E+02 0.11102999562E+02 0.10900872001E+02 0.11102942888E+02 0.11750617107E+02
 0.12947673192E+02 0.14890889612E+02 0.17842513710E+02 0.22147932276E+02 0.28172022515E+02
 0.36750187907E+02 0.48955330196E+02 0.65410074730E+02 0.86030813308E+02 0.10990361703E+03
 0.13542235121E+03 0.16060419647E+03 0.18354252431E+03 0.20278953261E+03 0.21757692352E+03
 0.22777281612E+03 0.23365186735E+03 0.23556044497E+03 0.23365146844E+03 0.22777240074E+03
 0.23936233909E+03 0.22780565853E+03 0.21128906440E+03 0.18992333940E+03 0.16465809236E+03
 0.13724700061E+03 0.10990289820E+03 0.84816803338E+02 0.63627718912E+02 0.47134364895E+02
 0.35200372217E+02 0.26977942502E+02 0.21242305606E+02 0.17219262107E+02 0.14524371626E+02
 0.12805851300E+02 0.11804655795E+02 0.11344943993E+02 0.11345217943E+02 0.11804398877E+02
 0.12806055145E+02 0.14524102109E+02 0.17218895788E+02 0.21243395800E+02 0.26976565263E+02
 0.35201654425E+02 0.47133374652E+02 0.63628719328E+02 0.84815731258E+02 0.10990373889E+03
 0.13724610972E+03 0.16465862122E+03 0.18992312591E+03 0.21128897894E+03 0.22780535935E+03
 0.23936263031E+03 0.24645370867E+03 0.24976480559E+03 0.24976483588E+03 0.24645409798E+03
 0.25444576185E+03 0.24648849061E+03 0.23371207889E+03 0.21549276162E+03 0.19205642254E+03
 0.16465809236E+03 0.13542254408E+03 0.10685874292E+03 0.81274330368E+02 0.60232721206E+02
 0.44302268783E+02 0.33074543144E+02 0.25449305284E+02 0.20146061932E+02 0.16501307053E+02
 0.14124898189E+02 0.12666491787E+02 0.11888982451E+02 0.11643950576E+02 0.11888838808E+02
 0.12666836099E+02 0.14124461832E+02 0.16502151864E+02 0.20145827598E+02 0.25448524077E+02
 0.33075697031E+02 0.44300854091E+02 0.60233776069E+02 0.81273530487E+02 0.10685973600E+03
 0.13542175055E+03 0.16465898361E+03 0.19205593426E+03 0.21549296073E+03 0.23371221499E+03
 0.24648863468E+03 0.25444537131E+03 0.25860977632E+03 0.25988031535E+03 0.25860964063E+03
 0.26334479096E+03 0.25863845174E+03 0.24982150001E+03 0.23563224301E+03 0.21549276162E+03
 0.18992333940E+03 0.16060421381E+03 0.13004851817E+03 0.10098683653E+03 0.75702639623E+02
 0.55542279545E+02 0.40735260005E+02 0.30564932237E+02 0.23693926221E+02 0.18932667389E+02
 0.15739583494E+02 0.13718377644E+02 0.12544257554E+02 0.12010389756E+02 0.12009385126E+02
 0.12545360854E+02 0.13717150126E+02 0.15741094267E+02 0.18930309854E+02 0.23695929736E+02
 0.30564159983E+02 0.40735364307E+02 0.55542765294E+02 0.75701963469E+02 0.10098740725E+03
 0.13004793539E+03 0.16060479984E+03 0.18992265581E+03 0.21549306522E+03 0.23563181144E+03
 0.24982118951E+03 0.25863823479E+03 0.26334506590E+03 0.26527824821E+03 0.26527834568E+03
 0.26760878524E+03 0.26529641615E+03 0.25991988902E+03 0.24982150001E+03 0.23371207889E+03
 0.21128906440E+03 0.18354206617E+03 0.15264270096E+03 0.12143459656E+03 0.92718744141E+02
 0.68576215385E+02 0.49983983161E+02 0.36758467895E+02 0.27861800747E+02 0.21819495332E+02
 0.17675965290E+02 0.14977438745E+02 0.13327097206E+02 0.12451263086E+02 0.12175047152E+02
 0.12451320494E+02 0.13327004333E+02 0.14977719392E+02 0.17675422672E+02 0.21821627944E+02
 0.27858953264E+02 0.36760172270E+02 0.49982822616E+02 0.68576956582E+02 0.92718445569E+02
 0.12143477556E+03 0.15264274215E+03 0.18354197441E+03 0.21128918771E+03 0.23371207976E+03
 0.24982140361E+03 0.25991998897E+03 0.26529624463E+03 0.26760829806E+03 0.26820801300E+03
 0.26913936324E+03 0.26821463593E+03 0.26529641615E+03 0.25863845174E+03 0.24648849061E+03
 0.22780565853E+03 0.20278946014E+03 0.17301686849E+03 0.14111953098E+03 0.11012425846E+03
 0.82687161803E+02 0.60498744003E+02 0.44037994795E+02 0.32689723899E+02 0.25120352402E+02
 0.19931801047E+02 0.16448430395E+02 0.14248120683E+02 0.12971822722E+02 0.12393084318E+02
 0.12391980743E+02 0.12973004222E+02 0.14246826556E+02 0.16449981732E+02 0.19929817415E+02
 0.25120738540E+02 0.32691295428E+02 0.44036711235E+02 0.60499414493E+02 0.82686690051E+02
 0.11012463502E+03 0.14111930431E+03 0.17301699761E+03 0.20278943355E+03 0.22780550469E+03
 0.24648817764E+03 0.25863864837E+03 0.26529577648E+03 0.26821512747E+03 0.26913943363E+03
 0.26931770719E+03 0.26893174032E+03 0.26721168189E+03 0.26267162124E+03 0.25346198578E+03
 0.23809497047E+03 0.21610754259E+03 0.18840202881E+03 0.15716056813E+03 0.12531283667E+03
 0.95799617956E+02 0.70845924126E+02 0.51543391527E+02 0.37777202209E+02 0.28523054506E+02
 0.22273279707E+02 0.17992072554E+02 0.15203039064E+02 0.13498315053E+02 0.12594221271E+02
 0.12309100410E+02 0.12594294051E+02 0.13498143456E+02 0.15203410305E+02 0.17991253528E+02
 0.22275829040E+02 0.28520186764E+02 0.37778106066E+02 0.51543433107E+02 0.70845870040E+02