    2    2  100    1
  0.1539126E+02  0.2737592E-09  0.2737592E-09  0.4742814E-09  0.5000000E-15
  1.000000000000000E-004
  CAR 
 Pt-hcc                                  
     32     70     24
 
  0.0000000E+00  0.0000000E+00  0.0000000E+00  0.1250000E-02
      1        -41.088297   1.000000
      2        -40.882893   1.000000
      3        -40.882892   1.000000
      4        -40.839415   1.000000
      5        -40.839414   1.000000
      6        -40.723597   1.000000
      7          1.636946   1.000000
      8          4.314282   1.000000
      9          7.544328   1.000000
     10          8.064678   1.000000
     11          8.064679   1.000000
     12          8.448835   1.000000
     13          8.448836   1.000000
     14          9.752221   1.000000
     15          9.752221   1.000000
     16         10.815432   1.000000
     17         11.411300   1.000000
     18         11.411300   1.000000
     19         16.502602   0.000000
     20         26.674893   0.000000
     21         27.330022   0.000000
     22         28.885201   0.000000
     23         32.929611   0.000000
     24         32.929611   0.000000
 
  0.1000000E+00  0.0000000E+00  0.0000000E+00  0.7500000E-02
      1        -41.075879   1.000000
      2        -40.923528   1.000000
      3        -40.895343   1.000000
      4        -40.880121   1.000000
      5        -40.847791   1.000000
      6        -40.726746   1.000000
      7          2.007029   1.000000
      8          4.649988   1.000000
      9          7.472428   1.000000
     10          8.075123   1.000000
     11          8.293384   1.000000
     12          8.350068   1.000000
     13          8.720789   1.000000
     14          9.136413   1.000000
     15          9.573340   1.000000
     16          9.721102   1.000000
     17         11.477491   0.999988
     18         13.187315   0.000000
     19         16.462183   0.000000
     20         27.154305   0.000000
     21         27.869494   0.000000
     22         29.282199   0.000000
     23         31.238076   0.000000
     24         31.407204   0.000000
 
  0.2000000E+00  0.0000000E+00  0.0000000E+00  0.7500000E-02
      1        -41.039393   1.000000
      2        -41.026995   1.000000
      3        -40.984385   1.000000
      4        -40.924650   1.000000
      5        -40.868899   1.000000
      6        -40.736020   1.000000
      7          3.013322   1.000000
      8          5.384952   1.000000
      9          7.233829   1.000000
     10          7.725693   1.000000
     11          7.782845   1.000000
     12          8.722495   1.000000
     13          9.161452   1.000000
     14          9.177962   1.000000
     15          9.193293   1.000000
     16          9.486901   1.000000
     17         11.584396   0.885301
     18         15.412185   0.000000
     19         16.380947   0.000000
     20         25.851634   0.000000
     21         28.480018   0.000000
     22         28.942267   0.000000
     23         29.719082   0.000000
     24         29.912399   0.000000
 
  0.3000000E+00 -0.5551115E-16  0.0000000E+00  0.7500000E-02
      1        -41.154849   1.000000
      2        -41.110698   1.000000
      3        -40.989476   1.000000
      4        -40.960584   1.000000
      5        -40.895858   1.000000
      6        -40.753808   1.000000
      7          4.234813   1.000000
      8          5.501082   1.000000
      9          6.632582   1.000000
     10          7.509296   1.000000
     11          7.883776   1.000000
     12          8.665388   1.000000
     13          8.771304   1.000000
     14          9.916359   1.000000
     15         10.328755   1.000000
     16         10.573869   1.000000
     17         11.642307   0.331400
     18         16.482026   0.000000
     19         17.668138   0.000000
     20         22.123947   0.000000
     21         26.510793   0.000000
     22         26.927890   0.000000
     23         28.818772   0.000000
     24         29.778999   0.000000
 
  0.4000000E+00  0.0000000E+00  0.0000000E+00  0.7500000E-02
      1        -41.257951   1.000000
      2        -41.211607   1.000000
      3        -40.989179   1.000000
      4        -40.938736   1.000000
      5        -40.918906   1.000000
      6        -40.778519   1.000000
      7          4.888582   1.000000
      8          5.176652   1.000000
      9          5.954648   1.000000
     10          8.048262   1.000000
     11          8.279509   1.000000
     12          8.481947   1.000000
     13          8.714967   1.000000
     14         11.458815   0.999999
     15         11.645883   0.295567
     16         11.655709   0.207499
     17         11.851363   0.000000
     18         17.257477   0.000000
     19         18.457168   0.000000
     20         19.657210   0.000000
     21         24.306065   0.000000
     22         24.548843   0.000000
     23         25.611599   0.000000
     24         28.504966   0.000000
 
  0.5000000E+00  0.0000000E+00  0.0000000E+00  0.3750000E-02
      1        -41.297691   1.000000
      2        -41.248929   1.000000
      3        -40.999912   1.000000
      4        -40.927701   1.000000
      5        -40.912776   1.000000
      6        -40.794125   1.000000
      7          4.960468   1.000000
      8          5.058825   1.000000
      9          5.725306   1.000000
     10          8.139949   1.000000
     11          8.378255   1.000000
     12          8.592473   1.000000
     13          8.915951   1.000000
     14         11.655571   0.208624
     15         11.936278   0.000000
     16         12.148655   0.000000
     17         13.948377   0.000000
     18         15.463040   0.000000
     19         19.031794   0.000000
     20         20.607277   0.000000
     21         21.378141   0.000000
     22         23.742110   0.000000
     23         25.002876   0.000000
     24         27.908917   0.000000
 
  0.1000000E+00  0.1000000E+00  0.0000000E+00  0.7500000E-02
      1        -41.051223   1.000000
      2        -40.988169   1.000000
      3        -40.959926   1.000000
      4        -40.909143   1.000000
      5        -40.868018   1.000000
      6        -40.732677   1.000000
      7          2.704046   1.000000
      8          5.235710   1.000000
      9          7.191332   1.000000
     10          7.986616   1.000000
     11          8.142368   1.000000
     12          8.305442   1.000000
     13          8.955764   1.000000
     14          8.966701   1.000000
     15          9.330902   1.000000
     16          9.636865   1.000000
     17         11.501352   0.999808
     18         14.826618   0.000000
     19         16.403522   0.000000
     20         27.194961   0.000000
     21         27.918032   0.000000
     22         28.789437   0.000000
     23         29.822485   0.000000
     24         30.642568   0.000000
 
  0.2000000E+00  0.1000000E+00  0.0000000E+00  0.1500000E-01
      1        -41.095562   1.000000
      2        -41.066921   1.000000
      3        -41.007704   1.000000
      4        -40.950730   1.000000
      5        -40.900465   1.000000
      6        -40.746768   1.000000
      7          3.895731   1.000000
      8          5.854757   1.000000
      9          7.007156   1.000000
     10          7.057646   1.000000
     11          7.707709   1.000000
     12          8.452555   1.000000
     13          8.940569   1.000000
     14          9.256601   1.000000
     15         10.053055   1.000000
     16         10.476184   1.000000
     17         11.504203   0.999740
     18         16.434310   0.000000
     19         16.959374   0.000000
     20         24.034014   0.000000
     21         25.927340   0.000000
     22         27.936447   0.000000
     23         29.903034   0.000000
     24         30.687423   0.000000
 
  0.3000000E+00  0.1000000E+00  0.0000000E+00  0.1500000E-01
      1        -41.207146   1.000000
      2        -41.167860   1.000000
      3        -40.993409   1.000000
      4        -40.955751   1.000000
      5        -40.931376   1.000000
      6        -40.769315   1.000000
      7          4.960418   1.000000
      8          5.601244   1.000000
      9          6.255944   1.000000
     10          7.524111   1.000000
     11          8.145680   1.000000
     12          8.170338   1.000000
     13          8.748186   1.000000
     14         10.081428   1.000000
     15         11.180888   1.000000
     16         11.491884   0.999933
     17         11.953689   0.000000
     18         17.014720   0.000000
     19         19.127434   0.000000
     20         20.170546   0.000000
     21         23.779887   0.000000
     22         26.497130   0.000000
     23         27.021327   0.000000
     24         28.934634   0.000000
 
  0.4000000E+00  0.1000000E+00  0.0000000E+00  0.1500000E-01
      1        -41.275840   1.000000
      2        -41.228870   1.000000
      3        -41.019642   1.000000
      4        -40.950320   1.000000
      5        -40.913036   1.000000
      6        -40.793575   1.000000
      7          5.250469   1.000000
      8          5.347711   1.000000
      9          5.838255   1.000000
     10          8.089986   1.000000
     11          8.331620   1.000000
     12          8.338291   1.000000
     13          8.682722   1.000000
     14         11.365424   1.000000
     15         11.474529   0.999992
     16         11.762172   0.000065
     17         13.701678   0.000000
     18         16.714606   0.000000
     19         18.702410   0.000000
     20         20.808360   0.000000
     21         21.583417   0.000000
     22         23.955216   0.000000
     23         25.487923   0.000000
     24         27.833727   0.000000
 
  0.2000000E+00  0.2000000E+00  0.0000000E+00  0.7500000E-02
      1        -41.158841   1.000000
      2        -41.157357   1.000000
      3        -40.999019   1.000000
      4        -40.962014   1.000000
      5        -40.955150   1.000000
      6        -40.766073   1.000000
      7          5.125979   1.000000
      8          6.465706   1.000000
      9          6.474038   1.000000
     10          6.540370   1.000000
     11          7.932619   1.000000
     12          7.947057   1.000000
     13          8.948068   1.000000
     14          9.314952   1.000000
     15         11.164025   1.000000
     16         11.316757   1.000000
     17         12.037045   0.000000
     18         16.998328   0.000000
     19         19.009784   0.000000
     20         21.622501   0.000000
     21         22.528433   0.000000
     22         27.256043   0.000000
     23         28.653688   0.000000
     24         29.086327   0.000000
 
  0.3000000E+00  0.2000000E+00  0.0000000E+00  0.1500000E-01
      1        -41.225967   1.000000
      2        -41.193803   1.000000
      3        -41.055416   1.000000
      4        -41.001899   1.000000
      5        -40.913591   1.000000
      6        -40.793169   1.000000
      7          5.910844   1.000000
      8          6.064844   1.000000
      9          6.116094   1.000000
     10          7.304767   1.000000
     11          7.797300   1.000000
     12          8.443268   1.000000
     13          8.498966   1.000000
     14         10.138102   1.000000
     15         11.173431   1.000000
     16         11.624252   0.529739
     17         13.762976   0.000000
     18         17.999690   0.000000
     19         18.926111   0.000000
     20         20.530206   0.000000
     21         21.127390   0.000000
     22         25.604105   0.000000
     23         26.528996   0.000000
     24         27.594190   0.000000
 
  0.4000000E+00  0.2000000E+00  0.0000000E+00  0.7500000E-02
      1        -41.250027   1.000000
      2        -41.203084   1.000000
      3        -41.082365   1.000000
      4        -41.019259   1.000000
      5        -40.886268   1.000000
      6        -40.812345   1.000000
      7          5.923274   1.000000
      8          5.958139   1.000000
      9          6.027136   1.000000
     10          7.895074   1.000000
     11          7.940324   1.000000
     12          8.053497   1.000000
     13          8.775320   1.000000
     14         10.930344   1.000000
     15         11.121357   1.000000
     16         11.424849   1.000000
     17         15.366885   0.000000
     18         15.918524   0.000000
     19         19.220256   0.000000
     20         20.858823   0.000000
     21         22.344614   0.000000
     22         23.426184   0.000000
     23         25.820343   0.000000
     24         27.018028   0.000000
 
  0.3000000E+00  0.3000000E+00  0.0000000E+00  0.7500000E-02
      1        -41.210545   1.000000
      2        -41.174470   1.000000
      3        -41.123607   1.000000
      4        -41.077698   1.000000
      5        -40.870918   1.000000
      6        -40.824992   1.000000
      7          6.017836   1.000000
      8          6.469901   1.000000
      9          6.730488   1.000000
     10          7.184670   1.000000
     11          7.748494   1.000000
     12          8.027849   1.000000
     13          8.869918   1.000000
     14         10.513376   1.000000
     15         10.947810   1.000000
     16         11.257905   1.000000
     17         15.393507   0.000000
     18         16.657182   0.000000
     19         18.079012   0.000000
     20         21.729972   0.000000
     21         23.296908   0.000000
     22         24.553152   0.000000
     23         25.398877   0.000000
     24         25.749446   0.000000
 
  0.0000000E+00  0.0000000E+00  0.1250000E+00  0.2500000E-02
      1        -41.075651   1.000000
      2        -40.881768   1.000000
      3        -40.881767   1.000000
      4        -40.841290   1.000000
      5        -40.841289   1.000000
      6        -40.738081   1.000000
      7          1.774505   1.000000
      8          4.296199   1.000000
      9          7.508808   1.000000
     10          8.043763   1.000000
     11          8.043763   1.000000
     12          8.407933   1.000000
     13          8.407934   1.000000
     14          9.855063   1.000000
     15          9.855063   1.000000
     16         10.198535   1.000000
     17         11.382844   1.000000
     18         11.382844   1.000000
     19         17.368987   0.000000
     20         26.223198   0.000000
     21         27.857888   0.000000
     22         28.591102   0.000000
     23         32.295138   0.000000
     24         32.295138   0.000000
 
  0.1000000E+00  0.0000000E+00  0.1250000E+00  0.1500000E-01
      1        -41.063945   1.000000
      2        -40.920896   1.000000
      3        -40.893409   1.000000
      4        -40.882331   1.000000
      5        -40.849416   1.000000
      6        -40.739177   1.000000
      7          2.141811   1.000000
      8          4.638654   1.000000
      9          7.475606   1.000000
     10          7.984115   1.000000
     11          8.184056   1.000000
     12          8.320142   1.000000
     13          8.675617   1.000000
     14          9.084006   1.000000
     15          9.695352   1.000000
     16          9.727384   1.000000
     17         11.437958   1.000000
     18         12.656611   0.000000
     19         17.449497   0.000000
     20         26.756408   0.000000
     21         28.310818   0.000000
     22         29.023078   0.000000
     23         30.591114   0.000000
     24         31.301401   0.000000
 
  0.2000000E+00  0.0000000E+00  0.1250000E+00  0.1500000E-01
      1        -41.047853   1.000000
      2        -41.007267   1.000000
      3        -40.986789   1.000000
      4        -40.922518   1.000000
      5        -40.870890   1.000000
      6        -40.746004   1.000000
      7          3.131801   1.000000
      8          5.396958   1.000000
      9          7.266457   1.000000
     10          7.465949   1.000000
     11          7.784399   1.000000
     12          8.601263   1.000000
     13          8.989900   1.000000
     14          9.352169   1.000000
     15          9.417416   1.000000
     16          9.535202   1.000000
     17         11.521541   0.998557
     18         14.233769   0.000000
     19         17.837576   0.000000
     20         25.945384   0.000000
     21         28.279242   0.000000
     22         29.099114   0.000000
     23         29.205755   0.000000
     24         30.358738   0.000000
 
  0.3000000E+00 -0.5551115E-16  0.1250000E+00  0.1500000E-01
      1        -41.157513   1.000000
      2        -41.114967   1.000000
      3        -40.975619   1.000000
      4        -40.958097   1.000000
      5        -40.898551   1.000000
      6        -40.760709   1.000000
      7          4.287054   1.000000
      8          5.531783   1.000000
      9          6.615521   1.000000
     10          7.335941   1.000000
     11          7.910132   1.000000
     12          8.778652   1.000000
     13          8.835339   1.000000
     14          9.972149   1.000000
     15         10.351196   1.000000
     16         10.522657   1.000000
     17         11.568942   0.949397
     18         15.362578   0.000000
     19         18.807463   0.000000
     20         22.404278   0.000000
     21         26.740493   0.000000
     22         26.758144   0.000000
     23         28.398403   0.000000
     24         30.269972   0.000000
 
  0.4000000E+00  0.0000000E+00  0.1250000E+00  0.1500000E-01
      1        -41.259209   1.000000
      2        -41.215850   1.000000
      3        -40.986349   1.000000
      4        -40.928549   1.000000
      5        -40.921407   1.000000
      6        -40.782005   1.000000
      7          4.818820   1.000000
      8          5.182943   1.000000
      9          6.120848   1.000000
     10          7.387127   1.000000
     11          8.511121   1.000000
     12          8.570317   1.000000
     13          9.280318   1.000000
     14         11.378984   1.000000
     15         11.475170   0.999991
     16         11.753590   0.000169
     17         11.760899   0.000075
     18         16.380747   0.000000
     19         18.500282   0.000000
     20         20.489541   0.000000
     21         24.022344   0.000000
     22         24.835916   0.000000
     23         25.949251   0.000000
     24         28.723179   0.000000
 
  0.5000000E+00  0.0000000E+00  0.1250000E+00  0.7500000E-02
      1        -41.298928   1.000000
      2        -41.253283   1.000000
      3        -40.997071   1.000000
      4        -40.930395   1.000000
      5        -40.905266   1.000000
      6        -40.795794   1.000000
      7          4.890571   1.000000
      8          4.991837   1.000000
      9          5.963004   1.000000
     10          7.451074   1.000000
     11          8.472198   1.000000
     12          8.666828   1.000000
     13          9.741810   1.000000
     14         11.467876   0.999997
     15         11.957532   0.000000
     16         12.142267   0.000000
     17         13.697927   0.000000
     18         15.343578   0.000000
     19         18.900362   0.000000
     20         19.678696   0.000000
     21         22.562886   0.000000
     22         24.043988   0.000000
     23         25.137217   0.000000
     24         28.190645   0.000000
 
  0.1000000E+00  0.1000000E+00  0.1250000E+00  0.1500000E-01
      1        -41.045341   1.000000
      2        -40.981007   1.000000
      3        -40.961618   1.000000
      4        -40.908570   1.000000
      5        -40.869770   1.000000
      6        -40.743507   1.000000
      7          2.830206   1.000000
      8          5.240177   1.000000
      9          7.224009   1.000000
     10          7.689472   1.000000
     11          8.068199   1.000000
     12          8.299823   1.000000
     13          8.883787   1.000000
     14          9.112574   1.000000
     15          9.419758   1.000000
     16          9.713333   1.000000
     17         11.448391   1.000000
     18         13.868339   0.000000
     19         17.690517   0.000000
     20         27.130788   0.000000
     21         27.978901   0.000000
     22         28.728899   0.000000
     23         29.369827   0.000000
     24         30.903159   0.000000
 
  0.2000000E+00  0.1000000E+00  0.1250000E+00  0.3000000E-01
      1        -41.100271   1.000000
      2        -41.070304   1.000000
      3        -40.991349   1.000000
      4        -40.949577   1.000000
      5        -40.902386   1.000000
      6        -40.754308   1.000000
      7          3.987672   1.000000
      8          5.891759   1.000000
      9          6.875407   1.000000
     10          7.076238   1.000000
     11          7.673366   1.000000
     12          8.352541   1.000000
     13          9.091185   1.000000
     14          9.245725   1.000000
     15         10.168612   1.000000
     16         10.421250   1.000000
     17         11.450778   1.000000
     18         15.084898   0.000000
     19         18.469398   0.000000
     20         24.217922   0.000000
     21         26.059395   0.000000
     22         27.886576   0.000000
     23         29.343249   0.000000
     24         31.251269   0.000000
 
  0.3000000E+00  0.1000000E+00  0.1250000E+00  0.3000000E-01
      1        -41.208608   1.000000
      2        -41.171808   1.000000
      3        -40.992270   1.000000
      4        -40.945221   1.000000
      5        -40.932562   1.000000
      6        -40.773351   1.000000
      7          4.938974   1.000000
      8          5.637778   1.000000
      9          6.327390   1.000000
     10          7.234341   1.000000
     11          8.123619   1.000000
     12          8.514956   1.000000
     13          8.763853   1.000000
     14         10.098094   1.000000
     15         11.230380   1.000000
     16         11.291887   1.000000
     17         12.018122   0.000000
     18         16.192637   0.000000
     19         19.390640   0.000000
     20         20.944716   0.000000
     21         23.906800   0.000000
     22         26.099293   0.000000
     23         27.230600   0.000000
     24         29.156269   0.000000
 
  0.4000000E+00  0.1000000E+00  0.1250000E+00  0.3000000E-01
      1        -41.276880   1.000000
      2        -41.233288   1.000000
      3        -41.017988   1.000000
      4        -40.953603   1.000000
      5        -40.904670   1.000000
      6        -40.795138   1.000000
      7          5.126070   1.000000
      8          5.323834   1.000000
      9          6.111855   1.000000
     10          7.390814   1.000000
     11          8.203100   1.000000
     12          8.794683   1.000000
     13          9.204119   1.000000
     14         11.251287   1.000000
     15         11.371218   1.000000
     16         11.806872   0.000000
     17         13.651188   0.000000
     18         16.503342   0.000000
     19         18.363966   0.000000
     20         20.716245   0.000000
     21         22.073078   0.000000
     22         24.224017   0.000000
     23         25.698979   0.000000
     24         27.938502   0.000000
 
  0.2000000E+00  0.2000000E+00  0.1250000E+00  0.1500000E-01
      1        -41.161197   1.000000
      2        -41.160255   1.000000
      3        -40.998931   1.000000
      4        -40.962576   1.000000
      5        -40.944646   1.000000
      6        -40.770502   1.000000
      7          5.158225   1.000000
      8          6.299575   1.000000
      9          6.559388   1.000000
     10          6.645953   1.000000
     11          7.932132   1.000000
     12          7.941994   1.000000
     13          8.824877   1.000000
     14          9.471552   1.000000
     15         11.091821   1.000000
     16         11.280480   1.000000
     17         12.113699   0.000000
     18         16.198472   0.000000
     19         19.627669   0.000000
     20         22.085198   0.000000
     21         22.697749   0.000000
     22         27.127643   0.000000
     23         27.806000   0.000000
     24         29.756868   0.000000
 
  0.3000000E+00  0.2000000E+00  0.1250000E+00  0.3000000E-01
      1        -41.226870   1.000000
      2        -41.197614   1.000000
      3        -41.055362   1.000000
      4        -41.005605   1.000000
      5        -40.904121   1.000000
      6        -40.794214   1.000000
      7          5.734824   1.000000
      8          6.128183   1.000000
      9          6.304422   1.000000
     10          7.092746   1.000000
     11          7.945898   1.000000
     12          8.337316   1.000000
     13          8.640983   1.000000
     14         10.201158   1.000000
     15         10.960783   1.000000
     16         11.732606   0.001394
     17         13.808163   0.000000
     18         18.031636   0.000000
     19         18.240051   0.000000
     20         20.617611   0.000000
     21         21.952153   0.000000
     22         25.101251   0.000000
     23         26.534989   0.000000
     24         27.708249   0.000000
 
  0.4000000E+00  0.2000000E+00  0.1250000E+00  0.1500000E-01
      1        -41.250632   1.000000
      2        -41.207577   1.000000
      3        -41.082137   1.000000
      4        -41.022953   1.000000
      5        -40.878804   1.000000
      6        -40.811440   1.000000
      7          5.670228   1.000000
      8          6.006162   1.000000
      9          6.399448   1.000000
     10          7.320049   1.000000
     11          7.798284   1.000000
     12          8.534747   1.000000
     13          8.946379   1.000000
     14         10.900425   1.000000
     15         10.956905   1.000000
     16         11.504408   0.999734
     17         15.445855   0.000000
     18         15.951641   0.000000
     19         19.321617   0.000000
     20         20.541787   0.000000
     21         21.514258   0.000000
     22         24.525899   0.000000
     23         26.089386   0.000000
     24         26.302694   0.000000
 
  0.3000000E+00  0.3000000E+00  0.1250000E+00  0.1500000E-01
      1        -41.209467   1.000000
      2        -41.178323   1.000000
      3        -41.125721   1.000000
      4        -41.081509   1.000000
      5        -40.864217   1.000000
      6        -40.822358   1.000000
      7          6.055508   1.000000
      8          6.447378   1.000000
      9          6.763114   1.000000
     10          7.063031   1.000000
     11          7.882806   1.000000
     12          7.925627   1.000000
     13          8.879002   1.000000
     14         10.609400   1.000000
     15         10.725213   1.000000
     16         11.356986   1.000000
     17         15.491920   0.000000
     18         16.803517   0.000000
     19         18.342577   0.000000
     20         20.847192   0.000000
     21         23.515237   0.000000
     22         23.591053   0.000000
     23         25.488259   0.000000
     24         26.779739   0.000000
 
  0.0000000E+00  0.0000000E+00  0.2500000E+00  0.2500000E-02
      1        -41.036735   1.000000
      2        -40.877334   1.000000
      3        -40.877333   1.000000
      4        -40.846090   1.000000
      5        -40.846089   1.000000
      6        -40.777696   1.000000
      7          2.169612   1.000000
      8          4.205091   1.000000
      9          7.428967   1.000000
     10          8.011103   1.000000
     11          8.011104   1.000000
     12          8.303533   1.000000
     13          8.303534   1.000000
     14          9.035751   1.000000
     15         10.121903   1.000000
     16         10.121903   1.000000
     17         11.285589   1.000000
     18         11.285589   1.000000
     19         19.297863   0.000000
     20         25.721935   0.000000
     21         27.960161   0.000000
     22         28.218847   0.000000
     23         31.743117   0.000000
     24         31.743117   0.000000
 
  0.1000000E+00  0.0000000E+00  0.2500000E+00  0.1500000E-01
      1        -41.029340   1.000000
      2        -40.912980   1.000000
      3        -40.889810   1.000000
      4        -40.888056   1.000000
      5        -40.854435   1.000000
      6        -40.774275   1.000000
      7          2.529974   1.000000
      8          4.562635   1.000000
      9          7.459308   1.000000
     10          7.824656   1.000000
     11          7.902436   1.000000
     12          8.273534   1.000000
     13          8.565005   1.000000
     14          8.676892   1.000000
     15          9.996901   1.000000
     16          9.999306   1.000000
     17         11.310203   1.000000
     18         11.933282   0.000000
     19         19.446314   0.000000
     20         26.253500   0.000000
     21         28.400365   0.000000
     22         28.618176   0.000000
     23         30.310750   0.000000
     24         31.217188   0.000000
 
  0.2000000E+00  0.0000000E+00  0.2500000E+00  0.1500000E-01
      1        -41.048983   1.000000
      2        -40.999110   1.000000
      3        -40.966639   1.000000
      4        -40.916447   1.000000
      5        -40.877024   1.000000
      6        -40.774179   1.000000
      7          3.474659   1.000000
      8          5.377684   1.000000
      9          7.074623   1.000000
     10          7.380489   1.000000
     11          7.547626   1.000000
     12          8.396082   1.000000
     13          8.904117   1.000000
     14          9.278251   1.000000
     15          9.851170   1.000000
     16          9.875839   1.000000
     17         11.336009   1.000000
     18         12.982422   0.000000
     19         19.884357   0.000000
     20         26.217369   0.000000
     21         27.771585   0.000000
     22         28.554667   0.000000
     23         29.574047   0.000000
     24         30.545191   0.000000
 
  0.3000000E+00 -0.5551115E-16  0.2500000E+00  0.1500000E-01
      1        -41.161653   1.000000
      2        -41.126003   1.000000
      3        -40.950946   1.000000
      4        -40.941343   1.000000
      5        -40.905623   1.000000
      6        -40.780339   1.000000
      7          4.446748   1.000000