    2    2  100    1
  0.1473166E+02  0.2697913E-09  0.2697913E-09  0.4674071E-09  0.5000000E-15
  1.000000000000000E-004
  CAR 
 Pt-hcc                                  
     32     70     24
 
  0.0000000E+00  0.0000000E+00  0.0000000E+00  0.1250000E-02
      1        -40.422795   1.000000
      2        -40.152190   1.000000
      3        -40.152189   1.000000
      4        -40.100969   1.000000
      5        -40.100968   1.000000
      6        -39.990884   1.000000
      7          2.015602   1.000000
      8          4.727941   1.000000
      9          8.109727   1.000000
     10          8.670194   1.000000
     11          8.670194   1.000000
     12          9.085543   1.000000
     13          9.085544   1.000000
     14         10.475593   1.000000
     15         10.475593   1.000000
     16         11.484273   1.000000
     17         12.261124   1.000000
     18         12.261124   1.000000
     19         17.672135   0.000000
     20         27.453240   0.000000
     21         28.170967   0.000000
     22         29.748435   0.000000
     23         34.275405   0.000000
     24         34.275406   0.000000
 
  0.1000000E+00  0.1387779E-16  0.0000000E+00  0.7500000E-02
      1        -40.406846   1.000000
      2        -40.199082   1.000000
      3        -40.165414   1.000000
      4        -40.148171   1.000000
      5        -40.109772   1.000000
      6        -39.993623   1.000000
      7          2.402145   1.000000
      8          5.080680   1.000000
      9          8.033361   1.000000
     10          8.679428   1.000000
     11          8.916676   1.000000
     12          8.975736   1.000000
     13          9.376981   1.000000
     14          9.789562   1.000000
     15         10.282138   1.000000
     16         10.420421   1.000000
     17         12.335424   0.999998
     18         14.065356   0.000000
     19         17.625076   0.000000
     20         28.011699   0.000000
     21         28.735914   0.000000
     22         30.257384   0.000000
     23         32.481207   0.000000
     24         32.617170   0.000000
 
  0.2000000E+00  0.2775558E-16  0.0000000E+00  0.7500000E-02
      1        -40.364269   1.000000
      2        -40.321815   1.000000
      3        -40.271263   1.000000
      4        -40.200892   1.000000
      5        -40.135087   1.000000
      6        -40.005116   1.000000
      7          3.447656   1.000000
      8          5.843988   1.000000
      9          7.778747   1.000000
     10          8.287437   1.000000
     11          8.367303   1.000000
     12          9.372849   1.000000
     13          9.841910   1.000000
     14          9.854416   1.000000
     15          9.861906   1.000000
     16         10.195899   1.000000
     17         12.453425   0.897645
     18         16.381243   0.000000
     19         17.519531   0.000000
     20         27.068526   0.000000
     21         29.357306   0.000000
     22         30.198382   0.000000
     23         30.783924   0.000000
     24         30.939450   0.000000
 
  0.3000000E+00  0.2775558E-16  0.0000000E+00  0.7500000E-02
      1        -40.472231   1.000000
      2        -40.420362   1.000000
      3        -40.304253   1.000000
      4        -40.242861   1.000000
      5        -40.166497   1.000000
      6        -40.026280   1.000000
      7          4.695757   1.000000
      8          5.941936   1.000000
      9          7.123613   1.000000
     10          8.075770   1.000000
     11          8.480666   1.000000
     12          9.296571   1.000000
     13          9.416926   1.000000
     14         10.651955   1.000000
     15         11.094826   1.000000
     16         11.363313   1.000000
     17         12.517913   0.289192
     18         17.582830   0.000000
     19         18.713818   0.000000
     20         23.345008   0.000000
     21         27.682660   0.000000
     22         27.812087   0.000000
     23         30.248701   0.000000
     24         30.952887   0.000000
 
  0.4000000E+00  0.5551115E-16  0.0000000E+00  0.7500000E-02
      1        -40.592876   1.000000
      2        -40.537954   1.000000
      3        -40.276073   1.000000
      4        -40.243576   1.000000
      5        -40.192475   1.000000
      6        -40.055103   1.000000
      7          5.327921   1.000000
      8          5.599090   1.000000
      9          6.399665   1.000000
     10          8.652618   1.000000
     11          8.885662   1.000000
     12          9.106896   1.000000
     13          9.358662   1.000000
     14         12.318546   1.000000
     15         12.522092   0.250172
     16         12.532958   0.163229
     17         12.712199   0.000000
     18         18.307375   0.000000
     19         19.629713   0.000000
     20         20.742073   0.000000
     21         25.625756   0.000000
     22         25.646662   0.000000
     23         26.538162   0.000000
     24         29.706196   0.000000
 
  0.5000000E+00  0.5551115E-16  0.0000000E+00  0.3750000E-02
      1        -40.639741   1.000000
      2        -40.581700   1.000000
      3        -40.288728   1.000000
      4        -40.213792   1.000000
      5        -40.202630   1.000000
      6        -40.073562   1.000000
      7          5.359660   1.000000
      8          5.501376   1.000000
      9          6.154053   1.000000
     10          8.736812   1.000000
     11          8.995995   1.000000
     12          9.233869   1.000000
     13          9.559249   1.000000
     14         12.532480   0.166586
     15         12.839028   0.000000
     16         13.069785   0.000000
     17         14.909714   0.000000
     18         16.494369   0.000000
     19         20.136179   0.000000
     20         21.691116   0.000000
     21         22.661329   0.000000
     22         24.769669   0.000000
     23         25.981253   0.000000
     24         29.087464   0.000000
 
  0.1000000E+00  0.1000000E+00  0.0000000E+00  0.7500000E-02
      1        -40.378002   1.000000
      2        -40.275864   1.000000
      3        -40.242889   1.000000
      4        -40.182349   1.000000
      5        -40.133977   1.000000
      6        -40.001242   1.000000
      7          3.127973   1.000000
      8          5.693626   1.000000
      9          7.730332   1.000000
     10          8.587010   1.000000
     11          8.730176   1.000000
     12          8.923835   1.000000
     13          9.622415   1.000000
     14          9.622751   1.000000
     15         10.029363   1.000000
     16         10.344258   1.000000
     17         12.361892   0.999943
     18         15.774577   0.000000
     19         17.550813   0.000000
     20         28.267129   0.000000
     21         29.209653   0.000000
     22         29.694138   0.000000
     23         30.787369   0.000000
     24         31.769827   0.000000
 
  0.2000000E+00  0.1000000E+00  0.0000000E+00  0.1500000E-01
      1        -40.402070   1.000000
      2        -40.368960   1.000000
      3        -40.326217   1.000000
      4        -40.231046   1.000000
      5        -40.171622   1.000000
      6        -40.017576   1.000000
      7          4.359950   1.000000
      8          6.327555   1.000000
      9          7.537744   1.000000
     10          7.577133   1.000000
     11          8.291079   1.000000
     12          9.068942   1.000000
     13          9.604936   1.000000
     14          9.936155   1.000000
     15         10.797996   1.000000
     16         11.257317   1.000000
     17         12.365893   0.999909
     18         17.552612   0.000000
     19         17.990674   0.000000
     20         25.268320   0.000000
     21         27.140394   0.000000
     22         28.860519   0.000000
     23         30.944711   0.000000
     24         31.965070   0.000000
 
  0.3000000E+00  0.1000000E+00  0.0000000E+00  0.1500000E-01
      1        -40.532652   1.000000
      2        -40.487013   1.000000
      3        -40.281720   1.000000
      4        -40.264656   1.000000
      5        -40.207731   1.000000
      6        -40.044121   1.000000
      7          5.433622   1.000000
      8          6.043982   1.000000
      9          6.720941   1.000000
     10          8.095339   1.000000
     11          8.741203   1.000000
     12          8.785397   1.000000
     13          9.390131   1.000000
     14         10.828774   1.000000
     15         12.012871   1.000000
     16         12.352962   0.999980
     17         12.839969   0.000000
     18         18.109253   0.000000
     19         20.222536   0.000000
     20         21.341797   0.000000
     21         24.920739   0.000000
     22         27.434708   0.000000
     23         28.377896   0.000000
     24         30.137917   0.000000
 
  0.4000000E+00  0.1000000E+00  0.0000000E+00  0.1500000E-01
      1        -40.613975   1.000000
      2        -40.557917   1.000000
      3        -40.312242   1.000000
      4        -40.230419   1.000000
      5        -40.214160   1.000000
      6        -40.073094   1.000000
      7          5.678894   1.000000
      8          5.800181   1.000000
      9          6.273571   1.000000
     10          8.682969   1.000000
     11          8.943280   1.000000
     12          8.957424   1.000000
     13          9.326163   1.000000
     14         12.212966   1.000000
     15         12.334471   0.999998
     16         12.644492   0.000018
     17         14.673948   0.000000
     18         17.794208   0.000000
     19         19.820619   0.000000
     20         21.923508   0.000000
     21         22.718330   0.000000
     22         25.154984   0.000000
     23         26.502011   0.000000
     24         29.011713   0.000000
 
  0.2000000E+00  0.2000000E+00  0.0000000E+00  0.7500000E-02
      1        -40.476725   1.000000
      2        -40.474036   1.000000
      3        -40.287909   1.000000
      4        -40.271837   1.000000
      5        -40.236119   1.000000
      6        -40.040380   1.000000
      7          5.627732   1.000000
      8          6.944558   1.000000
      9          6.976713   1.000000
     10          7.038733   1.000000
     11          8.526213   1.000000
     12          8.534754   1.000000
     13          9.603914   1.000000
     14         10.005188   1.000000
     15         11.993599   1.000000
     16         12.162164   1.000000
     17         12.929178   0.000000
     18         18.109270   0.000000
     19         20.117452   0.000000
     20         22.789674   0.000000
     21         23.677976   0.000000
     22         28.234690   0.000000
     23         29.975739   0.000000
     24         30.279272   0.000000
 
  0.3000000E+00  0.2000000E+00  0.0000000E+00  0.1500000E-01
      1        -40.554911   1.000000
      2        -40.516872   1.000000
      3        -40.354123   1.000000
      4        -40.291317   1.000000
      5        -40.214453   1.000000
      6        -40.072390   1.000000
      7          6.410481   1.000000
      8          6.513157   1.000000
      9          6.593946   1.000000
     10          7.865552   1.000000
     11          8.367586   1.000000
     12          9.061479   1.000000
     13          9.135754   1.000000
     14         10.889238   1.000000
     15         12.006670   1.000000
     16         12.491366   0.577355
     17         14.755217   0.000000
     18         19.119663   0.000000
     19         20.033716   0.000000
     20         21.599286   0.000000
     21         22.294164   0.000000
     22         26.905169   0.000000
     23         27.582861   0.000000
     24         28.820524   0.000000
 
  0.4000000E+00  0.2000000E+00  0.0000000E+00  0.7500000E-02
      1        -40.584107   1.000000
      2        -40.527757   1.000000
      3        -40.385966   1.000000
      4        -40.312189   1.000000
      5        -40.182302   1.000000
      6        -40.095616   1.000000
      7          6.360056   1.000000
      8          6.423950   1.000000
      9          6.524181   1.000000
     10          8.488486   1.000000
     11          8.521158   1.000000
     12          8.643516   1.000000
     13          9.428995   1.000000
     14         11.742085   1.000000
     15         11.949567   1.000000
     16         12.277488   1.000000
     17         16.376377   0.000000
     18         16.992617   0.000000
     19         20.264719   0.000000
     20         22.020523   0.000000
     21         23.524215   0.000000
     22         24.716116   0.000000
     23         27.023583   0.000000
     24         28.128675   0.000000
 
  0.3000000E+00  0.3000000E+00  0.0000000E+00  0.7500000E-02
      1        -40.537344   1.000000
      2        -40.494512   1.000000
      3        -40.434207   1.000000
      4        -40.379893   1.000000
      5        -40.163367   1.000000
      6        -40.109661   1.000000
      7          6.458186   1.000000
      8          6.984574   1.000000
      9          7.254818   1.000000
     10          7.735860   1.000000
     11          8.316448   1.000000
     12          8.616217   1.000000
     13          9.531898   1.000000
     14         11.293667   1.000000
     15         11.761993   1.000000
     16         12.095889   1.000000
     17         16.430025   0.000000
     18         17.684756   0.000000
     19         19.103476   0.000000
     20         22.963872   0.000000
     21         24.527944   0.000000
     22         25.847412   0.000000
     23         26.759650   0.000000
     24         27.029136   0.000000
 
  0.0000000E+00  0.0000000E+00  0.1250000E+00  0.2500000E-02
      1        -40.405780   1.000000
      2        -40.149908   1.000000
      3        -40.149907   1.000000
      4        -40.102774   1.000000
      5        -40.102773   1.000000
      6        -40.006873   1.000000
      7          2.159409   1.000000
      8          4.714048   1.000000
      9          8.071927   1.000000
     10          8.648380   1.000000
     11          8.648381   1.000000
     12          9.041554   1.000000
     13          9.041555   1.000000
     14         10.587048   1.000000
     15         10.587048   1.000000
     16         10.866348   1.000000
     17         12.232741   1.000000
     18         12.232742   1.000000
     19         18.539228   0.000000
     20         26.999452   0.000000
     21         28.743020   0.000000
     22         29.440511   0.000000
     23         33.476181   0.000000
     24         33.476181   0.000000
 
  0.1000000E+00  0.1387779E-16  0.1250000E+00  0.1500000E-01
      1        -40.392610   1.000000
      2        -40.196284   1.000000
      3        -40.163308   1.000000
      4        -40.151367   1.000000
      5        -40.111947   1.000000
      6        -40.008453   1.000000
      7          2.542863   1.000000
      8          5.073208   1.000000
      9          8.036622   1.000000
     10          8.580909   1.000000
     11          8.796723   1.000000
     12          8.943369   1.000000
     13          9.327815   1.000000
     14          9.731665   1.000000
     15         10.413503   1.000000
     16         10.439649   1.000000
     17         12.293457   1.000000
     18         13.544203   0.000000
     19         18.609157   0.000000
     20         27.592912   0.000000
     21         29.244154   0.000000
     22         29.952227   0.000000
     23         31.733826   0.000000
     24         32.564327   0.000000
 
  0.2000000E+00  0.2775558E-16  0.1250000E+00  0.1500000E-01
      1        -40.364431   1.000000
      2        -40.307006   1.000000
      3        -40.274825   1.000000
      4        -40.198110   1.000000
      5        -40.137464   1.000000
      6        -40.016508   1.000000
      7          3.570280   1.000000
      8          5.860563   1.000000
      9          7.813134   1.000000
     10          8.020273   1.000000
     11          8.361769   1.000000
     12          9.238759   1.000000
     13          9.656030   1.000000
     14         10.046851   1.000000
     15         10.108419   1.000000
     16         10.244437   1.000000
     17         12.385922   0.999257
     18         15.212184   0.000000
     19         18.962380   0.000000
     20         27.154345   0.000000
     21         29.184740   0.000000
     22         30.259919   0.000000
     23         30.354452   0.000000
     24         31.437584   0.000000
 
  0.3000000E+00  0.2775558E-16  0.1250000E+00  0.1500000E-01
      1        -40.476118   1.000000
      2        -40.425792   1.000000
      3        -40.287617   1.000000
      4        -40.240027   1.000000
      5        -40.169423   1.000000
      6        -40.033809   1.000000
      7          4.745125   1.000000
      8          5.976154   1.000000
      9          7.111205   1.000000
     10          7.885263   1.000000
     11          8.507999   1.000000
     12          9.423147   1.000000
     13          9.485868   1.000000
     14         10.710984   1.000000
     15         11.118735   1.000000
     16         11.307879   1.000000
     17         12.438333   0.954975
     18         16.399208   0.000000
     19         19.896413   0.000000
     20         23.640045   0.000000
     21         27.740341   0.000000
     22         27.942904   0.000000
     23         29.648394   0.000000
     24         31.485522   0.000000
 
  0.4000000E+00  0.5551115E-16  0.1250000E+00  0.1500000E-01
      1        -40.595070   1.000000
      2        -40.543481   1.000000
      3        -40.273098   1.000000
      4        -40.232807   1.000000
      5        -40.195549   1.000000
      6        -40.059059   1.000000
      7          5.250388   1.000000
      8          5.599925   1.000000
      9          6.585025   1.000000
     10          7.939886   1.000000
     11          9.144119   1.000000
     12          9.201381   1.000000
     13          9.951788   1.000000
     14         12.230590   1.000000
     15         12.335431   0.999998
     16         12.616083   0.000431
     17         12.639842   0.000031
     18         17.398681   0.000000
     19         19.666713   0.000000
     20         21.601403   0.000000
     21         25.335748   0.000000
     22         25.930511   0.000000
     23         26.914241   0.000000
     24         29.907185   0.000000
 
  0.5000000E+00  0.5551115E-16  0.1250000E+00  0.7500000E-02
      1        -40.640884   1.000000
      2        -40.586958   1.000000
      3        -40.285346   1.000000
      4        -40.205972   1.000000
      5        -40.204653   1.000000
      6        -40.075144   1.000000
      7          5.311598   1.000000
      8          5.394077   1.000000
      9          6.417202   1.000000
     10          8.005107   1.000000
     11          9.096390   1.000000
     12          9.310520   1.000000
     13         10.434489   1.000000
     14         12.327562   0.999999
     15         12.861968   0.000000
     16         13.062536   0.000000
     17         14.633677   0.000000
     18         16.360558   0.000000
     19         20.020388   0.000000
     20         20.848481   0.000000
     21         23.761529   0.000000
     22         25.091057   0.000000
     23         26.124655   0.000000
     24         29.362733   0.000000
 
  0.1000000E+00  0.1000000E+00  0.1250000E+00  0.1500000E-01
      1        -40.369056   1.000000
      2        -40.268901   1.000000
      3        -40.245031   1.000000
      4        -40.181692   1.000000
      5        -40.135810   1.000000
      6        -40.013255   1.000000
      7          3.259147   1.000000
      8          5.702268   1.000000
      9          7.765593   1.000000
     10          8.260265   1.000000
     11          8.667499   1.000000
     12          8.910841   1.000000
     13          9.544485   1.000000
     14          9.787204   1.000000
     15         10.119495   1.000000
     16         10.429252   1.000000
     17         12.305161   1.000000
     18         14.825675   0.000000
     19         18.827413   0.000000
     20         28.162690   0.000000
     21         29.254669   0.000000
     22         29.716653   0.000000
     23         30.336767   0.000000
     24         32.018580   0.000000
 
  0.2000000E+00  0.1000000E+00  0.1250000E+00  0.3000000E-01
      1        -40.409732   1.000000
      2        -40.373444   1.000000
      3        -40.304525   1.000000
      4        -40.229551   1.000000
      5        -40.174178   1.000000
      6        -40.026295   1.000000
      7          4.453222   1.000000
      8          6.369033   1.000000
      9          7.388455   1.000000
     10          7.611642   1.000000
     11          8.248412   1.000000
     12          8.969185   1.000000
     13          9.760840   1.000000
     14          9.926708   1.000000
     15         10.921924   1.000000
     16         11.197696   1.000000
     17         12.308425   1.000000
     18         16.117158   0.000000
     19         19.574504   0.000000
     20         25.457765   0.000000
     21         27.274159   0.000000
     22         28.862957   0.000000
     23         30.458469   0.000000
     24         32.483321   0.000000
 
  0.3000000E+00  0.1000000E+00  0.1250000E+00  0.3000000E-01
      1        -40.535208   1.000000
      2        -40.491862   1.000000
      3        -40.280904   1.000000
      4        -40.250215   1.000000
      5        -40.210438   1.000000
      6        -40.048706   1.000000
      7          5.401789   1.000000
      8          6.083379   1.000000
      9          6.806139   1.000000
     10          7.777400   1.000000
     11          8.731633   1.000000
     12          9.144074   1.000000
     13          9.407894   1.000000
     14         10.845903   1.000000
     15         12.066279   1.000000
     16         12.133622   1.000000
     17         12.912222   0.000000
     18         17.250311   0.000000
     19         20.498049   0.000000
     20         22.132674   0.000000
     21         25.070246   0.000000
     22         27.232148   0.000000
     23         28.377456   0.000000
     24         30.385154   0.000000
 
  0.4000000E+00  0.1000000E+00  0.1250000E+00  0.3000000E-01
      1        -40.615296   1.000000
      2        -40.563238   1.000000
      3        -40.310399   1.000000
      4        -40.234323   1.000000
      5        -40.203541   1.000000
      6        -40.074295   1.000000
      7          5.559836   1.000000
      8          5.747911   1.000000
      9          6.578337   1.000000
     10          7.942386   1.000000
     11          8.806835   1.000000
     12          9.446701   1.000000
     13          9.871351   1.000000
     14         12.090231   1.000000
     15         12.219266   1.000000
     16         12.693581   0.000000
     17         14.616692   0.000000
     18         17.549694   0.000000
     19         19.513221   0.000000
     20         21.861964   0.000000
     21         23.190235   0.000000
     22         25.423229   0.000000
     23         26.715026   0.000000
     24         29.139694   0.000000
 
  0.2000000E+00  0.2000000E+00  0.1250000E+00  0.1500000E-01
      1        -40.479527   1.000000
      2        -40.478535   1.000000
      3        -40.288254   1.000000
      4        -40.261405   1.000000
      5        -40.234882   1.000000
      6        -40.045294   1.000000
      7          5.656132   1.000000
      8          6.773062   1.000000
      9          7.057743   1.000000
     10          7.158501   1.000000
     11          8.515909   1.000000
     12          8.542676   1.000000
     13          9.471832   1.000000
     14         10.170511   1.000000
     15         11.916303   1.000000
     16         12.119795   1.000000
     17         13.013387   0.000000
     18         17.273950   0.000000
     19         20.737076   0.000000
     20         23.281946   0.000000
     21         23.858187   0.000000
     22         28.156545   0.000000
     23         29.120669   0.000000
     24         30.977519   0.000000
 
  0.3000000E+00  0.2000000E+00  0.1250000E+00  0.3000000E-01
      1        -40.556340   1.000000
      2        -40.521746   1.000000
      3        -40.354576   1.000000
      4        -40.295914   1.000000
      5        -40.202713   1.000000
      6        -40.073189   1.000000
      7          6.199807   1.000000
      8          6.603550   1.000000
      9          6.794767   1.000000
     10          7.629066   1.000000
     11          8.534116   1.000000
     12          8.951822   1.000000
     13          9.284113   1.000000
     14         10.956249   1.000000
     15         11.774081   1.000000
     16         12.610025   0.000786
     17         14.803138   0.000000
     18         19.171394   0.000000
     19         19.312110   0.000000
     20         21.701273   0.000000
     21         23.128238   0.000000
     22         26.398661   0.000000
     23         27.611990   0.000000
     24         29.007075   0.000000
 
  0.4000000E+00  0.2000000E+00  0.1250000E+00  0.1500000E-01
      1        -40.584358   1.000000
      2        -40.532907   1.000000
      3        -40.385972   1.000000
      4        -40.316543   1.000000
      5        -40.173129   1.000000
      6        -40.093548   1.000000
      7          6.115296   1.000000
      8          6.474953   1.000000
      9          6.894884   1.000000
     10          7.869757   1.000000
     11          8.371320   1.000000
     12          9.162408   1.000000
     13          9.610339   1.000000
     14         11.708389   1.000000
     15         11.771027   1.000000
     16         12.364252   0.999925
     17         16.453810   0.000000
     18         17.024223   0.000000
     19         20.406621   0.000000
     20         21.708860   0.000000
     21         22.686120   0.000000
     22         25.792531   0.000000
     23         27.250160   0.000000
     24         27.543184   0.000000
 
  0.3000000E+00  0.3000000E+00  0.1250000E+00  0.1500000E-01
      1        -40.535904   1.000000
      2        -40.499596   1.000000
      3        -40.437145   1.000000
      4        -40.384554   1.000000
      5        -40.155830   1.000000
      6        -40.106494   1.000000
      7          6.501101   1.000000
      8          6.958258   1.000000
      9          7.284329   1.000000
     10          7.599751   1.000000
     11          8.466715   1.000000
     12          8.509645   1.000000
     13          9.540798   1.000000
     14         11.396360   1.000000
     15         11.519030   1.000000
     16         12.203541   1.000000
     17         16.532945   0.000000
     18         17.834512   0.000000
     19         19.387037   0.000000
     20         22.062770   0.000000
     21         24.791862   0.000000
     22         24.829140   0.000000
     23         26.787894   0.000000
     24         28.064293   0.000000
 
  0.0000000E+00  0.0000000E+00  0.2500000E+00  0.2500000E-02
      1        -40.360662   1.000000
      2        -40.144228   1.000000
      3        -40.144227   1.000000
      4        -40.107720   1.000000
      5        -40.107719   1.000000
      6        -40.054736   1.000000
      7          2.571517   1.000000
      8          4.632545   1.000000
      9          7.984614   1.000000
     10          8.613864   1.000000
     11          8.613864   1.000000
     12          8.929360   1.000000
     13          8.929361   1.000000
     14          9.675335   1.000000
     15         10.875198   1.000000
     16         10.875198   1.000000
     17         12.129908   1.000000
     18         12.129908   1.000000
     19         20.490935   0.000000
     20         26.523358   0.000000
     21         28.782153   0.000000
     22         29.220573   0.000000
     23         32.852570   0.000000
     24         32.852570   0.000000
 
  0.1000000E+00  0.1387779E-16  0.2500000E+00  0.1500000E-01
      1        -40.351615   1.000000
      2        -40.187883   1.000000
      3        -40.161160   1.000000
      4        -40.157232   1.000000
      5        -40.117966   1.000000
      6        -40.049652   1.000000
      7          2.947371   1.000000
      8          5.007540   1.000000
      9          8.017307   1.000000
     10          8.409611   1.000000
     11          8.490411   1.000000
     12          8.893132   1.000000
     13          9.208020   1.000000
     14          9.312761   1.000000
     15         10.738709   1.000000
     16         10.739508   1.000000
     17         12.156941   1.000000
     18         12.807900   0.000000
     19         20.630113   0.000000
     20         27.108918   0.000000
     21         29.288644   0.000000
     22         29.668384   0.000000
     23         31.447556   0.000000
     24         32.405801   0.000000
 
  0.2000000E+00  0.2775558E-16  0.2500000E+00  0.1500000E-01
      1        -40.359360   1.000000
      2        -40.291128   1.000000
      3        -40.264956   1.000000
      4        -40.190875   1.000000
      5        -40.144486   1.000000
      6        -40.049092   1.000000
      7          3.924682   1.000000
      8          5.853804   1.000000
      9          7.603897   1.000000
     10          7.936477   1.000000
     11          8.107744   1.000000
     12          9.021219   1.000000
     13          9.564667   1.000000
     14          9.969388   1.000000
     15         10.581872   1.000000
     16         10.603513   1.000000
     17         12.185855   1.000000
     18         13.915000   0.000000
     19         21.037499   0.000000
     20         27.398591   0.000000
     21         28.786170   0.000000
     22         29.636156   0.000000
     23         30.830980   0.000000
     24         31.695403   0.000000
 
  0.3000000E+00  0.2775558E-16  0.2500000E+00  0.1500000E-01
      1        -40.481351   1.000000
      2        -40.439293   1.000000
      3        -40.245714   1.000000
      4        -40.231662   1.000000
      5        -40.177718   1.000000
      6        -40.056432   1.000000
      7          4.899295   1.000000