 vasp.6.3.2 27Jun22 (build Aug 12 2022 00:53:59) complex                        
  
 executed on               tv2STD date 2024.12.03  02:19:22
 running   24 mpi-ranks, with    1 threads/rank
 distrk:  each k-point on   24 cores,    1 groups
 distr:  one band on NCORE=   1 cores,   24 groups


--------------------------------------------------------------------------------------------------------


 INCAR:
   SYSTEM = Pt-hcc
   NWRITE = 2    write-flag
   ISTART = 0    job   : 0-new, 1-cont, 2-samecut
   ICHARG = 2    charge: 0-wave, 1-file, 2-atom, >10-const
   INIWAV = 1    electr: 0-lowe 1-rand  2-diag
   ENCUT = 450.0     energy cutoff in eV
   PREC = Accurate      normal | accurate
   ADDGRID = .FALSE.  (use fine grid)
   NELM = 100     number of ELM steps
   EDIFF = 1E-06    energy stopping-criterion for ELM
   LREAL = .FALSE.      real-space projection (.FALSE., .TRUE., On, Auto)
   ALGO = Normal     Normal, Fast, Very_Fast
   LWAVE = .TRUE.
   LCHARG = .TRUE.
   NSW = 100       max number of geometry steps
   IBRION = 2     ionic relax: 0-MD, 1-quasi-Newton, 2-CG, 3-Damped MD
   EDIFFG = -0.02  force (eV/A) stopping-criterion for geometry steps
   ISIF = 2     (1:force\=y stress\=trace only ions\=y shape\=n volume\=n)
   ISYM = 1     (1-use symmetry, 0-no symmetry)
   ISMEAR = 0     (-1-Fermi, 1-Methfessel/Paxton)
   SIGMA = 0.05   broadening in eV
   LORBIT = 11

 POTCAR:    PAW_PBE Pt_pv 12Dec2005               
 POTCAR:    PAW_PBE Pt_pv 12Dec2005               
   SHA256 =  e5abf7e8cd8db70d0153315afc5ad66b6e3eeee29cc2d5b91b16730957c1d208 Pt_pv/POTCAR          
   COPYR  = (c) Copyright 12Dec2005 Georg Kresse                                                    
   COPYR  = This file is part of the software VASP. Any use, copying, and all other rights are regul
   COPYR  = If you do not have a valid VASP license, you may not use, copy or distribute this file. 
   VRHFIN =Pt: 5ps1d9                                                                               
   LEXCH  = PE                                                                                      
   EATOM  =  2428.2504 eV,  178.4714 Ry                                                             
                                                                                                    
   TITEL  = PAW_PBE Pt_pv 12Dec2005                                                                 
   LULTRA =        F    use ultrasoft PP ?                                                          
   IUNSCR =        1    unscreen: 0-lin 1-nonlin 2-no                                               
   RPACOR =    2.000    partial core radius                                                         
   POMASS =  195.080; ZVAL   =   16.000    mass and valenz                                          
   RCORE  =    2.200    outmost cutoff radius                                                       
   RWIGS  =    2.200; RWIGS  =    1.164    wigner-seitz radius (au A)                               
   ENMAX  =  294.607; ENMIN  =  220.955 eV                                                          
   ICORE  =        3    local potential                                                             
   LCOR   =        T    correct aug charges                                                         
   LPAW   =        T    paw PP                                                                      
   EAUG   =  527.014                                                                                
   DEXC   =    0.000                                                                                
   RMAX   =    2.247    core radius for proj-oper                                                   
   RAUG   =    1.300    factor for augmentation sphere                                              
   RDEP   =    2.279    radius for radial grids                                                     
   RDEPT  =    1.878    core radius for aug-charge                                                  
                                                                                                    
   Atomic configuration                                                                             
   16 entries                                                                                       
     n  l   j            E        occ.                                                              
     1  0  0.50    -78401.1885   2.0000                                                             
     2  0  0.50    -13770.7750   2.0000                                                             
     2  1  1.50    -11931.0468   6.0000                                                             
     3  0  0.50     -3234.7234   2.0000                                                             
     3  1  1.50     -2699.2216   6.0000                                                             
     3  2  2.50     -2119.5714  10.0000                                                             
     4  0  0.50      -695.1528   2.0000                                                             
     4  1  1.50      -519.6034   6.0000                                                             
     4  2  2.50      -306.6786  10.0000                                                             
     4  3  3.50       -70.1041  14.0000                                                             
     5  0  0.50      -101.7747   2.0000                                                             
     5  1  1.50       -55.9873   6.0000                                                             
     6  1  1.50        -6.8029   0.0000                                                             
     5  2  2.50        -6.1423   9.0000                                                             
     6  0  0.50        -5.6573   1.0000                                                             
     5  3  2.50        -1.3606   0.0000                                                             
   Description                                                                                      
     l       E           TYP  RCUT    TYP  RCUT                                                     
     1    -55.9873477     23  2.000                                                                 
     1     27.2116520     23  2.000                                                                 
     2     -6.1423404     23  2.200                                                                 
     2     -4.6754623     23  2.200                                                                 
     0     -5.6573207     23  2.200                                                                 
     0     47.6203910     23  2.200                                                                 
     3      6.8029130     23  2.200                                                                 
  local pseudopotential read in
  partial core-charges read in
  partial kinetic energy density read in
  atomic valenz-charges read in
  non local Contribution for L=           1  read in
    real space projection operators read in
  non local Contribution for L=           1  read in
    real space projection operators read in
  non local Contribution for L=           2  read in
    real space projection operators read in
  non local Contribution for L=           2  read in
    real space projection operators read in
  non local Contribution for L=           0  read in
    real space projection operators read in
  non local Contribution for L=           0  read in
    real space projection operators read in
    PAW grid and wavefunctions read in
 
   number of l-projection  operators is LMAX  =           6
   number of lm-projection operators is LMMAX =          18
 
  PAW_PBE Pt_pv 12Dec2005               :
 energy of atom  1       EATOM=-2428.2504
 kinetic energy error for atom=    0.0356 (will be added to EATOM!!)
 
 
 POSCAR: Pt
  positions in cartesian coordinates
  No initial velocities read in
 exchange correlation table for  LEXCH =        8
   RHO(1)=    0.500       N(1)  =     2000
   RHO(2)=  100.500       N(2)  =     4000
 


--------------------------------------------------------------------------------------------------------


 ion  position               nearest neighbor table
   1  0.000  0.000  0.000-
   2  0.333  0.667  0.500-
 
  LATTYP: Found a hexagonal cell.
 ALAT       =     2.6979126795
 C/A-ratio  =     1.7324766951
  
  Lattice vectors:
  
 A1 = (   2.6979126795,   0.0000000000,   0.0000000000)
 A2 = (  -1.3489563397,   2.3364609176,   0.0000000000)
 A3 = (   0.0000000000,   0.0000000000,   4.6740708427)


Analysis of symmetry for initial positions (statically):
=====================================================================
 Subroutine PRICEL returns:
 Original cell was already a primitive cell.
 

 Routine SETGRP: Setting up the symmetry group for a 
 hexagonal supercell.


 Subroutine GETGRP returns: Found 24 space group operations
 (whereof 12 operations were pure point group operations)
 out of a pool of 24 trial point group operations.


The static configuration has the point symmetry D_3h.
 The point group associated with its full space group is D_6h.


Analysis of symmetry for dynamics (positions and initial velocities):
=====================================================================
 Subroutine PRICEL returns:
 Original cell was already a primitive cell.
 

 Routine SETGRP: Setting up the symmetry group for a 
 hexagonal supercell.


 Subroutine GETGRP returns: Found 24 space group operations
 (whereof 12 operations were pure point group operations)
 out of a pool of 24 trial point group operations.


The dynamic configuration has the point symmetry D_3h.
 The point group associated with its full space group is D_6h.


 Subroutine INISYM returns: Found 24 space group operations
 (whereof 12 operations are pure point group operations),
 and found     1 'primitive' translations


----------------------------------------------------------------------------------------

                                     Primitive cell                                     

  volume of cell :      29.4633

  direct lattice vectors                    reciprocal lattice vectors
     2.697912679  0.000000000  0.000000000     0.370656918  0.213998872  0.000000000
    -1.348956340  2.336460918  0.000000000     0.000000000  0.427997743  0.000000000
     0.000000000  0.000000000  4.674070843     0.000000000  0.000000000  0.213946265

  length of vectors
     2.697912679  2.697912679  4.674070843     0.427997743  0.427997743  0.213946265

  position of ions in fractional coordinates (direct lattice)
     0.000000000  0.000000000  0.000000000
     0.333333333  0.666666667  0.500000000

  ion indices of the primitive-cell ions
   primitive index   ion index
                 1           1
                 2           2

----------------------------------------------------------------------------------------

 
 
 KPOINTS: Automatic mesh                          

Automatic generation of k-mesh.
 Grid dimensions read from file:
 generate k-points for:   10   10    8

 Generating k-lattice:

  Cartesian coordinates                     Fractional coordinates (reciprocal lattice)
     0.037065692  0.021399887  0.000000000     0.100000000  0.000000000  0.000000000
     0.000000000  0.042799774  0.000000000     0.000000000  0.100000000  0.000000000
     0.000000000  0.000000000  0.026743283     0.000000000  0.000000000  0.125000000

  Length of vectors
     0.042799774  0.042799774  0.026743283

  Shift w.r.t. Gamma in fractional coordinates (k-lattice)
     0.000000000  0.000000000  0.000000000

 
 Subroutine IBZKPT returns following result:
 ===========================================
 
 Found     70 irreducible k-points:
 
 Following reciprocal coordinates:
            Coordinates               Weight
  0.000000  0.000000  0.000000      1.000000
  0.100000  0.000000  0.000000      6.000000
  0.200000  0.000000  0.000000      6.000000
  0.300000  0.000000  0.000000      6.000000
  0.400000  0.000000  0.000000      6.000000
  0.500000  0.000000  0.000000      3.000000
  0.100000  0.100000  0.000000      6.000000
  0.200000  0.100000  0.000000     12.000000
  0.300000  0.100000  0.000000     12.000000
  0.400000  0.100000  0.000000     12.000000
  0.200000  0.200000  0.000000      6.000000
  0.300000  0.200000  0.000000     12.000000
  0.400000  0.200000  0.000000      6.000000
  0.300000  0.300000  0.000000      6.000000
  0.000000  0.000000  0.125000      2.000000
  0.100000  0.000000  0.125000     12.000000
  0.200000  0.000000  0.125000     12.000000
  0.300000  0.000000  0.125000     12.000000
  0.400000  0.000000  0.125000     12.000000
  0.500000  0.000000  0.125000      6.000000
  0.100000  0.100000  0.125000     12.000000
  0.200000  0.100000  0.125000     24.000000
  0.300000  0.100000  0.125000     24.000000
  0.400000  0.100000  0.125000     24.000000
  0.200000  0.200000  0.125000     12.000000
  0.300000  0.200000  0.125000     24.000000
  0.400000  0.200000  0.125000     12.000000
  0.300000  0.300000  0.125000     12.000000
  0.000000  0.000000  0.250000      2.000000
  0.100000  0.000000  0.250000     12.000000
  0.200000  0.000000  0.250000     12.000000
  0.300000  0.000000  0.250000     12.000000
  0.400000  0.000000  0.250000     12.000000
  0.500000  0.000000  0.250000      6.000000
  0.100000  0.100000  0.250000     12.000000
  0.200000  0.100000  0.250000     24.000000
  0.300000  0.100000  0.250000     24.000000
  0.400000  0.100000  0.250000     24.000000
  0.200000  0.200000  0.250000     12.000000
  0.300000  0.200000  0.250000     24.000000
  0.400000  0.200000  0.250000     12.000000
  0.300000  0.300000  0.250000     12.000000
  0.000000  0.000000  0.375000      2.000000
  0.100000  0.000000  0.375000     12.000000
  0.200000  0.000000  0.375000     12.000000
  0.300000  0.000000  0.375000     12.000000
  0.400000  0.000000  0.375000     12.000000
  0.500000  0.000000  0.375000      6.000000
  0.100000  0.100000  0.375000     12.000000
  0.200000  0.100000  0.375000     24.000000
  0.300000  0.100000  0.375000     24.000000
  0.400000  0.100000  0.375000     24.000000
  0.200000  0.200000  0.375000     12.000000
  0.300000  0.200000  0.375000     24.000000
  0.400000  0.200000  0.375000     12.000000
  0.300000  0.300000  0.375000     12.000000
  0.000000  0.000000  0.500000      1.000000
  0.100000  0.000000  0.500000      6.000000
  0.200000  0.000000  0.500000      6.000000
  0.300000  0.000000  0.500000      6.000000
  0.400000  0.000000  0.500000      6.000000
  0.500000  0.000000  0.500000      3.000000
  0.100000  0.100000  0.500000      6.000000
  0.200000  0.100000  0.500000     12.000000
  0.300000  0.100000  0.500000     12.000000
  0.400000  0.100000  0.500000     12.000000
  0.200000  0.200000  0.500000      6.000000
  0.300000  0.200000  0.500000     12.000000
  0.400000  0.200000  0.500000      6.000000
  0.300000  0.300000  0.500000      6.000000
 
 Following cartesian coordinates:
            Coordinates               Weight
  0.000000  0.000000  0.000000      1.000000
  0.037066  0.021400  0.000000      6.000000
  0.074131  0.042800  0.000000      6.000000
  0.111197  0.064200  0.000000      6.000000
  0.148263  0.085600  0.000000      6.000000
  0.185328  0.106999  0.000000      3.000000
  0.037066  0.064200  0.000000      6.000000
  0.074131  0.085600  0.000000     12.000000
  0.111197  0.106999  0.000000     12.000000
  0.148263  0.128399  0.000000     12.000000
  0.074131  0.128399  0.000000      6.000000
  0.111197  0.149799  0.000000     12.000000
  0.148263  0.171199  0.000000      6.000000
  0.111197  0.192599  0.000000      6.000000
  0.000000  0.000000  0.026743      2.000000
  0.037066  0.021400  0.026743     12.000000
  0.074131  0.042800  0.026743     12.000000
  0.111197  0.064200  0.026743     12.000000
  0.148263  0.085600  0.026743     12.000000
  0.185328  0.106999  0.026743      6.000000
  0.037066  0.064200  0.026743     12.000000
  0.074131  0.085600  0.026743     24.000000
  0.111197  0.106999  0.026743     24.000000
  0.148263  0.128399  0.026743     24.000000
  0.074131  0.128399  0.026743     12.000000
  0.111197  0.149799  0.026743     24.000000
  0.148263  0.171199  0.026743     12.000000
  0.111197  0.192599  0.026743     12.000000
  0.000000  0.000000  0.053487      2.000000
  0.037066  0.021400  0.053487     12.000000
  0.074131  0.042800  0.053487     12.000000
  0.111197  0.064200  0.053487     12.000000
  0.148263  0.085600  0.053487     12.000000
  0.185328  0.106999  0.053487      6.000000
  0.037066  0.064200  0.053487     12.000000
  0.074131  0.085600  0.053487     24.000000
  0.111197  0.106999  0.053487     24.000000
  0.148263  0.128399  0.053487     24.000000
  0.074131  0.128399  0.053487     12.000000
  0.111197  0.149799  0.053487     24.000000
  0.148263  0.171199  0.053487     12.000000
  0.111197  0.192599  0.053487     12.000000
  0.000000  0.000000  0.080230      2.000000
  0.037066  0.021400  0.080230     12.000000
  0.074131  0.042800  0.080230     12.000000
  0.111197  0.064200  0.080230     12.000000
  0.148263  0.085600  0.080230     12.000000
  0.185328  0.106999  0.080230      6.000000
  0.037066  0.064200  0.080230     12.000000
  0.074131  0.085600  0.080230     24.000000
  0.111197  0.106999  0.080230     24.000000
  0.148263  0.128399  0.080230     24.000000
  0.074131  0.128399  0.080230     12.000000
  0.111197  0.149799  0.080230     24.000000
  0.148263  0.171199  0.080230     12.000000
  0.111197  0.192599  0.080230     12.000000
  0.000000  0.000000  0.106973      1.000000
  0.037066  0.021400  0.106973      6.000000
  0.074131  0.042800  0.106973      6.000000
  0.111197  0.064200  0.106973      6.000000
  0.148263  0.085600  0.106973      6.000000
  0.185328  0.106999  0.106973      3.000000
  0.037066  0.064200  0.106973      6.000000
  0.074131  0.085600  0.106973     12.000000
  0.111197  0.106999  0.106973     12.000000
  0.148263  0.128399  0.106973     12.000000
  0.074131  0.128399  0.106973      6.000000
  0.111197  0.149799  0.106973     12.000000
  0.148263  0.171199  0.106973      6.000000
  0.111197  0.192599  0.106973      6.000000
 


--------------------------------------------------------------------------------------------------------




 Dimension of arrays:
   k-points           NKPTS =     70   k-points in BZ     NKDIM =     70   number of bands    NBANDS=     24
   number of dos      NEDOS =    301   number of ions     NIONS =      2
   non local maximal  LDIM  =      6   non local SUM 2l+1 LMDIM =     18
   total plane-waves  NPLWV =  12800
   max r-space proj   IRMAX =      1   max aug-charges    IRDMAX=  14989
   dimension x,y,z NGX =    20 NGY =   20 NGZ =   32
   dimension x,y,z NGXF=    40 NGYF=   40 NGZF=   64
   support grid    NGXF=    40 NGYF=   40 NGZF=   64
   ions per type =               2
   NGX,Y,Z   is equivalent  to a cutoff of  12.32, 12.32, 11.38 a.u.
   NGXF,Y,Z  is equivalent  to a cutoff of  24.65, 24.65, 22.76 a.u.

 SYSTEM =  Pt-hcc                                  
 POSCAR =  Pt                                      

 Startparameter for this run:
   NWRITE =      2    write-flag & timer
   PREC   = accura    normal or accurate (medium, high low for compatibility)
   ISTART =      0    job   : 0-new  1-cont  2-samecut
   ICHARG =      2    charge: 1-file 2-atom 10-const
   ISPIN  =      1    spin polarized calculation?
   LNONCOLLINEAR =      F non collinear calculations
   LSORBIT =      F    spin-orbit coupling
   INIWAV =      1    electr: 0-lowe 1-rand  2-diag
   LASPH  =      F    aspherical Exc in radial PAW
 Electronic Relaxation 1
   ENCUT  =  450.0 eV  33.07 Ry    5.75 a.u.   4.67  4.67  8.08*2*pi/ulx,y,z
   ENINI  =  450.0     initial cutoff
   ENAUG  =  527.0 eV  augmentation charge cutoff
   NELM   =    100;   NELMIN=  2; NELMDL= -5     # of ELM steps 
   EDIFF  = 0.1E-05   stopping-criterion for ELM
   LREAL  =      F    real-space projection
   NLSPLINE    = F    spline interpolate recip. space projectors
   LCOMPAT=      F    compatible to vasp.4.4
   GGA_COMPAT  = T    GGA compatible to vasp.4.4-vasp.4.6
   LMAXPAW     = -100 max onsite density
   LMAXMIX     =    2 max onsite mixed and CHGCAR
   VOSKOWN=      0    Vosko Wilk Nusair interpolation
   ROPT   =    0.00000
 Ionic relaxation
   EDIFFG = -.2E-01   stopping-criterion for IOM
   NSW    =    100    number of steps for IOM
   NBLOCK =      1;   KBLOCK =    100    inner block; outer block 
   IBRION =      2    ionic relax: 0-MD 1-quasi-New 2-CG
   NFREE  =      1    steps in history (QN), initial steepest desc. (CG)
   ISIF   =      2    stress and relaxation
   IWAVPR =     11    prediction:  0-non 1-charg 2-wave 3-comb
   ISYM   =      1    0-nonsym 1-usesym 2-fastsym
   LCORR  =      T    Harris-Foulkes like correction to forces

   POTIM  = 0.5000    time-step for ionic-motion
   TEIN   =    0.0    initial temperature
   TEBEG  =    0.0;   TEEND  =   0.0 temperature during run
   SMASS  =  -3.00    Nose mass-parameter (am)
   estimated Nose-frequenzy (Omega)   =  0.10E-29 period in steps = 0.13E+47 mass=  -0.166E-27a.u.
   SCALEE = 1.0000    scale energy and forces
   NPACO  =    256;   APACO  = 10.0  distance and # of slots for P.C.
   PSTRESS=    0.0 pullay stress

  Mass of Ions in am
   POMASS = 195.08
  Ionic Valenz
   ZVAL   =  16.00
  Atomic Wigner-Seitz radii
   RWIGS  =  -1.00
  virtual crystal weights 
   VCA    =   1.00
   NELECT =      32.0000    total number of electrons
   NUPDOWN=      -1.0000    fix difference up-down

 DOS related values:
   EMIN   =  10.00;   EMAX   =-10.00  energy-range for DOS
   EFERMI =   0.00
   ISMEAR =     0;   SIGMA  =   0.05  broadening in eV -4-tet -1-fermi 0-gaus

 Electronic relaxation 2 (details)
   IALGO  =     38    algorithm
   LDIAG  =      T    sub-space diagonalisation (order eigenvalues)
   LSUBROT=      F    optimize rotation matrix (better conditioning)
   TURBO    =      0    0=normal 1=particle mesh
   IRESTART =      0    0=no restart 2=restart with 2 vectors
   NREBOOT  =      0    no. of reboots
   NMIN     =      0    reboot dimension
   EREF     =   0.00    reference energy to select bands
   IMIX   =      4    mixing-type and parameters
     AMIX     =   0.40;   BMIX     =  1.00
     AMIX_MAG =   1.60;   BMIX_MAG =  1.00
     AMIN     =   0.10
     WC   =   100.;   INIMIX=   1;  MIXPRE=   1;  MAXMIX= -45

 Intra band minimization:
   WEIMIN = 0.0010     energy-eigenvalue tresh-hold
   EBREAK =  0.10E-07  absolut break condition
   DEPER  =   0.30     relativ break condition  

   TIME   =   0.40     timestep for ELM

  volume/ion in A,a.u.               =      14.73        99.41
  Fermi-wavevector in a.u.,A,eV,Ry     =   1.682794  3.180019 38.528913  2.831795
  Thomas-Fermi vector in A             =   2.766109
 
 Write flags
   LWAVE        =      T    write WAVECAR
   LDOWNSAMPLE  =      F    k-point downsampling of WAVECAR
   LCHARG       =      T    write CHGCAR
   LVTOT        =      F    write LOCPOT, total local potential
   LVHAR        =      F    write LOCPOT, Hartree potential only
   LELF         =      F    write electronic localiz. function (ELF)
   LORBIT       =     11    0 simple, 1 ext, 2 COOP (PROOUT), +10 PAW based schemes


 Dipole corrections
   LMONO  =      F    monopole corrections only (constant potential shift)
   LDIPOL =      F    correct potential (dipole corrections)
   IDIPOL =      0    1-x, 2-y, 3-z, 4-all directions 
   EPSILON=  1.0000000 bulk dielectric constant

 Exchange correlation treatment:
   GGA     =    --    GGA type
   LEXCH   =     8    internal setting for exchange type
   LIBXC   =     F    Libxc                    
   VOSKOWN =     0    Vosko Wilk Nusair interpolation
   LHFCALC =     F    Hartree Fock is set to
   LHFONE  =     F    Hartree Fock one center treatment
   AEXX    =    0.0000 exact exchange contribution

 Linear response parameters
   LEPSILON=     F    determine dielectric tensor
   LRPA    =     F    only Hartree local field effects (RPA)
   LNABLA  =     F    use nabla operator in PAW spheres
   LVEL    =     F    velocity operator in full k-point grid
   CSHIFT  =0.1000    complex shift for real part using Kramers Kronig
   OMEGAMAX=  -1.0    maximum frequency
   DEG_THRESHOLD= 0.2000000E-02 threshold for treating states as degnerate
   RTIME   =   -0.100 relaxation time in fs
  (WPLASMAI=    0.000 imaginary part of plasma frequency in eV, 0.658/RTIME)
   DFIELD  = 0.0000000 0.0000000 0.0000000 field for delta impulse in time
 
  Optional k-point grid parameters
   LKPOINTS_OPT  =     F    use optional k-point grid
   KPOINTS_OPT_MODE=     1    mode for optional k-point grid
 
 Orbital magnetization related:
   ORBITALMAG=     F  switch on orbital magnetization
   LCHIMAG   =     F  perturbation theory with respect to B field
   DQ        =  0.001000  dq finite difference perturbation B field
   LLRAUG    =     F  two centre corrections for induced B field



--------------------------------------------------------------------------------------------------------


 conjugate gradient relaxation of ions
 charge density and potential will be updated during run
 non-spin polarized calculation
 Variant of blocked Davidson
 Davidson routine will perform the subspace rotation
 perform sub-space diagonalisation
    after iterative eigenvector-optimisation
 modified Broyden-mixing scheme, WC =      100.0
 initial mixing is a Kerker type mixing with AMIX =  0.4000 and BMIX =      1.0000
 Hartree-type preconditioning will be used
 using additional bands            8
 reciprocal scheme for non local part
 use partial core corrections
 calculate Harris-corrections to forces 
   (improved forces if not selfconsistent)
 use gradient corrections 
 use of overlap-Matrix (Vanderbilt PP)
 Gauss-broadening in eV      SIGMA  =   0.05


--------------------------------------------------------------------------------------------------------


  energy-cutoff  :      450.00
  volume of cell :       29.46
      direct lattice vectors                 reciprocal lattice vectors
     2.697912679  0.000000000  0.000000000     0.370656918  0.213998872  0.000000000
    -1.348956340  2.336460918  0.000000000     0.000000000  0.427997743  0.000000000
     0.000000000  0.000000000  4.674070843     0.000000000  0.000000000  0.213946265

  length of vectors
     2.697912679  2.697912679  4.674070843     0.427997743  0.427997743  0.213946265


 
 k-points in units of 2pi/SCALE and weight: Automatic mesh                          
   0.00000000  0.00000000  0.00000000       0.001
   0.03706569  0.02139989  0.00000000       0.007
   0.07413138  0.04279977  0.00000000       0.007
   0.11119708  0.06419966  0.00000000       0.007
   0.14826277  0.08559955  0.00000000       0.007
   0.18532846  0.10699944  0.00000000       0.004
   0.03706569  0.06419966  0.00000000       0.007
   0.07413138  0.08559955  0.00000000       0.015
   0.11119708  0.10699944  0.00000000       0.015
   0.14826277  0.12839932  0.00000000       0.015
   0.07413138  0.12839932  0.00000000       0.007
   0.11119708  0.14979921  0.00000000       0.015
   0.14826277  0.17119910  0.00000000       0.007
   0.11119708  0.19259898  0.00000000       0.007
   0.00000000  0.00000000  0.02674328       0.003
   0.03706569  0.02139989  0.02674328       0.015
   0.07413138  0.04279977  0.02674328       0.015
   0.11119708  0.06419966  0.02674328       0.015
   0.14826277  0.08559955  0.02674328       0.015
   0.18532846  0.10699944  0.02674328       0.007
   0.03706569  0.06419966  0.02674328       0.015
   0.07413138  0.08559955  0.02674328       0.030
   0.11119708  0.10699944  0.02674328       0.030
   0.14826277  0.12839932  0.02674328       0.030
   0.07413138  0.12839932  0.02674328       0.015
   0.11119708  0.14979921  0.02674328       0.030
   0.14826277  0.17119910  0.02674328       0.015
   0.11119708  0.19259898  0.02674328       0.015
   0.00000000  0.00000000  0.05348657       0.003
   0.03706569  0.02139989  0.05348657       0.015
   0.07413138  0.04279977  0.05348657       0.015
   0.11119708  0.06419966  0.05348657       0.015
   0.14826277  0.08559955  0.05348657       0.015
   0.18532846  0.10699944  0.05348657       0.007
   0.03706569  0.06419966  0.05348657       0.015
   0.07413138  0.08559955  0.05348657       0.030
   0.11119708  0.10699944  0.05348657       0.030
   0.14826277  0.12839932  0.05348657       0.030
   0.07413138  0.12839932  0.05348657       0.015
   0.11119708  0.14979921  0.05348657       0.030
   0.14826277  0.17119910  0.05348657       0.015
   0.11119708  0.19259898  0.05348657       0.015
   0.00000000  0.00000000  0.08022985       0.003
   0.03706569  0.02139989  0.08022985       0.015
   0.07413138  0.04279977  0.08022985       0.015
   0.11119708  0.06419966  0.08022985       0.015
   0.14826277  0.08559955  0.08022985       0.015
   0.18532846  0.10699944  0.08022985       0.007
   0.03706569  0.06419966  0.08022985       0.015
   0.07413138  0.08559955  0.08022985       0.030
   0.11119708  0.10699944  0.08022985       0.030
   0.14826277  0.12839932  0.08022985       0.030
   0.07413138  0.12839932  0.08022985       0.015
   0.11119708  0.14979921  0.08022985       0.030
   0.14826277  0.17119910  0.08022985       0.015
   0.11119708  0.19259898  0.08022985       0.015
   0.00000000  0.00000000  0.10697313       0.001
   0.03706569  0.02139989  0.10697313       0.007
   0.07413138  0.04279977  0.10697313       0.007
   0.11119708  0.06419966  0.10697313       0.007
   0.14826277  0.08559955  0.10697313       0.007
   0.18532846  0.10699944  0.10697313       0.004
   0.03706569  0.06419966  0.10697313       0.007
   0.07413138  0.08559955  0.10697313       0.015
   0.11119708  0.10699944  0.10697313       0.015
   0.14826277  0.12839932  0.10697313       0.015
   0.07413138  0.12839932  0.10697313       0.007
   0.11119708  0.14979921  0.10697313       0.015
   0.14826277  0.17119910  0.10697313       0.007
   0.11119708  0.19259898  0.10697313       0.007
 
 k-points in reciprocal lattice and weights: Automatic mesh                          
   0.00000000  0.00000000  0.00000000       0.001
   0.10000000  0.00000000  0.00000000       0.007
   0.20000000  0.00000000  0.00000000       0.007
   0.30000000  0.00000000  0.00000000       0.007
   0.40000000  0.00000000  0.00000000       0.007
   0.50000000  0.00000000  0.00000000       0.004
   0.10000000  0.10000000  0.00000000       0.007
   0.20000000  0.10000000  0.00000000       0.015
   0.30000000  0.10000000  0.00000000       0.015
   0.40000000  0.10000000  0.00000000       0.015
   0.20000000  0.20000000  0.00000000       0.007
   0.30000000  0.20000000  0.00000000       0.015
   0.40000000  0.20000000  0.00000000       0.007
   0.30000000  0.30000000  0.00000000       0.007
   0.00000000  0.00000000  0.12500000       0.003
   0.10000000  0.00000000  0.12500000       0.015
   0.20000000  0.00000000  0.12500000       0.015
   0.30000000  0.00000000  0.12500000       0.015
   0.40000000  0.00000000  0.12500000       0.015
   0.50000000  0.00000000  0.12500000       0.007
   0.10000000  0.10000000  0.12500000       0.015
   0.20000000  0.10000000  0.12500000       0.030
   0.30000000  0.10000000  0.12500000       0.030
   0.40000000  0.10000000  0.12500000       0.030
   0.20000000  0.20000000  0.12500000       0.015
   0.30000000  0.20000000  0.12500000       0.030
   0.40000000  0.20000000  0.12500000       0.015
   0.30000000  0.30000000  0.12500000       0.015
   0.00000000  0.00000000  0.25000000       0.003
   0.10000000  0.00000000  0.25000000       0.015
   0.20000000  0.00000000  0.25000000       0.015
   0.30000000  0.00000000  0.25000000       0.015
   0.40000000  0.00000000  0.25000000       0.015
   0.50000000  0.00000000  0.25000000       0.007
   0.10000000  0.10000000  0.25000000       0.015
   0.20000000  0.10000000  0.25000000       0.030
   0.30000000  0.10000000  0.25000000       0.030
   0.40000000  0.10000000  0.25000000       0.030
   0.20000000  0.20000000  0.25000000       0.015
   0.30000000  0.20000000  0.25000000       0.030
   0.40000000  0.20000000  0.25000000       0.015
   0.30000000  0.30000000  0.25000000       0.015
   0.00000000  0.00000000  0.37500000       0.003
   0.10000000  0.00000000  0.37500000       0.015
   0.20000000  0.00000000  0.37500000       0.015
   0.30000000  0.00000000  0.37500000       0.015
   0.40000000  0.00000000  0.37500000       0.015
   0.50000000  0.00000000  0.37500000       0.007
   0.10000000  0.10000000  0.37500000       0.015
   0.20000000  0.10000000  0.37500000       0.030
   0.30000000  0.10000000  0.37500000       0.030
   0.40000000  0.10000000  0.37500000       0.030
   0.20000000  0.20000000  0.37500000       0.015
   0.30000000  0.20000000  0.37500000       0.030
   0.40000000  0.20000000  0.37500000       0.015
   0.30000000  0.30000000  0.37500000       0.015
   0.00000000  0.00000000  0.50000000       0.001
   0.10000000  0.00000000  0.50000000       0.007
   0.20000000  0.00000000  0.50000000       0.007
   0.30000000  0.00000000  0.50000000       0.007
   0.40000000  0.00000000  0.50000000       0.007
   0.50000000  0.00000000  0.50000000       0.004
   0.10000000  0.10000000  0.50000000       0.007
   0.20000000  0.10000000  0.50000000       0.015
   0.30000000  0.10000000  0.50000000       0.015
   0.40000000  0.10000000  0.50000000       0.015
   0.20000000  0.20000000  0.50000000       0.007
   0.30000000  0.20000000  0.50000000       0.015
   0.40000000  0.20000000  0.50000000       0.007
   0.30000000  0.30000000  0.50000000       0.007
 
 position of ions in fractional coordinates (direct lattice) 
   0.00000000  0.00000000  0.00000000
   0.33333333  0.66666667  0.50000000
 
 position of ions in cartesian coordinates  (Angst):
   0.00000000  0.00000000  0.00000000
   0.00000000  1.55764061  2.33703542
 


--------------------------------------------------------------------------------------------------------


 k-point   1 :   0.0000 0.0000 0.0000  plane waves:     665
 k-point   2 :   0.1000 0.0000 0.0000  plane waves:     644
 k-point   3 :   0.2000 0.0000 0.0000  plane waves:     646
 k-point   4 :   0.3000 0.0000 0.0000  plane waves:     642
 k-point   5 :   0.4000 0.0000 0.0000  plane waves:     636
 k-point   6 :   0.5000 0.0000 0.0000  plane waves:     644
 k-point   7 :   0.1000 0.1000 0.0000  plane waves:     649
 k-point   8 :   0.2000 0.1000 0.0000  plane waves:     638
 k-point   9 :   0.3000 0.1000 0.0000  plane waves:     638
 k-point  10 :   0.4000 0.1000 0.0000  plane waves:     640
 k-point  11 :   0.2000 0.2000 0.0000  plane waves:     633
 k-point  12 :   0.3000 0.2000 0.0000  plane waves:     632
 k-point  13 :   0.4000 0.2000 0.0000  plane waves:     640
 k-point  14 :   0.3000 0.3000 0.0000  plane waves:     625
 k-point  15 :   0.0000 0.0000 0.1250  plane waves:     646
 k-point  16 :   0.1000 0.0000 0.1250  plane waves:     646
 k-point  17 :   0.2000 0.0000 0.1250  plane waves:     643
 k-point  18 :   0.3000 0.0000 0.1250  plane waves:     643
 k-point  19 :   0.4000 0.0000 0.1250  plane waves:     644
 k-point  20 :   0.5000 0.0000 0.1250  plane waves:     638
 k-point  21 :   0.1000 0.1000 0.1250  plane waves:     642
 k-point  22 :   0.2000 0.1000 0.1250  plane waves:     638
 k-point  23 :   0.3000 0.1000 0.1250  plane waves:     635
 k-point  24 :   0.4000 0.1000 0.1250  plane waves:     637
 k-point  25 :   0.2000 0.2000 0.1250  plane waves:     639
 k-point  26 :   0.3000 0.2000 0.1250  plane waves:     636
 k-point  27 :   0.4000 0.2000 0.1250  plane waves:     632
 k-point  28 :   0.3000 0.3000 0.1250  plane waves:     630
 k-point  29 :   0.0000 0.0000 0.2500  plane waves:     640
 k-point  30 :   0.1000 0.0000 0.2500  plane waves:     643
 k-point  31 :   0.2000 0.0000 0.2500  plane waves:     645
 k-point  32 :   0.3000 0.0000 0.2500  plane waves:     637
 k-point  33 :   0.4000 0.0000 0.2500  plane waves:     633
 k-point  34 :   0.5000 0.0000 0.2500  plane waves:     636
 k-point  35 :   0.1000 0.1000 0.2500  plane waves:     643
 k-point  36 :   0.2000 0.1000 0.2500  plane waves:     640
 k-point  37 :   0.3000 0.1000 0.2500  plane waves:     638
 k-point  38 :   0.4000 0.1000 0.2500  plane waves:     639
 k-point  39 :   0.2000 0.2000 0.2500  plane waves:     640
 k-point  40 :   0.3000 0.2000 0.2500  plane waves:     638
 k-point  41 :   0.4000 0.2000 0.2500  plane waves:     633
 k-point  42 :   0.3000 0.3000 0.2500  plane waves:     634
 k-point  43 :   0.0000 0.0000 0.3750  plane waves:     646
 k-point  44 :   0.1000 0.0000 0.3750  plane waves:     638
 k-point  45 :   0.2000 0.0000 0.3750  plane waves:     642
 k-point  46 :   0.3000 0.0000 0.3750  plane waves:     640
 k-point  47 :   0.4000 0.0000 0.3750  plane waves:     639
 k-point  48 :   0.5000 0.0000 0.3750  plane waves:     642
 k-point  49 :   0.1000 0.1000 0.3750  plane waves:     646
 k-point  50 :   0.2000 0.1000 0.3750  plane waves:     643
 k-point  51 :   0.3000 0.1000 0.3750  plane waves:     645
 k-point  52 :   0.4000 0.1000 0.3750  plane waves:     635
 k-point  53 :   0.2000 0.2000 0.3750  plane waves:     649
 k-point  54 :   0.3000 0.2000 0.3750  plane waves:     636
 k-point  55 :   0.4000 0.2000 0.3750  plane waves:     631
 k-point  56 :   0.3000 0.3000 0.3750  plane waves:     631
 k-point  57 :   0.0000 0.0000 0.5000  plane waves:     640
 k-point  58 :   0.1000 0.0000 0.5000  plane waves:     638
 k-point  59 :   0.2000 0.0000 0.5000  plane waves:     640
 k-point  60 :   0.3000 0.0000 0.5000  plane waves:     644
 k-point  61 :   0.4000 0.0000 0.5000  plane waves:     648
 k-point  62 :   0.5000 0.0000 0.5000  plane waves:     648
 k-point  63 :   0.1000 0.1000 0.5000  plane waves:     634
 k-point  64 :   0.2000 0.1000 0.5000  plane waves:     648
 k-point  65 :   0.3000 0.1000 0.5000  plane waves:     650
 k-point  66 :   0.4000 0.1000 0.5000  plane waves:     640
 k-point  67 :   0.2000 0.2000 0.5000  plane waves:     638
 k-point  68 :   0.3000 0.2000 0.5000  plane waves:     632
 k-point  69 :   0.4000 0.2000 0.5000  plane waves:     632
 k-point  70 :   0.3000 0.3000 0.5000  plane waves:     628

 maximum and minimum number of plane-waves per node :       665      625

 maximum number of plane-waves:       665
 maximum index in each direction: 
   IXMAX=    4   IYMAX=    4   IZMAX=    8
   IXMIN=   -5   IYMIN=   -4   IZMIN=   -8


 serial   3D FFT for wavefunctions
 parallel 3D FFT for charge:
    minimum data exchange during FFTs selected (reduces bandwidth)


 total amount of memory used by VASP MPI-rank0    38627. kBytes
=======================================================================

   base      :      30000. kBytes
   nonl-proj :       6795. kBytes
   fftplans  :        226. kBytes
   grid      :        769. kBytes
   one-center:         31. kBytes
   wavefun   :        806. kBytes
 
     INWAV:  cpu time      0.0000: real time      0.0003
 Broyden mixing: mesh for mixing (old mesh)
   NGX =  9   NGY =  9   NGZ = 17
  (NGX  = 40   NGY  = 40   NGZ  = 64)
  gives a total of   1377 points

 initial charge density was supplied:
 charge density of overlapping atoms calculated
 number of electron      32.0000000 magnetization 
 keeping initial charge density in first step


--------------------------------------------------------------------------------------------------------


 Maximum index for augmentation-charges          702 (set IRDMAX)


--------------------------------------------------------------------------------------------------------


 First call to EWALD:  gamma=   0.574
 Maximum number of real-space cells 3x 3x 2
 Maximum number of reciprocal cells 2x 2x 4

    FEWALD:  cpu time      0.0014: real time      0.0015


--------------------------------------- Iteration      1(   1)  ---------------------------------------


    POTLOK:  cpu time      0.0034: real time      0.0035
    SETDIJ:  cpu time      0.0023: real time      0.0023
     EDDAV:  cpu time      0.2955: real time      0.2974
       DOS:  cpu time      0.0006: real time      0.0006
    --------------------------------------------
      LOOP:  cpu time      0.3017: real time      0.3037

 eigenvalue-minimisations  :  3360
 total energy-change (2. order) : 0.1429086E+03  (-0.2331749E+04)
 number of electron      32.0000000 magnetization 
 augmentation part       32.0000000 magnetization 

 Free energy of the ion-electron system (eV)
  ---------------------------------------------------
  alpha Z        PSCENC =       325.73633395
  Ewald energy   TEWEN  =     -4340.94808220
  -Hartree energ DENC   =      -773.20060793
  -exchange      EXHF   =         0.00000000
  -V(xc)+E(xc)   XCENC  =       128.04226455
  PAW double counting   =      4131.50523274    -4061.67189606
  entropy T*S    EENTRO =        -0.00116784
  eigenvalues    EBANDS =      -122.98311481
  atomic energy  EATOM  =      4856.42966544
  Solvation  Ediel_sol  =         0.00000000
  ---------------------------------------------------
  free energy    TOTEN  =       142.90862786 eV

  energy without entropy =      142.90979570  energy(sigma->0) =      142.90921178


--------------------------------------------------------------------------------------------------------




--------------------------------------- Iteration      1(   2)  ---------------------------------------


     EDDAV:  cpu time      0.3039: real time      0.3063
       DOS:  cpu time      0.0004: real time      0.0004
    --------------------------------------------
      LOOP:  cpu time      0.3042: real time      0.3066

 eigenvalue-minimisations  :  3456
 total energy-change (2. order) :-0.1542701E+03  (-0.1534821E+03)
 number of electron      32.0000000 magnetization 
 augmentation part       32.0000000 magnetization 

 Free energy of the ion-electron system (eV)
  ---------------------------------------------------
  alpha Z        PSCENC =       325.73633395
  Ewald energy   TEWEN  =     -4340.94808220
  -Hartree energ DENC   =      -773.20060793
  -exchange      EXHF   =         0.00000000
  -V(xc)+E(xc)   XCENC  =       128.04226455
  PAW double counting   =      4131.50523274    -4061.67189606
  entropy T*S    EENTRO =        -0.00323104
  eigenvalues    EBANDS =      -277.25112852
  atomic energy  EATOM  =      4856.42966544
  Solvation  Ediel_sol  =         0.00000000
  ---------------------------------------------------
  free energy    TOTEN  =       -11.36144906 eV

  energy without entropy =      -11.35821802  energy(sigma->0) =      -11.35983354


--------------------------------------------------------------------------------------------------------




--------------------------------------- Iteration      1(   3)  ---------------------------------------


     EDDAV:  cpu time      0.5038: real time      0.5066
       DOS:  cpu time      0.0004: real time      0.0004
    --------------------------------------------
      LOOP:  cpu time      0.5041: real time      0.5070

 eigenvalue-minimisations  :  4680
 total energy-change (2. order) :-0.1236564E+01  (-0.1234000E+01)
 number of electron      32.0000000 magnetization 
 augmentation part       32.0000000 magnetization 

 Free energy of the ion-electron system (eV)
  ---------------------------------------------------
  alpha Z        PSCENC =       325.73633395
  Ewald energy   TEWEN  =     -4340.94808220
  -Hartree energ DENC   =      -773.20060793
  -exchange      EXHF   =         0.00000000
  -V(xc)+E(xc)   XCENC  =       128.04226455
  PAW double counting   =      4131.50523274    -4061.67189606
  entropy T*S    EENTRO =        -0.00375747
  eigenvalues    EBANDS =      -278.48716657
  atomic energy  EATOM  =      4856.42966544
  Solvation  Ediel_sol  =         0.00000000
  ---------------------------------------------------
  free energy    TOTEN  =       -12.59801354 eV

  energy without entropy =      -12.59425607  energy(sigma->0) =      -12.59613480


--------------------------------------------------------------------------------------------------------




--------------------------------------- Iteration      1(   4)  ---------------------------------------


     EDDAV:  cpu time      0.5012: real time      0.5042
       DOS:  cpu time      0.0004: real time      0.0004
    --------------------------------------------
      LOOP:  cpu time      0.5016: real time      0.5046

 eigenvalue-minimisations  :  4632
 total energy-change (2. order) :-0.2962655E-02  (-0.2962573E-02)
 number of electron      32.0000000 magnetization 
 augmentation part       32.0000000 magnetization 

 Free energy of the ion-electron system (eV)
  ---------------------------------------------------
  alpha Z        PSCENC =       325.73633395
  Ewald energy   TEWEN  =     -4340.94808220
  -Hartree energ DENC   =      -773.20060793
  -exchange      EXHF   =         0.00000000
  -V(xc)+E(xc)   XCENC  =       128.04226455
  PAW double counting   =      4131.50523274    -4061.67189606
  entropy T*S    EENTRO =        -0.00377099
  eigenvalues    EBANDS =      -278.49011571
  atomic energy  EATOM  =      4856.42966544
  Solvation  Ediel_sol  =         0.00000000
  ---------------------------------------------------
  free energy    TOTEN  =       -12.60097620 eV

  energy without entropy =      -12.59720521  energy(sigma->0) =      -12.59909070


--------------------------------------------------------------------------------------------------------




--------------------------------------- Iteration      1(   5)  ---------------------------------------


     EDDAV:  cpu time      0.5616: real time      0.5649
       DOS:  cpu time      0.0004: real time      0.0004
    CHARGE:  cpu time      0.0200: real time      0.0201
    MIXING:  cpu time      0.0003: real time      0.0003
    --------------------------------------------
      LOOP:  cpu time      0.5823: real time      0.5856

 eigenvalue-minimisations  :  4944
 total energy-change (2. order) :-0.8017632E-06  (-0.8017257E-06)
 number of electron      31.9999992 magnetization 
 augmentation part        7.9670911 magnetization 

 Broyden mixing:
  rms(total) = 0.23339E+01    rms(broyden)= 0.23338E+01
  rms(prec ) = 0.25175E+01
  weight for this iteration     100.00

 Free energy of the ion-electron system (eV)
  ---------------------------------------------------
  alpha Z        PSCENC =       325.73633395
  Ewald energy   TEWEN  =     -4340.94808220
  -Hartree energ DENC   =      -773.20060793
  -exchange      EXHF   =         0.00000000
  -V(xc)+E(xc)   XCENC  =       128.04226455
  PAW double counting   =      4131.50523274    -4061.67189606
  entropy T*S    EENTRO =        -0.00377099
  eigenvalues    EBANDS =      -278.49011651
  atomic energy  EATOM  =      4856.42966544
  Solvation  Ediel_sol  =         0.00000000
  ---------------------------------------------------
  free energy    TOTEN  =       -12.60097700 eV

  energy without entropy =      -12.59720601  energy(sigma->0) =      -12.59909150


--------------------------------------------------------------------------------------------------------




--------------------------------------- Iteration      1(   6)  ---------------------------------------


    POTLOK:  cpu time      0.0032: real time      0.0033
    SETDIJ:  cpu time      0.0020: real time      0.0020
     EDDAV:  cpu time      0.3095: real time      0.3111
       DOS:  cpu time      0.0004: real time      0.0004
    CHARGE:  cpu time      0.0187: real time      0.0188
    MIXING:  cpu time      0.0006: real time      0.0006
    --------------------------------------------
      LOOP:  cpu time      0.3344: real time      0.3363

 eigenvalue-minimisations  :  3504
 total energy-change (2. order) : 0.6392679E+00  (-0.2265211E+00)
 number of electron      31.9999991 magnetization 
 augmentation part        8.1815511 magnetization 

 Broyden mixing:
  rms(total) = 0.80960E+00    rms(broyden)= 0.80960E+00
  rms(prec ) = 0.84416E+00
  weight for this iteration     100.00

 eigenvalues of (default mixing * dielectric matrix)
  average eigenvalue GAMMA=   1.5108
  1.5108

 Free energy of the ion-electron system (eV)
  ---------------------------------------------------
  alpha Z        PSCENC =       325.73633395
  Ewald energy   TEWEN  =     -4340.94808220
  -Hartree energ DENC   =      -743.86377551
  -exchange      EXHF   =         0.00000000
  -V(xc)+E(xc)   XCENC  =       126.77505236
  PAW double counting   =      4529.35871826    -4463.69754797
  entropy T*S    EENTRO =        -0.00397426
  eigenvalues    EBANDS =      -301.74809919
  atomic energy  EATOM  =      4856.42966544
  Solvation  Ediel_sol  =         0.00000000
  ---------------------------------------------------
  free energy    TOTEN  =       -11.96170912 eV

  energy without entropy =      -11.95773486  energy(sigma->0) =      -11.95972199


--------------------------------------------------------------------------------------------------------




--------------------------------------- Iteration      1(   7)  ---------------------------------------


    POTLOK:  cpu time      0.0031: real time      0.0032
    SETDIJ:  cpu time      0.0019: real time      0.0020
     EDDAV:  cpu time      0.4459: real time      0.4484
       DOS:  cpu time      0.0004: real time      0.0004
    CHARGE:  cpu time      0.0188: real time      0.0189
    MIXING:  cpu time      0.0003: real time      0.0003
    --------------------------------------------
      LOOP:  cpu time      0.4704: real time      0.4732

 eigenvalue-minimisations  :  4440
 total energy-change (2. order) : 0.4055890E-01  (-0.1872894E-01)
 number of electron      31.9999991 magnetization 
 augmentation part        8.2381044 magnetization 

 Broyden mixing:
  rms(total) = 0.21734E+00    rms(broyden)= 0.21734E+00
  rms(prec ) = 0.22660E+00
  weight for this iteration     100.00

 eigenvalues of (default mixing * dielectric matrix)
  average eigenvalue GAMMA=   1.9450
  1.2050  2.6849

 Free energy of the ion-electron system (eV)
  ---------------------------------------------------
  alpha Z        PSCENC =       325.73633395
  Ewald energy   TEWEN  =     -4340.94808220
  -Hartree energ DENC   =      -735.05609320
  -exchange      EXHF   =         0.00000000
  -V(xc)+E(xc)   XCENC  =       126.37484888
  PAW double counting   =      4738.79270501    -4674.55414951
  entropy T*S    EENTRO =        -0.00416499
  eigenvalues    EBANDS =      -308.69221361
  atomic energy  EATOM  =      4856.42966544
  Solvation  Ediel_sol  =         0.00000000
  ---------------------------------------------------
  free energy    TOTEN  =       -11.92115022 eV

  energy without entropy =      -11.91698524  energy(sigma->0) =      -11.91906773


--------------------------------------------------------------------------------------------------------




--------------------------------------- Iteration      1(   8)  ---------------------------------------


    POTLOK:  cpu time      0.0031: real time      0.0033
    SETDIJ:  cpu time      0.0019: real time      0.0019
     EDDAV:  cpu time      0.3233: real time      0.3250
       DOS:  cpu time      0.0004: real time      0.0004
    CHARGE:  cpu time      0.0188: real time      0.0189
    MIXING:  cpu time      0.0003: real time      0.0002
    --------------------------------------------
      LOOP:  cpu time      0.3477: real time      0.3497

 eigenvalue-minimisations  :  3600
 total energy-change (2. order) : 0.2723236E-02  (-0.8071207E-03)
 number of electron      31.9999991 magnetization 
 augmentation part        8.2285063 magnetization 

 Broyden mixing:
  rms(total) = 0.35072E-01    rms(broyden)= 0.35067E-01
  rms(prec ) = 0.36742E-01
  weight for this iteration     100.00

 eigenvalues of (default mixing * dielectric matrix)
  average eigenvalue GAMMA=   1.6012
  1.1089  1.2904  2.4042

 Free energy of the ion-electron system (eV)
  ---------------------------------------------------
  alpha Z        PSCENC =       325.73633395
  Ewald energy   TEWEN  =     -4340.94808220
  -Hartree energ DENC   =      -735.13407514
  -exchange      EXHF   =         0.00000000
  -V(xc)+E(xc)   XCENC  =       126.35461286
  PAW double counting   =      4850.56212579    -4786.46772170
  entropy T*S    EENTRO =        -0.00418319
  eigenvalues    EBANDS =      -308.44710280
  atomic energy  EATOM  =      4856.42966544
  Solvation  Ediel_sol  =         0.00000000
  ---------------------------------------------------
  free energy    TOTEN  =       -11.91842699 eV

  energy without entropy =      -11.91424379  energy(sigma->0) =      -11.91633539


--------------------------------------------------------------------------------------------------------




--------------------------------------- Iteration      1(   9)  ---------------------------------------


    POTLOK:  cpu time      0.0030: real time      0.0031
    SETDIJ:  cpu time      0.0018: real time      0.0019
     EDDAV:  cpu time      0.4553: real time      0.4577
       DOS:  cpu time      0.0004: real time      0.0004
    CHARGE:  cpu time      0.0195: real time      0.0196
    MIXING:  cpu time      0.0003: real time      0.0003
    --------------------------------------------
      LOOP:  cpu time      0.4804: real time      0.4830

 eigenvalue-minimisations  :  4344
 total energy-change (2. order) : 0.1882410E-03  (-0.2459645E-04)
 number of electron      31.9999991 magnetization 
 augmentation part        8.2276371 magnetization 

 Broyden mixing:
  rms(total) = 0.39034E-02    rms(broyden)= 0.39028E-02
  rms(prec ) = 0.43422E-02
  weight for this iteration     100.00

 eigenvalues of (default mixing * dielectric matrix)
  average eigenvalue GAMMA=   1.6880
  2.5318  1.0320  1.2346  1.9536

 Free energy of the ion-electron system (eV)
  ---------------------------------------------------
  alpha Z        PSCENC =       325.73633395
  Ewald energy   TEWEN  =     -4340.94808220
  -Hartree energ DENC   =      -735.44037270
  -exchange      EXHF   =         0.00000000
  -V(xc)+E(xc)   XCENC  =       126.36994715
  PAW double counting   =      4836.86141171    -4772.67156363
  entropy T*S    EENTRO =        -0.00416528
  eigenvalues    EBANDS =      -308.25141320
  atomic energy  EATOM  =      4856.42966544
  Solvation  Ediel_sol  =         0.00000000
  ---------------------------------------------------
  free energy    TOTEN  =       -11.91823875 eV

  energy without entropy =      -11.91407347  energy(sigma->0) =      -11.91615611


--------------------------------------------------------------------------------------------------------




--------------------------------------- Iteration      1(  10)  ---------------------------------------


    POTLOK:  cpu time      0.0033: real time      0.0033
    SETDIJ:  cpu time      0.0020: real time      0.0020
     EDDAV:  cpu time      0.4204: real time      0.4227
       DOS:  cpu time      0.0004: real time      0.0004
    CHARGE:  cpu time      0.0189: real time      0.0190
    MIXING:  cpu time      0.0003: real time      0.0003
    --------------------------------------------
      LOOP:  cpu time      0.4452: real time      0.4477

 eigenvalue-minimisations  :  4152
 total energy-change (2. order) :-0.1165178E-04  (-0.1053047E-05)
 number of electron      31.9999991 magnetization 
 augmentation part        8.2278290 magnetization 

 Broyden mixing:
  rms(total) = 0.10621E-02    rms(broyden)= 0.10618E-02
  rms(prec ) = 0.12147E-02
  weight for this iteration     100.00

 eigenvalues of (default mixing * dielectric matrix)
  average eigenvalue GAMMA=   1.7404
  2.6465  2.2560  0.9882  1.2339  1.5776

 Free energy of the ion-electron system (eV)
  ---------------------------------------------------
  alpha Z        PSCENC =       325.73633395
  Ewald energy   TEWEN  =     -4340.94808220
  -Hartree energ DENC   =      -735.45012109
  -exchange      EXHF   =         0.00000000
  -V(xc)+E(xc)   XCENC  =       126.36999967
  PAW double counting   =      4840.49278682    -4776.27366713
  entropy T*S    EENTRO =        -0.00416188
  eigenvalues    EBANDS =      -308.27100398
  atomic energy  EATOM  =      4856.42966544
  Solvation  Ediel_sol  =         0.00000000
  ---------------------------------------------------
  free energy    TOTEN  =       -11.91825040 eV

  energy without entropy =      -11.91408852  energy(sigma->0) =      -11.91616946


--------------------------------------------------------------------------------------------------------




--------------------------------------- Iteration      1(  11)  ---------------------------------------


    POTLOK:  cpu time      0.0030: real time      0.0032
    SETDIJ:  cpu time      0.0019: real time      0.0019
     EDDAV:  cpu time      0.3293: real time      0.3310
       DOS:  cpu time      0.0004: real time      0.0004
    --------------------------------------------
      LOOP:  cpu time      0.3346: real time      0.3365

 eigenvalue-minimisations  :  3264
 total energy-change (2. order) : 0.6133032E-06  (-0.8758924E-07)
 number of electron      31.9999991 magnetization 
 augmentation part        8.2278290 magnetization 

 Free energy of the ion-electron system (eV)
  ---------------------------------------------------
  alpha Z        PSCENC =       325.73633395
  Ewald energy   TEWEN  =     -4340.94808220
  -Hartree energ DENC   =      -735.46568882
  -exchange      EXHF   =         0.00000000
  -V(xc)+E(xc)   XCENC  =       126.37062654
  PAW double counting   =      4840.99216215    -4776.75868729
  entropy T*S    EENTRO =        -0.00416251
  eigenvalues    EBANDS =      -308.27041705
  atomic energy  EATOM  =      4856.42966544
  Solvation  Ediel_sol  =         0.00000000
  ---------------------------------------------------
  free energy    TOTEN  =       -11.91824979 eV

  energy without entropy =      -11.91408728  energy(sigma->0) =      -11.91616853


--------------------------------------------------------------------------------------------------------




 average (electrostatic) potential at core
  the test charge radii are     0.9952
  (the norm of the test charge is              1.0000)
       1 -88.3391       2 -88.3391
 
 
 
 E-fermi :  12.4983     XC(G=0): -14.1524     alpha+bet :-17.8071

 Fermi energy:        12.4982647263

 k-point     1 :       0.0000    0.0000    0.0000
  band No.  band energies     occupation 
      1     -40.4228      2.00000
      2     -40.1522      2.00000
      3     -40.1522      2.00000
      4     -40.1010      2.00000
      5     -40.1010      2.00000
      6     -39.9909      2.00000
      7       2.0156      2.00000
      8       4.7279      2.00000
      9       8.1097      2.00000
     10       8.6702      2.00000
     11       8.6702      2.00000
     12       9.0855      2.00000
     13       9.0855      2.00000
     14      10.4756      2.00000
     15      10.4756      2.00000
     16      11.4843      2.00000
     17      12.2611      2.00000
     18      12.2611      2.00000
     19      17.6721      0.00000
     20      27.4532      0.00000
     21      28.1710      0.00000
     22      29.7484      0.00000
     23      34.2754      0.00000
     24      34.2754      0.00000

 k-point     2 :       0.1000    0.0000    0.0000
  band No.  band energies     occupation 
      1     -40.4068      2.00000
      2     -40.1991      2.00000
      3     -40.1654      2.00000
      4     -40.1482      2.00000
      5     -40.1098      2.00000
      6     -39.9936      2.00000
      7       2.4021      2.00000
      8       5.0807      2.00000
      9       8.0334      2.00000
     10       8.6794      2.00000
     11       8.9167      2.00000
     12       8.9757      2.00000
     13       9.3770      2.00000
     14       9.7896      2.00000
     15      10.2821      2.00000
     16      10.4204      2.00000
     17      12.3354      2.00000
     18      14.0654      0.00000
     19      17.6251      0.00000
     20      28.0117      0.00000
     21      28.7359      0.00000
     22      30.2574      0.00000
     23      32.4812      0.00000
     24      32.6172      0.00000

 k-point     3 :       0.2000    0.0000    0.0000
  band No.  band energies     occupation 
      1     -40.3643      2.00000
      2     -40.3218      2.00000
      3     -40.2713      2.00000
      4     -40.2009      2.00000
      5     -40.1351      2.00000
      6     -40.0051      2.00000
      7       3.4477      2.00000
      8       5.8440      2.00000
      9       7.7787      2.00000
     10       8.2874      2.00000
     11       8.3673      2.00000
     12       9.3728      2.00000
     13       9.8419      2.00000
     14       9.8544      2.00000
     15       9.8619      2.00000
     16      10.1959      2.00000
     17      12.4534      1.79529
     18      16.3812      0.00000
     19      17.5195      0.00000
     20      27.0685      0.00000
     21      29.3573      0.00000
     22      30.1984      0.00000
     23      30.7839      0.00000
     24      30.9394      0.00000

 k-point     4 :       0.3000    0.0000    0.0000
  band No.  band energies     occupation 
      1     -40.4722      2.00000
      2     -40.4204      2.00000
      3     -40.3043      2.00000
      4     -40.2429      2.00000
      5     -40.1665      2.00000
      6     -40.0263      2.00000
      7       4.6958      2.00000
      8       5.9419      2.00000
      9       7.1236      2.00000
     10       8.0758      2.00000
     11       8.4807      2.00000
     12       9.2966      2.00000
     13       9.4169      2.00000
     14      10.6520      2.00000
     15      11.0948      2.00000
     16      11.3633      2.00000
     17      12.5179      0.57838
     18      17.5828      0.00000
     19      18.7138      0.00000
     20      23.3450      0.00000
     21      27.6827      0.00000
     22      27.8121      0.00000
     23      30.2487      0.00000
     24      30.9529      0.00000

 k-point     5 :       0.4000    0.0000    0.0000
  band No.  band energies     occupation 
      1     -40.5929      2.00000
      2     -40.5380      2.00000
      3     -40.2761      2.00000
      4     -40.2436      2.00000
      5     -40.1925      2.00000
      6     -40.0551      2.00000
      7       5.3279      2.00000
      8       5.5991      2.00000
      9       6.3997      2.00000
     10       8.6526      2.00000
     11       8.8857      2.00000
     12       9.1069      2.00000
     13       9.3587      2.00000
     14      12.3185      2.00000
     15      12.5221      0.50034
     16      12.5330      0.32646
     17      12.7122      0.00000
     18      18.3074      0.00000
     19      19.6297      0.00000
     20      20.7421      0.00000
     21      25.6258      0.00000
     22      25.6467      0.00000
     23      26.5382      0.00000
     24      29.7062      0.00000

 k-point     6 :       0.5000    0.0000    0.0000
  band No.  band energies     occupation 
      1     -40.6397      2.00000
      2     -40.5817      2.00000
      3     -40.2887      2.00000
      4     -40.2138      2.00000
      5     -40.2026      2.00000
      6     -40.0736      2.00000
      7       5.3597      2.00000
      8       5.5014      2.00000
      9       6.1541      2.00000
     10       8.7368      2.00000
     11       8.9960      2.00000
     12       9.2339      2.00000
     13       9.5592      2.00000
     14      12.5325      0.33317
     15      12.8390      0.00000
     16      13.0698      0.00000
     17      14.9097      0.00000
     18      16.4944      0.00000
     19      20.1362      0.00000
     20      21.6911      0.00000
     21      22.6613      0.00000
     22      24.7697      0.00000
     23      25.9813      0.00000
     24      29.0875      0.00000

 k-point     7 :       0.1000    0.1000    0.0000
  band No.  band energies     occupation 
      1     -40.3780      2.00000
      2     -40.2759      2.00000
      3     -40.2429      2.00000
      4     -40.1823      2.00000
      5     -40.1340      2.00000
      6     -40.0012      2.00000
      7       3.1280      2.00000
      8       5.6936      2.00000
      9       7.7303      2.00000
     10       8.5870      2.00000
     11       8.7302      2.00000
     12       8.9238      2.00000
     13       9.6224      2.00000
     14       9.6228      2.00000
     15      10.0294      2.00000
     16      10.3443      2.00000
     17      12.3619      1.99989
     18      15.7746      0.00000
     19      17.5508      0.00000
     20      28.2671      0.00000
     21      29.2097      0.00000
     22      29.6941      0.00000
     23      30.7874      0.00000
     24      31.7698      0.00000

 k-point     8 :       0.2000    0.1000    0.0000
  band No.  band energies     occupation 
      1     -40.4021      2.00000
      2     -40.3690      2.00000
      3     -40.3262      2.00000
      4     -40.2310      2.00000
      5     -40.1716      2.00000
      6     -40.0176      2.00000
      7       4.3600      2.00000
      8       6.3276      2.00000
      9       7.5377      2.00000
     10       7.5771      2.00000
     11       8.2911      2.00000
     12       9.0689      2.00000
     13       9.6049      2.00000
     14       9.9362      2.00000
     15      10.7980      2.00000
     16      11.2573      2.00000
     17      12.3659      1.99982
     18      17.5526      0.00000
     19      17.9907      0.00000
     20      25.2683      0.00000
     21      27.1404      0.00000
     22      28.8605      0.00000
     23      30.9447      0.00000
     24      31.9651      0.00000

 k-point     9 :       0.3000    0.1000    0.0000
  band No.  band energies     occupation 
      1     -40.5327      2.00000
      2     -40.4870      2.00000
      3     -40.2817      2.00000
      4     -40.2647      2.00000
      5     -40.2077      2.00000
      6     -40.0441      2.00000
      7       5.4336      2.00000
      8       6.0440      2.00000
      9       6.7209      2.00000
     10       8.0953      2.00000
     11       8.7412      2.00000
     12       8.7854      2.00000
     13       9.3901      2.00000
     14      10.8288      2.00000
     15      12.0129      2.00000
     16      12.3530      1.99996
     17      12.8400      0.00000
     18      18.1093      0.00000
     19      20.2225      0.00000
     20      21.3418      0.00000
     21      24.9207      0.00000
     22      27.4347      0.00000
     23      28.3779      0.00000
     24      30.1379      0.00000

 k-point    10 :       0.4000    0.1000    0.0000
  band No.  band energies     occupation 
      1     -40.6140      2.00000
      2     -40.5579      2.00000
      3     -40.3122      2.00000
      4     -40.2304      2.00000
      5     -40.2142      2.00000
      6     -40.0731      2.00000
      7       5.6789      2.00000
      8       5.8002      2.00000
      9       6.2736      2.00000
     10       8.6830      2.00000
     11       8.9433      2.00000
     12       8.9574      2.00000
     13       9.3262      2.00000
     14      12.2130      2.00000
     15      12.3345      2.00000
     16      12.6445      0.00004
     17      14.6739      0.00000
     18      17.7942      0.00000
     19      19.8206      0.00000
     20      21.9235      0.00000
     21      22.7183      0.00000
     22      25.1550      0.00000
     23      26.5020      0.00000
     24      29.0117      0.00000

 k-point    11 :       0.2000    0.2000    0.0000
  band No.  band energies     occupation 
      1     -40.4767      2.00000
      2     -40.4740      2.00000
      3     -40.2879      2.00000
      4     -40.2718      2.00000
      5     -40.2361      2.00000
      6     -40.0404      2.00000
      7       5.6277      2.00000
      8       6.9446      2.00000
      9       6.9767      2.00000
     10       7.0387      2.00000
     11       8.5262      2.00000
     12       8.5348      2.00000
     13       9.6039      2.00000
     14      10.0052      2.00000
     15      11.9936      2.00000
     16      12.1622      2.00000
     17      12.9292      0.00000
     18      18.1093      0.00000
     19      20.1175      0.00000
     20      22.7897      0.00000
     21      23.6780      0.00000
     22      28.2347      0.00000
     23      29.9757      0.00000
     24      30.2793      0.00000

 k-point    12 :       0.3000    0.2000    0.0000
  band No.  band energies     occupation 
      1     -40.5549      2.00000
      2     -40.5169      2.00000
      3     -40.3541      2.00000
      4     -40.2913      2.00000
      5     -40.2145      2.00000
      6     -40.0724      2.00000
      7       6.4105      2.00000
      8       6.5132      2.00000
      9       6.5939      2.00000
     10       7.8656      2.00000
     11       8.3676      2.00000
     12       9.0615      2.00000
     13       9.1358      2.00000
     14      10.8892      2.00000
     15      12.0067      2.00000
     16      12.4914      1.15471
     17      14.7552      0.00000
     18      19.1197      0.00000
     19      20.0337      0.00000
     20      21.5993      0.00000
     21      22.2942      0.00000
     22      26.9052      0.00000
     23      27.5829      0.00000
     24      28.8205      0.00000

 k-point    13 :       0.4000    0.2000    0.0000
  band No.  band energies     occupation 
      1     -40.5841      2.00000
      2     -40.5278      2.00000
      3     -40.3860      2.00000
      4     -40.3122      2.00000
      5     -40.1823      2.00000
      6     -40.0956      2.00000
      7       6.3601      2.00000
      8       6.4239      2.00000
      9       6.5242      2.00000
     10       8.4885      2.00000
     11       8.5212      2.00000
     12       8.6435      2.00000
     13       9.4290      2.00000
     14      11.7421      2.00000
     15      11.9496      2.00000
     16      12.2775      2.00000
     17      16.3764      0.00000
     18      16.9926      0.00000
     19      20.2647      0.00000
     20      22.0205      0.00000
     21      23.5242      0.00000
     22      24.7161      0.00000
     23      27.0236      0.00000
     24      28.1287      0.00000

 k-point    14 :       0.3000    0.3000    0.0000
  band No.  band energies     occupation 
      1     -40.5373      2.00000
      2     -40.4945      2.00000
      3     -40.4342      2.00000
      4     -40.3799      2.00000
      5     -40.1634      2.00000
      6     -40.1097      2.00000
      7       6.4582      2.00000
      8       6.9846      2.00000
      9       7.2548      2.00000
     10       7.7359      2.00000
     11       8.3164      2.00000
     12       8.6162      2.00000
     13       9.5319      2.00000
     14      11.2937      2.00000
     15      11.7620      2.00000
     16      12.0959      2.00000
     17      16.4300      0.00000
     18      17.6848      0.00000
     19      19.1035      0.00000
     20      22.9639      0.00000
     21      24.5279      0.00000
     22      25.8474      0.00000
     23      26.7596      0.00000
     24      27.0291      0.00000

 k-point    15 :       0.0000    0.0000    0.1250
  band No.  band energies     occupation 
      1     -40.4058      2.00000
      2     -40.1499      2.00000
      3     -40.1499      2.00000
      4     -40.1028      2.00000
      5     -40.1028      2.00000
      6     -40.0069      2.00000
      7       2.1594      2.00000
      8       4.7140      2.00000
      9       8.0719      2.00000
     10       8.6484      2.00000
     11       8.6484      2.00000
     12       9.0416      2.00000
     13       9.0416      2.00000
     14      10.5870      2.00000
     15      10.5870      2.00000
     16      10.8663      2.00000
     17      12.2327      2.00000
     18      12.2327      2.00000
     19      18.5392      0.00000
     20      26.9995      0.00000
     21      28.7430      0.00000
     22      29.4405      0.00000
     23      33.4762      0.00000
     24      33.4762      0.00000

 k-point    16 :       0.1000    0.0000    0.1250
  band No.  band energies     occupation 
      1     -40.3926      2.00000
      2     -40.1963      2.00000
      3     -40.1633      2.00000
      4     -40.1514      2.00000
      5     -40.1119      2.00000
      6     -40.0085      2.00000
      7       2.5429      2.00000
      8       5.0732      2.00000
      9       8.0366      2.00000
     10       8.5809      2.00000
     11       8.7967      2.00000
     12       8.9434      2.00000
     13       9.3278      2.00000
     14       9.7317      2.00000
     15      10.4135      2.00000
     16      10.4396      2.00000
     17      12.2935      2.00000
     18      13.5442      0.00000
     19      18.6092      0.00000
     20      27.5929      0.00000
     21      29.2442      0.00000
     22      29.9522      0.00000
     23      31.7338      0.00000
     24      32.5643      0.00000

 k-point    17 :       0.2000    0.0000    0.1250
  band No.  band energies     occupation 
      1     -40.3644      2.00000
      2     -40.3070      2.00000
      3     -40.2748      2.00000
      4     -40.1981      2.00000
      5     -40.1375      2.00000
      6     -40.0165      2.00000
      7       3.5703      2.00000
      8       5.8606      2.00000
      9       7.8131      2.00000
     10       8.0203      2.00000
     11       8.3618      2.00000
     12       9.2388      2.00000
     13       9.6560      2.00000
     14      10.0469      2.00000
     15      10.1084      2.00000
     16      10.2444      2.00000
     17      12.3859      1.99851
     18      15.2122      0.00000
     19      18.9624      0.00000
     20      27.1543      0.00000
     21      29.1847      0.00000
     22      30.2599      0.00000
     23      30.3545      0.00000
     24      31.4376      0.00000

 k-point    18 :       0.3000    0.0000    0.1250
  band No.  band energies     occupation 
      1     -40.4761      2.00000
      2     -40.4258      2.00000
      3     -40.2876      2.00000
      4     -40.2400      2.00000
      5     -40.1694      2.00000
      6     -40.0338      2.00000
      7       4.7451      2.00000
      8       5.9762      2.00000
      9       7.1112      2.00000
     10       7.8853      2.00000
     11       8.5080      2.00000
     12       9.4231      2.00000
     13       9.4859      2.00000
     14      10.7110      2.00000
     15      11.1187      2.00000
     16      11.3079      2.00000
     17      12.4383      1.90995
     18      16.3992      0.00000
     19      19.8964      0.00000
     20      23.6400      0.00000
     21      27.7403      0.00000
     22      27.9429      0.00000
     23      29.6484      0.00000
     24      31.4855      0.00000

 k-point    19 :       0.4000    0.0000    0.1250
  band No.  band energies     occupation 
      1     -40.5951      2.00000
      2     -40.5435      2.00000
      3     -40.2731      2.00000
      4     -40.2328      2.00000
      5     -40.1955      2.00000
      6     -40.0591      2.00000
      7       5.2504      2.00000
      8       5.5999      2.00000
      9       6.5850      2.00000
     10       7.9399      2.00000
     11       9.1441      2.00000
     12       9.2014      2.00000
     13       9.9518      2.00000
     14      12.2306      2.00000
     15      12.3354      2.00000
     16      12.6161      0.00086
     17      12.6398      0.00006
     18      17.3987      0.00000
     19      19.6667      0.00000
     20      21.6014      0.00000
     21      25.3357      0.00000
     22      25.9305      0.00000
     23      26.9142      0.00000
     24      29.9072      0.00000

 k-point    20 :       0.5000    0.0000    0.1250
  band No.  band energies     occupation 
      1     -40.6409      2.00000
      2     -40.5870      2.00000
      3     -40.2853      2.00000
      4     -40.2060      2.00000
      5     -40.2047      2.00000
      6     -40.0751      2.00000
      7       5.3116      2.00000
      8       5.3941      2.00000
      9       6.4172      2.00000
     10       8.0051      2.00000
     11       9.0964      2.00000
     12       9.3105      2.00000
     13      10.4345      2.00000
     14      12.3276      2.00000
     15      12.8620      0.00000
     16      13.0625      0.00000
     17      14.6337      0.00000
     18      16.3606      0.00000
     19      20.0204      0.00000
     20      20.8485      0.00000
     21      23.7615      0.00000
     22      25.0911      0.00000
     23      26.1247      0.00000
     24      29.3627      0.00000

 k-point    21 :       0.1000    0.1000    0.1250
  band No.  band energies     occupation 
      1     -40.3691      2.00000
      2     -40.2689      2.00000
      3     -40.2450      2.00000
      4     -40.1817      2.00000
      5     -40.1358      2.00000
      6     -40.0133      2.00000
      7       3.2591      2.00000
      8       5.7023      2.00000
      9       7.7656      2.00000
     10       8.2603      2.00000
     11       8.6675      2.00000
     12       8.9108      2.00000
     13       9.5445      2.00000
     14       9.7872      2.00000
     15      10.1195      2.00000
     16      10.4293      2.00000
     17      12.3052      2.00000
     18      14.8257      0.00000
     19      18.8274      0.00000
     20      28.1627      0.00000
     21      29.2547      0.00000
     22      29.7167      0.00000
     23      30.3368      0.00000
     24      32.0186      0.00000

 k-point    22 :       0.2000    0.1000    0.1250
  band No.  band energies     occupation 
      1     -40.4097      2.00000
      2     -40.3734      2.00000
      3     -40.3045      2.00000
      4     -40.2296      2.00000
      5     -40.1742      2.00000
      6     -40.0263      2.00000
      7       4.4532      2.00000
      8       6.3690      2.00000
      9       7.3885      2.00000
     10       7.6116      2.00000
     11       8.2484      2.00000
     12       8.9692      2.00000
     13       9.7608      2.00000
     14       9.9267      2.00000
     15      10.9219      2.00000
     16      11.1977      2.00000
     17      12.3084      2.00000
     18      16.1172      0.00000
     19      19.5745      0.00000
     20      25.4578      0.00000
     21      27.2742      0.00000
     22      28.8630      0.00000
     23      30.4585      0.00000
     24      32.4833      0.00000

 k-point    23 :       0.3000    0.1000    0.1250
  band No.  band energies     occupation 
      1     -40.5352      2.00000
      2     -40.4919      2.00000
      3     -40.2809      2.00000
      4     -40.2502      2.00000
      5     -40.2104      2.00000
      6     -40.0487      2.00000
      7       5.4018      2.00000
      8       6.0834      2.00000
      9       6.8061      2.00000
     10       7.7774      2.00000
     11       8.7316      2.00000
     12       9.1441      2.00000
     13       9.4079      2.00000
     14      10.8459      2.00000
     15      12.0663      2.00000
     16      12.1336      2.00000
     17      12.9122      0.00000
     18      17.2503      0.00000
     19      20.4980      0.00000
     20      22.1327      0.00000
     21      25.0702      0.00000
     22      27.2321      0.00000
     23      28.3775      0.00000
     24      30.3852      0.00000

 k-point    24 :       0.4000    0.1000    0.1250
  band No.  band energies     occupation 
      1     -40.6153      2.00000
      2     -40.5632      2.00000
      3     -40.3104      2.00000
      4     -40.2343      2.00000
      5     -40.2035      2.00000
      6     -40.0743      2.00000
      7       5.5598      2.00000
      8       5.7479      2.00000
      9       6.5783      2.00000
     10       7.9424      2.00000
     11       8.8068      2.00000
     12       9.4467      2.00000
     13       9.8714      2.00000
     14      12.0902      2.00000
     15      12.2193      2.00000
[...]
      1     -40.4718      2.00000
      2     -40.4718      2.00000
      3     -40.2046      2.00000
      4     -40.2046      2.00000
      5     -40.1403      2.00000
      6     -40.1403      2.00000
      7       5.5236      2.00000
      8       5.5236      2.00000
      9       7.1192      2.00000
     10       7.1192      2.00000
     11       9.2047      2.00000
     12       9.2047      2.00000
     13      10.3617      2.00000
     14      10.3617      2.00000
     15      11.6961      2.00000
     16      11.6961      2.00000
     17      12.3800      1.99918
     18      12.3800      1.99918
     19      24.3195      0.00000
     20      24.3195      0.00000
     21      27.3234      0.00000
     22      27.3234      0.00000
     23      31.2438      0.00000
     24      31.2438      0.00000

 k-point    61 :       0.4000    0.0000    0.5000
  band No.  band energies     occupation 
      1     -40.5891      2.00000
      2     -40.5891      2.00000
      3     -40.2346      2.00000
      4     -40.2346      2.00000
      5     -40.1257      2.00000
      6     -40.1257      2.00000
      7       5.3632      2.00000
      8       5.3632      2.00000
      9       6.8202      2.00000
     10       6.8202      2.00000
     11      10.4854      2.00000
     12      10.4854      2.00000
     13      10.8631      2.00000
     14      10.8631      2.00000
     15      12.5220      0.50187
     16      12.5220      0.50187
     17      13.1464      0.00000
     18      13.1464      0.00000
     19      21.3971      0.00000
     20      21.3971      0.00000
     21      27.0304      0.00000
     22      27.0304      0.00000
     23      29.4310      0.00000
     24      29.4310      0.00000

 k-point    62 :       0.5000    0.0000    0.5000
  band No.  band energies     occupation 
      1     -40.6336      2.00000
      2     -40.6336      2.00000
      3     -40.2461      2.00000
      4     -40.2461      2.00000
      5     -40.1199      2.00000
      6     -40.1199      2.00000
      7       5.2542      2.00000
      8       5.2542      2.00000
      9       6.7017      2.00000
     10       6.7017      2.00000
     11      10.4674      2.00000
     12      10.4674      2.00000
     13      11.4884      2.00000
     14      11.4884      2.00000
     15      12.9711      0.00000
     16      12.9711      0.00000
     17      14.1877      0.00000
     18      14.1877      0.00000
     19      19.4922      0.00000
     20      19.4922      0.00000
     21      26.9632      0.00000
     22      26.9632      0.00000
     23      28.6268      0.00000
     24      28.6268      0.00000

 k-point    63 :       0.1000    0.1000    0.5000
  band No.  band energies     occupation 
      1     -40.2889      2.00000
      2     -40.2889      2.00000
      3     -40.1683      2.00000
      4     -40.1683      2.00000
      5     -40.1509      2.00000
      6     -40.1509      2.00000
      7       4.8835      2.00000
      8       4.8835      2.00000
      9       7.5643      2.00000
     10       7.5643      2.00000
     11       8.3308      2.00000
     12       8.3308      2.00000
     13       9.4946      2.00000
     14       9.4946      2.00000
     15      11.4584      2.00000
     16      11.4584      2.00000
     17      11.9322      2.00000
     18      11.9322      2.00000
     19      25.4438      0.00000
     20      25.4438      0.00000
     21      29.0853      0.00000
     22      29.0853      0.00000
     23      30.2939      0.00000
     24      30.2939      0.00000

 k-point    64 :       0.2000    0.1000    0.5000
  band No.  band energies     occupation 
      1     -40.4102      2.00000
      2     -40.4102      2.00000
      3     -40.2087      2.00000
      4     -40.2087      2.00000
      5     -40.1414      2.00000
      6     -40.1414      2.00000
      7       5.6639      2.00000
      8       5.6639      2.00000
      9       7.3215      2.00000
     10       7.3215      2.00000
     11       8.2567      2.00000
     12       8.2567      2.00000
     13      10.1820      2.00000
     14      10.1820      2.00000
     15      11.6692      2.00000
     16      11.6692      2.00000
     17      12.2923      2.00000
     18      12.2923      2.00000
     19      25.3489      0.00000
     20      25.3489      0.00000
     21      27.8244      0.00000
     22      27.8244      0.00000
     23      29.4392      0.00000
     24      29.4392      0.00000

 k-point    65 :       0.3000    0.1000    0.5000
  band No.  band energies     occupation 
      1     -40.5332      2.00000
      2     -40.5332      2.00000
      3     -40.2506      2.00000
      4     -40.2506      2.00000
      5     -40.1257      2.00000
      6     -40.1257      2.00000
      7       5.7170      2.00000
      8       5.7170      2.00000
      9       7.0763      2.00000
     10       7.0763      2.00000
     11       9.3344      2.00000
     12       9.3344      2.00000
     13      10.3107      2.00000
     14      10.3107      2.00000
     15      12.3787      1.99928
     16      12.3787      1.99928
     17      13.2159      0.00000
     18      13.2159      0.00000
     19      23.0194      0.00000
     20      23.0194      0.00000
     21      27.2030      0.00000
     22      27.2030      0.00000
     23      28.3410      0.00000
     24      28.3410      0.00000

 k-point    66 :       0.4000    0.1000    0.5000
  band No.  band energies     occupation 
      1     -40.6084      2.00000
      2     -40.6084      2.00000
      3     -40.2764      2.00000
      4     -40.2764      2.00000
      5     -40.1153      2.00000
      6     -40.1153      2.00000
      7       5.5477      2.00000
      8       5.5477      2.00000
      9       6.8806      2.00000
     10       6.8806      2.00000
     11       9.8549      2.00000
     12       9.8549      2.00000
     13      11.0868      2.00000
     14      11.0868      2.00000
     15      12.4814      1.36668
     16      12.4814      1.36666
     17      14.9733      0.00000
     18      14.9733      0.00000
     19      20.1205      0.00000
     20      20.1205      0.00000
     21      27.0113      0.00000
     22      27.0113      0.00000
     23      27.5262      0.00000
     24      27.5262      0.00000

 k-point    67 :       0.2000    0.2000    0.5000
  band No.  band energies     occupation 
      1     -40.4957      2.00000
      2     -40.4957      2.00000
      3     -40.2743      2.00000
      4     -40.2743      2.00000
      5     -40.1236      2.00000
      6     -40.1236      2.00000
      7       6.1149      2.00000
      8       6.1149      2.00000
      9       7.5051      2.00000
     10       7.5051      2.00000
     11       8.1349      2.00000
     12       8.1349      2.00000
     13      10.0239      2.00000
     14      10.0239      2.00000
     15      12.4917      1.14625
     16      12.4917      1.14623
     17      13.3406      0.00000
     18      13.3406      0.00000
     19      24.2493      0.00000
     20      24.2493      0.00000
     21      26.4154      0.00000
     22      26.4154      0.00000
     23      27.9836      0.00000
     24      27.9836      0.00000

 k-point    68 :       0.3000    0.2000    0.5000
  band No.  band energies     occupation 
      1     -40.5551      2.00000
      2     -40.5551      2.00000
      3     -40.3359      2.00000
      4     -40.3359      2.00000
      5     -40.1100      2.00000
      6     -40.1100      2.00000
      7       6.1754      2.00000
      8       6.1754      2.00000
      9       7.3722      2.00000
     10       7.3722      2.00000
     11       8.7883      2.00000
     12       8.7883      2.00000
     13       9.9692      2.00000
     14       9.9692      2.00000
     15      12.5657      0.05656
     16      12.5657      0.05656
     17      15.5666      0.00000
     18      15.5666      0.00000
     19      21.5389      0.00000
     20      21.5389      0.00000
     21      24.9781      0.00000
     22      24.9781      0.00000
     23      28.3168      0.00000
     24      28.3168      0.00000

 k-point    69 :       0.4000    0.2000    0.5000
  band No.  band energies     occupation 
      1     -40.5758      2.00000
      2     -40.5758      2.00000
      3     -40.3614      2.00000
      4     -40.3614      2.00000
      5     -40.1049      2.00000
      6     -40.1049      2.00000
      7       6.1645      2.00000
      8       6.1645      2.00000
      9       7.2865      2.00000
     10       7.2865      2.00000
     11       8.8730      2.00000
     12       8.8730      2.00000
     13      10.4453      2.00000
     14      10.4453      2.00000
     15      12.4056      1.99120
     16      12.4056      1.99120
     17      17.2907      0.00000
     18      17.2907      0.00000
     19      19.5749      0.00000
     20      19.5749      0.00000
     21      24.3350      0.00000
     22      24.3350      0.00000
     23      28.7136      0.00000
     24      28.7136      0.00000

 k-point    70 :       0.3000    0.3000    0.5000
  band No.  band energies     occupation 
      1     -40.5293      2.00000
      2     -40.5293      2.00000
      3     -40.4281      2.00000
      4     -40.4281      2.00000
      5     -40.1012      2.00000
      6     -40.1012      2.00000
      7       6.6545      2.00000
      8       6.6545      2.00000
      9       7.5620      2.00000
     10       7.5620      2.00000
     11       8.4214      2.00000
     12       8.4214      2.00000
     13       9.8374      2.00000
     14       9.8374      2.00000
     15      12.3865      1.99842
     16      12.3865      1.99842
     17      18.1698      0.00000
     18      18.1698      0.00000
     19      20.2291      0.00000
     20      20.2291      0.00000
     21      22.5186      0.00000
     22      22.5186      0.00000
     23      29.8964      0.00000
     24      29.8964      0.00000


--------------------------------------------------------------------------------------------------------


 soft charge-density along one line, spin component           1
         0         1         2         3         4         5         6         7         8         9
 total charge-density along one line
 
 pseudopotential strength for first ion, spin component:           1
-31.275  -0.000   0.000  10.327   0.000  -0.000  -0.000  -0.000
 -0.000 -31.209  -0.000   0.000  10.261   0.000   0.000  -0.000
  0.000  -0.000 -31.275  -0.000   0.000  10.327  -0.000   0.000
 10.327   0.000  -0.000  16.415  -0.000   0.000   0.000   0.000
  0.000  10.261   0.000  -0.000  16.438  -0.000  -0.000  -0.000
 -0.000   0.000  10.327   0.000  -0.000  16.415  -0.000  -0.000
 -0.000   0.000  -0.000   0.000  -0.000  -0.000  -3.450   0.000
 -0.000  -0.000   0.000   0.000  -0.000  -0.000   0.000  -3.405
 -0.000  -0.000   0.000   0.000   0.000  -0.000  -0.000   0.000
  0.000   0.000   0.000  -0.000   0.000  -0.000  -0.000   0.000
 -0.000   0.000  -0.000  -0.000  -0.000   0.000  -0.000   0.000
 -0.000   0.000  -0.000   0.000  -0.000  -0.000  -3.647   0.000
 -0.000  -0.000   0.000   0.000  -0.000  -0.000   0.000  -3.597
 -0.000  -0.000   0.000   0.000   0.000  -0.000  -0.000   0.000
  0.000   0.000   0.000  -0.000   0.000  -0.000  -0.000   0.000
 -0.000   0.000  -0.000  -0.000  -0.000   0.000  -0.000   0.000
 -0.000   0.000   0.000  -0.000   0.000   0.000  -0.000   0.000
  0.000  -0.000  -0.000   0.000  -0.000  -0.000   0.000  -0.000
 total augmentation occupancy for first ion, spin component:           1
  2.003   0.000  -0.000  -0.022  -0.000   0.000   0.000   0.000  -0.000   0.000   0.005  -0.000  -0.000   0.000   0.000  -0.004
  0.000   2.002   0.000  -0.000  -0.020  -0.000   0.000   0.000   0.000   0.000  -0.000  -0.000   0.000   0.000  -0.000  -0.000
 -0.000   0.000   2.003   0.000   0.000  -0.022   0.005  -0.000   0.000  -0.000   0.000  -0.004   0.000  -0.000   0.000  -0.000
 -0.022  -0.000   0.000   0.057   0.000   0.000  -0.000  -0.000   0.000   0.000  -0.029  -0.000   0.000  -0.000   0.000   0.028
  0.000  -0.020   0.000  -0.000   0.048   0.000   0.000   0.000   0.000  -0.000  -0.000   0.000  -0.000   0.000   0.000  -0.000
  0.000  -0.000  -0.022  -0.000   0.000   0.057  -0.029   0.000  -0.000   0.000  -0.000   0.028   0.000   0.000   0.000   0.000
  0.000   0.000   0.005  -0.000   0.000  -0.029   5.879   0.000   0.000   0.000   0.000  -3.410  -0.000  -0.000   0.000  -0.000
  0.000   0.000   0.000  -0.000  -0.000   0.000   0.000   5.049  -0.000   0.000  -0.000  -0.000  -2.969  -0.000   0.000   0.000
 -0.000   0.000   0.000   0.000   0.000  -0.000   0.000  -0.000   5.945  -0.000  -0.000  -0.000  -0.000  -3.475   0.000   0.000
  0.000   0.000  -0.000   0.000  -0.000   0.000   0.000   0.000   0.000   5.049  -0.000   0.000   0.000   0.000  -2.969  -0.000
  0.005  -0.000   0.000  -0.029   0.000  -0.000   0.000   0.000  -0.000   0.000   5.879  -0.000  -0.000   0.000  -0.000  -3.410
 -0.000   0.000  -0.004   0.000   0.000   0.028  -3.410  -0.000  -0.000   0.000  -0.000   2.705  -0.000   0.000   0.000   0.000
  0.000   0.000   0.000   0.000  -0.000   0.000   0.000  -2.969  -0.000   0.000  -0.000   0.000   2.753   0.000  -0.000  -0.000
  0.000   0.000  -0.000  -0.000   0.000   0.000  -0.000   0.000  -3.475   0.000   0.000   0.000   0.000   2.759  -0.000  -0.000
  0.000  -0.000   0.000   0.000   0.000   0.000   0.000   0.000   0.000  -2.969   0.000   0.000  -0.000   0.000   2.753   0.000
 -0.004   0.000  -0.000   0.028  -0.000   0.000  -0.000   0.000   0.000  -0.000  -3.410   0.000   0.000  -0.000   0.000   2.705
 -0.000   0.000   0.000  -0.000   0.000   0.000  -0.000  -0.000  -0.233   0.000   0.000   0.000   0.000   0.214   0.000  -0.000
  0.000   0.000   0.000   0.000   0.000   0.000  -0.000   0.000   0.004   0.000   0.000   0.000  -0.000   0.001   0.000  -0.000


------------------------ aborting loop because EDIFF is reached ----------------------------------------





 total charge

# of ion       s       p       d       tot
------------------------------------------
    1        0.354   6.095   7.085  13.534
    2        0.354   6.095   7.085  13.534
--------------------------------------------------
tot          0.708  12.190  14.170  27.068
 
    CHARGE:  cpu time      0.0187: real time      0.0187
    FORLOC:  cpu time      0.0002: real time      0.0002
    FORNL :  cpu time      0.0152: real time      0.0153
    STRESS:  cpu time      0.1676: real time      0.1685
    FORCOR:  cpu time      0.0027: real time      0.0027
    FORHAR:  cpu time      0.0006: real time      0.0006
    MIXING:  cpu time      0.0002: real time      0.0002
    OFIELD:  cpu time      0.0000: real time      0.0000

  FORCE on cell =-STRESS in cart. coord.  units (eV):
  Direction    XX          YY          ZZ          XY          YZ          ZX
  --------------------------------------------------------------------------------------
  Alpha Z   325.73633   325.73633   325.73633
  Ewald   -1408.06532 -1408.06532 -1524.81947     0.00000     0.00000    -0.00000
  Hartree   261.63764   261.63764   212.19222    -0.00000    -0.00000    -0.00000
  E(xc)    -171.36853  -171.36854  -171.60373    -0.00000    -0.00000    -0.00000
  Local     210.98306   210.98303   364.34492    -0.00003    -0.00000    -0.00000
  n-local   -55.94295   -58.57964   -59.49425   -13.65412     3.71216     3.37232
  augment   145.45964   145.45965   149.10112     0.00001    -0.00000    -0.00000
  Kinetic   699.27483   693.40697   707.54008   -17.70586     3.83628     1.01578
  Fock        0.00000     0.00000     0.00000     0.00000     0.00000     0.00000
  -------------------------------------------------------------------------------------
  Total       3.46241     3.46241     2.99722     0.00000     0.00000    -0.00000
  in kB     188.28162   188.28162   162.98498     0.00000     0.00000    -0.00000
  external pressure =      179.85 kB  Pullay stress =        0.00 kB


 VOLUME and BASIS-vectors are now :
 -----------------------------------------------------------------------------
  energy-cutoff  :      450.00
  volume of cell :       29.46
      direct lattice vectors                 reciprocal lattice vectors
     2.697912679  0.000000000  0.000000000     0.370656918  0.213998872  0.000000000
    -1.348956340  2.336460918  0.000000000     0.000000000  0.427997743  0.000000000
     0.000000000  0.000000000  4.674070843     0.000000000  0.000000000  0.213946265

  length of vectors
     2.697912679  2.697912679  4.674070843     0.427997743  0.427997743  0.213946265


 FORCES acting on ions
    electron-ion (+dipol)            ewald-force                    non-local-force                 convergence-correction
 -----------------------------------------------------------------------------------------------
   -.257E-06 0.148E-06 0.802E-13   0.186E-11 -.113E-11 -.713E-13   0.694E-17 0.000E+00 0.000E+00   -.102E-08 0.587E-09 -.251E-13
   0.353E-06 -.204E-06 -.281E-11   -.183E-11 0.113E-11 0.713E-13   0.000E+00 0.000E+00 0.000E+00   0.102E-08 -.590E-09 -.146E-12
 -----------------------------------------------------------------------------------------------
   0.955E-07 -.552E-07 -.273E-11   0.295E-13 -.763E-16 0.000E+00   0.694E-17 0.000E+00 0.000E+00   0.604E-11 -.345E-11 -.171E-12
 
 
 POSITION                                       TOTAL-FORCE (eV/Angst)
 -----------------------------------------------------------------------------------
      0.00000      0.00000      0.00000         0.000000     -0.000000      0.000000
      0.00000      1.55764      2.33704        -0.000000      0.000000      0.000000
 -----------------------------------------------------------------------------------
    total drift:                                0.000000     -0.000000     -0.000000


--------------------------------------------------------------------------------------------------------



  FREE ENERGIE OF THE ION-ELECTRON SYSTEM (eV)
  ---------------------------------------------------
  free  energy   TOTEN  =       -11.91824979 eV

  energy  without entropy=      -11.91408728  energy(sigma->0) =      -11.91616853
 


--------------------------------------------------------------------------------------------------------


    POTLOK:  cpu time      0.0051: real time      0.0052


--------------------------------------------------------------------------------------------------------




--------------------------------------------------------------------------------------------------------


  
 reached required accuracy - stopping structural energy minimisation
 writing wavefunctions
     LOOP+:  cpu time      4.9525: real time      5.1683
    4ORBIT:  cpu time      0.0000: real time      0.0000



 total charge

# of ion       s       p       d       tot
------------------------------------------
    1        0.354   6.095   7.085  13.534
    2        0.354   6.095   7.085  13.534
--------------------------------------------------
tot          0.708  12.190  14.170  27.068
 

 total amount of memory used by VASP MPI-rank0    38627. kBytes
=======================================================================

   base      :      30000. kBytes
   nonl-proj :       6795. kBytes
   fftplans  :        226. kBytes
   grid      :        769. kBytes
   one-center:         31. kBytes
   wavefun   :        806. kBytes
 
  
  
 General timing and accounting informations for this job:
 ========================================================
  
                  Total CPU time used (sec):        5.872
                            User time (sec):        5.356
                          System time (sec):        0.516
                         Elapsed time (sec):        7.226
  
                   Maximum memory used (kb):      236116.
                   Average memory used (kb):          N/A
  
                          Minor page faults:        28562
                          Major page faults:           71
                 Voluntary context switches:         2632
