Pt-hcc                                  
   1.00000000000000     
     2.532734    0.000000    0.000000
    -1.266367    2.193412    0.000000
     0.000000    0.000000    4.387903
   Pt
     2
Direct
  0.000000  0.000000  0.000000
  0.333333  0.666667  0.500000
 
   36   36   60
  213.84      213.56      212.23      208.51      200.77      187.76      169.20      146.04      120.32      94.650    
  71.491      52.554      38.484      28.902      22.724      18.683      16.149      14.783      14.354      14.783    
  16.149      18.683      22.724      28.902      38.484      52.554      71.491      94.650      120.32      146.04    
  169.20      187.76      200.77      208.51      212.23      213.56      213.56      213.56      212.75      210.19    
  204.38      193.86      177.85      156.73      132.04      106.17      81.708      60.751      44.453      32.895    
  25.288      20.366      17.160      15.268      14.400      14.400      15.268      17.160      20.366      25.288    
  32.895      44.453      60.751      81.708      106.17      132.04      156.73      177.85      193.86      204.38    
  210.19      212.75      212.23      212.76      212.23      210.19      205.48      196.71      182.86      163.83    
  140.68      115.43      90.545      68.325      50.304      36.997      27.960      22.105      18.242      15.822    
  14.517      14.108      14.517      15.822      18.242      22.105      27.960      36.997      50.304      68.325    
  90.545      115.43      140.68      163.83      182.86      196.71      205.48      210.19      208.51      210.21    
  210.21      208.51      204.38      196.71      184.49      167.36      145.95      121.86      97.328      74.632    
  55.529      40.882      30.589      23.806      19.334      16.413      14.691      13.901      13.901      14.691    
  16.413      19.334      23.806      30.589      40.882      55.529      74.632      97.328      121.86      145.95    
  167.36      184.49      196.71      204.38      200.77      204.41      205.53      204.41      200.77      193.86    
  182.86      167.36      147.71      125.15      101.58      79.142      59.651      44.194      32.968      25.383    
  20.367      17.003      14.900      13.768      13.412      13.768      14.900      17.003      20.367      25.383    
  32.968      44.194      59.651      79.142      101.58      125.15      147.71      167.36      182.86      193.86    
  187.76      193.89      196.77      196.77      193.89      187.76      177.85      163.83      145.95      125.15    
  103.03      81.489      62.286      46.609      34.870      26.719      21.266      17.545      15.119      13.690    
  13.034      13.034      13.690      15.119      17.545      21.266      26.719      34.870      46.609      62.286    
  81.489      103.03      125.15      145.95      163.83      177.85      169.20      177.88      182.92      184.56    
  182.92      177.88      169.20      156.73      140.68      121.86      101.58      81.489      63.192      47.882    
  36.101      27.695      21.964      17.997      15.321      13.651      12.750      12.467      12.750      13.651    
  15.320      17.997      21.964      27.695      36.101      47.882      63.192      81.489      101.58      121.86    
  140.68      156.73      146.04      156.75      163.88      167.43      167.43      163.88      156.75      146.04    
  132.04      115.43      97.328      79.142      62.286      47.882      36.527      28.211      22.408      18.321    
  15.483      13.635      12.544      12.042      12.042      12.544      13.635      15.483      18.321      22.408    
  28.211      36.527      47.882      62.286      79.142      97.328      115.43      132.04      120.32      132.04    
  140.71      145.99      147.76      145.99      140.71      132.04      120.32      106.17      90.545      74.632    
  59.651      46.609      36.101      28.211      22.560      18.490      15.587      13.630      12.404      11.739    
  11.529      11.739      12.404      13.630      15.587      18.490      22.560      28.211      36.101      46.609    
  59.651      74.632      90.545      106.17      94.650      106.16      115.42      121.86      125.15      125.15    
  121.86      115.42      106.16      94.650      81.708      68.325      55.529      44.194      34.870      27.695    
  22.408      18.490      15.623      13.629      12.322      11.543      11.182      11.182      11.543      12.322    
  13.629      15.623      18.490      22.408      27.695      34.870      44.194      55.529      68.325      81.708    
  71.491      81.679      90.500      97.277      101.53      102.98      101.53      97.277      90.500      81.679    
  71.491      60.751      50.304      40.882      32.968      26.719      21.964      18.321      15.587      13.629    
  12.295      11.447      10.981      10.832      10.981      11.447      12.295      13.629      15.587      18.321    
  21.964      26.719      32.968      40.882      50.304      60.751      52.554      60.711      68.255      74.541    
  79.040      81.383      81.383      79.040      74.541      68.255      60.711      52.554      44.453      36.997    
  30.589      25.383      21.266      17.997      15.483      13.630      12.322      11.447      10.915      10.664    
  10.664      10.915      11.447      12.322      13.630      15.483      17.997      21.266      25.383      30.589    
  36.997      44.453      38.484      44.410      50.221      55.415      59.514      62.136      63.038      62.136    
  59.514      55.415      50.221      44.410      38.484      32.895      27.960      23.806      20.367      17.545    
  15.321      13.635      12.404      11.543      10.981      10.664      10.562      10.664      10.981      11.543    
  12.404      13.635      15.320      17.545      20.367      23.806      27.960      32.895      28.902      32.854    
  36.914      40.761      44.043      46.437      47.699      47.699      46.437      44.043      40.761      36.914    
  32.854      28.902      25.288      22.105      19.334      17.003      15.119      13.651      12.544      11.739    
  11.182      10.832      10.664      10.664      10.832      11.182      11.739      12.544      13.651      15.119    
  17.003      19.334      22.105      25.288      22.724      25.252      27.885      30.477      32.821      34.698    
  35.912      36.333      35.912      34.698      32.821      30.477      27.885      25.252      22.724      20.366    
  18.242      16.413      14.900      13.690      12.750      12.042      11.529      11.182      10.981      10.915    
  10.981      11.182      11.529      12.042      12.750      13.690      14.900      16.413      18.242      20.366    
  18.683      20.337      22.043      23.711      25.255      26.565      27.521      28.026      28.026      27.521    
  26.565      25.255      23.711      22.043      20.337      18.683      17.160      15.822      14.691      13.768    
  13.034      12.467      12.042      11.739      11.543      11.447      11.447      11.543      11.739      12.042    
  12.467      13.034      13.768      14.691      15.822      17.160      16.149      17.138      18.193      19.258    
  20.264      21.138      21.817      22.248      22.396      22.248      21.817      21.138      20.264      19.258    
  18.193      17.138      16.149      15.268      14.517      13.901      13.412      13.034      12.750      12.544    
  12.404      12.322      12.295      12.322      12.404      12.544      12.750      13.034      13.412      13.901    
  14.517      15.268      14.783      15.250      15.784      16.354      16.922      17.444      17.880      18.192    
  18.355      18.355      18.192      17.880      17.444      16.922      16.354      15.784      15.250      14.783    
  14.400      14.108      13.901      13.768      13.690      13.651      13.635      13.630      13.629      13.629    
  13.630      13.635      13.651      13.690      13.768      13.901      14.108      14.400      14.354      14.385    
  14.486      14.644      14.838      15.042      15.231      15.384      15.483      15.517      15.483      15.384    
  15.231      15.042      14.838      14.644      14.486      14.385      14.354      14.400      14.517      14.691    
  14.900      15.119      15.321      15.483      15.587      15.623      15.587      15.483      15.321      15.119    
  14.900      14.691      14.517      14.400      14.783      14.385      14.079      13.860      13.717      13.630    
  13.583      13.561      13.552      13.549      13.549      13.552      13.561      13.583      13.630      13.716    
  13.860      14.079      14.385      14.783      15.268      15.822      16.413      17.003      17.545      17.997    
  18.321      18.490      18.490      18.321      17.997      17.545      17.003      16.413      15.822      15.268    
  16.149      15.250      14.486      13.860      13.365      12.983      12.696      12.488      12.346      12.264    
  12.237      12.264      12.346      12.488      12.696      12.983      13.365      13.860      14.486      15.250    
  16.149      17.160      18.242      19.334      20.367      21.266      21.964      22.408      22.560      22.408    
  21.964      21.266      20.367      19.334      18.242      17.160      18.683      17.138      15.784      14.644    
  13.717      12.983      12.418      11.995      11.694      11.500      11.405      11.405      11.500      11.694    
  11.995      12.418      12.983      13.716      14.644      15.784      17.138      18.683      20.366      22.105    
  23.806      25.383      26.719      27.695      28.211      28.211      27.695      26.719      25.383      23.806    
  22.105      20.366      22.724      20.337      18.193      16.354      14.838      13.630      12.696      11.995    
  11.489      11.147      10.949      10.884      10.949      11.147      11.489      11.995      12.696      13.630    
  14.838      16.354      18.193      20.337      22.724      25.288      27.960      30.589      32.968      34.870    
  36.101      36.527      36.101      34.870      32.968      30.589      27.960      25.288      28.902      25.252    
  22.043      19.258      16.922      15.042      13.583      12.488      11.694      11.147      10.804      10.639    
  10.639      10.804      11.147      11.694      12.488      13.583      15.042      16.922      19.258      22.043    
  25.252      28.902      32.895      36.997      40.882      44.194      46.609      47.882      47.882      46.609    
  44.194      40.882      36.997      32.895      38.484      32.854      27.885      23.711      20.264      17.444    
  15.231      13.561      12.346      11.500      10.949      10.639      10.539      10.639      10.949      11.500    
  12.346      13.561      15.231      17.444      20.264      23.711      27.885      32.854      38.484      44.453    
  50.304      55.529      59.651      62.286      63.192      62.286      59.651      55.529      50.304      44.453    
  52.554      44.410      36.914      30.477      25.255      21.138      17.880      15.384      13.552      12.264    
  11.405      10.884      10.639      10.639      10.884      11.405      12.264      13.552      15.384      17.880    
  21.138      25.255      30.477      36.914      44.410      52.554      60.751      68.325      74.632      79.142    
  81.489      81.489      79.142      74.632      68.325      60.751      71.491      60.711      50.221      40.761    
  32.821      26.565      21.817      18.192      15.482      13.549      12.237      11.405      10.949      10.804    
  10.949      11.405      12.237      13.549      15.483      18.192      21.817      26.565      32.821      40.761    
  50.221      60.711      71.491      81.708      90.545      97.328      101.58      103.03      101.58      97.328    
  90.545      81.708      94.650      81.679      68.255      55.415      44.043      34.698      27.521      22.248    
  18.355      15.517      13.549      12.264      11.500      11.147      11.147      11.500      12.264      13.549    
  15.517      18.355      22.248      27.521      34.698      44.043      55.415      68.255      81.679      94.650    
  106.17      115.43      121.86      125.15      125.15      121.86      115.43      106.17      120.32      106.16    
  90.500      74.541      59.514      46.437      35.912      28.026      22.396      18.355      15.482      13.552    
  12.346      11.694      11.489      11.694      12.346      13.552      15.483      18.355      22.396      28.026    
  35.912      46.437      59.514      74.541      90.500      106.16      120.32      132.04      140.68      145.95    
  147.71      145.95      140.68      132.04      146.04      132.04      115.42      97.277      79.040      62.136    
  47.699      36.333      28.026      22.248      18.192      15.384      13.561      12.488      11.995      11.995    
  12.488      13.561      15.384      18.192      22.248      28.026      36.333      47.699      62.136      79.040    
  97.277      115.42      132.04      146.04      156.73      163.83      167.36      167.36      163.83      156.73    
  169.20      156.75      140.71      121.86      101.53      81.383      63.038      47.699      35.912      27.521    
  21.817      17.880      15.231      13.583      12.696      12.418      12.696      13.583      15.231      17.880    
  21.817      27.521      35.912      47.699      63.038      81.383      101.53      121.86      140.71      156.75    
  169.20      177.85      182.86      184.49      182.86      177.85      187.76      177.88      163.88      145.99    
  125.15      102.98      81.383      62.136      46.437      34.698      26.565      21.138      17.444      15.042    
  13.630      12.983      12.983      13.630      15.042      17.444      21.138      26.565      34.698      46.437    
  62.136      81.383      102.98      125.15      145.99      163.88      177.88      187.76      193.86      196.71    
  196.71      193.86      200.77      193.89      182.92      167.43      147.76      125.15      101.53      79.040    
  59.514      44.043      32.821      25.255      20.264      16.922      14.838      13.717      13.365      13.717    
  14.838      16.922      20.264      25.255      32.821      44.043      59.514      79.040      101.53      125.15    
  147.76      167.43      182.92      193.89      200.77      204.38      205.48      204.38      208.51      204.41    
  196.77      184.56      167.43      145.99      121.86      97.277      74.541      55.415      40.761      30.477    
  23.711      19.258      16.354      14.644      13.860      13.860      14.644      16.354      19.258      23.711    
  30.477      40.761      55.415      74.541      97.277      121.86      145.99      167.43      184.56      196.77    
  204.41      208.51      210.19      210.19      212.23      210.21      205.53      196.77      182.92      163.88    
  140.71      115.42      90.500      68.255      50.221      36.914      27.885      22.043      18.193      15.784    
  14.486      14.079      14.486      15.784      18.193      22.043      27.885      36.914      50.221      68.255    
  90.500      115.42      140.71      163.88      182.92      196.77      205.53      210.21      212.23      212.75    
  213.56      212.76      210.21      204.41      193.89      177.88      156.75      132.04      106.16      81.679    
  60.711      44.410      32.854      25.252      20.337      17.138      15.250      14.385      14.385      15.250    
  17.138      20.337      25.252      32.854      44.410      60.711      81.679      106.16      132.04      156.75    
  177.88      193.89      204.41      210.21      212.76      213.56      213.69      213.35      211.82      207.82    
  199.77      186.48      167.74      144.52      118.88      93.395      70.487      51.814      37.977      28.569    
  22.496      18.513      16.017      14.672      14.250      14.672      16.017      18.513      22.496      28.569    
  37.977      51.814      70.487      93.395      118.88      144.52      167.74      186.48      199.77      207.82    
  211.82      213.35      213.35      213.35      212.40      209.61      203.50      192.68      176.45      155.21    
  130.54      104.82      80.581      59.888      43.841      32.486      25.016      20.170      17.011      15.148    
  14.293      14.293      15.148      17.011      20.170      25.016      32.486      43.841      59.888      80.581    
  104.82      130.54      155.21      176.45      192.68      203.50      209.61      212.40      211.82      212.41    
  211.82      209.61      204.65      195.60      181.51      162.34      139.17      114.01      89.324      67.357    
  49.595      36.511      27.639      21.882      18.075      15.691      14.406      14.003      14.406      15.691    
  18.075      21.882      27.639      36.511      49.595      67.357      89.324      114.01      139.17      162.34    
  181.51      195.60      204.65      209.61      207.82      209.63      209.63      207.82      203.50      195.60    
  183.16      165.88      144.42      120.41      96.043      73.583      54.738      40.326      30.218      23.556    
  19.150      16.271      14.575      13.797      13.797      14.575      16.271      19.150      23.556      30.218    
  40.326      54.738      73.583      96.043      120.41      144.42      165.88      183.16      195.60      203.50    
  199.77      203.53      204.69      203.53      199.77      192.68      181.51      165.88      146.19      123.68    
  100.26      78.039      58.798      43.581      32.551      25.104      20.166      16.850      14.779      13.663    
  13.313      13.663      14.779      16.850      20.166      25.104      32.551      43.581      58.798      78.039    
  100.26      123.68      146.19      165.88      181.51      192.68      186.48      192.72      195.66      195.66    
  192.72      186.48      176.45      162.34      144.42      123.68      101.69      80.359      61.395      45.955    
  34.418      26.415      21.051      17.383      14.992      13.585      12.939      12.939      13.585      14.992    
  17.383      21.051      26.415      34.418      45.955      61.395      80.359      101.69      123.68      144.42    
  162.34      176.45      167.74      176.49      181.58      183.24      181.58      176.49      167.74      155.21    
  139.17      120.41      100.26      80.359      62.288      47.206      35.625      27.372      21.738      17.827    
  15.189      13.544      12.657      12.378      12.657      13.544      15.189      17.827      21.738      27.372    
  35.625      47.206      62.288      80.359      100.26      120.41      139.17      155.21      144.52      155.24    
  162.40      165.96      165.96      162.40      155.24      144.52      130.54      114.01      96.043      78.039    
  61.395      47.206      36.043      27.878      22.174      18.145      15.348      13.526      12.451      11.957    
  11.957      12.451      13.526      15.348      18.145      22.174      27.878      36.043      47.206      61.395    
  78.039      96.043      114.01      130.54      118.88      130.55      139.20      144.48      146.25      144.48    
  139.20      130.55      118.88      104.82      89.324      73.583      58.798      45.955      35.625      27.878    
  22.324      18.312      15.450      13.521      12.311      11.656      11.449      11.656      12.311      13.521    
  15.450      18.312      22.324      27.878      35.625      45.955      58.798      73.583      89.324      104.82    
  93.395      104.81      114.01      120.42      123.70      123.70      120.42      114.01      104.81      93.395    
  80.581      67.357      54.738      43.581      34.418      27.372      22.174      18.312      15.485      13.519    
  12.230      11.461      11.105      11.105      11.461      12.230      13.519      15.485      18.312      22.174    
  27.372      34.418      43.581      54.738      67.357      80.581      70.487      80.558      89.291      96.008    
  100.23      101.66      100.23      96.008      89.291      80.558      70.487      59.888      49.595      40.326    
  32.551      26.415      21.738      18.145      15.450      13.519      12.203      11.366      10.905      10.759    
  10.905      11.366      12.203      13.519      15.450      18.145      21.738      26.415      32.551      40.326    
  49.595      59.888      51.814      59.854      67.298      73.509      77.958      80.276      80.276      77.958    
  73.509      67.298      59.854      51.814      43.840      36.511      30.218      25.104      21.051      17.827    
  15.348      13.521      12.230      11.366      10.840      10.592      10.592      10.840      11.366      12.230    
  13.521      15.348      17.827      21.051      25.104      30.218      36.511      43.841      37.977      43.803    
  49.523      54.640      58.681      61.269      62.159      61.269      58.681      54.640      49.523      43.803    
  37.977      32.486      27.639      23.556      20.166      17.383      15.189      13.526      12.311      11.461    
  10.905      10.592      10.491      10.592      10.905      11.461      12.311      13.526      15.189      17.383    
  20.166      23.556      27.639      32.486      28.569      32.450      36.438      40.220      43.449      45.806    
  47.048      47.048      45.806      43.449      40.220      36.438      32.450      28.569      25.016      21.882    
  19.150      16.850      14.992      13.544      12.451      11.656      11.105      10.759      10.592      10.592    
  10.759      11.105      11.656      12.451      13.544      14.992      16.850      19.150      21.882      25.016    
  22.496      24.986      27.574      30.120      32.423      34.267      35.461      35.874      35.461      34.267    
  32.423      30.120      27.574      24.986      22.496      20.170      18.075      16.271      14.779      13.585    
  12.657      11.957      11.449      11.105      10.905      10.840      10.905      11.105      11.449      11.957    
  12.657      13.585      14.779      16.271      18.075      20.170      18.513      20.145      21.829      23.473    
  24.993      26.281      27.221      27.718      27.718      27.221      26.281      24.993      23.473      21.829    
  20.145      18.513      17.011      15.691      14.575      13.663      12.939      12.378      11.957      11.656    
  11.461      11.366      11.366      11.461      11.656      11.957      12.378      12.939      13.663      14.575    
  15.691      17.011      16.017      16.992      18.034      19.085      20.078      20.942      21.612      22.038    
  22.184      22.038      21.612      20.942      20.078      19.085      18.034      16.992      16.017      15.148    
  14.406      13.797      13.313      12.939      12.657      12.451      12.311      12.230      12.203      12.230    
  12.311      12.451      12.657      12.939      13.313      13.797      14.406      15.148      14.672      15.133    
  15.660      16.223      16.784      17.300      17.730      18.039      18.200      18.200      18.039      17.730    
  17.300      16.784      16.223      15.660      15.133      14.672      14.293      14.003      13.797      13.663    
  13.585      13.544      13.526      13.521      13.519      13.519      13.521      13.526      13.544      13.585    
  13.663      13.797      14.003      14.293      14.250      14.281      14.382      14.539      14.730      14.932    
  15.119      15.270      15.368      15.401      15.368      15.270      15.119      14.932      14.730      14.539    
  14.382      14.281      14.250      14.293      14.406      14.575      14.779      14.992      15.189      15.348    
  15.450      15.485      15.450      15.348      15.189      14.992      14.779      14.575      14.406      14.293    
  14.672      14.281      13.981      13.767      13.626      13.541      13.495      13.473      13.464      13.462    
  13.462      13.464      13.473      13.495      13.541      13.626      13.767      13.981      14.281      14.672    
  15.148      15.691      16.271      16.850      17.383      17.827      18.145      18.312      18.312      18.145    
  17.827      17.383      16.850      16.271      15.691      15.148      16.017      15.133      14.382      13.767    
  13.279      12.903      12.620      12.415      12.275      12.194      12.167      12.194      12.275      12.415    
  12.620      12.903      13.279      13.767      14.382      15.133      16.017      17.011      18.075      19.150    
  20.166      21.051      21.738      22.174      22.324      22.174      21.738      21.051      20.166      19.150    
  18.075      17.011      18.513      16.992      15.660      14.539      13.626      12.903      12.346      11.929    
  11.632      11.440      11.346      11.346      11.440      11.632      11.929      12.346      12.903      13.626    
  14.539      15.660      16.992      18.513      20.170      21.882      23.556      25.104      26.415      27.372    
  27.878      27.878      27.372      26.415      25.104      23.556      21.882      20.170      22.496      20.145    
  18.034      16.223      14.730      13.541      12.620      11.929      11.429      11.091      10.895      10.831    
  10.895      11.091      11.429      11.929      12.620      13.541      14.730      16.223      18.034      20.145    
  22.496      25.016      27.639      30.218      32.551      34.418      35.625      36.043      35.625      34.418    
  32.551      30.218      27.639      25.016      28.569      24.986      21.829      19.085      16.784      14.932    
  13.495      12.415      11.632      11.091      10.752      10.589      10.589      10.752      11.091      11.632    
  12.415      13.495      14.932      16.784      19.085      21.829      24.986      28.569      32.486      36.511    
  40.326      43.581      45.955      47.206      47.206      45.955      43.581      40.326      36.511      32.486    
  37.977      32.450      27.574      23.473      20.078      17.300      15.119      13.473      12.275      11.440    
  10.895      10.589      10.490      10.589      10.895      11.440      12.275      13.473      15.119      17.300    
  20.078      23.473      27.574      32.450      37.977      43.840      49.595      54.738      58.798      61.395    
  62.288      61.395      58.798      54.738      49.595      43.841      51.814      43.803      36.438      30.120    
  24.993      20.942      17.730      15.270      13.464      12.194      11.346      10.831      10.589      10.589    
  10.831      11.346      12.194      13.464      15.270      17.730      20.942      24.993      30.120      36.438    
  43.803      51.814      59.888      67.357      73.583      78.039      80.359      80.359      78.039      73.583    
  67.357      59.888      70.487      59.854      49.523      40.220      32.423      26.281      21.612      18.039    
  15.368      13.462      12.167      11.346      10.895      10.752      10.895      11.346      12.167      13.462    
  15.368      18.039      21.612      26.281      32.423      40.220      49.523      59.854      70.487      80.581    
  89.324      96.043      100.26      101.69      100.26      96.043      89.324      80.581      93.395      80.558    
  67.298      54.640      43.449      34.267      27.221      22.038      18.200      15.401      13.462      12.194    
  11.440      11.091      11.091      11.440      12.194      13.462      15.401      18.200      22.038      27.221    
  34.267      43.449      54.640      67.298      80.558      93.395      104.82      114.01      120.41      123.68    
  123.68      120.41      114.01      104.82      118.88      104.81      89.291      73.509      58.681      45.806    
  35.461      27.718      22.184      18.200      15.368      13.464      12.275      11.632      11.429      11.632    
  12.275      13.464      15.368      18.200      22.184      27.718      35.461      45.806      58.681      73.509    
  89.291      104.81      118.88      130.54      139.17      144.42      146.19      144.42      139.17      130.54    
  144.52      130.55      114.01      96.008      77.958      61.269      47.048      35.874      27.718      22.038    
  18.039      15.270      13.473      12.415      11.929      11.929      12.415      13.473      15.270      18.039    
  22.038      27.718      35.874      47.048      61.269      77.958      96.008      114.01      130.55      144.52    
  155.21      162.34      165.88      165.88      162.34      155.21      167.74      155.24      139.20      120.42    
  100.23      80.276      62.159      47.048      35.461      27.221      21.612      17.730      15.119      13.495    
  12.620      12.346      12.620      13.495      15.119      17.730      21.612      27.221      35.461      47.048    
  62.159      80.276      100.23      120.42      139.20      155.24      167.74      176.45      181.51      183.16    
  181.51      176.45      186.48      176.49      162.40      144.48      123.70      101.66      80.276      61.269    
  45.806      34.267      26.281      20.942      17.300      14.932      13.541      12.903      12.903      13.541    
  14.932      17.300      20.942      26.281      34.267      45.806      61.269      80.276      101.66      123.70    
  144.48      162.40      176.49      186.48      192.68      195.60      195.60      192.68      199.77      192.72    