Pt-hcc                                  
   1.00000000000000     
     2.532734    0.000000    0.000000
    -1.266367    2.193412    0.000000
     0.000000    0.000000    4.387903
   Pt
     2
Direct
  0.000000  0.000000  0.000000
  0.333333  0.666667  0.500000
 
   36   36   60
 0.21383935231E+03 0.21356420651E+03 0.21223021819E+03 0.20850748833E+03 0.20076817061E+03
 0.18776146966E+03 0.16920070165E+03 0.14603948051E+03 0.12032101843E+03 0.94650196850E+02
 0.71490873640E+02 0.52554154196E+02 0.38484160199E+02 0.28902462267E+02 0.22724148213E+02
 0.18682627394E+02 0.16149072873E+02 0.14783055289E+02 0.14354393859E+02 0.14783055503E+02
 0.16149073154E+02 0.18682627535E+02 0.22724148073E+02 0.28902461871E+02 0.38484159762E+02
 0.52554154041E+02 0.71490874063E+02 0.94650197970E+02 0.12032102011E+03 0.14603948239E+03
 0.16920070328E+03 0.18776147069E+03 0.20076817089E+03 0.20850748802E+03 0.21223021764E+03
 0.21356420611E+03 0.21356420611E+03 0.21356419530E+03 0.21275253580E+03 0.21019280515E+03
 0.20438020430E+03 0.19385514390E+03 0.17784927061E+03 0.15672554341E+03 0.13203700765E+03
 0.10617050803E+03 0.81708044102E+02 0.60751032183E+02 0.44452867995E+02 0.32895158216E+02
 0.25287699101E+02 0.20365736764E+02 0.17160138058E+02 0.15268268863E+02 0.14400286424E+02
 0.14400285036E+02 0.15268265580E+02 0.17160135035E+02 0.20365736142E+02 0.25287701722E+02
 0.32895162993E+02 0.44452872441E+02 0.60751033847E+02 0.81708042299E+02 0.10617050486E+03
 0.13203700775E+03 0.15672555222E+03 0.17784929194E+03 0.19385517770E+03 0.20438024570E+03
 0.21019284550E+03 0.21275256527E+03 0.21223021764E+03 0.21275983887E+03 0.21223018463E+03
 0.21019278874E+03 0.20548394704E+03 0.19670845779E+03 0.18285740733E+03 0.16383439467E+03
 0.14068484377E+03 0.11542772529E+03 0.90545214042E+02 0.68325196278E+02 0.50304131975E+02
 0.36996547935E+02 0.27959559378E+02 0.22104756826E+02 0.18241713744E+02 0.15821873485E+02
 0.14517362543E+02 0.14107969354E+02 0.14517357918E+02 0.15821867191E+02 0.18241709982E+02
 0.22104758545E+02 0.27959566377E+02 0.36996556685E+02 0.50304137440E+02 0.68325194896E+02
 0.90545206439E+02 0.11542771717E+03 0.14068484427E+03 0.16383441266E+03 0.18285744702E+03
 0.19670851584E+03 0.20548401235E+03 0.21019284550E+03 0.20850748802E+03 0.21021176226E+03
 0.21021174595E+03 0.20850744410E+03 0.20438018729E+03 0.19670845926E+03 0.18448717140E+03
 0.16735868579E+03 0.14594824385E+03 0.12186105529E+03 0.97328198769E+02 0.74631951388E+02
 0.55529474929E+02 0.40881565441E+02 0.30589295962E+02 0.23806410665E+02 0.19334470529E+02
 0.16413275208E+02 0.14691228550E+02 0.13901302473E+02 0.13901299454E+02 0.14691221371E+02
 0.16413268405E+02 0.19334468706E+02 0.23806415686E+02 0.30589305587E+02 0.40881574162E+02
 0.55529476870E+02 0.74631943780E+02 0.97328184361E+02 0.12186104218E+03 0.14594824256E+03
 0.16735870473E+03 0.18448721244E+03 0.19670851584E+03 0.20438024570E+03 0.20076817089E+03
 0.20441037645E+03 0.20552578043E+03 0.20441035916E+03 0.20076814269E+03 0.19385514875E+03
 0.18285742718E+03 0.16735869981E+03 0.14771072559E+03 0.12514743362E+03 0.10158022626E+03
 0.79141814480E+02 0.59650583422E+02 0.44194271099E+02 0.32967717453E+02 0.25382773127E+02
 0.20367408876E+02 0.17002513173E+02 0.14900227428E+02 0.13767593487E+02 0.13412111621E+02
 0.13767588302E+02 0.14900220131E+02 0.17002508209E+02 0.20367409531E+02 0.25382779496E+02
 0.32967726023E+02 0.44194276241E+02 0.59650580213E+02 0.79141801449E+02 0.10158020673E+03
 0.12514741484E+03 0.14771071581E+03 0.16735870473E+03 0.18285744702E+03 0.19385517770E+03
 0.18776147069E+03 0.19389126697E+03 0.19676750416E+03 0.19676750520E+03 0.19389127078E+03
 0.18776147890E+03 0.17784930608E+03 0.16383443287E+03 0.14594826691E+03 0.12514743962E+03
 0.10302699650E+03 0.81488915882E+02 0.62285605607E+02 0.46609247420E+02 0.34870297865E+02
 0.26719341021E+02 0.21266413826E+02 0.17544956896E+02 0.15118672494E+02 0.13689919662E+02
 0.13034329424E+02 0.13034327458E+02 0.13689914787E+02 0.15118667298E+02 0.17544954176E+02
 0.21266415135E+02 0.26719345664E+02 0.34870303002E+02 0.46609249076E+02 0.62285600338E+02
 0.81488902208E+02 0.10302697557E+03 0.12514741484E+03 0.14594824256E+03 0.16383441266E+03
 0.17784929194E+03 0.16920070328E+03 0.17788300866E+03 0.18292018075E+03 0.18456129324E+03
 0.18292019944E+03 0.17788304232E+03 0.16920074548E+03 0.15672559552E+03 0.14068488211E+03
 0.12186107034E+03 0.10158022392E+03 0.81488909686E+02 0.63191599034E+02 0.47881900805E+02
 0.36100780332E+02 0.27695024076E+02 0.21964025397E+02 0.17996914435E+02 0.15320500907E+02
 0.13650716955E+02 0.12750264256E+02 0.12467342094E+02 0.12750262944E+02 0.13650714680E+02
 0.15320498347E+02 0.17996912487E+02 0.21964024932E+02 0.27695025501E+02 0.36100783144E+02
 0.47881903264E+02 0.63191598245E+02 0.81488902208E+02 0.10158020673E+03 0.12186104218E+03
 0.14068484427E+03 0.15672555222E+03 0.14603948239E+03 0.15674831727E+03 0.16388420594E+03
 0.16742629780E+03 0.16742631120E+03 0.16388424248E+03 0.15674836727E+03 0.14603953343E+03
 0.13203704879E+03 0.11542774177E+03 0.97328192008E+02 0.79141796657E+02 0.62285590143E+02
 0.47881894084E+02 0.36526515344E+02 0.28210600121E+02 0.22407535209E+02 0.18320955893E+02
 0.15482594252E+02 0.13634595213E+02 0.12544028609E+02 0.12042218307E+02 0.12042219120E+02
 0.12544030350E+02 0.13634596231E+02 0.15482593190E+02 0.18320952794E+02 0.22407531964E+02
 0.28210599613E+02 0.36526519813E+02 0.47881903264E+02 0.62285600338E+02 0.79141801449E+02
 0.97328184361E+02 0.11542771717E+03 0.13203700775E+03 0.12032102011E+03 0.13204278575E+03
 0.14070742322E+03 0.14598744439E+03 0.14775672438E+03 0.14598746664E+03 0.14070746014E+03
 0.13204282517E+03 0.12032104983E+03 0.10617051701E+03 0.90545199992E+02 0.74631924184E+02
 0.59650556525E+02 0.46609229899E+02 0.36100773493E+02 0.28210599419E+02 0.22559926237E+02
 0.18490030495E+02 0.15587201694E+02 0.13629949044E+02 0.12403758174E+02 0.11738818856E+02
 0.11529101488E+02 0.11738822859E+02 0.12403763572E+02 0.13629952203E+02 0.15587200279E+02
 0.18490025210E+02 0.22559920990E+02 0.28210599613E+02 0.36100783144E+02 0.46609249076E+02
 0.59650580213E+02 0.74631943780E+02 0.90545206439E+02 0.10617050486E+03 0.94650197970E+02
 0.10615752525E+03 0.11541567886E+03 0.12185688431E+03 0.12514989402E+03 0.12514989998E+03
 0.12185689920E+03 0.11541569496E+03 0.10615753350E+03 0.94650191978E+02 0.81708021067E+02
 0.68325163282E+02 0.55529443401E+02 0.44194249593E+02 0.34870288612E+02 0.27695023538E+02
 0.22407538012E+02 0.18490032648E+02 0.15623310392E+02 0.13629379367E+02 0.12322046668E+02
 0.11543148340E+02 0.11181863216E+02 0.11181866272E+02 0.11543155730E+02 0.12322054101E+02
 0.13629382397E+02 0.15623307142E+02 0.18490025210E+02 0.22407531964E+02 0.27695025501E+02
 0.34870303002E+02 0.44194276241E+02 0.55529476870E+02 0.68325194896E+02 0.81708042299E+02
 0.71490874063E+02 0.81678926444E+02 0.90499761252E+02 0.97276968489E+02 0.10152879081E+03
 0.10297614137E+03 0.10152878920E+03 0.97276962866E+02 0.90499748223E+02 0.81678903831E+02
 0.71490842642E+02 0.60750997818E+02 0.50304103281E+02 0.40881548399E+02 0.32967712663E+02
 0.26719344549E+02 0.21964032134E+02 0.18320962089E+02 0.15587206001E+02 0.13629381590E+02
 0.12295172868E+02 0.11447082451E+02 0.10980789144E+02 0.10832478869E+02 0.10980794947E+02
 0.11447090940E+02 0.12295179398E+02 0.13629382397E+02 0.15587200279E+02 0.18320952794E+02
 0.21964024932E+02 0.26719345664E+02 0.32967726023E+02 0.40881574162E+02 0.50304137440E+02
 0.60751033847E+02 0.52554154041E+02 0.60711488417E+02 0.68254867541E+02 0.74541337320E+02
 0.79040134912E+02 0.81382716884E+02 0.81382711393E+02 0.79040118945E+02 0.74541312464E+02
 0.68254836600E+02 0.60711455233E+02 0.52554123152E+02 0.44452848190E+02 0.36996542249E+02
 0.30589301827E+02 0.25382784798E+02 0.21266425812E+02 0.17996923776E+02 0.15482601015E+02
 0.13629954291E+02 0.12322050756E+02 0.11447084628E+02 0.10914918041E+02 0.10664190636E+02
 0.10664192949E+02 0.10914923834E+02 0.11447090940E+02 0.12322054101E+02 0.13629952203E+02
 0.15482593190E+02 0.17996912487E+02 0.21266415135E+02 0.25382779496E+02 0.30589305587E+02
 0.36996556685E+02 0.44452872441E+02 0.38484159762E+02 0.44409633515E+02 0.50221325091E+02
 0.55414875948E+02 0.59513769197E+02 0.62136055547E+02 0.63037950405E+02 0.62136041560E+02
 0.59513744767E+02 0.55414847108E+02 0.50221298577E+02 0.44409614985E+02 0.38484152343E+02
 0.32895166736E+02 0.27959578590E+02 0.23806432348E+02 0.20367426315E+02 0.17544967717E+02
 0.15320506987E+02 0.13634599822E+02 0.12403763311E+02 0.11543153337E+02 0.10980792208E+02
 0.10664191216E+02 0.10562094525E+02 0.10664192949E+02 0.10980794947E+02 0.11543155730E+02
 0.12403763572E+02 0.13634596231E+02 0.15320498347E+02 0.17544954176E+02 0.20367409531E+02
 0.23806415686E+02 0.27959566377E+02 0.32895162993E+02 0.28902461871E+02 0.32854029730E+02
 0.36913506032E+02 0.40760605463E+02 0.44042967682E+02 0.46437179760E+02 0.47699389349E+02
 0.47699383188E+02 0.46437163736E+02 0.44042948140E+02 0.40760590299E+02 0.36913501729E+02
 0.32854039036E+02 0.28902483036E+02 0.25287729613E+02 0.22104786705E+02 0.19334491506E+02
 0.17002522973E+02 0.15118674346E+02 0.13650716518E+02 0.12544030159E+02 0.11738822876E+02
 0.11181867227E+02 0.10832480132E+02 0.10664191216E+02 0.10664190636E+02 0.10832478869E+02
 0.11181866272E+02 0.11738822859E+02 0.12544030350E+02 0.13650714680E+02 0.15118667298E+02
 0.17002508209E+02 0.19334468706E+02 0.22104758545E+02 0.25287701722E+02 0.22724148073E+02
 0.25252285232E+02 0.27885235391E+02 0.30476699701E+02 0.32821467081E+02 0.34698122705E+02
 0.35912394018E+02 0.36332629259E+02 0.35912387471E+02 0.34698113925E+02 0.32821462779E+02
 0.30476705931E+02 0.27885254800E+02 0.25252315844E+02 0.22724183917E+02 0.20365769394E+02
 0.18241734250E+02 0.16413280928E+02 0.14900222207E+02 0.13689910889E+02 0.12750258305E+02
 0.12042217401E+02 0.11529103536E+02 0.11181867227E+02 0.10980792208E+02 0.10914918041E+02
 0.10980789144E+02 0.11181863216E+02 0.11529101488E+02 0.12042219120E+02 0.12750262944E+02
 0.13689914787E+02 0.14900220131E+02 0.16413268405E+02 0.18241709982E+02 0.20365736142E+02
 0.18682627535E+02 0.20337151468E+02 0.22043377217E+02 0.23710876226E+02 0.25255065607E+02
 0.26564619571E+02 0.27520951788E+02 0.28026466059E+02 0.28026465072E+02 0.27520950468E+02
 0.26564622011E+02 0.25255076132E+02 0.23710896936E+02 0.22043406434E+02 0.20337183751E+02
 0.18682655761E+02 0.17160153105E+02 0.15821872253E+02 0.14691214948E+02 0.13767575550E+02
 0.13034314753E+02 0.12467334418E+02 0.12042217401E+02 0.11738822876E+02 0.11543153337E+02
 0.11447084628E+02 0.11447082451E+02 0.11543148340E+02 0.11738818856E+02 0.12042218307E+02
 0.12467342094E+02 0.13034327458E+02 0.13767588302E+02 0.14691221371E+02 0.15821867191E+02
 0.17160135035E+02 0.16149073154E+02 0.17137676113E+02 0.18193222632E+02 0.19258123944E+02
 0.20263689710E+02 0.21138289403E+02 0.21816722569E+02 0.22248021502E+02 0.22396225699E+02
 0.22248023171E+02 0.21816727365E+02 0.21138299166E+02 0.20263705171E+02 0.19258143531E+02
 0.18193242388E+02 0.17137690828E+02 0.16149078193E+02 0.15268258899E+02 0.14517341153E+02
 0.13901277466E+02 0.13412090631E+02 0.13034314753E+02 0.12750258305E+02 0.12544030159E+02
 0.12403763311E+02 0.12322050756E+02 0.12295172868E+02 0.12322046668E+02 0.12403758174E+02
 0.12544028609E+02 0.12750264256E+02 0.13034329424E+02 0.13412111621E+02 0.13901299454E+02
 0.14517357918E+02 0.15268265580E+02 0.14783055503E+02 0.15250295015E+02 0.15783812215E+02
 0.16353816929E+02 0.16921672920E+02 0.17444381700E+02 0.17879894500E+02 0.18192167823E+02
 0.18355115717E+02 0.18355117207E+02 0.18192172247E+02 0.17879901517E+02 0.17444390317E+02
 0.16921681156E+02 0.16353821905E+02 0.15783810862E+02 0.15250285113E+02 0.14783036788E+02
 0.14400259706E+02 0.14107941643E+02 0.13901277466E+02 0.13767575550E+02 0.13689910889E+02
 0.13650716518E+02 0.13634599822E+02 0.13629954291E+02 0.13629381590E+02 0.13629379367E+02
 0.13629949044E+02 0.13634595213E+02 0.13650716955E+02 0.13689919662E+02 0.13767593487E+02
 0.13901302473E+02 0.14107969354E+02 0.14400285036E+02 0.14354393859E+02 0.14384662464E+02
 0.14485979129E+02 0.14644034881E+02 0.14837597451E+02 0.15041715498E+02 0.15231218810E+02
 0.15383843217E+02 0.15482501225E+02 0.15516582273E+02 0.15482504559E+02 0.15383848411E+02
 0.15231223317E+02 0.15041716312E+02 0.14837591993E+02 0.14644021732E+02 0.14485958475E+02
 0.14384636276E+02 0.14354365452E+02 0.14400259706E+02 0.14517341153E+02 0.14691214948E+02
 0.14900222207E+02 0.15118674346E+02 0.15320506987E+02 0.15482601015E+02 0.15587206001E+02
 0.15623310392E+02 0.15587201694E+02 0.15482594252E+02 0.15320500907E+02 0.15118672494E+02
 0.14900227428E+02 0.14691228550E+02 0.14517362543E+02 0.14400286424E+02 0.14783055289E+02
 0.14384660858E+02 0.14078873395E+02 0.13860497803E+02 0.13716507556E+02 0.13629847356E+02
 0.13583040275E+02 0.13560918382E+02 0.13552119455E+02 0.13549427206E+02 0.13549429201E+02
 0.13552124155E+02 0.13560922475E+02 0.13583039737E+02 0.13629839119E+02 0.13716490738E+02
 0.13860474181E+02 0.14078846914E+02 0.14384636276E+02 0.14783036788E+02 0.15268258899E+02
 0.15821872253E+02 0.16413280928E+02 0.17002522973E+02 0.17544967717E+02 0.17996923776E+02
 0.18320962089E+02 0.18490032648E+02 0.18490030495E+02 0.18320955893E+02 0.17996914435E+02
 0.17544956896E+02 0.17002513173E+02 0.16413275208E+02 0.15821873485E+02 0.15268268863E+02
 0.16149072873E+02 0.15250291221E+02 0.14485974199E+02 0.13860494714E+02 0.13364961340E+02
 0.12982974102E+02 0.12696098086E+02 0.12487960079E+02 0.12346434650E+02 0.12263998579E+02
 0.12236886855E+02 0.12264002819E+02 0.12346440186E+02 0.12487962399E+02 0.12696093330E+02
 0.12982960963E+02 0.13364941991E+02 0.13860474181E+02 0.14485958475E+02 0.15250285113E+02
 0.16149078193E+02 0.17160153105E+02 0.18241734250E+02 0.19334491506E+02 0.20367426315E+02
 0.21266425812E+02 0.21964032134E+02 0.22407538012E+02 0.22559926237E+02 0.22407535209E+02
 0.21964025397E+02 0.21266413826E+02 0.20367408876E+02 0.19334470529E+02 0.18241713744E+02
 0.17160138058E+02 0.18682627394E+02 0.17137672632E+02 0.15783805492E+02 0.14644027516E+02
 0.13716502471E+02 0.12982972328E+02 0.12417750912E+02 0.11995143002E+02 0.11694141574E+02
 0.11500254155E+02 0.11405121914E+02 0.11405124381E+02 0.11500259980E+02 0.11694146842E+02
 0.11995143582E+02 0.12417744750E+02 0.12982960963E+02 0.13716490738E+02 0.14644021732E+02
 0.15783810862E+02 0.17137690828E+02 0.18682655761E+02 0.20365769394E+02 0.22104786705E+02
 0.23806432348E+02 0.25382784798E+02 0.26719344549E+02 0.27695023538E+02 0.28210599419E+02
 0.28210600121E+02 0.27695024076E+02 0.26719341021E+02 0.25382773127E+02 0.23806410665E+02
 0.22104756826E+02 0.20365736764E+02 0.22724148213E+02 0.20337150793E+02 0.18193218586E+02
 0.16353809893E+02 0.14837590244E+02 0.13629842916E+02 0.12696097305E+02 0.11995144130E+02
 0.11488675664E+02 0.11146634370E+02 0.10948800676E+02 0.10884023818E+02 0.10948804498E+02
 0.11146639660E+02 0.11488679132E+02 0.11995143582E+02 0.12696093330E+02 0.13629839119E+02
 0.14837591993E+02 0.16353821905E+02 0.18193242388E+02 0.20337183751E+02 0.22724183917E+02
 0.25287729613E+02 0.27959578590E+02 0.30589301827E+02 0.32967712663E+02 0.34870288612E+02
 0.36100773493E+02 0.36526515344E+02 0.36100780332E+02 0.34870297865E+02 0.32967717453E+02
 0.30589295962E+02 0.27959559378E+02 0.25287699101E+02 0.28902462267E+02 0.25252288345E+02
 0.22043379015E+02 0.19258121940E+02 0.16921667888E+02 0.15041710639E+02 0.13583038713E+02
 0.12487962584E+02 0.11694146063E+02 0.11146637562E+02 0.10803824948E+02 0.10638869759E+02
 0.10638870730E+02 0.10803827207E+02 0.11146639660E+02 0.11694146842E+02 0.12487962399E+02
 0.13583039737E+02 0.15041716312E+02 0.16921681156E+02 0.19258143531E+02 0.22043406434E+02
 0.25252315844E+02 0.28902483036E+02 0.32895166736E+02 0.36996542249E+02 0.40881548399E+02
 0.44194249593E+02 0.46609229899E+02 0.47881894084E+02 0.47881900805E+02 0.46609247420E+02
 0.44194271099E+02 0.40881565441E+02 0.36996547935E+02 0.32895158216E+02 0.38484160199E+02
 0.32854035355E+02 0.27885242873E+02 0.23710881225E+02 0.20263690078E+02 0.17444378880E+02
 0.15231216630E+02 0.13560920154E+02 0.12346440788E+02 0.11500261925E+02 0.10948806458E+02
 0.10638871894E+02 0.10539003483E+02 0.10638870730E+02 0.10948804498E+02 0.11500259980E+02
 0.12346440186E+02 0.13560922475E+02 0.15231223317E+02 0.17444390317E+02 0.20263705171E+02
 0.23710896936E+02 0.27885254800E+02 0.32854039036E+02 0.38484152343E+02 0.44452848190E+02
 0.50304103281E+02 0.55529443401E+02 0.59650556525E+02 0.62285590143E+02 0.63191599034E+02
 0.62285605607E+02 0.59650583422E+02 0.55529474929E+02 0.50304131975E+02 0.44452867995E+02
 0.52554154196E+02 0.44409638679E+02 0.36913515508E+02 0.30476709558E+02 0.25255071577E+02
 0.21138290057E+02 0.17879892198E+02 0.15383842388E+02 0.13552123240E+02 0.12264006559E+02
 0.11405130501E+02 0.10884029234E+02 0.10638871894E+02 0.10638869759E+02 0.10884023818E+02
 0.11405124381E+02 0.12264002819E+02 0.13552124155E+02 0.15383848411E+02 0.17879901517E+02
 0.21138299166E+02 0.25255076132E+02 0.30476705931E+02 0.36913501729E+02 0.44409614985E+02
 0.52554123152E+02 0.60750997818E+02 0.68325163282E+02 0.74631924184E+02 0.79141796657E+02
 0.81488909686E+02 0.81488915882E+02 0.79141814480E+02 0.74631951388E+02 0.68325196278E+02
 0.60751032183E+02 0.71490873640E+02 0.60711490094E+02 0.50221331221E+02 0.40760614727E+02
 0.32821475425E+02 0.26564623225E+02 0.21816720963E+02 0.18192164119E+02 0.15482499973E+02
 0.13549430822E+02 0.12236893790E+02 0.11405130501E+02 0.10948806458E+02 0.10803824948E+02
 0.10948800676E+02 0.11405121914E+02 0.12236886855E+02 0.13549429201E+02 0.15482504559E+02
 0.18192172247E+02 0.21816727365E+02 0.26564622011E+02 0.32821462779E+02 0.40760590299E+02
 0.50221298577E+02 0.60711455233E+02 0.71490842642E+02 0.81708021067E+02 0.90545199992E+02
 0.97328192008E+02 0.10158022392E+03 0.10302699650E+03 0.10158022626E+03 0.97328198769E+02
 0.90545214042E+02 0.81708044102E+02 0.94650196850E+02 0.81678923559E+02 0.68254866449E+02
 0.55414878751E+02 0.44042973134E+02 0.34698127034E+02 0.27520951646E+02 0.22248016854E+02
 0.18355109938E+02 0.15516579487E+02 0.13549430822E+02 0.12264006559E+02 0.11500261925E+02
 0.11146637562E+02 0.11146634370E+02 0.11500254155E+02 0.12263998579E+02 0.13549427206E+02
 0.15516582273E+02 0.18355117207E+02 0.22248023171E+02 0.27520950468E+02 0.34698113925E+02
 0.44042948140E+02 0.55414847108E+02 0.68254836600E+02 0.81678903831E+02 0.94650191978E+02
 0.10617051701E+03 0.11542774177E+03 0.12186107034E+03 0.12514743962E+03 0.12514743362E+03
 0.12186105529E+03 0.11542772529E+03 0.10617050803E+03 0.12032101843E+03 0.10615751989E+03
 0.90499753401E+02 0.74541330850E+02 0.59513767126E+02 0.46437181383E+02 0.35912395472E+02
 0.28026463733E+02 0.22396219331E+02 0.18355109938E+02 0.15482499973E+02 0.13552123240E+02
 0.12346440788E+02 0.11694146063E+02 0.11488675664E+02 0.11694141574E+02 0.12346434650E+02
 0.13552119455E+02 0.15482501225E+02 0.18355115717E+02 0.22396225699E+02 0.28026465072E+02
 0.35912387471E+02 0.46437163736E+02 0.59513744767E+02 0.74541312464E+02 0.90499748223E+02
 0.10615753350E+03 0.12032104983E+03 0.13203704879E+03 0.14068488211E+03 0.14594826691E+03
 0.14771072559E+03 0.14594824385E+03 0.14068484377E+03 0.13203700765E+03 0.14603948051E+03
 0.13204278297E+03 0.11541567002E+03 0.97276955409E+02 0.79040123919E+02 0.62136051421E+02
 0.47699391285E+02 0.36332632046E+02 0.28026463733E+02 0.22248016854E+02 0.18192164119E+02
 0.15383842388E+02 0.13560920154E+02 0.12487962584E+02 0.11995144130E+02 0.11995143002E+02
 0.12487960079E+02 0.13560918382E+02 0.15383843217E+02 0.18192167823E+02 0.22248021502E+02
 0.28026466059E+02 0.36332629259E+02 0.47699383188E+02 0.62136041560E+02 0.79040118945E+02
 0.97276962866E+02 0.11541569496E+03 0.13204282517E+03 0.14603953343E+03 0.15672559552E+03
 0.16383443287E+03 0.16735869981E+03 0.16735868579E+03 0.16383439467E+03 0.15672554341E+03
 0.16920070165E+03 0.15674832324E+03 0.14070742282E+03 0.12185687261E+03 0.10152877400E+03
 0.81382705524E+02 0.63037950243E+02 0.47699391285E+02 0.35912395472E+02 0.27520951646E+02
 0.21816720963E+02 0.17879892198E+02 0.15231216630E+02 0.13583038713E+02 0.12696097305E+02
 0.12417750912E+02 0.12696098086E+02 0.13583040275E+02 0.15231218810E+02 0.17879894500E+02
 0.21816722569E+02 0.27520951788E+02 0.35912394018E+02 0.47699389349E+02 0.63037950405E+02
 0.81382711393E+02 0.10152878920E+03 0.12185689920E+03 0.14070746014E+03 0.15674836727E+03
 0.16920074548E+03 0.17784930608E+03 0.18285742718E+03 0.18448717140E+03 0.18285740733E+03
 0.17784927061E+03 0.18776146966E+03 0.17788302789E+03 0.16388422320E+03 0.14598744447E+03
 0.12514987818E+03 0.10297612346E+03 0.81382705524E+02 0.62136051421E+02 0.46437181383E+02
 0.34698127034E+02 0.26564623225E+02 0.21138290057E+02 0.17444378880E+02 0.15041710639E+02
 0.13629842916E+02 0.12982972328E+02 0.12982974102E+02 0.13629847356E+02 0.15041715498E+02
 0.17444381700E+02 0.21138289403E+02 0.26564619571E+02 0.34698122705E+02 0.46437179760E+02
 0.62136055547E+02 0.81382716884E+02 0.10297614137E+03 0.12514989998E+03 0.14598746664E+03
 0.16388424248E+03 0.17788304232E+03 0.18776147890E+03 0.19385514875E+03 0.19670845926E+03
 0.19670845779E+03 0.19385514390E+03 0.20076817061E+03 0.19389129987E+03 0.18292022021E+03
 0.16742631797E+03 0.14775671722E+03 0.12514987818E+03 0.10152877400E+03 0.79040123919E+02
 0.59513767126E+02 0.44042973134E+02 0.32821475425E+02 0.25255071577E+02 0.20263690078E+02
 0.16921667888E+02 0.14837590244E+02 0.13716502471E+02 0.13364961340E+02 0.13716507556E+02
 0.14837597451E+02 0.16921672920E+02 0.20263689710E+02 0.25255065607E+02 0.32821467081E+02
 0.44042967682E+02 0.59513769197E+02 0.79040134912E+02 0.10152879081E+03 0.12514989402E+03
 0.14775672438E+03 0.16742631120E+03 0.18292019944E+03 0.19389127078E+03 0.20076814269E+03
 0.20438018729E+03 0.20548394704E+03 0.20438020430E+03 0.20850748833E+03 0.20441041810E+03
 0.19676756255E+03 0.18456133531E+03 0.16742631797E+03 0.14598744447E+03 0.12185687261E+03
 0.97276955409E+02 0.74541330850E+02 0.55414878751E+02 0.40760614727E+02 0.30476709558E+02
 0.23710881225E+02 0.19258121940E+02 0.16353809893E+02 0.14644027516E+02 0.13860494714E+02
 0.13860497803E+02 0.14644034881E+02 0.16353816929E+02 0.19258123944E+02 0.23710876226E+02
 0.30476699701E+02 0.40760605463E+02 0.55414875948E+02 0.74541337320E+02 0.97276968489E+02
 0.12185688431E+03 0.14598744439E+03 0.16742629780E+03 0.18456129324E+03 0.19676750520E+03
 0.20441035916E+03 0.20850744410E+03 0.21019278874E+03 0.21019280515E+03 0.21223021819E+03
 0.21021180357E+03 0.20552584651E+03 0.19676756255E+03 0.18292022021E+03 0.16388422320E+03
 0.14070742282E+03 0.11541567002E+03 0.90499753401E+02 0.68254866449E+02 0.50221331221E+02
 0.36913515508E+02 0.27885242873E+02 0.22043379015E+02 0.18193218586E+02 0.15783805492E+02
 0.14485974199E+02 0.14078873395E+02 0.14485979129E+02 0.15783812215E+02 0.18193222632E+02
 0.22043377217E+02 0.27885235391E+02 0.36913506032E+02 0.50221325091E+02 0.68254867541E+02
 0.90499761252E+02 0.11541567886E+03 0.14070742322E+03 0.16388420594E+03 0.18292018075E+03
 0.19676750416E+03 0.20552578043E+03 0.21021174595E+03 0.21223018463E+03 0.21275253580E+03
 0.21356420651E+03 0.21275986932E+03 0.21021180357E+03 0.20441041810E+03 0.19389129987E+03
 0.17788302789E+03 0.15674832324E+03 0.13204278297E+03 0.10615751989E+03 0.81678923559E+02
 0.60711490094E+02 0.44409638679E+02 0.32854035355E+02 0.25252288345E+02 0.20337150793E+02
 0.17137672632E+02 0.15250291221E+02 0.14384660858E+02 0.14384662464E+02 0.15250295015E+02
 0.17137676113E+02 0.20337151468E+02 0.25252285232E+02 0.32854029730E+02 0.44409633515E+02
 0.60711488417E+02 0.81678926444E+02 0.10615752525E+03 0.13204278575E+03 0.15674831727E+03
 0.17788300866E+03 0.19389126697E+03 0.20441037645E+03 0.21021176226E+03 0.21275983887E+03
 0.21356419530E+03 0.21369294755E+03 0.21334832576E+03 0.21181951468E+03 0.20781532225E+03
 0.19976508724E+03 0.18648241353E+03 0.16773773661E+03 0.14452045526E+03 0.11887947878E+03
 0.93395439448E+02 0.70487131027E+02 0.51814155217E+02 0.37976652396E+02 0.28568639856E+02
 0.22496290076E+02 0.18512799956E+02 0.16016976155E+02 0.14671695863E+02 0.14249587097E+02
 0.14671696084E+02 0.16016976452E+02 0.18512800119E+02 0.22496289961E+02 0.28568639479E+02
 0.37976651963E+02 0.51814155050E+02 0.70487131413E+02 0.93395440509E+02 0.11887948039E+03
 0.14452045707E+03 0.16773773819E+03 0.18648241453E+03 0.19976508752E+03 0.20781532196E+03
 0.21181951415E+03 0.21334832537E+03 0.21334832537E+03 0.21334831507E+03 0.21240427085E+03
 0.20960621428E+03 0.20349786352E+03 0.19268119006E+03 0.17644930486E+03 0.15521189104E+03
 0.13054227929E+03 0.10481684965E+03 0.80581378898E+02 0.59887618715E+02 0.43840504408E+02
 0.32485976107E+02 0.25016323103E+02 0.20169569354E+02 0.17011012224E+02 0.15147697479E+02
 0.14292968880E+02 0.14292967538E+02 0.15147694301E+02 0.17011009287E+02 0.20169568725E+02
 0.25016325604E+02 0.32485980707E+02 0.43840508719E+02 0.59887620370E+02 0.80581377219E+02
 0.10481684662E+03 0.13054227933E+03 0.15521189936E+03 0.17644932511E+03 0.19268122221E+03
 0.20349790294E+03 0.20960625274E+03 0.21240429895E+03 0.21181951415E+03 0.21241211679E+03
 0.21181948269E+03 0.20960619866E+03 0.20464549698E+03 0.19559622453E+03 0.18150945684E+03
 0.16234083565E+03 0.13916688032E+03 0.11400908804E+03 0.89324440687E+02 0.67357033353E+02
 0.49594611566E+02 0.36510998443E+02 0.27638613923E+02 0.21882073076E+02 0.18074612699E+02
 0.15690922508E+02 0.14406226312E+02 0.14003087059E+02 0.14406221826E+02 0.15690916391E+02
 0.18074609013E+02 0.21882074682E+02 0.27638620653E+02 0.36511006918E+02 0.49594616940E+02
 0.67357032172E+02 0.89324433496E+02 0.11400908026E+03 0.13916688067E+03 0.16234085263E+03
 0.18150949452E+03 0.19559627973E+03 0.20464555915E+03 0.20960625274E+03 0.20781532196E+03
 0.20962667333E+03 0.20962665781E+03 0.20781528016E+03 0.20349784739E+03 0.19559622598E+03
 0.18315912923E+03 0.16588081192E+03 0.14442357399E+03 0.12040532425E+03 0.96042958014E+02
 0.73583248453E+02 0.54738038932E+02 0.40325845009E+02 0.30218153024E+02 0.23555835835E+02
 0.19149564014E+02 0.16271414824E+02 0.14575294088E+02 0.13797353243E+02 0.13797350321E+02
 0.14575287130E+02 0.16271408213E+02 0.19149562202E+02 0.23555840646E+02 0.30218162333E+02
 0.40325853531E+02 0.54738040999E+02 0.73583241355E+02 0.96042944321E+02 0.12040531167E+03
 0.14442357258E+03 0.16588082975E+03 0.18315916813E+03 0.19559627973E+03 0.20349790294E+03
 0.19976508752E+03 0.20353070720E+03 0.20469096151E+03 0.20353069080E+03 0.19976506079E+03
 0.19268119482E+03 0.18150947582E+03 0.16588082528E+03 0.14618516812E+03 0.12367544559E+03
 0.10025808398E+03 0.78039210395E+02 0.58797755151E+02 0.43580726985E+02 0.32551168171E+02
 0.25103751694E+02 0.20166069924E+02 0.16849988475E+02 0.14778990983E+02 0.13663363904E+02
 0.13313229196E+02 0.13663358900E+02 0.14778983935E+02 0.16849983666E+02 0.20166070532E+02
 0.25103757835E+02 0.32551176491E+02 0.43580732084E+02 0.58797752282E+02 0.78039198106E+02
 0.10025806540E+03 0.12367542762E+03 0.14618515864E+03 0.16588082975E+03 0.18150949452E+03
 0.19268122221E+03 0.18648241453E+03 0.19272114992E+03 0.19566123987E+03 0.19566124091E+03
 0.19272115367E+03 0.18648242252E+03 0.17644933876E+03 0.16234087201E+03 0.14442359584E+03
 0.12367545123E+03 0.10169292491E+03 0.80359477976E+02 0.61394994549E+02 0.45954787042E+02
 0.34417815978E+02 0.26415101088E+02 0.21051131781E+02 0.17382813211E+02 0.14992175967E+02
 0.13584597382E+02 0.12938722303E+02 0.12938720419E+02 0.13584592710E+02 0.14992170980E+02
 0.17382810588E+02 0.21051133015E+02 0.26415105532E+02 0.34417820930E+02 0.45954788715E+02
 0.61394989643E+02 0.80359465057E+02 0.10169290504E+03 0.12367542762E+03 0.14442357258E+03
 0.16234085263E+03 0.17644932511E+03 0.16773773819E+03 0.17648787514E+03 0.18158036876E+03
 0.18324256705E+03 0.18158038662E+03 0.17648790730E+03 0.16773777845E+03 0.15521194060E+03
 0.13916691663E+03 0.12040533835E+03 0.10025808160E+03 0.80359472051E+02 0.62288260411E+02
 0.47206306374E+02 0.35625331493E+02 0.27372028825E+02 0.21737859450E+02 0.17826913374E+02
 0.15189317105E+02 0.13543922370E+02 0.12656569824E+02 0.12377742979E+02 0.12656568601E+02
 0.13543920235E+02 0.15189314669E+02 0.17826911468E+02 0.21737858901E+02 0.27372030052E+02
 0.35625334061E+02 0.47206308673E+02 0.62288259706E+02 0.80359465057E+02 0.10025806540E+03
 0.12040531167E+03 0.13916688067E+03 0.15521189936E+03 0.14452045707E+03 0.15524023187E+03
 0.16240053365E+03 0.16596067875E+03 0.16596069150E+03 0.16240056842E+03 0.15524027941E+03
 0.14452050552E+03 0.13054231817E+03 0.11400910341E+03 0.96042951335E+02 0.78039193373E+02
 0.61394979914E+02 0.47206300069E+02 0.36043177108E+02 0.27877628745E+02 0.22174015514E+02
 0.18145414904E+02 0.15347742479E+02 0.13526341977E+02 0.12451319990E+02 0.11956575201E+02
 0.11956576011E+02 0.12451321731E+02 0.13526343017E+02 0.15347741460E+02 0.18145411828E+02
 0.22174012187E+02 0.27877627975E+02 0.36043181108E+02 0.47206308673E+02 0.61394989643E+02
 0.78039198106E+02 0.96042944321E+02 0.11400908026E+03 0.13054227933E+03 0.11887948039E+03
 0.13055407385E+03 0.13920055932E+03 0.14447728954E+03 0.14624688731E+03 0.14447731062E+03
 0.13920059428E+03 0.13055411110E+03 0.11887950834E+03 0.10481685783E+03 0.89324427056E+02
 0.73583222528E+02 0.58797729726E+02 0.45954770629E+02 0.35625325170E+02 0.27877628129E+02
 0.22323807807E+02 0.18311631366E+02 0.15450023628E+02 0.13520557223E+02 0.12311482062E+02
 0.11655620710E+02 0.11448722863E+02 0.11655624608E+02 0.12311487325E+02 0.13520560316E+02
 0.15450022256E+02 0.18311626168E+02 0.22323802524E+02 0.27877627975E+02 0.35625334061E+02
 0.45954788715E+02 0.58797752282E+02 0.73583241355E+02 0.89324433496E+02 0.10481684662E+03
 0.93395440509E+02 0.10481006463E+03 0.11400880923E+03 0.12041715186E+03 0.12369619414E+03
 0.12369619974E+03 0.12041716581E+03 0.11400882425E+03 0.10481007215E+03 0.93395434490E+02