   2   2   1   0
  0.1218813E+02  0.2532734E-09  0.2532734E-09  0.4387903E-09  0.5000000E-15
  1.000000000000000E-004
  CAR 
 Pt-hcc                                  
     43.91731740    -41.43442487  301     16.73818143      1.00000000
    -41.434  0.0000E+00  0.0000E+00
    -41.150  0.0000E+00  0.0000E+00
    -40.865  0.0000E+00  0.0000E+00
    -40.581  0.0000E+00  0.0000E+00
    -40.296  0.0000E+00  0.0000E+00
    -40.012  0.0000E+00  0.0000E+00
    -39.727  0.0000E+00  0.0000E+00
    -39.443  0.0000E+00  0.0000E+00
    -39.158  0.0000E+00  0.0000E+00
    -38.874  0.0000E+00  0.0000E+00
    -38.589  0.0000E+00  0.0000E+00
    -38.305  0.0000E+00  0.0000E+00
    -38.020  0.0000E+00  0.0000E+00
    -37.736  0.1900E-09  0.5407E-10
    -37.451  0.1879E-01  0.5346E-02
    -37.167  0.8235E-01  0.2878E-01
    -36.882  0.7933E-01  0.5135E-01
    -36.598  0.1716E+00  0.1002E+00
    -36.313  0.6970E-01  0.1200E+00
    -36.029  0.1217E-05  0.1200E+00
    -35.744  0.0000E+00  0.1200E+00
    -35.460  0.0000E+00  0.1200E+00
    -35.175  0.0000E+00  0.1200E+00
    -34.891  0.0000E+00  0.1200E+00
    -34.606  0.0000E+00  0.1200E+00
    -34.322  0.0000E+00  0.1200E+00
    -34.037  0.0000E+00  0.1200E+00
    -33.753  0.0000E+00  0.1200E+00
    -33.468  0.0000E+00  0.1200E+00
    -33.184  0.0000E+00  0.1200E+00
    -32.899  0.0000E+00  0.1200E+00
    -32.615  0.0000E+00  0.1200E+00
    -32.330  0.0000E+00  0.1200E+00
    -32.046  0.0000E+00  0.1200E+00
    -31.761  0.0000E+00  0.1200E+00
    -31.477  0.0000E+00  0.1200E+00
    -31.192  0.0000E+00  0.1200E+00
    -30.908  0.0000E+00  0.1200E+00
    -30.623  0.0000E+00  0.1200E+00
    -30.339  0.0000E+00  0.1200E+00
    -30.054  0.0000E+00  0.1200E+00
    -29.770  0.0000E+00  0.1200E+00
    -29.485  0.0000E+00  0.1200E+00
    -29.201  0.0000E+00  0.1200E+00
    -28.916  0.0000E+00  0.1200E+00
    -28.632  0.0000E+00  0.1200E+00
    -28.347  0.0000E+00  0.1200E+00
    -28.063  0.0000E+00  0.1200E+00
    -27.778  0.0000E+00  0.1200E+00
    -27.494  0.0000E+00  0.1200E+00
    -27.209  0.0000E+00  0.1200E+00
    -26.925  0.0000E+00  0.1200E+00
    -26.640  0.0000E+00  0.1200E+00
    -26.356  0.0000E+00  0.1200E+00
    -26.071  0.0000E+00  0.1200E+00
    -25.787  0.0000E+00  0.1200E+00
    -25.502  0.0000E+00  0.1200E+00
    -25.218  0.0000E+00  0.1200E+00
    -24.933  0.0000E+00  0.1200E+00
    -24.649  0.0000E+00  0.1200E+00
    -24.364  0.0000E+00  0.1200E+00
    -24.080  0.0000E+00  0.1200E+00
    -23.795  0.0000E+00  0.1200E+00
    -23.511  0.0000E+00  0.1200E+00
    -23.226  0.0000E+00  0.1200E+00
    -22.942  0.0000E+00  0.1200E+00
    -22.657  0.0000E+00  0.1200E+00
    -22.373  0.0000E+00  0.1200E+00
    -22.088  0.0000E+00  0.1200E+00
    -21.804  0.0000E+00  0.1200E+00
    -21.519  0.0000E+00  0.1200E+00
    -21.235  0.0000E+00  0.1200E+00
    -20.950  0.0000E+00  0.1200E+00
    -20.666  0.0000E+00  0.1200E+00
    -20.381  0.0000E+00  0.1200E+00
    -20.096  0.0000E+00  0.1200E+00
    -19.812  0.0000E+00  0.1200E+00
    -19.527  0.0000E+00  0.1200E+00
    -19.243  0.0000E+00  0.1200E+00
    -18.958  0.0000E+00  0.1200E+00
    -18.674  0.0000E+00  0.1200E+00
    -18.389  0.0000E+00  0.1200E+00
    -18.105  0.0000E+00  0.1200E+00
    -17.820  0.0000E+00  0.1200E+00
    -17.536  0.0000E+00  0.1200E+00
    -17.251  0.0000E+00  0.1200E+00
    -16.967  0.0000E+00  0.1200E+00
    -16.682  0.0000E+00  0.1200E+00
    -16.398  0.0000E+00  0.1200E+00
    -16.113  0.0000E+00  0.1200E+00
    -15.829  0.0000E+00  0.1200E+00
    -15.544  0.0000E+00  0.1200E+00
    -15.260  0.0000E+00  0.1200E+00
    -14.975  0.0000E+00  0.1200E+00
    -14.691  0.0000E+00  0.1200E+00
    -14.406  0.0000E+00  0.1200E+00
    -14.122  0.0000E+00  0.1200E+00
    -13.837  0.0000E+00  0.1200E+00
    -13.553  0.0000E+00  0.1200E+00
    -13.268  0.0000E+00  0.1200E+00
    -12.984  0.0000E+00  0.1200E+00
    -12.699  0.0000E+00  0.1200E+00
    -12.415  0.0000E+00  0.1200E+00
    -12.130  0.0000E+00  0.1200E+00
    -11.846  0.0000E+00  0.1200E+00
    -11.561  0.0000E+00  0.1200E+00
    -11.277  0.0000E+00  0.1200E+00
    -10.992  0.0000E+00  0.1200E+00
    -10.708  0.0000E+00  0.1200E+00
    -10.423  0.0000E+00  0.1200E+00
    -10.139  0.0000E+00  0.1200E+00
     -9.854  0.0000E+00  0.1200E+00
     -9.570  0.0000E+00  0.1200E+00
     -9.285  0.0000E+00  0.1200E+00
     -9.001  0.0000E+00  0.1200E+00
     -8.716  0.0000E+00  0.1200E+00
     -8.432  0.0000E+00  0.1200E+00
     -8.147  0.0000E+00  0.1200E+00
     -7.863  0.0000E+00  0.1200E+00
     -7.578  0.0000E+00  0.1200E+00
     -7.294  0.0000E+00  0.1200E+00
     -7.009  0.0000E+00  0.1200E+00
     -6.725  0.0000E+00  0.1200E+00
     -6.440  0.0000E+00  0.1200E+00
     -6.156  0.0000E+00  0.1200E+00
     -5.871  0.0000E+00  0.1200E+00
     -5.587  0.0000E+00  0.1200E+00
     -5.302  0.0000E+00  0.1200E+00
     -5.018  0.0000E+00  0.1200E+00
     -4.733  0.0000E+00  0.1200E+00
     -4.449  0.0000E+00  0.1200E+00
     -4.164  0.0000E+00  0.1200E+00
     -3.880  0.0000E+00  0.1200E+00
     -3.595  0.0000E+00  0.1200E+00
     -3.311  0.0000E+00  0.1200E+00
     -3.026  0.0000E+00  0.1200E+00
     -2.742  0.0000E+00  0.1200E+00
     -2.457  0.0000E+00  0.1200E+00
     -2.173  0.0000E+00  0.1200E+00
     -1.888  0.0000E+00  0.1200E+00
     -1.604  0.0000E+00  0.1200E+00
     -1.319  0.0000E+00  0.1200E+00
     -1.035  0.0000E+00  0.1200E+00
     -0.750  0.0000E+00  0.1200E+00
     -0.466  0.0000E+00  0.1200E+00
     -0.181  0.0000E+00  0.1200E+00
      0.103  0.0000E+00  0.1200E+00
      0.388  0.0000E+00  0.1200E+00
      0.672  0.0000E+00  0.1200E+00
      0.957  0.0000E+00  0.1200E+00
      1.241  0.0000E+00  0.1200E+00
      1.526  0.0000E+00  0.1200E+00
      1.810  0.0000E+00  0.1200E+00
      2.095  0.0000E+00  0.1200E+00
      2.379  0.0000E+00  0.1200E+00
      2.664  0.0000E+00  0.1200E+00
      2.948  0.0000E+00  0.1200E+00
      3.233  0.0000E+00  0.1200E+00
      3.517  0.0000E+00  0.1200E+00
      3.802  0.3910E-08  0.1200E+00
      4.087  0.1220E-03  0.1200E+00
      4.371  0.2062E-03  0.1201E+00
      4.656  0.1647E-02  0.1206E+00
      4.940  0.4617E-04  0.1206E+00
      5.225  0.1080E-02  0.1209E+00
      5.509  0.1706E-02  0.1214E+00
      5.794  0.1743E-02  0.1219E+00
      6.078  0.2092E-02  0.1225E+00
      6.363  0.1112E-02  0.1228E+00
      6.647  0.2355E-02  0.1234E+00
      6.932  0.4705E-02  0.1248E+00
      7.216  0.1186E-01  0.1282E+00
      7.501  0.1375E-01  0.1321E+00
      7.785  0.2069E-01  0.1380E+00
      8.070  0.1744E-01  0.1429E+00
      8.354  0.2682E-01  0.1506E+00
      8.639  0.1163E-01  0.1539E+00
      8.923  0.2099E-01  0.1598E+00
      9.208  0.2409E-01  0.1667E+00
      9.492  0.2583E-01  0.1740E+00
      9.777  0.1427E-01  0.1781E+00
     10.061  0.2107E-01  0.1841E+00
     10.346  0.2352E-01  0.1908E+00
     10.630  0.1688E-01  0.1956E+00
     10.915  0.1809E-01  0.2007E+00
     11.199  0.2347E-01  0.2074E+00
     11.484  0.2202E-01  0.2137E+00
     11.768  0.2571E-01  0.2210E+00
     12.053  0.2574E-01  0.2283E+00
     12.337  0.1750E-01  0.2333E+00
     12.622  0.2859E-01  0.2414E+00
     12.906  0.2939E-01  0.2498E+00
     13.191  0.2123E-01  0.2558E+00
     13.475  0.1809E-01  0.2610E+00
     13.760  0.1169E-01  0.2643E+00
     14.044  0.1638E-01  0.2690E+00
     14.329  0.1563E-01  0.2734E+00
     14.613  0.1707E-01  0.2783E+00
     14.898  0.1740E-01  0.2832E+00
     15.182  0.1721E-01  0.2881E+00
     15.467  0.1518E-01  0.2924E+00
     15.751  0.1675E-01  0.2972E+00
     16.036  0.1518E-01  0.3015E+00
     16.320  0.2260E-01  0.3079E+00
     16.605  0.3266E-01  0.3172E+00
     16.889  0.2338E-01  0.3239E+00
     17.174  0.1357E-01  0.3278E+00
     17.458  0.1891E-01  0.3331E+00
     17.743  0.7282E-02  0.3352E+00
     18.027  0.4362E-02  0.3364E+00
     18.312  0.1597E-02  0.3369E+00
     18.596  0.2103E-02  0.3375E+00
     18.881  0.1997E-02  0.3381E+00
     19.165  0.5880E-02  0.3397E+00
     19.450  0.4733E-02  0.3411E+00
     19.734  0.8826E-02  0.3436E+00
     20.019  0.4486E-02  0.3449E+00
     20.303  0.1762E-02  0.3454E+00
     20.588  0.4443E-02  0.3466E+00
     20.872  0.4980E-02  0.3481E+00
     21.157  0.4199E-03  0.3482E+00
     21.441  0.5763E-02  0.3498E+00
     21.726  0.6435E-02  0.3516E+00
     22.010  0.2120E-02  0.3522E+00
     22.295  0.2131E-02  0.3529E+00
     22.579  0.7237E-02  0.3549E+00
     22.864  0.4880E-02  0.3563E+00
     23.148  0.5853E-02  0.3580E+00
     23.433  0.3022E-02  0.3588E+00
     23.717  0.2626E-02  0.3596E+00
     24.002  0.9526E-03  0.3598E+00
     24.286  0.1276E-02  0.3602E+00
     24.571  0.7367E-02  0.3623E+00
     24.855  0.1527E-02  0.3627E+00
     25.140  0.5350E-02  0.3643E+00
     25.424  0.1087E-01  0.3674E+00
     25.709  0.1095E-01  0.3705E+00
     25.993  0.5897E-02  0.3721E+00
     26.278  0.5168E-02  0.3736E+00
     26.562  0.7189E-02  0.3757E+00
     26.847  0.7974E-02  0.3779E+00
     27.131  0.6575E-02  0.3798E+00
     27.416  0.7678E-02  0.3820E+00
     27.700  0.7069E-02  0.3840E+00
     27.985  0.2590E-02  0.3847E+00
     28.269  0.1051E-01  0.3877E+00
     28.554  0.5606E-02  0.3893E+00
     28.839  0.6784E-02  0.3912E+00
     29.123  0.5263E-02  0.3927E+00
     29.408  0.2656E-02  0.3935E+00
     29.692  0.8408E-02  0.3959E+00
     29.977  0.6105E-02  0.3976E+00
     30.261  0.6214E-02  0.3994E+00
     30.546  0.5456E-02  0.4010E+00
     30.830  0.1153E-01  0.4042E+00
     31.115  0.1465E-01  0.4084E+00
     31.399  0.7527E-02  0.4105E+00
     31.684  0.1130E-01  0.4138E+00
     31.968  0.9417E-02  0.4164E+00
     32.253  0.1687E-01  0.4212E+00
     32.537  0.1413E-01  0.4253E+00
     32.822  0.1346E-01  0.4291E+00
     33.106  0.1979E-01  0.4347E+00
     33.391  0.1285E-01  0.4384E+00
     33.675  0.8076E-02  0.4407E+00
     33.960  0.1232E-01  0.4442E+00
     34.244  0.1192E-01  0.4476E+00
     34.529  0.1729E-01  0.4525E+00
     34.813  0.8203E-02  0.4548E+00
     35.098  0.9024E-02  0.4574E+00
     35.382  0.1774E-01  0.4624E+00
     35.667  0.1061E-01  0.4654E+00
     35.951  0.1369E-01  0.4693E+00
     36.236  0.8030E-02  0.4716E+00
     36.520  0.4041E-02  0.4728E+00
     36.805  0.5116E-02  0.4742E+00
     37.089  0.5601E-02  0.4758E+00
     37.374  0.4950E-02  0.4772E+00
     37.658  0.1641E-02  0.4777E+00
     37.943  0.3667E-02  0.4787E+00
     38.227  0.2145E-02  0.4794E+00
     38.512  0.1336E-02  0.4797E+00
     38.796  0.7079E-03  0.4799E+00
     39.081  0.4115E-04  0.4800E+00
     39.365  0.0000E+00  0.4800E+00
     39.650  0.0000E+00  0.4800E+00
     39.934  0.3015E-06  0.4800E+00
     40.219  0.1754E-03  0.4800E+00
     40.503  0.0000E+00  0.4800E+00
     40.788  0.0000E+00  0.4800E+00
     41.072  0.0000E+00  0.4800E+00
     41.357  0.0000E+00  0.4800E+00
     41.641  0.0000E+00  0.4800E+00
     41.926  0.0000E+00  0.4800E+00
     42.210  0.0000E+00  0.4800E+00
     42.495  0.0000E+00  0.4800E+00
     42.779  0.0000E+00  0.4800E+00
     43.064  0.0000E+00  0.4800E+00
     43.348  0.0000E+00  0.4800E+00
     43.633  0.0000E+00  0.4800E+00
     43.917  0.0000E+00  0.4800E+00
     43.91731740    -41.43442487  301     16.73818143      1.00000000
    -41.434  0.0000E+00  0.0000E+00  0.0000E+00  0.0000E+00  0.0000E+00  0.0000E+00  0.0000E+00  0.0000E+00  0.0000E+00
    -41.150  0.0000E+00  0.0000E+00  0.0000E+00  0.0000E+00  0.0000E+00  0.0000E+00  0.0000E+00  0.0000E+00  0.0000E+00
    -40.865  0.0000E+00  0.0000E+00  0.0000E+00  0.0000E+00  0.0000E+00  0.0000E+00  0.0000E+00  0.0000E+00  0.0000E+00
    -40.581  0.0000E+00  0.0000E+00  0.0000E+00  0.0000E+00  0.0000E+00  0.0000E+00  0.0000E+00  0.0000E+00  0.0000E+00
    -40.296  0.0000E+00  0.0000E+00  0.0000E+00  0.0000E+00  0.0000E+00  0.0000E+00  0.0000E+00  0.0000E+00  0.0000E+00
    -40.012  0.0000E+00  0.0000E+00  0.0000E+00  0.0000E+00  0.0000E+00  0.0000E+00  0.0000E+00  0.0000E+00  0.0000E+00
    -39.727  0.0000E+00  0.0000E+00  0.0000E+00  0.0000E+00  0.0000E+00  0.0000E+00  0.0000E+00  0.0000E+00  0.0000E+00
    -39.443  0.0000E+00  0.0000E+00  0.0000E+00  0.0000E+00  0.0000E+00  0.0000E+00  0.0000E+00  0.0000E+00  0.0000E+00
    -39.158  0.0000E+00  0.0000E+00  0.0000E+00  0.0000E+00  0.0000E+00  0.0000E+00  0.0000E+00  0.0000E+00  0.0000E+00
    -38.874  0.0000E+00  0.0000E+00  0.0000E+00  0.0000E+00  0.0000E+00  0.0000E+00  0.0000E+00  0.0000E+00  0.0000E+00
    -38.589  0.0000E+00  0.0000E+00  0.0000E+00  0.0000E+00  0.0000E+00  0.0000E+00  0.0000E+00  0.0000E+00  0.0000E+00
    -38.305  0.0000E+00  0.0000E+00  0.0000E+00  0.0000E+00  0.0000E+00  0.0000E+00  0.0000E+00  0.0000E+00  0.0000E+00
    -38.020  0.0000E+00  0.0000E+00  0.0000E+00  0.0000E+00  0.0000E+00  0.0000E+00  0.0000E+00  0.0000E+00  0.0000E+00
    -37.736  0.1764E-12  0.4418E-08  0.4261E-09  0.4418E-08  0.4865E-14  0.1806E-13  0.2382E-12  0.1806E-13  0.4865E-14
    -37.451  0.6230E-04  0.4382E+00  0.4112E-01  0.4382E+00  0.3542E-04  0.5112E-05  0.4678E-04  0.5112E-05  0.3542E-04
    -37.167  0.7841E-03  0.1813E+01  0.4091E+00  0.1813E+01  0.2731E-03  0.3790E-04  0.3757E-03  0.3790E-04  0.2731E-03
    -36.882  0.7235E-03  0.1319E+01  0.1275E+01  0.1319E+01  0.4051E-03  0.1335E-03  0.2468E-03  0.1335E-03  0.4051E-03
    -36.598  0.3674E-03  0.2739E+01  0.3046E+01  0.2739E+01  0.4573E-03  0.2243E-03  0.3836E-03  0.2243E-03  0.4573E-03
    -36.313  0.3968E-04  0.6449E+00  0.2185E+01  0.6449E+00  0.4254E-04  0.7509E-04  0.8818E-04  0.7509E-04  0.4254E-04
    -36.029  0.1756E-23  0.1624E-23  0.6076E-04  0.1624E-23  0.1817E-22  0.9114E-10  0.4845E-23  0.9114E-10  0.1817E-22
    -35.744  0.0000E+00  0.0000E+00  0.0000E+00  0.0000E+00  0.0000E+00  0.0000E+00  0.0000E+00  0.0000E+00  0.0000E+00
    -35.460  0.0000E+00  0.0000E+00  0.0000E+00  0.0000E+00  0.0000E+00  0.0000E+00  0.0000E+00  0.0000E+00  0.0000E+00
    -35.175  0.0000E+00  0.0000E+00  0.0000E+00  0.0000E+00  0.0000E+00  0.0000E+00  0.0000E+00  0.0000E+00  0.0000E+00
    -34.891  0.0000E+00  0.0000E+00  0.0000E+00  0.0000E+00  0.0000E+00  0.0000E+00  0.0000E+00  0.0000E+00  0.0000E+00
    -34.606  0.0000E+00  0.0000E+00  0.0000E+00  0.0000E+00  0.0000E+00  0.0000E+00  0.0000E+00  0.0000E+00  0.0000E+00
    -34.322  0.0000E+00  0.0000E+00  0.0000E+00  0.0000E+00  0.0000E+00  0.0000E+00  0.0000E+00  0.0000E+00  0.0000E+00
    -34.037  0.0000E+00  0.0000E+00  0.0000E+00  0.0000E+00  0.0000E+00  0.0000E+00  0.0000E+00  0.0000E+00  0.0000E+00
    -33.753  0.0000E+00  0.0000E+00  0.0000E+00  0.0000E+00  0.0000E+00  0.0000E+00  0.0000E+00  0.0000E+00  0.0000E+00
    -33.468  0.0000E+00  0.0000E+00  0.0000E+00  0.0000E+00  0.0000E+00  0.0000E+00  0.0000E+00  0.0000E+00  0.0000E+00
    -33.184  0.0000E+00  0.0000E+00  0.0000E+00  0.0000E+00  0.0000E+00  0.0000E+00  0.0000E+00  0.0000E+00  0.0000E+00
    -32.899  0.0000E+00  0.0000E+00  0.0000E+00  0.0000E+00  0.0000E+00  0.0000E+00  0.0000E+00  0.0000E+00  0.0000E+00
    -32.615  0.0000E+00  0.0000E+00  0.0000E+00  0.0000E+00  0.0000E+00  0.0000E+00  0.0000E+00  0.0000E+00  0.0000E+00
    -32.330  0.0000E+00  0.0000E+00  0.0000E+00  0.0000E+00  0.0000E+00  0.0000E+00  0.0000E+00  0.0000E+00  0.0000E+00
    -32.046  0.0000E+00  0.0000E+00  0.0000E+00  0.0000E+00  0.0000E+00  0.0000E+00  0.0000E+00  0.0000E+00  0.0000E+00
    -31.761  0.0000E+00  0.0000E+00  0.0000E+00  0.0000E+00  0.0000E+00  0.0000E+00  0.0000E+00  0.0000E+00  0.0000E+00
    -31.477  0.0000E+00  0.0000E+00  0.0000E+00  0.0000E+00  0.0000E+00  0.0000E+00  0.0000E+00  0.0000E+00  0.0000E+00
    -31.192  0.0000E+00  0.0000E+00  0.0000E+00  0.0000E+00  0.0000E+00  0.0000E+00  0.0000E+00  0.0000E+00  0.0000E+00
    -30.908  0.0000E+00  0.0000E+00  0.0000E+00  0.0000E+00  0.0000E+00  0.0000E+00  0.0000E+00  0.0000E+00  0.0000E+00
    -30.623  0.0000E+00  0.0000E+00  0.0000E+00  0.0000E+00  0.0000E+00  0.0000E+00  0.0000E+00  0.0000E+00  0.0000E+00
    -30.339  0.0000E+00  0.0000E+00  0.0000E+00  0.0000E+00  0.0000E+00  0.0000E+00  0.0000E+00  0.0000E+00  0.0000E+00
    -30.054  0.0000E+00  0.0000E+00  0.0000E+00  0.0000E+00  0.0000E+00  0.0000E+00  0.0000E+00  0.0000E+00  0.0000E+00
    -29.770  0.0000E+00  0.0000E+00  0.0000E+00  0.0000E+00  0.0000E+00  0.0000E+00  0.0000E+00  0.0000E+00  0.0000E+00
    -29.485  0.0000E+00  0.0000E+00  0.0000E+00  0.0000E+00  0.0000E+00  0.0000E+00  0.0000E+00  0.0000E+00  0.0000E+00
    -29.201  0.0000E+00  0.0000E+00  0.0000E+00  0.0000E+00  0.0000E+00  0.0000E+00  0.0000E+00  0.0000E+00  0.0000E+00
    -28.916  0.0000E+00  0.0000E+00  0.0000E+00  0.0000E+00  0.0000E+00  0.0000E+00  0.0000E+00  0.0000E+00  0.0000E+00
    -28.632  0.0000E+00  0.0000E+00  0.0000E+00  0.0000E+00  0.0000E+00  0.0000E+00  0.0000E+00  0.0000E+00  0.0000E+00
    -28.347  0.0000E+00  0.0000E+00  0.0000E+00  0.0000E+00  0.0000E+00  0.0000E+00  0.0000E+00  0.0000E+00  0.0000E+00
    -28.063  0.0000E+00  0.0000E+00  0.0000E+00  0.0000E+00  0.0000E+00  0.0000E+00  0.0000E+00  0.0000E+00  0.0000E+00
    -27.778  0.0000E+00  0.0000E+00  0.0000E+00  0.0000E+00  0.0000E+00  0.0000E+00  0.0000E+00  0.0000E+00  0.0000E+00
    -27.494  0.0000E+00  0.0000E+00  0.0000E+00  0.0000E+00  0.0000E+00  0.0000E+00  0.0000E+00  0.0000E+00  0.0000E+00
    -27.209  0.0000E+00  0.0000E+00  0.0000E+00  0.0000E+00  0.0000E+00  0.0000E+00  0.0000E+00  0.0000E+00  0.0000E+00
    -26.925  0.0000E+00  0.0000E+00  0.0000E+00  0.0000E+00  0.0000E+00  0.0000E+00  0.0000E+00  0.0000E+00  0.0000E+00
    -26.640  0.0000E+00  0.0000E+00  0.0000E+00  0.0000E+00  0.0000E+00  0.0000E+00  0.0000E+00  0.0000E+00  0.0000E+00
    -26.356  0.0000E+00  0.0000E+00  0.0000E+00  0.0000E+00  0.0000E+00  0.0000E+00  0.0000E+00  0.0000E+00  0.0000E+00
    -26.071  0.0000E+00  0.0000E+00  0.0000E+00  0.0000E+00  0.0000E+00  0.0000E+00  0.0000E+00  0.0000E+00  0.0000E+00
    -25.787  0.0000E+00  0.0000E+00  0.0000E+00  0.0000E+00  0.0000E+00  0.0000E+00  0.0000E+00  0.0000E+00  0.0000E+00
    -25.502  0.0000E+00  0.0000E+00  0.0000E+00  0.0000E+00  0.0000E+00  0.0000E+00  0.0000E+00  0.0000E+00  0.0000E+00
    -25.218  0.0000E+00  0.0000E+00  0.0000E+00  0.0000E+00  0.0000E+00  0.0000E+00  0.0000E+00  0.0000E+00  0.0000E+00
    -24.933  0.0000E+00  0.0000E+00  0.0000E+00  0.0000E+00  0.0000E+00  0.0000E+00  0.0000E+00  0.0000E+00  0.0000E+00
    -24.649  0.0000E+00  0.0000E+00  0.0000E+00  0.0000E+00  0.0000E+00  0.0000E+00  0.0000E+00  0.0000E+00  0.0000E+00
    -24.364  0.0000E+00  0.0000E+00  0.0000E+00  0.0000E+00  0.0000E+00  0.0000E+00  0.0000E+00  0.0000E+00  0.0000E+00
    -24.080  0.0000E+00  0.0000E+00  0.0000E+00  0.0000E+00  0.0000E+00  0.0000E+00  0.0000E+00  0.0000E+00  0.0000E+00
    -23.795  0.0000E+00  0.0000E+00  0.0000E+00  0.0000E+00  0.0000E+00  0.0000E+00  0.0000E+00  0.0000E+00  0.0000E+00
    -23.511  0.0000E+00  0.0000E+00  0.0000E+00  0.0000E+00  0.0000E+00  0.0000E+00  0.0000E+00  0.0000E+00  0.0000E+00
    -23.226  0.0000E+00  0.0000E+00  0.0000E+00  0.0000E+00  0.0000E+00  0.0000E+00  0.0000E+00  0.0000E+00  0.0000E+00
    -22.942  0.0000E+00  0.0000E+00  0.0000E+00  0.0000E+00  0.0000E+00  0.0000E+00  0.0000E+00  0.0000E+00  0.0000E+00
    -22.657  0.0000E+00  0.0000E+00  0.0000E+00  0.0000E+00  0.0000E+00  0.0000E+00  0.0000E+00  0.0000E+00  0.0000E+00
    -22.373  0.0000E+00  0.0000E+00  0.0000E+00  0.0000E+00  0.0000E+00  0.0000E+00  0.0000E+00  0.0000E+00  0.0000E+00
    -22.088  0.0000E+00  0.0000E+00  0.0000E+00  0.0000E+00  0.0000E+00  0.0000E+00  0.0000E+00  0.0000E+00  0.0000E+00
    -21.804  0.0000E+00  0.0000E+00  0.0000E+00  0.0000E+00  0.0000E+00  0.0000E+00  0.0000E+00  0.0000E+00  0.0000E+00
    -21.519  0.0000E+00  0.0000E+00  0.0000E+00  0.0000E+00  0.0000E+00  0.0000E+00  0.0000E+00  0.0000E+00  0.0000E+00
    -21.235  0.0000E+00  0.0000E+00  0.0000E+00  0.0000E+00  0.0000E+00  0.0000E+00  0.0000E+00  0.0000E+00  0.0000E+00
    -20.950  0.0000E+00  0.0000E+00  0.0000E+00  0.0000E+00  0.0000E+00  0.0000E+00  0.0000E+00  0.0000E+00  0.0000E+00
    -20.666  0.0000E+00  0.0000E+00  0.0000E+00  0.0000E+00  0.0000E+00  0.0000E+00  0.0000E+00  0.0000E+00  0.0000E+00
    -20.381  0.0000E+00  0.0000E+00  0.0000E+00  0.0000E+00  0.0000E+00  0.0000E+00  0.0000E+00  0.0000E+00  0.0000E+00
    -20.096  0.0000E+00  0.0000E+00  0.0000E+00  0.0000E+00  0.0000E+00  0.0000E+00  0.0000E+00  0.0000E+00  0.0000E+00
    -19.812  0.0000E+00  0.0000E+00  0.0000E+00  0.0000E+00  0.0000E+00  0.0000E+00  0.0000E+00  0.0000E+00  0.0000E+00
    -19.527  0.0000E+00  0.0000E+00  0.0000E+00  0.0000E+00  0.0000E+00  0.0000E+00  0.0000E+00  0.0000E+00  0.0000E+00
    -19.243  0.0000E+00  0.0000E+00  0.0000E+00  0.0000E+00  0.0000E+00  0.0000E+00  0.0000E+00  0.0000E+00  0.0000E+00
    -18.958  0.0000E+00  0.0000E+00  0.0000E+00  0.0000E+00  0.0000E+00  0.0000E+00  0.0000E+00  0.0000E+00  0.0000E+00
    -18.674  0.0000E+00  0.0000E+00  0.0000E+00  0.0000E+00  0.0000E+00  0.0000E+00  0.0000E+00  0.0000E+00  0.0000E+00
    -18.389  0.0000E+00  0.0000E+00  0.0000E+00  0.0000E+00  0.0000E+00  0.0000E+00  0.0000E+00  0.0000E+00  0.0000E+00
    -18.105  0.0000E+00  0.0000E+00  0.0000E+00  0.0000E+00  0.0000E+00  0.0000E+00  0.0000E+00  0.0000E+00  0.0000E+00
    -17.820  0.0000E+00  0.0000E+00  0.0000E+00  0.0000E+00  0.0000E+00  0.0000E+00  0.0000E+00  0.0000E+00  0.0000E+00
    -17.536  0.0000E+00  0.0000E+00  0.0000E+00  0.0000E+00  0.0000E+00  0.0000E+00  0.0000E+00  0.0000E+00  0.0000E+00
    -17.251  0.0000E+00  0.0000E+00  0.0000E+00  0.0000E+00  0.0000E+00  0.0000E+00  0.0000E+00  0.0000E+00  0.0000E+00
    -16.967  0.0000E+00  0.0000E+00  0.0000E+00  0.0000E+00  0.0000E+00  0.0000E+00  0.0000E+00  0.0000E+00  0.0000E+00
    -16.682  0.0000E+00  0.0000E+00  0.0000E+00  0.0000E+00  0.0000E+00  0.0000E+00  0.0000E+00  0.0000E+00  0.0000E+00
    -16.398  0.0000E+00  0.0000E+00  0.0000E+00  0.0000E+00  0.0000E+00  0.0000E+00  0.0000E+00  0.0000E+00  0.0000E+00
    -16.113  0.0000E+00  0.0000E+00  0.0000E+00  0.0000E+00  0.0000E+00  0.0000E+00  0.0000E+00  0.0000E+00  0.0000E+00
    -15.829  0.0000E+00  0.0000E+00  0.0000E+00  0.0000E+00  0.0000E+00  0.0000E+00  0.0000E+00  0.0000E+00  0.0000E+00
    -15.544  0.0000E+00  0.0000E+00  0.0000E+00  0.0000E+00  0.0000E+00  0.0000E+00  0.0000E+00  0.0000E+00  0.0000E+00
    -15.260  0.0000E+00  0.0000E+00  0.0000E+00  0.0000E+00  0.0000E+00  0.0000E+00  0.0000E+00  0.0000E+00  0.0000E+00
    -14.975  0.0000E+00  0.0000E+00  0.0000E+00  0.0000E+00  0.0000E+00  0.0000E+00  0.0000E+00  0.0000E+00  0.0000E+00
    -14.691  0.0000E+00  0.0000E+00  0.0000E+00  0.0000E+00  0.0000E+00  0.0000E+00  0.0000E+00  0.0000E+00  0.0000E+00
    -14.406  0.0000E+00  0.0000E+00  0.0000E+00  0.0000E+00  0.0000E+00  0.0000E+00  0.0000E+00  0.0000E+00  0.0000E+00
    -14.122  0.0000E+00  0.0000E+00  0.0000E+00  0.0000E+00  0.0000E+00  0.0000E+00  0.0000E+00  0.0000E+00  0.0000E+00
    -13.837  0.0000E+00  0.0000E+00  0.0000E+00  0.0000E+00  0.0000E+00  0.0000E+00  0.0000E+00  0.0000E+00  0.0000E+00
    -13.553  0.0000E+00  0.0000E+00  0.0000E+00  0.0000E+00  0.0000E+00  0.0000E+00  0.0000E+00  0.0000E+00  0.0000E+00
    -13.268  0.0000E+00  0.0000E+00  0.0000E+00  0.0000E+00  0.0000E+00  0.0000E+00  0.0000E+00  0.0000E+00  0.0000E+00
    -12.984  0.0000E+00  0.0000E+00  0.0000E+00  0.0000E+00  0.0000E+00  0.0000E+00  0.0000E+00  0.0000E+00  0.0000E+00
    -12.699  0.0000E+00  0.0000E+00  0.0000E+00  0.0000E+00  0.0000E+00  0.0000E+00  0.0000E+00  0.0000E+00  0.0000E+00
    -12.415  0.0000E+00  0.0000E+00  0.0000E+00  0.0000E+00  0.0000E+00  0.0000E+00  0.0000E+00  0.0000E+00  0.0000E+00
    -12.130  0.0000E+00  0.0000E+00  0.0000E+00  0.0000E+00  0.0000E+00  0.0000E+00  0.0000E+00  0.0000E+00  0.0000E+00
    -11.846  0.0000E+00  0.0000E+00  0.0000E+00  0.0000E+00  0.0000E+00  0.0000E+00  0.0000E+00  0.0000E+00  0.0000E+00
    -11.561  0.0000E+00  0.0000E+00  0.0000E+00  0.0000E+00  0.0000E+00  0.0000E+00  0.0000E+00  0.0000E+00  0.0000E+00
    -11.277  0.0000E+00  0.0000E+00  0.0000E+00  0.0000E+00  0.0000E+00  0.0000E+00  0.0000E+00  0.0000E+00  0.0000E+00
    -10.992  0.0000E+00  0.0000E+00  0.0000E+00  0.0000E+00  0.0000E+00  0.0000E+00  0.0000E+00  0.0000E+00  0.0000E+00
    -10.708  0.0000E+00  0.0000E+00  0.0000E+00  0.0000E+00  0.0000E+00  0.0000E+00  0.0000E+00  0.0000E+00  0.0000E+00
    -10.423  0.0000E+00  0.0000E+00  0.0000E+00  0.0000E+00  0.0000E+00  0.0000E+00  0.0000E+00  0.0000E+00  0.0000E+00
    -10.139  0.0000E+00  0.0000E+00  0.0000E+00  0.0000E+00  0.0000E+00  0.0000E+00  0.0000E+00  0.0000E+00  0.0000E+00
     -9.854  0.0000E+00  0.0000E+00  0.0000E+00  0.0000E+00  0.0000E+00  0.0000E+00  0.0000E+00  0.0000E+00  0.0000E+00
     -9.570  0.0000E+00  0.0000E+00  0.0000E+00  0.0000E+00  0.0000E+00  0.0000E+00  0.0000E+00  0.0000E+00  0.0000E+00
     -9.285  0.0000E+00  0.0000E+00  0.0000E+00  0.0000E+00  0.0000E+00  0.0000E+00  0.0000E+00  0.0000E+00  0.0000E+00
     -9.001  0.0000E+00  0.0000E+00  0.0000E+00  0.0000E+00  0.0000E+00  0.0000E+00  0.0000E+00  0.0000E+00  0.0000E+00
     -8.716  0.0000E+00  0.0000E+00  0.0000E+00  0.0000E+00  0.0000E+00  0.0000E+00  0.0000E+00  0.0000E+00  0.0000E+00
     -8.432  0.0000E+00  0.0000E+00  0.0000E+00  0.0000E+00  0.0000E+00  0.0000E+00  0.0000E+00  0.0000E+00  0.0000E+00
     -8.147  0.0000E+00  0.0000E+00  0.0000E+00  0.0000E+00  0.0000E+00  0.0000E+00  0.0000E+00  0.0000E+00  0.0000E+00
     -7.863  0.0000E+00  0.0000E+00  0.0000E+00  0.0000E+00  0.0000E+00  0.0000E+00  0.0000E+00  0.0000E+00  0.0000E+00
     -7.578  0.0000E+00  0.0000E+00  0.0000E+00  0.0000E+00  0.0000E+00  0.0000E+00  0.0000E+00  0.0000E+00  0.0000E+00
     -7.294  0.0000E+00  0.0000E+00  0.0000E+00  0.0000E+00  0.0000E+00  0.0000E+00  0.0000E+00  0.0000E+00  0.0000E+00
     -7.009  0.0000E+00  0.0000E+00  0.0000E+00  0.0000E+00  0.0000E+00  0.0000E+00  0.0000E+00  0.0000E+00  0.0000E+00
     -6.725  0.0000E+00  0.0000E+00  0.0000E+00  0.0000E+00  0.0000E+00  0.0000E+00  0.0000E+00  0.0000E+00  0.0000E+00
     -6.440  0.0000E+00  0.0000E+00  0.0000E+00  0.0000E+00  0.0000E+00  0.0000E+00  0.0000E+00  0.0000E+00  0.0000E+00
     -6.156  0.0000E+00  0.0000E+00  0.0000E+00  0.0000E+00  0.0000E+00  0.0000E+00  0.0000E+00  0.0000E+00  0.0000E+00
     -5.871  0.0000E+00  0.0000E+00  0.0000E+00  0.0000E+00  0.0000E+00  0.0000E+00  0.0000E+00  0.0000E+00  0.0000E+00
     -5.587  0.0000E+00  0.0000E+00  0.0000E+00  0.0000E+00  0.0000E+00  0.0000E+00  0.0000E+00  0.0000E+00  0.0000E+00
     -5.302  0.0000E+00  0.0000E+00  0.0000E+00  0.0000E+00  0.0000E+00  0.0000E+00  0.0000E+00  0.0000E+00  0.0000E+00
     -5.018  0.0000E+00  0.0000E+00  0.0000E+00  0.0000E+00  0.0000E+00  0.0000E+00  0.0000E+00  0.0000E+00  0.0000E+00
     -4.733  0.0000E+00  0.0000E+00  0.0000E+00  0.0000E+00  0.0000E+00  0.0000E+00  0.0000E+00  0.0000E+00  0.0000E+00
     -4.449  0.0000E+00  0.0000E+00  0.0000E+00  0.0000E+00  0.0000E+00  0.0000E+00  0.0000E+00  0.0000E+00  0.0000E+00
     -4.164  0.0000E+00  0.0000E+00  0.0000E+00  0.0000E+00  0.0000E+00  0.0000E+00  0.0000E+00  0.0000E+00  0.0000E+00
     -3.880  0.0000E+00  0.0000E+00  0.0000E+00  0.0000E+00  0.0000E+00  0.0000E+00  0.0000E+00  0.0000E+00  0.0000E+00
     -3.595  0.0000E+00  0.0000E+00  0.0000E+00  0.0000E+00  0.0000E+00  0.0000E+00  0.0000E+00  0.0000E+00  0.0000E+00
     -3.311  0.0000E+00  0.0000E+00  0.0000E+00  0.0000E+00  0.0000E+00  0.0000E+00  0.0000E+00  0.0000E+00  0.0000E+00
     -3.026  0.0000E+00  0.0000E+00  0.0000E+00  0.0000E+00  0.0000E+00  0.0000E+00  0.0000E+00  0.0000E+00  0.0000E+00
     -2.742  0.0000E+00  0.0000E+00  0.0000E+00  0.0000E+00  0.0000E+00  0.0000E+00  0.0000E+00  0.0000E+00  0.0000E+00
     -2.457  0.0000E+00  0.0000E+00  0.0000E+00  0.0000E+00  0.0000E+00  0.0000E+00  0.0000E+00  0.0000E+00  0.0000E+00
     -2.173  0.0000E+00  0.0000E+00  0.0000E+00  0.0000E+00  0.0000E+00  0.0000E+00  0.0000E+00  0.0000E+00  0.0000E+00
     -1.888  0.0000E+00  0.0000E+00  0.0000E+00  0.0000E+00  0.0000E+00  0.0000E+00  0.0000E+00  0.0000E+00  0.0000E+00
     -1.604  0.0000E+00  0.0000E+00  0.0000E+00  0.0000E+00  0.0000E+00  0.0000E+00  0.0000E+00  0.0000E+00  0.0000E+00
     -1.319  0.0000E+00  0.0000E+00  0.0000E+00  0.0000E+00  0.0000E+00  0.0000E+00  0.0000E+00  0.0000E+00  0.0000E+00
     -1.035  0.0000E+00  0.0000E+00  0.0000E+00  0.0000E+00  0.0000E+00  0.0000E+00  0.0000E+00  0.0000E+00  0.0000E+00
     -0.750  0.0000E+00  0.0000E+00  0.0000E+00  0.0000E+00  0.0000E+00  0.0000E+00  0.0000E+00  0.0000E+00  0.0000E+00
     -0.466  0.0000E+00  0.0000E+00  0.0000E+00  0.0000E+00  0.0000E+00  0.0000E+00  0.0000E+00  0.0000E+00  0.0000E+00
     -0.181  0.0000E+00  0.0000E+00  0.0000E+00  0.0000E+00  0.0000E+00  0.0000E+00  0.0000E+00  0.0000E+00  0.0000E+00
      0.103  0.0000E+00  0.0000E+00  0.0000E+00  0.0000E+00  0.0000E+00  0.0000E+00  0.0000E+00  0.0000E+00  0.0000E+00
      0.388  0.0000E+00  0.0000E+00  0.0000E+00  0.0000E+00  0.0000E+00  0.0000E+00  0.0000E+00  0.0000E+00  0.0000E+00
      0.672  0.0000E+00  0.0000E+00  0.0000E+00  0.0000E+00  0.0000E+00  0.0000E+00  0.0000E+00  0.0000E+00  0.0000E+00
      0.957  0.0000E+00  0.0000E+00  0.0000E+00  0.0000E+00  0.0000E+00  0.0000E+00  0.0000E+00  0.0000E+00  0.0000E+00
      1.241  0.0000E+00  0.0000E+00  0.0000E+00  0.0000E+00  0.0000E+00  0.0000E+00  0.0000E+00  0.0000E+00  0.0000E+00
      1.526  0.0000E+00  0.0000E+00  0.0000E+00  0.0000E+00  0.0000E+00  0.0000E+00  0.0000E+00  0.0000E+00  0.0000E+00
      1.810  0.0000E+00  0.0000E+00  0.0000E+00  0.0000E+00  0.0000E+00  0.0000E+00  0.0000E+00  0.0000E+00  0.0000E+00
      2.095  0.0000E+00  0.0000E+00  0.0000E+00  0.0000E+00  0.0000E+00  0.0000E+00  0.0000E+00  0.0000E+00  0.0000E+00
      2.379  0.0000E+00  0.0000E+00  0.0000E+00  0.0000E+00  0.0000E+00  0.0000E+00  0.0000E+00  0.0000E+00  0.0000E+00
      2.664  0.0000E+00  0.0000E+00  0.0000E+00  0.0000E+00  0.0000E+00  0.0000E+00  0.0000E+00  0.0000E+00  0.0000E+00
      2.948  0.0000E+00  0.0000E+00  0.0000E+00  0.0000E+00  0.0000E+00  0.0000E+00  0.0000E+00  0.0000E+00  0.0000E+00