    2    2  100    1
  0.1218813E+02  0.2532734E-09  0.2532734E-09  0.4387903E-09  0.5000000E-15
  1.000000000000000E-004
  CAR 
 Pt-hcc                                  
     32     70     24
 
  0.0000000E+00  0.0000000E+00  0.0000000E+00  0.1250000E-02
      1        -37.285296   1.000000
      2        -36.578536   1.000000
      3        -36.578535   1.000000
      4        -36.477684   1.000000
      5        -36.477683   1.000000
      6        -36.409739   1.000000
      7          3.940550   1.000000
      8          6.720017   1.000000
      9         10.788690   1.000000
     10         11.551305   1.000000
     11         11.551305   1.000000
     12         12.130161   1.000000
     13         12.130161   1.000000
     14         13.955772   1.000000
     15         13.955772   1.000000
     16         14.864782   1.000000
     17         16.393998   1.000000
     18         16.393998   1.000000
     19         23.430824   0.000000
     20         31.028631   0.000000
     21         32.017762   0.000000
     22         33.764992   0.000000
     23         40.037692   0.000000
     24         40.037693   0.000000
 
  0.1000000E+00 -0.6938894E-17  0.0000000E+00  0.7500000E-02
      1        -37.253727   1.000000
      2        -36.671406   1.000000
      3        -36.604879   1.000000
      4        -36.573370   1.000000
      5        -36.495376   1.000000
      6        -36.416398   1.000000
      7          4.412128   1.000000
      8          7.157918   1.000000
      9         10.686078   1.000000
     10         11.550982   1.000000
     11         11.889834   1.000000
     12         11.954052   1.000000
     13         12.515583   1.000000
     14         12.948702   1.000000
     15         13.679746   1.000000
     16         13.812506   1.000000
     17         16.512213   1.000000
     18         18.425605   0.000000
     19         23.351989   0.000000
     20         31.923096   0.000000
     21         32.719316   0.000000
     22         34.636002   0.000000
     23         37.271486   0.000000
     24         38.536018   0.000000
 
  0.2000000E+00 -0.1387779E-16  0.0000000E+00  0.7500000E-02
      1        -37.166796   1.000000
      2        -36.916244   1.000000
      3        -36.817984   1.000000
      4        -36.672760   1.000000
      5        -36.543284   1.000000
      6        -36.438792   1.000000
      7          5.649869   1.000000
      8          8.048920   1.000000
      9         10.371791   1.000000
     10         10.992746   1.000000
     11         11.145832   1.000000
     12         12.487836   1.000000
     13         13.074182   1.000000
     14         13.084431   1.000000
     15         13.101874   1.000000
     16         13.607727   1.000000
     17         16.698111   0.871468
     18         21.192995   0.000000
     19         23.116812   0.000000
     20         32.713446   0.000000
     21         33.402267   0.000000
     22         35.732810   0.000000
     23         35.893120   0.000000
     24         36.158299   0.000000
 
  0.3000000E+00  0.5551115E-16  0.0000000E+00  0.7500000E-02
      1        -37.214125   1.000000
      2        -37.108619   1.000000
      3        -37.044042   1.000000
      4        -36.754310   1.000000
      5        -36.603470   1.000000
      6        -36.480367   1.000000
      7          6.982185   1.000000
      8          8.018034   1.000000
      9          9.456327   1.000000
     10         10.808221   1.000000
     11         11.366880   1.000000
     12         12.323194   1.000000
     13         12.488061   1.000000
     14         14.221308   1.000000
     15         14.789392   1.000000
     16         15.190371   1.000000
     17         16.798523   0.043937
     18         22.965673   0.000000
     19         23.885936   0.000000
     20         29.281117   0.000000
     21         31.789927   0.000000
     22         33.285342   0.000000
     23         36.587453   0.000000
     24         36.874055   0.000000
 
  0.4000000E+00  0.2775558E-16  0.0000000E+00  0.7500000E-02
      1        -37.451898   1.000000
      2        -37.336106   1.000000
      3        -36.921109   1.000000
      4        -36.818536   1.000000
      5        -36.652967   1.000000
      6        -36.539128   1.000000
      7          7.363667   1.000000
      8          7.659495   1.000000
      9          8.486849   1.000000
     10         11.590835   1.000000
     11         11.787448   1.000000
     12         12.071678   1.000000
     13         12.502858   1.000000
     14         16.499926   1.000000
     15         16.801246   0.037232
     16         16.821610   0.009145
     17         16.934727   0.000000
     18         23.453785   0.000000
     19         25.373011   0.000000
     20         26.064883   0.000000
     21         30.543137   0.000000
     22         30.781339   0.000000
     23         32.093826   0.000000
     24         35.811914   0.000000
 
  0.5000000E+00  0.8326673E-16  0.0000000E+00  0.3750000E-02
      1        -37.541299   1.000000
      2        -37.421157   1.000000
      3        -36.859190   1.000000
      4        -36.843276   1.000000
      5        -36.671041   1.000000
      6        -36.575878   1.000000
      7          7.218529   1.000000
      8          7.624223   1.000000
      9          8.156043   1.000000
     10         11.596805   1.000000
     11         11.924376   1.000000
     12         12.328030   1.000000
     13         12.732235   1.000000
     14         16.820994   0.009583
     15         17.260527   0.000000
     16         17.587116   0.000000
     17         19.677011   0.000000
     18         21.534223   0.000000
     19         25.598155   0.000000
     20         26.989222   0.000000
     21         28.798512   0.000000
     22         29.672671   0.000000
     23         30.084829   0.000000
     24         35.300048   0.000000
 
  0.1000000E+00  0.1000000E+00  0.0000000E+00  0.7500000E-02
      1        -37.194738   1.000000
      2        -36.823517   1.000000
      3        -36.763172   1.000000
      4        -36.636897   1.000000
      5        -36.542233   1.000000
      6        -36.431077   1.000000
      7          5.283186   1.000000
      8          7.906973   1.000000
      9         10.275444   1.000000
     10         11.445762   1.000000
     11         11.579149   1.000000
     12         11.868457   1.000000
     13         12.741744   1.000000
     14         12.813613   1.000000
     15         13.388513   1.000000
     16         13.756518   1.000000
     17         16.554554   1.000000
     18         20.487334   0.000000
     19         23.196338   0.000000
     20         33.091290   0.000000
     21         33.881648   0.000000
     22         35.273529   0.000000
     23         35.275459   0.000000
     24         36.991524   0.000000
 
  0.2000000E+00  0.1000000E+00  0.0000000E+00  0.1500000E-01
      1        -37.089253   1.000000
      2        -37.074528   1.000000
      3        -37.010049   1.000000
      4        -36.732708   1.000000
      5        -36.615190   1.000000
      6        -36.463275   1.000000
      7          6.700971   1.000000
      8          8.579616   1.000000
      9         10.062453   1.000000
     10         10.073508   1.000000
     11         11.077375   1.000000
     12         11.990614   1.000000
     13         12.787033   1.000000
     14         13.202617   1.000000
     15         14.388194   1.000000
     16         15.047220   1.000000
     17         16.567725   0.999999
     18         23.033043   0.000000
     19         23.108828   0.000000
     20         31.198971   0.000000
     21         32.951518   0.000000
     22         33.105325   0.000000
     23         35.770743   0.000000
     24         37.681799   0.000000
 
  0.3000000E+00  0.1000000E+00  0.0000000E+00  0.1500000E-01
      1        -37.333696   1.000000
      2        -37.237320   1.000000
      3        -36.963379   1.000000
      4        -36.831532   1.000000
      5        -36.684814   1.000000
      6        -36.516274   1.000000
      7          7.745148   1.000000
      8          8.137434   1.000000
      9          8.913274   1.000000
     10         10.876309   1.000000
     11         11.566911   1.000000
     12         11.754530   1.000000
     13         12.462000   1.000000
     14         14.444808   1.000000
     15         16.046994   1.000000
     16         16.553844   1.000000
     17         17.181925   0.000000
     18         23.448183   0.000000
     19         25.629650   0.000000
     20         27.073111   0.000000
     21         30.367060   0.000000
     22         31.623845   0.000000
     23         34.827068   0.000000
     24         35.975476   0.000000
 
  0.4000000E+00  0.1000000E+00  0.0000000E+00  0.1500000E-01
      1        -37.491991   1.000000
      2        -37.375261   1.000000
      3        -36.891060   1.000000
      4        -36.859976   1.000000
      5        -36.727647   1.000000
      6        -36.575062   1.000000
      7          7.661517   1.000000
      8          8.010796   1.000000
      9          8.305480   1.000000
     10         11.509642   1.000000
     11         11.854788   1.000000
     12         11.989817   1.000000
     13         12.452105   1.000000
     14         16.341076   1.000000
     15         16.527907   1.000000
     16         16.947338   0.000000
     17         19.475255   0.000000
     18         23.101360   0.000000
     19         25.286720   0.000000
     20         27.392106   0.000000
     21         28.021270   0.000000
     22         30.814608   0.000000
     23         31.031648   0.000000
     24         35.138050   0.000000
 
  0.2000000E+00  0.2000000E+00  0.0000000E+00  0.7500000E-02
      1        -37.223538   1.000000
      2        -37.212896   1.000000
      3        -36.979136   1.000000
      4        -36.845261   1.000000
      5        -36.742198   1.000000
      6        -36.508555   1.000000
      7          8.131909   1.000000
      8          9.209697   1.000000
      9          9.384789   1.000000
     10          9.417174   1.000000
     11         11.262867   1.000000
     12         11.432715   1.000000
     13         12.752271   1.000000
     14         13.309992   1.000000
     15         16.014094   1.000000
     16         16.273074   1.000000
     17         17.296300   0.000000
     18         23.532349   0.000000
     19         25.606708   0.000000
     20         28.473329   0.000000
     21         29.199216   0.000000
     22         32.800817   0.000000
     23         35.633636   0.000000
     24         36.146747   0.000000
 
  0.3000000E+00  0.2000000E+00  0.0000000E+00  0.1500000E-01
      1        -37.376615   1.000000
      2        -37.296172   1.000000
      3        -36.976769   1.000000
      4        -36.861499   1.000000
      5        -36.849531   1.000000
      6        -36.572905   1.000000
      7          8.605489   1.000000
      8          8.780722   1.000000
      9          8.935895   1.000000
     10         10.614129   1.000000
     11         11.067407   1.000000
     12         12.019268   1.000000
     13         12.208462   1.000000
     14         14.511800   1.000000
     15         16.051817   1.000000
     16         16.703418   0.837258
     17         19.639494   0.000000
     18         24.499825   0.000000
     19         25.509409   0.000000
     20         26.750170   0.000000
     21         28.051109   0.000000
     22         32.331329   0.000000
     23         33.045538   0.000000
     24         34.812069   0.000000
 
  0.4000000E+00  0.2000000E+00  0.0000000E+00  0.7500000E-02
      1        -37.432899   1.000000
      2        -37.316025   1.000000
      3        -37.039977   1.000000
      4        -36.889548   1.000000
      5        -36.795088   1.000000
      6        -36.619256   1.000000
      7          8.387100   1.000000
      8          8.638464   1.000000
      9          8.941200   1.000000
     10         11.274062   1.000000
     11         11.407637   1.000000
     12         11.467131   1.000000
     13         12.587424   1.000000
     14         15.680396   1.000000
     15         15.970799   1.000000
     16         16.420889   1.000000
     17         21.336803   0.000000
     18         22.237101   0.000000
     19         25.235140   0.000000
     20         27.721724   0.000000
     21         29.317235   0.000000
     22         30.973853   0.000000
     23         32.101444   0.000000
     24         34.077701   0.000000
 
  0.3000000E+00  0.3000000E+00  0.0000000E+00  0.7500000E-02
      1        -37.341265   1.000000
      2        -37.252952   1.000000
      3        -37.135907   1.000000
      4        -37.023301   1.000000
      5        -36.757682   1.000000
      6        -36.647596   1.000000
      7          8.493294   1.000000
      8          9.479925   1.000000
      9          9.794558   1.000000
     10         10.436442   1.000000
     11         11.013292   1.000000
     12         11.424042   1.000000
     13         12.733203   1.000000
     14         15.058596   1.000000
     15         15.703109   1.000000
     16         16.160929   1.000000
     17         21.487504   0.000000
     18         22.625695   0.000000
     19         24.053294   0.000000
     20         29.041685   0.000000
     21         30.575897   0.000000
     22         32.084490   0.000000
     23         32.975648   0.000000
     24         33.217942   0.000000
 
  0.0000000E+00  0.0000000E+00  0.1250000E+00  0.2500000E-02
      1        -37.253063   1.000000
      2        -36.574196   1.000000
      3        -36.574195   1.000000
      4        -36.481503   1.000000
      5        -36.481502   1.000000
      6        -36.444568   1.000000
      7          4.117008   1.000000
      8          6.727111   1.000000
      9         10.735662   1.000000
     10         11.522348   1.000000
     11         11.522349   1.000000
     12         12.068540   1.000000
     13         12.068540   1.000000
     14         14.109196   1.000000
     15         14.109197   1.000000
     16         14.213439   1.000000
     17         16.361826   1.000000
     18         16.361826   1.000000
     19         24.313871   0.000000
     20         30.544948   0.000000
     21         32.792222   0.000000
     22         33.380437   0.000000
     23         38.754150   0.000000
     24         38.754151   0.000000
 
  0.1000000E+00 -0.6938894E-17  0.1250000E+00  0.1500000E-01
      1        -37.224341   1.000000
      2        -36.666712   1.000000
      3        -36.600545   1.000000
      4        -36.583306   1.000000
      5        -36.499579   1.000000
      6        -36.443606   1.000000
      7          4.583733   1.000000
      8          7.172709   1.000000
      9         10.690299   1.000000
     10         11.412685   1.000000
     11         11.720591   1.000000
     12         11.910126   1.000000
     13         12.446448   1.000000
     14         12.896080   1.000000
     15         13.861551   1.000000
     16         13.874648   1.000000
     17         16.459468   1.000000
     18         17.913858   0.000000
     19         24.336644   0.000000
     20         31.419304   0.000000
     21         33.486831   0.000000
     22         34.181630   0.000000
     23         36.921901   0.000000
     24         38.323711   0.000000
 
  0.2000000E+00 -0.1387779E-16  0.1250000E+00  0.1500000E-01
      1        -37.150655   1.000000
      2        -36.902795   1.000000
      3        -36.827540   1.000000
      4        -36.667896   1.000000
      5        -36.548159   1.000000
      6        -36.459467   1.000000
      7          5.791675   1.000000
      8          8.089821   1.000000
      9         10.413800   1.000000
     10         10.688733   1.000000
     11         11.103199   1.000000
     12         12.305733   1.000000
     13         12.836844   1.000000
     14         13.378711   1.000000
     15         13.425617   1.000000
     16         13.652648   1.000000
     17         16.604889   0.999918
     18         20.021768   0.000000
     19         24.510131   0.000000
     20         32.710714   0.000000
     21         33.361008   0.000000
     22         35.244373   0.000000
     23         36.282880   0.000000
     24         36.498368   0.000000
 
  0.3000000E+00  0.5551115E-16  0.1250000E+00  0.1500000E-01
      1        -37.230877   1.000000
      2        -37.124106   1.000000
      3        -36.998813   1.000000
      4        -36.748553   1.000000
      5        -36.609245   1.000000
      6        -36.494191   1.000000
      7          7.004355   1.000000
      8          8.072454   1.000000
      9          9.487526   1.000000
     10         10.503873   1.000000
     11         11.404889   1.000000
     12         12.540537   1.000000
     13         12.581570   1.000000
     14         14.289160   1.000000
     15         14.822059   1.000000
     16         15.110260   1.000000
     17         16.685582   0.931589
     18         21.493235   0.000000
     19         25.209433   0.000000
     20         29.650959   0.000000
     21         32.025890   0.000000
     22         33.608584   0.000000
     23         35.740927   0.000000
     24         37.264332   0.000000
 
  0.4000000E+00  0.2775558E-16  0.1250000E+00  0.1500000E-01
      1        -37.458126   1.000000
      2        -37.348833   1.000000
      3        -36.894524   1.000000
      4        -36.812431   1.000000
      5        -36.659254   1.000000
      6        -36.545122   1.000000
      7          7.294218   1.000000
      8          7.564354   1.000000
      9          8.792034   1.000000
     10         10.595177   1.000000
     11         12.198364   1.000000
     12         12.198441   1.000000
     13         13.247934   1.000000
     14         16.380233   1.000000
     15         16.522942   1.000000
     16         16.810192   0.020836
     17         16.976010   0.000000
     18         22.417745   0.000000
     19         25.293795   0.000000
     20         27.098624   0.000000
     21         30.724727   0.000000
     22         31.177953   0.000000
     23         32.106518   0.000000
     24         35.837656   0.000000
 
  0.5000000E+00  0.8326673E-16  0.1250000E+00  0.7500000E-02
      1        -37.546405   1.000000
      2        -37.434041   1.000000
      3        -36.837466   1.000000
      4        -36.837160   1.000000
      5        -36.677793   1.000000
      6        -36.578047   1.000000
      7          7.268553   1.000000
      8          7.298568   1.000000
      9          8.567893   1.000000
     10         10.664015   1.000000
     11         12.058035   1.000000
     12         12.417072   1.000000
     13         13.834252   1.000000
     14         16.520555   1.000000
     15         17.291497   0.000000
     16         17.576598   0.000000
     17         19.278396   0.000000
     18         21.336900   0.000000
     19         25.542290   0.000000
     20         26.497391   0.000000
     21         29.530530   0.000000
     22         30.096966   0.000000
     23         30.348494   0.000000
     24         35.469051   0.000000
 
  0.1000000E+00  0.1000000E+00  0.1250000E+00  0.1500000E-01
      1        -37.172199   1.000000
      2        -36.814317   1.000000
      3        -36.769278   1.000000
      4        -36.636759   1.000000
      5        -36.546480   1.000000
      6        -36.452991   1.000000
      7          5.439385   1.000000
      8          7.940088   1.000000
      9         10.323320   1.000000
     10         10.997309   1.000000
     11         11.509984   1.000000
     12         11.855704   1.000000
     13         12.706247   1.000000
     14         13.008907   1.000000
     15         13.480443   1.000000
     16         13.879511   1.000000
     17         16.478923   1.000000
     18         19.538544   0.000000
     19         24.441955   0.000000
     20         32.745101   0.000000
     21         34.327760   0.000000
     22         34.777941   0.000000
     23         35.235800   0.000000
     24         37.362802   0.000000
 
  0.2000000E+00  0.1000000E+00  0.1250000E+00  0.3000000E-01
      1        -37.129200   1.000000
      2        -37.032565   1.000000
      3        -36.994408   1.000000
      4        -36.730752   1.000000
      5        -36.620493   1.000000
      6        -36.478556   1.000000
      7          6.794943   1.000000
      8          8.643795   1.000000
      9          9.844254   1.000000
     10         10.178984   1.000000
     11         10.981421   1.000000
     12         11.918118   1.000000
     13         12.965320   1.000000
     14         13.190746   1.000000
     15         14.557273   1.000000
     16         14.961274   1.000000
     17         16.487955   1.000000
     18         21.196853   0.000000
     19         24.999760   0.000000
     20         31.392805   0.000000
     21         32.941035   0.000000
     22         33.471397   0.000000
     23         35.531378   0.000000
     24         38.110426   0.000000
 
  0.3000000E+00  0.1000000E+00  0.1250000E+00  0.3000000E-01
      1        -37.341868   1.000000
      2        -37.250531   1.000000
      3        -36.933954   1.000000
      4        -36.825485   1.000000
      5        -36.691274   1.000000
      6        -36.523362   1.000000
      7          7.639973   1.000000
      8          8.185140   1.000000
      9          9.100765   1.000000
     10         10.373386   1.000000
     11         11.666659   1.000000
     12         12.171418   1.000000
     13         12.501874   1.000000
     14         14.459296   1.000000
     15         16.125594   1.000000
     16         16.226087   1.000000
     17         17.295909   0.000000
     18         22.447544   0.000000
     19         25.855242   0.000000
     20         27.994139   0.000000
     21         30.616086   0.000000
     22         31.835798   0.000000
     23         34.469883   0.000000
     24         36.218171   0.000000
 
  0.4000000E+00  0.1000000E+00  0.1250000E+00  0.3000000E-01
      1        -37.496782   1.000000
      2        -37.387864   1.000000
      3        -36.894753   1.000000
      4        -36.829626   1.000000
      5        -36.735995   1.000000
      6        -36.574687   1.000000
      7          7.605838   1.000000
      8          7.740977   1.000000
      9          8.802763   1.000000
     10         10.589328   1.000000
     11         11.675652   1.000000
     12         12.590514   1.000000
     13         13.140915   1.000000
     14         16.168303   1.000000
     15         16.348881   1.000000
     16         17.019868   0.000000
     17         19.386354   0.000000
     18         22.707454   0.000000
     19         25.121614   0.000000
     20         27.442464   0.000000
     21         28.476127   0.000000
     22         30.946686   0.000000
     23         31.434091   0.000000
     24         35.231083   0.000000
 
  0.2000000E+00  0.2000000E+00  0.1250000E+00  0.1500000E-01
      1        -37.231523   1.000000
      2        -37.227858   1.000000
      3        -36.943146   1.000000
      4        -36.847194   1.000000
      5        -36.745303   1.000000
      6        -36.515384   1.000000
      7          8.130948   1.000000
      8          9.010921   1.000000
      9          9.427523   1.000000
     10          9.625078   1.000000
     11         11.296108   1.000000
     12         11.431220   1.000000
     13         12.572063   1.000000
     14         13.518585   1.000000
     15         15.916082   1.000000
     16         16.195520   1.000000
     17         17.423492   0.000000
     18         22.563797   0.000000
     19         26.143957   0.000000
     20         29.139351   0.000000
     21         29.435103   0.000000
     22         32.910360   0.000000
     23         35.187599   0.000000
     24         36.596307   0.000000
 
  0.3000000E+00  0.2000000E+00  0.1250000E+00  0.3000000E-01
      1        -37.380396   1.000000
      2        -37.308613   1.000000
      3        -36.981016   1.000000
      4        -36.869802   1.000000
      5        -36.821043   1.000000
      6        -36.571075   1.000000
      7          8.370677   1.000000
      8          8.872236   1.000000
      9          9.186887   1.000000
     10         10.202571   1.000000
     11         11.355657   1.000000
     12         11.911945   1.000000
     13         12.387440   1.000000
     14         14.594899   1.000000
     15         15.711592   1.000000
     16         16.882471   0.000022
     17         19.706851   0.000000
     18         24.452048   0.000000
     19         24.837760   0.000000
     20         26.916675   0.000000
     21         28.903752   0.000000
     22         32.300273   0.000000
     23         32.820630   0.000000
     24         35.077498   0.000000
 
  0.4000000E+00  0.2000000E+00  0.1250000E+00  0.1500000E-01
      1        -37.435658   1.000000
      2        -37.328965   1.000000
      3        -37.043655   1.000000
      4        -36.900346   1.000000
      5        -36.771014   1.000000
      6        -36.612276   1.000000
      7          8.189836   1.000000
      8          8.704429   1.000000
      9          9.292049   1.000000
     10         10.515474   1.000000
     11         11.087543   1.000000
     12         12.223481   1.000000
     13         12.819473   1.000000
     14         15.616960   1.000000
     15         15.718983   1.000000
     16         16.547703   1.000000
     17         21.409363   0.000000
     18         22.263049   0.000000
     19         25.555063   0.000000
     20         27.439521   0.000000
     21         28.482727   0.000000
     22         31.901298   0.000000
     23         32.219521   0.000000
     24         33.893016   0.000000
 
  0.3000000E+00  0.3000000E+00  0.1250000E+00  0.1500000E-01
      1        -37.339255   1.000000
      2        -37.266508   1.000000
      3        -37.144614   1.000000
      4        -37.034218   1.000000
      5        -36.737281   1.000000
      6        -36.637938   1.000000
      7          8.567121   1.000000
      8          9.425873   1.000000
      9          9.798243   1.000000
     10         10.196055   1.000000
     11         11.281596   1.000000
     12         11.304011   1.000000
     13         12.740220   1.000000
     14         15.194829   1.000000
     15         15.349012   1.000000
     16         16.318098   1.000000
     17         21.616117   0.000000
     18         22.789949   0.000000
     19         24.449338   0.000000
     20         28.068129   0.000000
     21         30.887875   0.000000
     22         30.999967   0.000000
     23         32.815665   0.000000
     24         34.221188   0.000000
 
  0.0000000E+00  0.0000000E+00  0.2500000E+00  0.2500000E-02
      1        -37.162055   1.000000
      2        -36.563400   1.000000
      3        -36.563399   1.000000
      4        -36.543062   1.000000
      5        -36.492412   1.000000
      6        -36.492412   1.000000
      7          4.616542   1.000000
      8          6.708119   1.000000
      9         10.617249   1.000000
     10         11.476406   1.000000
     11         11.476407   1.000000
     12         11.911738   1.000000
     13         11.911738   1.000000
     14         12.854647   1.000000
     15         14.507754   1.000000
     16         14.507755   1.000000
     17         16.235619   1.000000
     18         16.235620   1.000000
     19         26.365831   0.000000
     20         30.120597   0.000000
     21         32.573120   0.000000
     22         33.817918   0.000000
     23         37.880383   0.000000
     24         37.880383   0.000000
 
  0.1000000E+00 -0.6938894E-17  0.2500000E+00  0.1500000E-01
      1        -37.140581   1.000000
      2        -36.652740   1.000000
      3        -36.621346   1.000000
      4        -36.588561   1.000000
      5        -36.511439   1.000000
      6        -36.509077   1.000000
      7          5.071913   1.000000
      8          7.173231   1.000000
      9         10.660772   1.000000
     10         11.181666   1.000000
     11         11.309166   1.000000
     12         11.842876   1.000000
     13         12.279670   1.000000
     14         12.420315   1.000000
     15         14.305078   1.000000
     16         14.311586   1.000000
     17         16.280077   1.000000
     18         17.087774   0.000000
     19         26.445937   0.000000
     20         30.976599   0.000000
     21         33.349330   0.000000
     22         34.467259   0.000000
     23         36.642643   0.000000
     24         37.774606   0.000000
 
  0.2000000E+00 -0.1387779E-16  0.2500000E+00  0.1500000E-01
      1        -37.105753   1.000000
      2        -36.876538   1.000000
      3        -36.843035   1.000000
      4        -36.653884   1.000000
      5        -36.562200   1.000000
      6        -36.518296   1.000000
      7          6.199008   1.000000
      8          8.160682   1.000000
      9         10.146998   1.000000
     10         10.589191   1.000000
     11         10.760200   1.000000
     12         12.037498   1.000000
     13         12.718536   1.000000
     14         13.286946   1.000000
     15         14.093534   1.000000
     16         14.103800   1.000000
     17         16.326283   1.000000
     18         18.492476   0.000000
     19         26.643540   0.000000
     20         32.632933   0.000000
     21         33.540243   0.000000
     22         34.730796   0.000000
     23         36.709646   0.000000
     24         37.037076   0.000000
 
  0.3000000E+00  0.5551115E-16  0.2500000E+00  0.1500000E-01
      1        -37.251486   1.000000
      2        -37.156143   1.000000
      3        -36.905184   1.000000
      4        -36.732445   1.000000
      5        -36.625789   1.000000
      6        -36.535443   1.000000
      7          7.106114   1.000000