PROCAR lm decomposed
# of k-points:   70         # of bands:   24         # of ions:    2

 k-point     1 :    0.00000000 0.00000000 0.00000000     weight = 0.00125000

band     1 # energy  -37.28529576 # occ.  2.00000000
 
ion      s     py     pz     px    dxy    dyz    dz2    dxz  x2-y2    tot
    1  0.000  0.000  0.487  0.000  0.000  0.000  0.000  0.000  0.000  0.487
    2  0.000  0.000  0.487  0.000  0.000  0.000  0.000  0.000  0.000  0.487
tot    0.000  0.000  0.974  0.000  0.000  0.000  0.000  0.000  0.000  0.974
 
band     2 # energy  -36.57853603 # occ.  2.00000000
 
ion      s     py     pz     px    dxy    dyz    dz2    dxz  x2-y2    tot
    1  0.000  0.125  0.000  0.375  0.000  0.000  0.000  0.000  0.000  0.499
    2  0.000  0.125  0.000  0.375  0.000  0.000  0.000  0.000  0.000  0.499
tot    0.000  0.250  0.000  0.749  0.000  0.000  0.000  0.000  0.000  0.999
 
band     3 # energy  -36.57853524 # occ.  2.00000000
 
ion      s     py     pz     px    dxy    dyz    dz2    dxz  x2-y2    tot
    1  0.000  0.375  0.000  0.125  0.000  0.000  0.000  0.000  0.000  0.499
    2  0.000  0.375  0.000  0.125  0.000  0.000  0.000  0.000  0.000  0.499
tot    0.000  0.749  0.000  0.250  0.000  0.000  0.000  0.000  0.000  0.999
 
band     4 # energy  -36.47768389 # occ.  2.00000000
 
ion      s     py     pz     px    dxy    dyz    dz2    dxz  x2-y2    tot
    1  0.000  0.125  0.000  0.375  0.000  0.000  0.000  0.000  0.000  0.501
    2  0.000  0.125  0.000  0.375  0.000  0.000  0.000  0.000  0.000  0.501
tot    0.000  0.250  0.000  0.751  0.000  0.000  0.000  0.000  0.000  1.001
 
band     5 # energy  -36.47768310 # occ.  2.00000000
 
ion      s     py     pz     px    dxy    dyz    dz2    dxz  x2-y2    tot
    1  0.000  0.375  0.000  0.125  0.000  0.000  0.000  0.000  0.000  0.501
    2  0.000  0.375  0.000  0.125  0.000  0.000  0.000  0.000  0.000  0.501
tot    0.000  0.751  0.000  0.250  0.000  0.000  0.000  0.000  0.000  1.001
 
band     6 # energy  -36.40973897 # occ.  2.00000000
 
ion      s     py     pz     px    dxy    dyz    dz2    dxz  x2-y2    tot
    1  0.000  0.000  0.499  0.000  0.000  0.000  0.000  0.000  0.000  0.499
    2  0.000  0.000  0.499  0.000  0.000  0.000  0.000  0.000  0.000  0.499
tot    0.000  0.000  0.999  0.000  0.000  0.000  0.000  0.000  0.000  0.999
 
band     7 # energy    3.94054970 # occ.  2.00000000
 
ion      s     py     pz     px    dxy    dyz    dz2    dxz  x2-y2    tot
    1  0.250  0.000  0.000  0.000  0.000  0.000  0.000  0.000  0.000  0.251
    2  0.250  0.000  0.000  0.000  0.000  0.000  0.000  0.000  0.000  0.251
tot    0.501  0.000  0.000  0.000  0.000  0.000  0.001  0.000  0.000  0.501
 
band     8 # energy    6.72001678 # occ.  2.00000000
 
ion      s     py     pz     px    dxy    dyz    dz2    dxz  x2-y2    tot
    1  0.100  0.000  0.000  0.000  0.000  0.000  0.258  0.000  0.000  0.357
    2  0.100  0.000  0.000  0.000  0.000  0.000  0.258  0.000  0.000  0.357
tot    0.199  0.000  0.000  0.000  0.000  0.000  0.515  0.000  0.000  0.714
 
band     9 # energy   10.78869025 # occ.  2.00000000
 
ion      s     py     pz     px    dxy    dyz    dz2    dxz  x2-y2    tot
    1  0.000  0.000  0.000  0.000  0.000  0.000  0.432  0.000  0.000  0.432
    2  0.000  0.000  0.000  0.000  0.000  0.000  0.432  0.000  0.000  0.432
tot    0.000  0.000  0.000  0.000  0.000  0.000  0.864  0.000  0.000  0.864
 
band    10 # energy   11.55130471 # occ.  2.00000000
 
ion      s     py     pz     px    dxy    dyz    dz2    dxz  x2-y2    tot
    1  0.000  0.000  0.000  0.000  0.109  0.000  0.000  0.000  0.328  0.438
    2  0.000  0.000  0.000  0.000  0.109  0.000  0.000  0.000  0.328  0.438
tot    0.000  0.000  0.000  0.000  0.219  0.000  0.000  0.000  0.656  0.876
 
band    11 # energy   11.55130521 # occ.  2.00000000
 
ion      s     py     pz     px    dxy    dyz    dz2    dxz  x2-y2    tot
    1  0.000  0.000  0.000  0.000  0.328  0.000  0.000  0.000  0.109  0.438
    2  0.000  0.000  0.000  0.000  0.328  0.000  0.000  0.000  0.109  0.438
tot    0.000  0.000  0.000  0.000  0.656  0.000  0.000  0.000  0.219  0.876
 
band    12 # energy   12.13016059 # occ.  2.00000000
 
ion      s     py     pz     px    dxy    dyz    dz2    dxz  x2-y2    tot
    1  0.000  0.000  0.000  0.000  0.112  0.000  0.000  0.000  0.336  0.448
    2  0.000  0.000  0.000  0.000  0.112  0.000  0.000  0.000  0.336  0.448
tot    0.000  0.001  0.000  0.000  0.224  0.000  0.000  0.000  0.672  0.896
 
band    13 # energy   12.13016112 # occ.  2.00000000
 
ion      s     py     pz     px    dxy    dyz    dz2    dxz  x2-y2    tot
    1  0.000  0.000  0.000  0.000  0.336  0.000  0.000  0.000  0.112  0.448
    2  0.000  0.000  0.000  0.000  0.336  0.000  0.000  0.000  0.112  0.448
tot    0.000  0.000  0.000  0.001  0.672  0.000  0.000  0.000  0.224  0.896
 
band    14 # energy   13.95577183 # occ.  2.00000000
 
ion      s     py     pz     px    dxy    dyz    dz2    dxz  x2-y2    tot
    1  0.000  0.000  0.000  0.000  0.000  0.114  0.000  0.341  0.000  0.455
    2  0.000  0.000  0.000  0.000  0.000  0.114  0.000  0.341  0.000  0.455
tot    0.000  0.000  0.000  0.000  0.000  0.228  0.000  0.683  0.000  0.910
 
band    15 # energy   13.95577234 # occ.  2.00000000
 
ion      s     py     pz     px    dxy    dyz    dz2    dxz  x2-y2    tot
    1  0.000  0.000  0.000  0.000  0.000  0.341  0.000  0.114  0.000  0.455
    2  0.000  0.000  0.000  0.000  0.000  0.341  0.000  0.114  0.000  0.455
tot    0.000  0.000  0.000  0.000  0.000  0.683  0.000  0.228  0.000  0.910
 
band    16 # energy   14.86478154 # occ.  2.00000000
 
ion      s     py     pz     px    dxy    dyz    dz2    dxz  x2-y2    tot
    1  0.000  0.000  0.122  0.000  0.000  0.000  0.000  0.000  0.000  0.122
    2  0.000  0.000  0.122  0.000  0.000  0.000  0.000  0.000  0.000  0.122
tot    0.000  0.000  0.243  0.000  0.000  0.000  0.000  0.000  0.000  0.243
 
band    17 # energy   16.39399789 # occ.  2.00000000
 
ion      s     py     pz     px    dxy    dyz    dz2    dxz  x2-y2    tot
    1  0.000  0.000  0.000  0.000  0.000  0.118  0.000  0.353  0.000  0.471
    2  0.000  0.000  0.000  0.000  0.000  0.118  0.000  0.353  0.000  0.471
tot    0.000  0.000  0.000  0.000  0.000  0.235  0.000  0.706  0.000  0.941
 
band    18 # energy   16.39399849 # occ.  2.00000000
 
ion      s     py     pz     px    dxy    dyz    dz2    dxz  x2-y2    tot
    1  0.000  0.000  0.000  0.000  0.000  0.353  0.000  0.118  0.000  0.471
    2  0.000  0.000  0.000  0.000  0.000  0.353  0.000  0.118  0.000  0.471
tot    0.000  0.000  0.000  0.000  0.000  0.706  0.000  0.235  0.000  0.941
 
band    19 # energy   23.43082367 # occ.  0.00000000
 
ion      s     py     pz     px    dxy    dyz    dz2    dxz  x2-y2    tot
    1  0.209  0.000  0.000  0.000  0.000  0.000  0.220  0.000  0.000  0.429
    2  0.209  0.000  0.000  0.000  0.000  0.000  0.220  0.000  0.000  0.429
tot    0.418  0.000  0.000  0.000  0.000  0.000  0.440  0.000  0.000  0.858
 
band    20 # energy   31.02863055 # occ.  0.00000000
 
ion      s     py     pz     px    dxy    dyz    dz2    dxz  x2-y2    tot
    1  0.003  0.000  0.000  0.000  0.000  0.000  0.002  0.000  0.000  0.006
    2  0.003  0.000  0.000  0.000  0.000  0.000  0.002  0.000  0.000  0.006
tot    0.007  0.000  0.000  0.000  0.000  0.000  0.005  0.000  0.000  0.011
 
band    21 # energy   32.01776190 # occ.  0.00000000
 
ion      s     py     pz     px    dxy    dyz    dz2    dxz  x2-y2    tot
    1  0.000  0.000  0.016  0.000  0.000  0.000  0.000  0.000  0.000  0.016
    2  0.000  0.000  0.016  0.000  0.000  0.000  0.000  0.000  0.000  0.016
tot    0.000  0.000  0.033  0.000  0.000  0.000  0.000  0.000  0.000  0.033
 
band    22 # energy   33.76499235 # occ.  0.00000000
 
ion      s     py     pz     px    dxy    dyz    dz2    dxz  x2-y2    tot
    1  0.000  0.000  0.000  0.000  0.000  0.000  0.025  0.000  0.000  0.025
    2  0.000  0.000  0.000  0.000  0.000  0.000  0.025  0.000  0.000  0.025
tot    0.001  0.000  0.000  0.000  0.000  0.000  0.050  0.000  0.000  0.051
 
band    23 # energy   40.03769195 # occ.  0.00000000
 
ion      s     py     pz     px    dxy    dyz    dz2    dxz  x2-y2    tot
    1  0.000  0.000  0.000  0.000  0.000  0.004  0.000  0.030  0.000  0.033
    2  0.000  0.000  0.000  0.000  0.000  0.004  0.000  0.030  0.000  0.033
tot    0.000  0.000  0.000  0.000  0.000  0.007  0.000  0.059  0.000  0.066
 
band    24 # energy   40.03769275 # occ.  0.00000000
 
ion      s     py     pz     px    dxy    dyz    dz2    dxz  x2-y2    tot
    1  0.000  0.000  0.000  0.000  0.000  0.030  0.000  0.004  0.000  0.033
    2  0.000  0.000  0.000  0.000  0.000  0.030  0.000  0.004  0.000  0.033
tot    0.000  0.000  0.000  0.000  0.000  0.059  0.000  0.007  0.000  0.066
 

 k-point     2 :    0.10000000-0.00000000 0.00000000     weight = 0.00750000

band     1 # energy  -37.25372686 # occ.  2.00000000
 
ion      s     py     pz     px    dxy    dyz    dz2    dxz  x2-y2    tot
    1  0.000  0.000  0.488  0.000  0.000  0.000  0.000  0.000  0.000  0.488
    2  0.000  0.000  0.488  0.000  0.000  0.000  0.000  0.000  0.000  0.488
tot    0.000  0.000  0.975  0.000  0.000  0.000  0.000  0.000  0.000  0.975
 
band     2 # energy  -36.67140641 # occ.  2.00000000
 
ion      s     py     pz     px    dxy    dyz    dz2    dxz  x2-y2    tot
    1  0.000  0.125  0.000  0.374  0.000  0.000  0.000  0.000  0.000  0.498
    2  0.000  0.125  0.000  0.374  0.000  0.000  0.000  0.000  0.000  0.498
tot    0.000  0.249  0.000  0.747  0.000  0.000  0.000  0.000  0.000  0.997
 
band     3 # energy  -36.60487931 # occ.  2.00000000
 
ion      s     py     pz     px    dxy    dyz    dz2    dxz  x2-y2    tot
    1  0.000  0.374  0.000  0.125  0.000  0.000  0.000  0.000  0.000  0.499
    2  0.000  0.374  0.000  0.125  0.000  0.000  0.000  0.000  0.000  0.499
tot    0.000  0.749  0.000  0.250  0.000  0.000  0.000  0.000  0.000  0.998
 
band     4 # energy  -36.57337045 # occ.  2.00000000
 
ion      s     py     pz     px    dxy    dyz    dz2    dxz  x2-y2    tot
    1  0.000  0.125  0.000  0.374  0.000  0.000  0.000  0.000  0.000  0.499
    2  0.000  0.125  0.000  0.374  0.000  0.000  0.000  0.000  0.000  0.499
tot    0.000  0.250  0.000  0.749  0.000  0.000  0.000  0.000  0.000  0.999
 
band     5 # energy  -36.49537606 # occ.  2.00000000
 
ion      s     py     pz     px    dxy    dyz    dz2    dxz  x2-y2    tot
    1  0.000  0.375  0.000  0.125  0.000  0.000  0.000  0.000  0.000  0.500
    2  0.000  0.375  0.000  0.125  0.000  0.000  0.000  0.000  0.000  0.500
tot    0.000  0.751  0.000  0.250  0.000  0.000  0.000  0.000  0.000  1.001
 
band     6 # energy  -36.41639828 # occ.  2.00000000
 
ion      s     py     pz     px    dxy    dyz    dz2    dxz  x2-y2    tot
    1  0.000  0.000  0.499  0.000  0.000  0.000  0.000  0.000  0.000  0.499
    2  0.000  0.000  0.499  0.000  0.000  0.000  0.000  0.000  0.000  0.499
tot    0.000  0.000  0.999  0.000  0.000  0.000  0.000  0.000  0.000  0.999
 
band     7 # energy    4.41212779 # occ.  2.00000000
 
ion      s     py     pz     px    dxy    dyz    dz2    dxz  x2-y2    tot
    1  0.244  0.001  0.000  0.003  0.000  0.000  0.000  0.000  0.000  0.248
    2  0.244  0.001  0.000  0.003  0.000  0.000  0.000  0.000  0.000  0.248
tot    0.488  0.002  0.000  0.006  0.001  0.000  0.000  0.000  0.000  0.497
 
band     8 # energy    7.15791759 # occ.  2.00000000
 
ion      s     py     pz     px    dxy    dyz    dz2    dxz  x2-y2    tot
    1  0.091  0.001  0.000  0.003  0.002  0.000  0.259  0.000  0.001  0.357
    2  0.091  0.001  0.000  0.003  0.002  0.000  0.259  0.000  0.001  0.357
tot    0.181  0.002  0.000  0.005  0.005  0.000  0.519  0.000  0.002  0.713
 
band     9 # energy   10.68607808 # occ.  2.00000000
 
ion      s     py     pz     px    dxy    dyz    dz2    dxz  x2-y2    tot
    1  0.000  0.000  0.000  0.001  0.120  0.000  0.264  0.000  0.040  0.426
    2  0.000  0.000  0.000  0.001  0.120  0.000  0.264  0.000  0.040  0.426
tot    0.000  0.000  0.000  0.001  0.240  0.000  0.529  0.000  0.080  0.851
 
band    10 # energy   11.55098202 # occ.  2.00000000
 
ion      s     py     pz     px    dxy    dyz    dz2    dxz  x2-y2    tot
    1  0.000  0.000  0.000  0.001  0.215  0.000  0.147  0.000  0.072  0.435
    2  0.000  0.000  0.000  0.001  0.215  0.000  0.147  0.000  0.072  0.435
tot    0.000  0.000  0.000  0.001  0.430  0.000  0.295  0.000  0.143  0.869
 
band    11 # energy   11.88983391 # occ.  2.00000000
 
ion      s     py     pz     px    dxy    dyz    dz2    dxz  x2-y2    tot
    1  0.003  0.000  0.000  0.001  0.311  0.000  0.022  0.000  0.104  0.440
    2  0.003  0.000  0.000  0.001  0.311  0.000  0.022  0.000  0.104  0.440
tot    0.005  0.000  0.000  0.001  0.622  0.000  0.044  0.000  0.207  0.880
 
band    12 # energy   11.95405183 # occ.  2.00000000
 
ion      s     py     pz     px    dxy    dyz    dz2    dxz  x2-y2    tot
    1  0.000  0.001  0.000  0.000  0.109  0.000  0.000  0.000  0.328  0.438
    2  0.000  0.001  0.000  0.000  0.109  0.000  0.000  0.000  0.328  0.438
tot    0.000  0.001  0.000  0.000  0.218  0.000  0.000  0.000  0.655  0.876
 
band    13 # energy   12.51558308 # occ.  2.00000000
 
ion      s     py     pz     px    dxy    dyz    dz2    dxz  x2-y2    tot
    1  0.000  0.001  0.000  0.000  0.112  0.000  0.000  0.000  0.336  0.448
    2  0.000  0.001  0.000  0.000  0.112  0.000  0.000  0.000  0.336  0.448
tot    0.000  0.001  0.000  0.000  0.224  0.000  0.000  0.000  0.671  0.897
 
band    14 # energy   12.94870248 # occ.  2.00000000
 
ion      s     py     pz     px    dxy    dyz    dz2    dxz  x2-y2    tot
    1  0.000  0.000  0.039  0.000  0.000  0.072  0.000  0.215  0.000  0.326
    2  0.000  0.000  0.039  0.000  0.000  0.072  0.000  0.215  0.000  0.326
tot    0.000  0.000  0.078  0.000  0.000  0.143  0.000  0.430  0.000  0.651
 
band    15 # energy   13.67974645 # occ.  2.00000000
 
ion      s     py     pz     px    dxy    dyz    dz2    dxz  x2-y2    tot
    1  0.000  0.000  0.000  0.000  0.000  0.337  0.000  0.112  0.000  0.450
    2  0.000  0.000  0.000  0.000  0.000  0.337  0.000  0.112  0.000  0.450
tot    0.000  0.000  0.000  0.000  0.000  0.675  0.000  0.225  0.000  0.900
 
band    16 # energy   13.81250602 # occ.  2.00000000
 
ion      s     py     pz     px    dxy    dyz    dz2    dxz  x2-y2    tot
    1  0.000  0.000  0.028  0.000  0.000  0.087  0.000  0.260  0.000  0.374
    2  0.000  0.000  0.028  0.000  0.000  0.087  0.000  0.260  0.000  0.374
tot    0.000  0.000  0.055  0.000  0.000  0.173  0.000  0.519  0.000  0.747
 
band    17 # energy   16.51221275 # occ.  2.00000000
 
ion      s     py     pz     px    dxy    dyz    dz2    dxz  x2-y2    tot
    1  0.000  0.000  0.000  0.000  0.000  0.356  0.000  0.119  0.000  0.475
    2  0.000  0.000  0.000  0.000  0.000  0.356  0.000  0.119  0.000  0.475
tot    0.000  0.000  0.000  0.000  0.000  0.712  0.000  0.237  0.000  0.950
 
band    18 # energy   18.42560485 # occ.  0.00000000
 
ion      s     py     pz     px    dxy    dyz    dz2    dxz  x2-y2    tot
    1  0.000  0.000  0.056  0.000  0.000  0.071  0.000  0.214  0.000  0.341
    2  0.000  0.000  0.056  0.000  0.000  0.071  0.000  0.214  0.000  0.341
tot    0.000  0.000  0.112  0.000  0.000  0.142  0.000  0.427  0.000  0.682
 
band    19 # energy   23.35198921 # occ.  0.00000000
 
ion      s     py     pz     px    dxy    dyz    dz2    dxz  x2-y2    tot
    1  0.209  0.000  0.000  0.001  0.002  0.000  0.213  0.000  0.001  0.427
    2  0.209  0.000  0.000  0.001  0.002  0.000  0.213  0.000  0.001  0.427
tot    0.419  0.001  0.000  0.002  0.005  0.000  0.426  0.000  0.002  0.854
 
band    20 # energy   31.92309642 # occ.  0.00000000
 
ion      s     py     pz     px    dxy    dyz    dz2    dxz  x2-y2    tot
    1  0.004  0.000  0.000  0.000  0.015  0.000  0.002  0.000  0.005  0.027
    2  0.004  0.000  0.000  0.000  0.015  0.000  0.002  0.000  0.005  0.027
tot    0.008  0.000  0.000  0.001  0.030  0.000  0.005  0.000  0.010  0.055
 
band    21 # energy   32.71931624 # occ.  0.00000000
 
ion      s     py     pz     px    dxy    dyz    dz2    dxz  x2-y2    tot
    1  0.000  0.000  0.014  0.000  0.000  0.002  0.000  0.007  0.000  0.024
    2  0.000  0.000  0.014  0.000  0.000  0.002  0.000  0.007  0.000  0.024
tot    0.000  0.000  0.028  0.000  0.000  0.005  0.000  0.015  0.000  0.048
 
band    22 # energy   34.63600180 # occ.  0.00000000
 
ion      s     py     pz     px    dxy    dyz    dz2    dxz  x2-y2    tot
    1  0.000  0.000  0.000  0.001  0.012  0.000  0.025  0.000  0.004  0.042
    2  0.000  0.000  0.000  0.001  0.012  0.000  0.025  0.000  0.004  0.042
tot    0.000  0.001  0.000  0.002  0.024  0.000  0.050  0.000  0.008  0.085
 
band    23 # energy   37.27148592 # occ.  0.00000000
 
ion      s     py     pz     px    dxy    dyz    dz2    dxz  x2-y2    tot
    1  0.000  0.000  0.010  0.000  0.000  0.007  0.000  0.020  0.000  0.037
    2  0.000  0.000  0.010  0.000  0.000  0.007  0.000  0.020  0.000  0.037
tot    0.000  0.000  0.019  0.000  0.000  0.013  0.000  0.040  0.000  0.073
 
band    24 # energy   38.53601846 # occ.  0.00000000
 
ion      s     py     pz     px    dxy    dyz    dz2    dxz  x2-y2    tot
    1  0.006  0.030  0.000  0.091  0.024  0.000  0.008  0.000  0.008  0.167
    2  0.006  0.030  0.000  0.091  0.024  0.000  0.008  0.000  0.008  0.167
tot    0.012  0.060  0.000  0.181  0.047  0.000  0.016  0.000  0.016  0.333
 

 k-point     3 :    0.20000000-0.00000000 0.00000000     weight = 0.00750000

band     1 # energy  -37.16679590 # occ.  2.00000000
 
ion      s     py     pz     px    dxy    dyz    dz2    dxz  x2-y2    tot
    1  0.000  0.000  0.489  0.000  0.000  0.000  0.000  0.000  0.000  0.489
    2  0.000  0.000  0.489  0.000  0.000  0.000  0.000  0.000  0.000  0.489
tot    0.000  0.000  0.978  0.000  0.000  0.000  0.000  0.000  0.000  0.978
 
band     2 # energy  -36.91624405 # occ.  2.00000000
 
ion      s     py     pz     px    dxy    dyz    dz2    dxz  x2-y2    tot
    1  0.000  0.124  0.000  0.371  0.000  0.000  0.000  0.000  0.000  0.495
    2  0.000  0.124  0.000  0.371  0.000  0.000  0.000  0.000  0.000  0.495
tot    0.000  0.248  0.000  0.743  0.000  0.000  0.000  0.000  0.000  0.991
 
band     3 # energy  -36.81798355 # occ.  2.00000000
 
ion      s     py     pz     px    dxy    dyz    dz2    dxz  x2-y2    tot
    1  0.000  0.124  0.000  0.372  0.000  0.000  0.000  0.000  0.000  0.497
    2  0.000  0.124  0.000  0.372  0.000  0.000  0.000  0.000  0.000  0.497
tot    0.001  0.248  0.000  0.744  0.000  0.000  0.000  0.000  0.000  0.993
 
band     4 # energy  -36.67276009 # occ.  2.00000000
 
ion      s     py     pz     px    dxy    dyz    dz2    dxz  x2-y2    tot
    1  0.000  0.374  0.000  0.125  0.000  0.000  0.000  0.000  0.000  0.498
    2  0.000  0.374  0.000  0.125  0.000  0.000  0.000  0.000  0.000  0.498
tot    0.000  0.747  0.000  0.249  0.000  0.000  0.000  0.000  0.000  0.997
 
band     5 # energy  -36.54328415 # occ.  2.00000000
 
ion      s     py     pz     px    dxy    dyz    dz2    dxz  x2-y2    tot
    1  0.000  0.375  0.000  0.125  0.000  0.000  0.000  0.000  0.000  0.500
    2  0.000  0.375  0.000  0.125  0.000  0.000  0.000  0.000  0.000  0.500
tot    0.000  0.750  0.000  0.250  0.000  0.000  0.000  0.000  0.000  1.000
 
band     6 # energy  -36.43879245 # occ.  2.00000000
 
ion      s     py     pz     px    dxy    dyz    dz2    dxz  x2-y2    tot
    1  0.000  0.000  0.499  0.000  0.000  0.000  0.000  0.000  0.000  0.499
    2  0.000  0.000  0.499  0.000  0.000  0.000  0.000  0.000  0.000  0.499
tot    0.000  0.000  0.998  0.000  0.000  0.000  0.000  0.000  0.000  0.998
 
band     7 # energy    5.64986937 # occ.  2.00000000
 
ion      s     py     pz     px    dxy    dyz    dz2    dxz  x2-y2    tot
    1  0.221  0.003  0.000  0.009  0.009  0.000  0.002  0.000  0.003  0.248
    2  0.221  0.003  0.000  0.009  0.009  0.000  0.002  0.000  0.003  0.248
tot    0.442  0.006  0.000  0.019  0.019  0.000  0.003  0.000  0.006  0.495
 
band     8 # energy    8.04892002 # occ.  2.00000000
 
ion      s     py     pz     px    dxy    dyz    dz2    dxz  x2-y2    tot
    1  0.059  0.002  0.000  0.006  0.052  0.000  0.230  0.000  0.017  0.365
    2  0.059  0.002  0.000  0.006  0.052  0.000  0.230  0.000  0.017  0.365
tot    0.117  0.004  0.000  0.011  0.104  0.000  0.459  0.000  0.035  0.731
 
band     9 # energy   10.37179104 # occ.  2.00000000
 
ion      s     py     pz     px    dxy    dyz    dz2    dxz  x2-y2    tot
    1  0.005  0.002  0.000  0.006  0.185  0.000  0.136  0.000  0.062  0.397
    2  0.005  0.002  0.000  0.006  0.185  0.000  0.136  0.000  0.062  0.397
tot    0.010  0.004  0.000  0.013  0.370  0.000  0.272  0.000  0.123  0.793
 
band    10 # energy   10.99274639 # occ.  2.00000000
 
ion      s     py     pz     px    dxy    dyz    dz2    dxz  x2-y2    tot
    1  0.000  0.000  0.029  0.000  0.000  0.075  0.000  0.225  0.000  0.328
    2  0.000  0.000  0.029  0.000  0.000  0.075  0.000  0.225  0.000  0.328
tot    0.000  0.000  0.057  0.000  0.000  0.150  0.000  0.449  0.000  0.656
 
band    11 # energy   11.14583239 # occ.  2.00000000
 
ion      s     py     pz     px    dxy    dyz    dz2    dxz  x2-y2    tot
    1  0.008  0.001  0.000  0.002  0.257  0.000  0.067  0.000  0.086  0.421
    2  0.008  0.001  0.000  0.002  0.257  0.000  0.067  0.000  0.086  0.421
tot    0.016  0.001  0.000  0.004  0.515  0.000  0.135  0.000  0.172  0.842
 
band    12 # energy   12.48783642 # occ.  2.00000000
 
ion      s     py     pz     px    dxy    dyz    dz2    dxz  x2-y2    tot
    1  0.006  0.001  0.000  0.003  0.112  0.000  0.272  0.000  0.037  0.433
    2  0.006  0.001  0.000  0.003  0.112  0.000  0.272  0.000  0.037  0.433
tot    0.013  0.002  0.000  0.006  0.225  0.000  0.545  0.000  0.075  0.865
 
band    13 # energy   13.07418188 # occ.  2.00000000
 
ion      s     py     pz     px    dxy    dyz    dz2    dxz  x2-y2    tot
    1  0.000  0.000  0.017  0.000  0.000  0.094  0.000  0.282  0.000  0.392
    2  0.000  0.000  0.017  0.000  0.000  0.094  0.000  0.282  0.000  0.392
tot    0.000  0.000  0.034  0.000  0.000  0.188  0.000  0.563  0.000  0.785
 
band    14 # energy   13.08443057 # occ.  2.00000000
 
ion      s     py     pz     px    dxy    dyz    dz2    dxz  x2-y2    tot
    1  0.000  0.000  0.000  0.000  0.000  0.331  0.000  0.110  0.000  0.441
    2  0.000  0.000  0.000  0.000  0.000  0.331  0.000  0.110  0.000  0.441
tot    0.000  0.000  0.000  0.000  0.000  0.661  0.000  0.220  0.000  0.882
 
band    15 # energy   13.10187450 # occ.  2.00000000
 
ion      s     py     pz     px    dxy    dyz    dz2    dxz  x2-y2    tot
    1  0.000  0.002  0.000  0.001  0.109  0.000  0.000  0.000  0.328  0.440
    2  0.000  0.002  0.000  0.001  0.109  0.000  0.000  0.000  0.328  0.440
tot    0.000  0.003  0.000  0.001  0.219  0.000  0.000  0.000  0.657  0.880
 
band    16 # energy   13.60772724 # occ.  2.00000000
 
ion      s     py     pz     px    dxy    dyz    dz2    dxz  x2-y2    tot
    1  0.000  0.002  0.000  0.001  0.112  0.000  0.000  0.000  0.336  0.450
    2  0.000  0.002  0.000  0.001  0.112  0.000  0.000  0.000  0.336  0.450
tot    0.000  0.004  0.000  0.001  0.224  0.000  0.000  0.000  0.672  0.901
 
band    17 # energy   16.69811122 # occ.  1.74293551
 
ion      s     py     pz     px    dxy    dyz    dz2    dxz  x2-y2    tot
    1  0.000  0.000  0.000  0.000  0.000  0.360  0.000  0.120  0.000  0.481
    2  0.000  0.000  0.000  0.000  0.000  0.360  0.000  0.120  0.000  0.481
tot    0.000  0.000  0.000  0.000  0.000  0.721  0.000  0.240  0.000  0.961
 
band    18 # energy   21.19299499 # occ.  0.00000000
 
ion      s     py     pz     px    dxy    dyz    dz2    dxz  x2-y2    tot
    1  0.000  0.000  0.080  0.000  0.000  0.056  0.000  0.168  0.000  0.305
    2  0.000  0.000  0.080  0.000  0.000  0.056  0.000  0.168  0.000  0.305
tot    0.000  0.000  0.160  0.000  0.000  0.112  0.000  0.337  0.000  0.609
 
band    19 # energy   23.11681224 # occ.  0.00000000
 
ion      s     py     pz     px    dxy    dyz    dz2    dxz  x2-y2    tot
    1  0.210  0.001  0.000  0.004  0.007  0.000  0.186  0.000  0.002  0.411
    2  0.210  0.001  0.000  0.004  0.007  0.000  0.186  0.000  0.002  0.411
tot    0.420  0.003  0.000  0.008  0.014  0.000  0.372  0.000  0.005  0.821
 
band    20 # energy   32.71344560 # occ.  0.00000000
 
ion      s     py     pz     px    dxy    dyz    dz2    dxz  x2-y2    tot
    1  0.019  0.013  0.000  0.038  0.065  0.000  0.021  0.000  0.022  0.177
    2  0.019  0.013  0.000  0.038  0.065  0.000  0.021  0.000  0.022  0.177
tot    0.038  0.025  0.000  0.076  0.130  0.000  0.041  0.000  0.043  0.354
 
band    21 # energy   33.40226671 # occ.  0.00000000
 
ion      s     py     pz     px    dxy    dyz    dz2    dxz  x2-y2    tot
    1  0.000  0.000  0.008  0.000  0.000  0.003  0.000  0.010  0.000  0.022
    2  0.000  0.000  0.008  0.000  0.000  0.003  0.000  0.010  0.000  0.022
tot    0.000  0.000  0.016  0.000  0.000  0.007  0.000  0.021  0.000  0.044
 
band    22 # energy   35.73281044 # occ.  0.00000000
 
ion      s     py     pz     px    dxy    dyz    dz2    dxz  x2-y2    tot
    1  0.000  0.000  0.006  0.000  0.000  0.016  0.000  0.049  0.000  0.071
    2  0.000  0.000  0.006  0.000  0.000  0.016  0.000  0.049  0.000  0.071
tot    0.000  0.000  0.012  0.000  0.000  0.033  0.000  0.098  0.000  0.143
 
band    23 # energy   35.89312027 # occ.  0.00000000
 
ion      s     py     pz     px    dxy    dyz    dz2    dxz  x2-y2    tot
    1  0.004  0.010  0.000  0.029  0.031  0.000  0.032  0.000  0.010  0.116
    2  0.004  0.010  0.000  0.029  0.031  0.000  0.032  0.000  0.010  0.116
tot    0.009  0.019  0.000  0.058  0.062  0.000  0.063  0.000  0.021  0.232
 
band    24 # energy   36.15829857 # occ.  0.00000000
 
ion      s     py     pz     px    dxy    dyz    dz2    dxz  x2-y2    tot
    1  0.000  0.091  0.000  0.030  0.013  0.000  0.000  0.000  0.040  0.175
    2  0.000  0.091  0.000  0.030  0.013  0.000  0.000  0.000  0.040  0.175
tot    0.000  0.183  0.000  0.061  0.026  0.000  0.000  0.000  0.079  0.349
 

 k-point     4 :    0.30000000 0.00000000 0.00000000     weight = 0.00750000

band     1 # energy  -37.21412456 # occ.  2.00000000
 
ion      s     py     pz     px    dxy    dyz    dz2    dxz  x2-y2    tot
    1  0.000  0.123  0.000  0.369  0.000  0.000  0.000  0.000  0.000  0.492
    2  0.000  0.123  0.000  0.369  0.000  0.000  0.000  0.000  0.000  0.492
tot    0.000  0.246  0.000  0.737  0.000  0.000  0.000  0.000  0.000  0.984
 
band     2 # energy  -37.10861899 # occ.  2.00000000
 
ion      s     py     pz     px    dxy    dyz    dz2    dxz  x2-y2    tot
    1  0.000  0.123  0.000  0.370  0.000  0.000  0.000  0.000  0.000  0.493
    2  0.000  0.123  0.000  0.370  0.000  0.000  0.000  0.000  0.000  0.493
tot    0.001  0.246  0.000  0.739  0.000  0.000  0.000  0.000  0.000  0.986
 
band     3 # energy  -37.04404189 # occ.  2.00000000
 
ion      s     py     pz     px    dxy    dyz    dz2    dxz  x2-y2    tot
    1  0.000  0.000  0.491  0.000  0.000  0.000  0.000  0.000  0.000  0.491
    2  0.000  0.000  0.491  0.000  0.000  0.000  0.000  0.000  0.000  0.491
tot    0.000  0.000  0.981  0.000  0.000  0.000  0.000  0.000  0.000  0.982
 
band     4 # energy  -36.75430999 # occ.  2.00000000
 
ion      s     py     pz     px    dxy    dyz    dz2    dxz  x2-y2    tot
    1  0.000  0.373  0.000  0.124  0.000  0.000  0.000  0.000  0.000  0.497
    2  0.000  0.373  0.000  0.124  0.000  0.000  0.000  0.000  0.000  0.497
tot    0.000  0.746  0.000  0.249  0.000  0.000  0.000  0.000  0.000  0.995
 
band     5 # energy  -36.60346982 # occ.  2.00000000
 
ion      s     py     pz     px    dxy    dyz    dz2    dxz  x2-y2    tot
    1  0.000  0.375  0.000  0.125  0.000  0.000  0.000  0.000  0.000  0.499
    2  0.000  0.375  0.000  0.125  0.000  0.000  0.000  0.000  0.000  0.499
tot    0.000  0.749  0.000  0.250  0.000  0.000  0.000  0.000  0.000  0.999
 
band     6 # energy  -36.48036661 # occ.  2.00000000
 
ion      s     py     pz     px    dxy    dyz    dz2    dxz  x2-y2    tot
    1  0.000  0.000  0.499  0.000  0.000  0.000  0.000  0.000  0.000  0.499
    2  0.000  0.000  0.499  0.000  0.000  0.000  0.000  0.000  0.000  0.499
tot    0.000  0.000  0.997  0.000  0.000  0.000  0.000  0.000  0.000  0.997
 
band     7 # energy    6.98218465 # occ.  2.00000000
 
ion      s     py     pz     px    dxy    dyz    dz2    dxz  x2-y2    tot
    1  0.161  0.004  0.000  0.011  0.070  0.000  0.009  0.000  0.023  0.279
    2  0.161  0.004  0.000  0.011  0.070  0.000  0.009  0.000  0.023  0.279
tot    0.322  0.008  0.000  0.023  0.140  0.000  0.018  0.000  0.047  0.558
 
band     8 # energy    8.01803362 # occ.  2.00000000
 
ion      s     py     pz     px    dxy    dyz    dz2    dxz  x2-y2    tot
    1  0.027  0.000  0.000  0.001  0.178  0.000  0.119  0.000  0.059  0.384
    2  0.027  0.000  0.000  0.001  0.178  0.000  0.119  0.000  0.059  0.384
tot    0.053  0.001  0.000  0.003  0.355  0.000  0.238  0.000  0.118  0.768
 
band     9 # energy    9.45632733 # occ.  2.00000000
 
ion      s     py     pz     px    dxy    dyz    dz2    dxz  x2-y2    tot
    1  0.000  0.000  0.017  0.000  0.000  0.081  0.000  0.243  0.000  0.341
    2  0.000  0.000  0.017  0.000  0.000  0.081  0.000  0.243  0.000  0.341
tot    0.000  0.000  0.033  0.000  0.000  0.162  0.000  0.486  0.000  0.681
 
band    10 # energy   10.80822072 # occ.  2.00000000
 
ion      s     py     pz     px    dxy    dyz    dz2    dxz  x2-y2    tot
    1  0.021  0.005  0.000  0.016  0.198  0.000  0.052  0.000  0.066  0.358
    2  0.021  0.005  0.000  0.016  0.198  0.000  0.052  0.000  0.066  0.358
tot    0.041  0.010  0.000  0.031  0.397  0.000  0.104  0.000  0.132  0.716
 
band    11 # energy   11.36688043 # occ.  2.00000000
 
ion      s     py     pz     px    dxy    dyz    dz2    dxz  x2-y2    tot