Pt-fcc                                  
   1.00000000000000     
     0.000000    1.956612    1.956612
     1.956612    0.000000    1.956612
     1.956612    1.956612    0.000000
   Pt
     1
Direct
  0.000000  0.000000  0.000000
 
   40   40   40
  131.11      131.00      130.37      128.42      124.15      116.77      106.01      92.322      76.826      61.026    
  46.421      34.135      24.700      18.030      13.567      10.540      8.4695      7.1234      6.3042      5.8689    
  5.7330      5.8689      6.3042      7.1234      8.4695      10.540      13.567      18.030      24.700      34.135    
  46.421      61.026      76.826      92.322      106.01      116.77      124.15      128.42      130.37      131.00    
  131.00      130.63      129.32      126.17      120.26      111.06      98.679      83.929      68.162      52.909    
  39.495      28.740      20.840      15.439      11.830      9.3396      7.6767      6.6267      6.0199      5.7440    
  5.7440      6.0199      6.6267      7.6767      9.3396      11.830      15.439      20.840      28.740      39.495    
  52.909      68.162      83.929      98.679      111.06      120.26      126.17      129.32      130.63      131.00    
  130.37      129.32      126.79      121.89      113.97      102.88      89.140      73.855      58.473      44.399    
  32.657      23.697      17.385      13.152      10.254      8.2703      6.9802      6.1943      5.7761      5.6455    
  5.7761      6.1943      6.9802      8.2703      10.254      13.152      17.385      23.697      32.657      44.399    
  58.473      73.855      89.140      102.88      113.97      121.89      126.79      129.32      130.37      130.63    
  128.42      126.17      121.89      114.92      104.96      92.299      77.791      62.717      48.451      36.125    
  26.380      19.291      14.451      11.165      8.8789      7.3521      6.3862      5.8265      5.5715      5.5715    
  5.8265      6.3862      7.3521      8.8789      11.165      14.451      19.291      26.380      36.125      48.451    
  62.717      77.791      92.299      104.96      114.92      121.89      126.17      128.42      129.32      129.32    
  124.15      120.26      113.97      104.96      93.355      79.796      65.367      51.335      38.843      28.651    
  21.004      15.657      12.021      9.4697      7.7246      6.5868      5.8908      5.5189      5.4024      5.5189    
  5.8908      6.5868      7.7246      9.4697      12.021      15.657      21.004      28.651      38.843      51.335    
  65.367      79.796      93.355      104.96      113.97      120.26      124.15      126.17      126.79      126.17    
  116.77      111.06      102.88      92.299      79.796      66.268      52.831      40.574      30.299      22.368    
  16.678      12.762      10.005      8.0757      6.7844      5.9631      5.4840      5.2646      5.2646      5.4840    
  5.9631      6.7844      8.0757      10.005      12.762      16.678      22.368      30.299      40.574      52.831    
  66.268      79.796      92.299      102.88      111.06      116.77      120.26      121.89      121.89      120.26    
  106.01      98.679      89.140      77.791      65.367      52.831      41.168      31.165      23.248      17.423    
  13.341      10.448      8.3817      6.9658      6.0365      5.4629      5.1538      5.0564      5.1538      5.4629    
  6.0365      6.9658      8.3817      10.448      13.341      17.423      23.248      31.165      41.168      52.831    
  65.367      77.791      89.140      98.679      106.01      111.06      113.97      114.92      113.97      111.06    
  92.322      83.929      73.855      62.717      51.335      40.574      31.165      23.551      17.816      13.710    
  10.764      8.6199      7.1171      6.1037      5.4516      5.0666      4.8885      4.8885      5.0666      5.4516    
  6.1037      7.1171      8.6199      10.764      13.710      17.816      23.551      31.165      40.574      51.335    
  62.717      73.855      83.929      92.322      98.679      102.88      104.96      104.96      102.88      98.679    
  76.826      68.162      58.473      48.451      38.843      30.299      23.248      17.816      13.837      10.929    
  8.7713      7.2260      6.1577      5.4467      5.0006      4.7567      4.6792      4.7567      5.0006      5.4467    
  6.1577      7.2260      8.7713      10.929      13.837      17.816      23.247      30.299      38.843      48.451    
  58.473      68.162      76.826      83.929      89.140      92.299      93.355      92.299      89.140      83.929    
  61.026      52.909      44.399      36.125      28.651      22.368      17.423      13.710      10.929      8.8232    
  7.2830      6.1928      5.4452      4.9543      4.6585      4.5198      4.5198      4.6585      4.9543      5.4452    
  6.1928      7.2830      8.8232      10.929      13.710      17.423      22.368      28.651      36.125      44.399    
  52.909      61.026      68.162      73.855      77.791      79.796      79.796      77.791      73.855      68.162    
  46.421      39.495      32.657      26.380      21.004      16.678      13.341      10.764      8.7713      7.2830    
  6.2049      5.4450      4.9267      4.5932      4.4070      4.3472      4.4070      4.5932      4.9267      5.4450    
  6.2049      7.2830      8.7713      10.764      13.341      16.678      21.004      26.380      32.657      39.495    
  46.421      52.909      58.473      62.717      65.367      66.268      65.367      62.717      58.473      52.909    
  34.135      28.740      23.697      19.291      15.657      12.762      10.448      8.6199      7.2260      6.1928    
  5.4450      4.9176      4.5606      4.3396      4.2339      4.2339      4.3396      4.5606      4.9176      5.4450    
  6.1928      7.2260      8.6199      10.448      12.762      15.657      19.291      23.697      28.740      34.135    
  39.495      44.399      48.451      51.335      52.831      52.831      51.335      48.451      44.399      39.495    
  24.700      20.840      17.385      14.451      12.021      10.005      8.3817      7.1171      6.1577      5.4452    
  4.9267      4.5606      4.3171      4.1776      4.1322      4.1776      4.3171      4.5606      4.9267      5.4452    
  6.1577      7.1171      8.3817      10.005      12.021      14.451      17.385      20.840      24.700      28.740    
  32.657      36.125      38.843      40.574      41.168      40.574      38.843      36.125      32.657      28.740    
  18.030      15.439      13.152      11.165      9.4697      8.0757      6.9658      6.1037      5.4467      4.9543    
  4.5932      4.3396      4.1776      4.0986      4.0986      4.1776      4.3396      4.5932      4.9543      5.4467    
  6.1037      6.9658      8.0757      9.4697      11.166      13.152      15.439      18.030      20.840      23.697    
  26.380      28.651      30.299      31.165      31.165      30.299      28.651      26.380      23.697      20.840    
  13.567      11.830      10.254      8.8789      7.7246      6.7844      6.0365      5.4516      5.0006      4.6585    
  4.4070      4.2339      4.1322      4.0986      4.1322      4.2339      4.4070      4.6585      5.0006      5.4516    
  6.0365      6.7844      7.7246      8.8789      10.254      11.830      13.567      15.439      17.385      19.291    
  21.004      22.368      23.247      23.551      23.248      22.368      21.004      19.291      17.385      15.439    
  10.540      9.3396      8.2703      7.3521      6.5868      5.9631      5.4629      5.0666      4.7567      4.5198    
  4.3472      4.2339      4.1776      4.1776      4.2339      4.3472      4.5198      4.7567      5.0666      5.4629    
  5.9631      6.5868      7.3521      8.2703      9.3396      10.540      11.830      13.152      14.451      15.657    
  16.678      17.423      17.816      17.816      17.423      16.678      15.657      14.451      13.152      11.830    
  8.4695      7.6767      6.9802      6.3862      5.8908      5.4840      5.1538      4.8885      4.6792      4.5198    
  4.4070      4.3396      4.3171      4.3396      4.4070      4.5198      4.6792      4.8885      5.1538      5.4840    
  5.8908      6.3862      6.9802      7.6767      8.4695      9.3396      10.254      11.166      12.021      12.762    
  13.341      13.710      13.837      13.710      13.341      12.762      12.021      11.165      10.254      9.3396    
  7.1234      6.6267      6.1943      5.8265      5.5189      5.2646      5.0564      4.8885      4.7567      4.6585    
  4.5932      4.5606      4.5606      4.5932      4.6585      4.7567      4.8885      5.0564      5.2646      5.5189    
  5.8265      6.1943      6.6267      7.1234      7.6767      8.2703      8.8789      9.4697      10.005      10.448    
  10.764      10.929      10.929      10.764      10.448      10.005      9.4697      8.8789      8.2703      7.6767    
  6.3042      6.0199      5.7761      5.5715      5.4024      5.2646      5.1538      5.0666      5.0006      4.9543    
  4.9267      4.9176      4.9267      4.9543      5.0006      5.0666      5.1538      5.2646      5.4024      5.5714    
  5.7761      6.0199      6.3042      6.6267      6.9802      7.3521      7.7246      8.0757      8.3817      8.6199    
  8.7713      8.8232      8.7713      8.6199      8.3817      8.0757      7.7246      7.3521      6.9802      6.6267    
  5.8689      5.7440      5.6455      5.5715      5.5189      5.4840      5.4629      5.4516      5.4467      5.4452    
  5.4450      5.4450      5.4452      5.4467      5.4516      5.4629      5.4840      5.5189      5.5714      5.6455    
  5.7440      5.8689      6.0199      6.1943      6.3862      6.5868      6.7844      6.9658      7.1171      7.2260    
  7.2830      7.2830      7.2260      7.1171      6.9658      6.7844      6.5868      6.3862      6.1943      6.0199    
  5.7330      5.7440      5.7761      5.8265      5.8908      5.9631      6.0365      6.1037      6.1577      6.1928    
  6.2049      6.1928      6.1577      6.1037      6.0365      5.9631      5.8908      5.8265      5.7761      5.7440    
  5.7330      5.7440      5.7761      5.8265      5.8908      5.9631      6.0365      6.1037      6.1577      6.1928    
  6.2049      6.1928      6.1577      6.1037      6.0365      5.9631      5.8908      5.8265      5.7761      5.7440    
  5.8689      6.0199      6.1943      6.3862      6.5868      6.7844      6.9658      7.1171      7.2260      7.2830    
  7.2830      7.2260      7.1171      6.9658      6.7844      6.5868      6.3862      6.1943      6.0199      5.8689    
  5.7440      5.6455      5.5714      5.5189      5.4840      5.4629      5.4516      5.4467      5.4452      5.4450    
  5.4450      5.4452      5.4467      5.4516      5.4629      5.4840      5.5189      5.5715      5.6455      5.7440    
  6.3042      6.6267      6.9802      7.3521      7.7246      8.0757      8.3817      8.6199      8.7713      8.8232    
  8.7713      8.6199      8.3817      8.0757      7.7246      7.3521      6.9802      6.6267      6.3042      6.0199    
  5.7761      5.5714      5.4024      5.2646      5.1538      5.0666      5.0006      4.9543      4.9267      4.9176    
  4.9267      4.9543      5.0006      5.0666      5.1538      5.2646      5.4024      5.5715      5.7761      6.0199    
  7.1234      7.6767      8.2703      8.8789      9.4697      10.005      10.448      10.764      10.929      10.929    
  10.764      10.448      10.005      9.4697      8.8789      8.2703      7.6767      7.1234      6.6267      6.1943    
  5.8265      5.5189      5.2646      5.0564      4.8885      4.7567      4.6585      4.5932      4.5606      4.5606    
  4.5932      4.6585      4.7567      4.8885      5.0564      5.2646      5.5189      5.8265      6.1943      6.6267    
  8.4695      9.3396      10.254      11.165      12.021      12.762      13.341      13.710      13.837      13.710    
  13.341      12.762      12.021      11.166      10.254      9.3396      8.4695      7.6767      6.9802      6.3862    
  5.8908      5.4840      5.1538      4.8885      4.6792      4.5198      4.4070      4.3396      4.3171      4.3396    
  4.4070      4.5198      4.6792      4.8885      5.1538      5.4840      5.8908      6.3862      6.9802      7.6767    
  10.540      11.830      13.152      14.451      15.657      16.678      17.423      17.816      17.816      17.423    
  16.678      15.657      14.451      13.152      11.830      10.540      9.3396      8.2703      7.3521      6.5868    
  5.9631      5.4629      5.0666      4.7567      4.5198      4.3472      4.2339      4.1776      4.1776      4.2339    
  4.3472      4.5198      4.7567      5.0666      5.4629      5.9631      6.5868      7.3521      8.2703      9.3396    
  13.567      15.439      17.385      19.291      21.004      22.368      23.248      23.551      23.247      22.368    
  21.004      19.291      17.385      15.439      13.567      11.830      10.254      8.8789      7.7246      6.7844    
  6.0365      5.4516      5.0006      4.6585      4.4070      4.2339      4.1322      4.0986      4.1322      4.2339    
  4.4070      4.6585      5.0006      5.4516      6.0365      6.7844      7.7246      8.8789      10.254      11.830    
  18.030      20.840      23.697      26.380      28.651      30.299      31.165      31.165      30.299      28.651    
  26.380      23.697      20.840      18.030      15.439      13.152      11.166      9.4697      8.0757      6.9658    
  6.1037      5.4467      4.9543      4.5932      4.3396      4.1776      4.0986      4.0986      4.1776      4.3396    
  4.5932      4.9543      5.4467      6.1037      6.9658      8.0757      9.4697      11.165      13.152      15.439    
  24.700      28.740      32.657      36.125      38.843      40.574      41.168      40.574      38.843      36.125    
  32.657      28.740      24.700      20.840      17.385      14.451      12.021      10.005      8.3817      7.1171    
  6.1577      5.4452      4.9267      4.5606      4.3171      4.1776      4.1322      4.1776      4.3171      4.5606    
  4.9267      5.4452      6.1577      7.1171      8.3817      10.005      12.021      14.451      17.385      20.840    
  34.135      39.495      44.399      48.451      51.335      52.831      52.831      51.335      48.451      44.399    
  39.495      34.135      28.740      23.697      19.291      15.657      12.762      10.448      8.6199      7.2260    
  6.1928      5.4450      4.9176      4.5606      4.3396      4.2339      4.2339      4.3396      4.5606      4.9176    
  5.4450      6.1928      7.2260      8.6199      10.448      12.762      15.657      19.291      23.697      28.740    
  46.421      52.909      58.473      62.717      65.367      66.268      65.367      62.717      58.473      52.909    
  46.421      39.495      32.657      26.380      21.004      16.678      13.341      10.764      8.7713      7.2830    
  6.2049      5.4450      4.9267      4.5932      4.4070      4.3472      4.4070      4.5932      4.9267      5.4450    
  6.2049      7.2830      8.7713      10.764      13.341      16.678      21.004      26.380      32.657      39.495    
  61.026      68.162      73.855      77.791      79.796      79.796      77.791      73.855      68.162      61.026    
  52.909      44.399      36.125      28.651      22.368      17.423      13.710      10.929      8.8232      7.2830    
  6.1928      5.4452      4.9543      4.6585      4.5198      4.5198      4.6585      4.9543      5.4452      6.1928    
  7.2830      8.8232      10.929      13.710      17.423      22.368      28.651      36.125      44.399      52.909    
  76.826      83.929      89.140      92.299      93.355      92.299      89.140      83.929      76.826      68.162    
  58.473      48.451      38.843      30.299      23.247      17.816      13.837      10.929      8.7713      7.2260    
  6.1577      5.4467      5.0006      4.7567      4.6792      4.7567      5.0006      5.4467      6.1577      7.2260    
  8.7713      10.929      13.837      17.816      23.248      30.299      38.843      48.451      58.473      68.162    
  92.322      98.679      102.88      104.96      104.96      102.88      98.679      92.322      83.929      73.855    
  62.717      51.335      40.574      31.165      23.551      17.816      13.710      10.764      8.6199      7.1171    
  6.1037      5.4516      5.0666      4.8885      4.8885      5.0666      5.4516      6.1037      7.1171      8.6199    
  10.764      13.710      17.816      23.551      31.165      40.574      51.335      62.717      73.855      83.929    
  106.01      111.06      113.97      114.92      113.97      111.06      106.01      98.679      89.140      77.791    
  65.367      52.831      41.168      31.165      23.248      17.423      13.341      10.448      8.3817      6.9658    
  6.0365      5.4629      5.1538      5.0564      5.1538      5.4629      6.0365      6.9658      8.3817      10.448    
  13.341      17.423      23.248      31.165      41.168      52.831      65.367      77.791      89.140      98.679    
  116.77      120.26      121.89      121.89      120.26      116.77      111.06      102.88      92.299      79.796    
  66.268      52.831      40.574      30.299      22.368      16.678      12.762      10.005      8.0757      6.7844    
  5.9631      5.4840      5.2646      5.2646      5.4840      5.9631      6.7844      8.0757      10.005      12.762    
  16.678      22.368      30.299      40.574      52.831      66.268      79.796      92.299      102.88      111.06    
  124.15      126.17      126.79      126.17      124.15      120.26      113.97      104.96      93.355      79.796    
  65.367      51.335      38.843      28.651      21.004      15.657      12.021      9.4697      7.7246      6.5868    
  5.8908      5.5189      5.4024      5.5189      5.8908      6.5868      7.7246      9.4697      12.021      15.657    
  21.004      28.651      38.843      51.335      65.367      79.796      93.355      104.96      113.97      120.26    
  128.42      129.32      129.32      128.42      126.17      121.89      114.92      104.96      92.299      77.791    
  62.717      48.451      36.125      26.380      19.291      14.451      11.165      8.8789      7.3521      6.3862    
  5.8265      5.5715      5.5715      5.8265      6.3862      7.3521      8.8789      11.165      14.451      19.291    
  26.380      36.125      48.451      62.717      77.791      92.299      104.96      114.92      121.89      126.17    
  130.37      130.63      130.37      129.32      126.79      121.89      113.97      102.88      89.140      73.855    
  58.473      44.399      32.657      23.697      17.385      13.152      10.254      8.2703      6.9802      6.1943    
  5.7761      5.6455      5.7761      6.1943      6.9802      8.2703      10.254      13.152      17.385      23.697    
  32.657      44.399      58.473      73.855      89.140      102.88      113.97      121.89      126.79      129.32    
  131.00      131.00      130.63      129.32      126.17      120.26      111.06      98.679      83.929      68.162    
  52.909      39.495      28.740      20.840      15.439      11.830      9.3396      7.6767      6.6267      6.0199    
  5.7440      5.7440      6.0199      6.6267      7.6767      9.3396      11.830      15.439      20.840      28.740    
  39.495      52.909      68.162      83.929      98.679      111.06      120.26      126.17      129.32      130.63    
  131.00      130.63      129.32      126.17      120.26      111.06      98.679      83.929      68.162      52.909    
  39.495      28.740      20.840      15.439      11.830      9.3396      7.6767      6.6267      6.0199      5.7440    
  5.7440      6.0199      6.6267      7.6767      9.3396      11.830      15.439      20.840      28.740      39.495    
  52.909      68.162      83.929      98.679      111.06      120.26      126.17      129.32      130.63      131.00    
  130.63      129.67      127.26      122.51      114.72      103.71      89.986      74.656      59.174      44.965    
  33.079      23.988      17.575      13.276      10.342      8.3334      7.0273      6.2318      5.8087      5.6766    
  5.8087      6.2319      7.0273      8.3334      10.342      13.276      17.575      23.988      33.079      44.965    
  59.174      74.656      89.986      103.71      114.72      122.51      127.26      129.67      130.63      130.85    
  129.32      127.26      123.20      116.44      106.64      94.029      79.453      64.202      49.682      37.068    
  27.049      19.736      14.739      11.364      9.0206      7.4555      6.4659      5.8929      5.6320      5.6320    
  5.8929      6.4659      7.4555      9.0206      11.364      14.739      19.736      27.049      37.068      49.682    
  64.202      79.453      94.029      106.64      116.44      123.20      127.26      129.32      130.12      130.12    
  126.17      122.51      116.44      107.60      96.039      82.377      67.696      53.296      40.379      29.768    
  21.762      16.149      12.351      9.7044      7.8932      6.7131      5.9922      5.6075      5.4871      5.6075    
  5.9922      6.7131      7.8932      9.7044      12.351      16.149      21.762      29.768      40.379      53.296    
  67.696      82.377      96.038      107.60      116.44      122.51      126.17      128.03      128.58      128.03    
  120.26      114.72      106.64      96.039      83.357      69.481      55.560      42.743      31.906      23.479    
  17.407      13.243      10.345      8.3171      6.9613      6.1004      5.5994      5.3703      5.3703      5.5994    
  6.1004      6.9613      8.3171      10.345      13.243      17.407      23.479      31.906      42.743      55.560    
  69.481      83.357      96.038      106.64      114.72      120.26      123.60      125.13      125.13      123.60    
  111.06      103.71      94.029      82.377      69.481      56.330      43.971      33.269      24.726      18.405    
  13.985      10.899      8.7008      7.1956      6.2100      5.6035      5.2776      5.1751      5.2776      5.6035    
  6.2100      7.1956      8.7008      10.899      13.985      18.405      24.726      33.269      43.971      56.330    
  69.481      82.377      94.029      103.71      111.06      116.07      118.93      119.85      118.93      116.07    
  98.679      89.986      79.453      67.696      55.560      43.971      33.738      25.381      19.048      14.521    
  11.328      9.0176      7.3999      6.3122      5.6151      5.2053      5.0163      5.0163      5.2053      5.6151    
  6.3122      7.3999      9.0176      11.328      14.521      19.048      25.381      33.738      43.971      55.560    
  67.696      79.453      89.986      98.679      105.21      109.50      111.60      111.60      109.50      105.21    
  83.929      74.656      64.202      53.296      42.743      33.269      25.381      19.270      14.803      11.599    
  9.2438      7.5591      6.3985      5.6299      5.1505      4.8896      4.8070      4.8896      5.1505      5.6299    
  6.3985      7.5591      9.2438      11.599      14.803      19.270      25.381      33.269      42.743      53.296    
  64.202      74.656      83.929      91.481      96.990      100.32      101.43      100.32      96.990      91.481    
  68.162      59.174      49.682      40.379      31.906      24.726      19.048      14.803      11.692      9.3617    
  7.6602      6.4610      5.6438      5.1110      4.7923      4.6435      4.6435      4.7923      5.1110      5.6438    
  6.4610      7.6602      9.3617      11.692      14.803      19.048      24.726      31.906      40.379      49.682    
  59.174      68.162      76.018      82.254      86.552      88.737      88.737      86.552      82.254      76.018    
  52.909      44.965      37.068      29.768      23.479      18.405      14.521      11.599      9.3617      7.6949    
  6.4938      5.6535      5.0854      4.7231      4.5222      4.4578      4.5222      4.7231      5.0854      5.6535    
  6.4938      7.6949      9.3617      11.599      14.521      18.405      23.479      29.768      37.068      44.965    
  52.909      60.312      66.631      71.436      74.430      75.446      74.430      71.436      66.631      60.312    
  39.495      33.079      27.049      21.762      17.407      13.985      11.328      9.2438      7.6602      6.4938    
  5.6570      5.0728      4.6815      4.4415      4.3275      4.3275      4.4415      4.6815      5.0728      5.6570    
  6.4938      7.6602      9.2438      11.328      13.985      17.407      21.762      27.049      33.079      39.495    
  45.839      51.618      56.379      59.759      61.511      61.511      59.759      56.379      51.618      45.839    
  28.740      23.988      19.736      16.149      13.243      10.899      9.0176      7.5591      6.4610      5.6535    
  5.0728      4.6677      4.4012      4.2499      4.2007      4.2499      4.4012      4.6677      5.0728      5.6535    
  6.4610      7.5591      9.0176      10.899      13.243      16.149      19.736      23.988      28.740      33.699    
  38.492      42.723      46.032      48.137      48.858      48.137      46.032      42.723      38.492      33.699    
  20.840      17.575      14.739      12.351      10.345      8.7008      7.3999      6.3985      5.6438      5.0854    
  4.6815      4.4012      4.2240      4.1381      4.1381      4.2240      4.4012      4.6815      5.0854      5.6438    
  6.3985      7.3999      8.7008      10.345      12.351      14.739      17.575      20.840      24.398      28.020    
  31.417      34.290      36.372      37.465      37.465      36.372      34.290      31.417      28.020      24.398    
  15.439      13.276      11.364      9.7044      8.3171      7.1956      6.3122      5.6299      5.1110      4.7231    
  4.4415      4.2499      4.1381      4.1013      4.1381      4.2499      4.4415      4.7231      5.1110      5.6299    
  6.3122      7.1956      8.3171      9.7044      11.364      13.276      15.439      17.833      20.358      22.846    
  25.089      26.876      28.027      28.425      28.027      26.876      25.089      22.846      20.358      17.833    
  11.830      10.342      9.0206      7.8932      6.9613      6.2100      5.6151      5.1505      4.7923      4.5222    
  4.3275      4.2007      4.1381      4.1381      4.2007      4.3275      4.5222      4.7923      5.1505      5.6151    
  6.2100      6.9613      7.8932      9.0206      10.342      11.830      13.439      15.128      16.832      18.438    
  19.810      20.814      21.346      21.346      20.814      19.810      18.438      16.832      15.128      13.439    
  9.3396      8.3334      7.4555      6.7131      6.1004      5.6035      5.2053      4.8896      4.6435      4.4578    
  4.3275      4.2499      4.2240      4.2499      4.3275      4.4578      4.6435      4.8896      5.2053      5.6035    
  6.1004      6.7131      7.4555      8.3335      9.3396      10.449      11.618      12.788      13.897      14.881    
  15.662      16.164      16.338      16.164      15.662      14.881      13.897      12.788      11.618      10.449    
  7.6767      7.0273      6.4659      5.9922      5.5994      5.2776      5.0163      4.8070      4.6435      4.5222    
  4.4415      4.4012      4.4012      4.4415      4.5222      4.6435      4.8070      5.0163      5.2776      5.5994    
  5.9922      6.4659      7.0273      7.6767      8.4044      9.1886      9.9954      10.780      11.493      12.083    
  12.504      12.724      12.724      12.504      12.083      11.493      10.780      9.9954      9.1886      8.4044    
  6.6267      6.2318      5.8929      5.6075      5.3703      5.1751      5.0163      4.8896      4.7923      4.7231    
  4.6815      4.6677      4.6815      4.7231      4.7923      4.8896      5.0163      5.1751      5.3703      5.6075    
  5.8929      6.2318      6.6267      7.0749      7.5668      8.0850      8.6048      9.0955      9.5236      9.8569    
  10.069      10.141      10.069      9.8569      9.5236      9.0955      8.6048      8.0850      7.5667      7.0749    
  6.0199      5.8087      5.6320      5.4871      5.3703      5.2776      5.2053      5.1505      5.1110      5.0854    
  5.0728      5.0728      5.0854      5.1110      5.1505      5.2053      5.2776      5.3703      5.4871      5.6319    
  5.8087      6.0199      6.2656      6.5423      6.8419      7.1520      7.4555      7.7330      7.9639      8.1299    
  8.2166      8.2166      8.1299      7.9639      7.7330      7.4555      7.1520      6.8419      6.5423      6.2656    
  5.7440      5.6766      5.6320      5.6075      5.5994      5.6035      5.6151      5.6299      5.6438      5.6535    
  5.6570      5.6535      5.6438      5.6299      5.6151      5.6035      5.5994      5.6075      5.6319      5.6766    
  5.7440      5.8354      5.9498      6.0838      6.2316      6.3847      6.5327      6.6641      6.7677      6.8342    
  6.8570      6.8342      6.7677      6.6641      6.5327      6.3847      6.2316      6.0838      5.9498      5.8354    
  5.7440      5.8087      5.8929      5.9922      6.1004      6.2100      6.3122      6.3985      6.4610      6.4938    
  6.4938      6.4610      6.3985      6.3122      6.2100      6.1004      5.9922      5.8929      5.8087      5.7440    
  5.7011      5.6802      5.6800      5.6974      5.7281      5.7668      5.8077      5.8449      5.8731      5.8883    
  5.8883      5.8731      5.8449      5.8077      5.7668      5.7281      5.6974      5.6800      5.6802      5.7011    
  6.0199      6.2319      6.4659      6.7131      6.9613      7.1956      7.3999      7.5591      7.6602      7.6949    