   1   1   1   0
  0.1498113E+02  0.2767068E-09  0.2767068E-09  0.2767068E-09  0.5000000E-15
  1.000000000000000E-004
  CAR 
 Pt-fcc                                  
     70.49241595    -46.13683646  301     12.21910704      1.00000000
    -46.137  0.0000E+00  0.0000E+00
    -45.748  0.0000E+00  0.0000E+00
    -45.359  0.0000E+00  0.0000E+00
    -44.971  0.0000E+00  0.0000E+00
    -44.582  0.0000E+00  0.0000E+00
    -44.193  0.0000E+00  0.0000E+00
    -43.804  0.0000E+00  0.0000E+00
    -43.415  0.0000E+00  0.0000E+00
    -43.027  0.0000E+00  0.0000E+00
    -42.638  0.0000E+00  0.0000E+00
    -42.249  0.0000E+00  0.0000E+00
    -41.860  0.0000E+00  0.0000E+00
    -41.472  0.0000E+00  0.0000E+00
    -41.083  0.5053E-15  0.1964E-15
    -40.694  0.3611E-01  0.1404E-01
    -40.305  0.1148E+00  0.5994E-01
    -39.917  0.0000E+00  0.6000E-01
    -39.528  0.0000E+00  0.6000E-01
    -39.139  0.0000E+00  0.6000E-01
    -38.750  0.0000E+00  0.6000E-01
    -38.362  0.0000E+00  0.6000E-01
    -37.973  0.0000E+00  0.6000E-01
    -37.584  0.0000E+00  0.6000E-01
    -37.195  0.0000E+00  0.6000E-01
    -36.806  0.0000E+00  0.6000E-01
    -36.418  0.0000E+00  0.6000E-01
    -36.029  0.0000E+00  0.6000E-01
    -35.640  0.0000E+00  0.6000E-01
    -35.251  0.0000E+00  0.6000E-01
    -34.863  0.0000E+00  0.6000E-01
    -34.474  0.0000E+00  0.6000E-01
    -34.085  0.0000E+00  0.6000E-01
    -33.696  0.0000E+00  0.6000E-01
    -33.308  0.0000E+00  0.6000E-01
    -32.919  0.0000E+00  0.6000E-01
    -32.530  0.0000E+00  0.6000E-01
    -32.141  0.0000E+00  0.6000E-01
    -31.753  0.0000E+00  0.6000E-01
    -31.364  0.0000E+00  0.6000E-01
    -30.975  0.0000E+00  0.6000E-01
    -30.586  0.0000E+00  0.6000E-01
    -30.198  0.0000E+00  0.6000E-01
    -29.809  0.0000E+00  0.6000E-01
    -29.420  0.0000E+00  0.6000E-01
    -29.031  0.0000E+00  0.6000E-01
    -28.642  0.0000E+00  0.6000E-01
    -28.254  0.0000E+00  0.6000E-01
    -27.865  0.0000E+00  0.6000E-01
    -27.476  0.0000E+00  0.6000E-01
    -27.087  0.0000E+00  0.6000E-01
    -26.699  0.0000E+00  0.6000E-01
    -26.310  0.0000E+00  0.6000E-01
    -25.921  0.0000E+00  0.6000E-01
    -25.532  0.0000E+00  0.6000E-01
    -25.144  0.0000E+00  0.6000E-01
    -24.755  0.0000E+00  0.6000E-01
    -24.366  0.0000E+00  0.6000E-01
    -23.977  0.0000E+00  0.6000E-01
    -23.589  0.0000E+00  0.6000E-01
    -23.200  0.0000E+00  0.6000E-01
    -22.811  0.0000E+00  0.6000E-01
    -22.422  0.0000E+00  0.6000E-01
    -22.033  0.0000E+00  0.6000E-01
    -21.645  0.0000E+00  0.6000E-01
    -21.256  0.0000E+00  0.6000E-01
    -20.867  0.0000E+00  0.6000E-01
    -20.478  0.0000E+00  0.6000E-01
    -20.090  0.0000E+00  0.6000E-01
    -19.701  0.0000E+00  0.6000E-01
    -19.312  0.0000E+00  0.6000E-01
    -18.923  0.0000E+00  0.6000E-01
    -18.535  0.0000E+00  0.6000E-01
    -18.146  0.0000E+00  0.6000E-01
    -17.757  0.0000E+00  0.6000E-01
    -17.368  0.0000E+00  0.6000E-01
    -16.980  0.0000E+00  0.6000E-01
    -16.591  0.0000E+00  0.6000E-01
    -16.202  0.0000E+00  0.6000E-01
    -15.813  0.0000E+00  0.6000E-01
    -15.424  0.0000E+00  0.6000E-01
    -15.036  0.0000E+00  0.6000E-01
    -14.647  0.0000E+00  0.6000E-01
    -14.258  0.0000E+00  0.6000E-01
    -13.869  0.0000E+00  0.6000E-01
    -13.481  0.0000E+00  0.6000E-01
    -13.092  0.0000E+00  0.6000E-01
    -12.703  0.0000E+00  0.6000E-01
    -12.314  0.0000E+00  0.6000E-01
    -11.926  0.0000E+00  0.6000E-01
    -11.537  0.0000E+00  0.6000E-01
    -11.148  0.0000E+00  0.6000E-01
    -10.759  0.0000E+00  0.6000E-01
    -10.371  0.0000E+00  0.6000E-01
     -9.982  0.0000E+00  0.6000E-01
     -9.593  0.0000E+00  0.6000E-01
     -9.204  0.0000E+00  0.6000E-01
     -8.815  0.0000E+00  0.6000E-01
     -8.427  0.0000E+00  0.6000E-01
     -8.038  0.0000E+00  0.6000E-01
     -7.649  0.0000E+00  0.6000E-01
     -7.260  0.0000E+00  0.6000E-01
     -6.872  0.0000E+00  0.6000E-01
     -6.483  0.0000E+00  0.6000E-01
     -6.094  0.0000E+00  0.6000E-01
     -5.705  0.0000E+00  0.6000E-01
     -5.317  0.0000E+00  0.6000E-01
     -4.928  0.0000E+00  0.6000E-01
     -4.539  0.0000E+00  0.6000E-01
     -4.150  0.0000E+00  0.6000E-01
     -3.762  0.0000E+00  0.6000E-01
     -3.373  0.0000E+00  0.6000E-01
     -2.984  0.0000E+00  0.6000E-01
     -2.595  0.0000E+00  0.6000E-01
     -2.206  0.0000E+00  0.6000E-01
     -1.818  0.0000E+00  0.6000E-01
     -1.429  0.0000E+00  0.6000E-01
     -1.040  0.0000E+00  0.6000E-01
     -0.651  0.0000E+00  0.6000E-01
     -0.263  0.0000E+00  0.6000E-01
      0.126  0.0000E+00  0.6000E-01
      0.515  0.0000E+00  0.6000E-01
      0.904  0.0000E+00  0.6000E-01
      1.292  0.0000E+00  0.6000E-01
      1.681  0.5712E-20  0.6000E-01
      2.070  0.1026E-03  0.6004E-01
      2.459  0.3447E-03  0.6017E-01
      2.847  0.6817E-03  0.6044E-01
      3.236  0.8430E-03  0.6077E-01
      3.625  0.7842E-03  0.6110E-01
      4.014  0.1173E-02  0.6156E-01
      4.403  0.1805E-02  0.6226E-01
      4.791  0.2169E-02  0.6312E-01
      5.180  0.5928E-02  0.6543E-01
      5.569  0.9542E-02  0.6915E-01
      5.958  0.1360E-01  0.7458E-01
      6.346  0.1268E-01  0.7965E-01
      6.735  0.1192E-01  0.8439E-01
      7.124  0.9728E-02  0.8820E-01
      7.513  0.1271E-01  0.9334E-01
      7.901  0.1322E-01  0.9862E-01
      8.290  0.1507E-01  0.1046E+00
      8.679  0.2029E-01  0.1125E+00
      9.068  0.1722E-01  0.1196E+00
      9.456  0.1136E-01  0.1241E+00
      9.845  0.1162E-01  0.1287E+00
     10.234  0.1529E-01  0.1347E+00
     10.623  0.1153E-01  0.1393E+00
     11.011  0.1142E-01  0.1439E+00
     11.400  0.1255E-01  0.1488E+00
     11.789  0.9566E-02  0.1526E+00
     12.178  0.1678E-01  0.1593E+00
     12.567  0.1486E-01  0.1651E+00
     12.955  0.3459E-02  0.1665E+00
     13.344  0.4215E-02  0.1682E+00
     13.733  0.1394E-02  0.1689E+00
     14.122  0.2348E-02  0.1698E+00
     14.510  0.3481E-02  0.1712E+00
     14.899  0.2199E-02  0.1721E+00
     15.288  0.2595E-02  0.1731E+00
     15.677  0.3053E-02  0.1743E+00
     16.065  0.1627E-02  0.1751E+00
     16.454  0.2141E-02  0.1760E+00
     16.843  0.2193E-02  0.1769E+00
     17.232  0.2360E-02  0.1778E+00
     17.620  0.1586E-02  0.1784E+00
     18.009  0.4405E-02  0.1802E+00
     18.398  0.2201E-02  0.1811E+00
     18.787  0.4840E-02  0.1830E+00
     19.176  0.2230E-02  0.1838E+00
     19.564  0.1315E-02  0.1844E+00
     19.953  0.4570E-02  0.1862E+00
     20.342  0.3036E-02  0.1874E+00
     20.731  0.2881E-02  0.1885E+00
     21.119  0.3757E-02  0.1899E+00
     21.508  0.2197E-02  0.1909E+00
     21.897  0.1984E-02  0.1917E+00
     22.286  0.3286E-02  0.1931E+00
     22.674  0.4292E-02  0.1949E+00
     23.063  0.2375E-02  0.1959E+00
     23.452  0.3854E-02  0.1974E+00
     23.841  0.4100E-02  0.1991E+00
     24.229  0.2679E-02  0.2001E+00
     24.618  0.6332E-02  0.2027E+00
     25.007  0.4808E-02  0.2046E+00
     25.396  0.1812E-02  0.2055E+00
     25.785  0.5745E-02  0.2078E+00
     26.173  0.5324E-02  0.2099E+00
     26.562  0.4740E-02  0.2119E+00
     26.951  0.7021E-02  0.2147E+00
     27.340  0.5693E-02  0.2170E+00
     27.728  0.8843E-02  0.2204E+00
     28.117  0.7595E-02  0.2236E+00
     28.506  0.4999E-02  0.2256E+00
     28.895  0.7312E-02  0.2284E+00
     29.283  0.5003E-02  0.2304E+00
     29.672  0.7962E-02  0.2335E+00
     30.061  0.2390E-02  0.2345E+00
     30.450  0.3750E-02  0.2359E+00
     30.838  0.2780E-02  0.2370E+00
     31.227  0.6000E-02  0.2394E+00
     31.616  0.4710E-02  0.2414E+00
     32.005  0.7350E-02  0.2443E+00
     32.394  0.9477E-02  0.2480E+00
     32.782  0.5874E-02  0.2503E+00
     33.171  0.7361E-02  0.2532E+00
     33.560  0.4817E-02  0.2552E+00
     33.949  0.5578E-02  0.2574E+00
     34.337  0.3547E-02  0.2588E+00
     34.726  0.2463E-02  0.2598E+00
     35.115  0.3779E-02  0.2612E+00
     35.504  0.4668E-02  0.2631E+00
     35.892  0.4677E-02  0.2649E+00
     36.281  0.4076E-02  0.2666E+00
     36.670  0.5322E-02  0.2687E+00
     37.059  0.4299E-02  0.2704E+00
     37.447  0.8255E-02  0.2738E+00
     37.836  0.2614E-02  0.2749E+00
     38.225  0.5422E-02  0.2771E+00
     38.614  0.4386E-02  0.2788E+00
     39.003  0.8852E-02  0.2823E+00
     39.391  0.5883E-02  0.2847E+00
     39.780  0.9146E-02  0.2883E+00
     40.169  0.1207E-01  0.2930E+00
     40.558  0.1149E-01  0.2976E+00
     40.946  0.9561E-02  0.3014E+00
     41.335  0.9632E-02  0.3053E+00
     41.724  0.5690E-02  0.3076E+00
     42.113  0.6464E-02  0.3102E+00
     42.501  0.2666E-02  0.3112E+00
     42.890  0.8186E-02  0.3144E+00
     43.279  0.7010E-02  0.3173E+00
     43.668  0.7822E-02  0.3205E+00
     44.056  0.7408E-02  0.3236E+00
     44.445  0.7995E-02  0.3268E+00
     44.834  0.7407E-02  0.3299E+00
     45.223  0.6875E-02  0.3326E+00
     45.612  0.5361E-02  0.3349E+00
     46.000  0.4353E-02  0.3366E+00
     46.389  0.5716E-02  0.3388E+00
     46.778  0.6204E-02  0.3413E+00
     47.167  0.6825E-02  0.3441E+00
     47.555  0.5270E-02  0.3463E+00
     47.944  0.9918E-02  0.3502E+00
     48.333  0.8012E-02  0.3535E+00
     48.722  0.1101E-01  0.3581E+00
     49.110  0.1054E-01  0.3622E+00
     49.499  0.1044E-01  0.3665E+00
     49.888  0.8523E-02  0.3699E+00
     50.277  0.9816E-02  0.3738E+00
     50.665  0.9517E-02  0.3775E+00
     51.054  0.8845E-02  0.3811E+00
     51.443  0.6282E-02  0.3836E+00
     51.832  0.5500E-02  0.3857E+00
     52.220  0.5617E-02  0.3880E+00
     52.609  0.7848E-02  0.3911E+00
     52.998  0.6068E-01  0.4147E+00
     53.387  0.8955E-02  0.4183E+00
     53.776  0.4887E-02  0.4202E+00
     54.164  0.9644E-02  0.4241E+00
     54.553  0.9260E-02  0.4277E+00
     54.942  0.7551E-02  0.4306E+00
     55.331  0.7588E-02  0.4338E+00
     55.719  0.7037E-02  0.4366E+00
     56.108  0.8098E-02  0.4399E+00
     56.497  0.6510E-02  0.4426E+00
     56.886  0.8913E-02  0.4461E+00
     57.274  0.9043E-02  0.4497E+00
     57.663  0.8301E-02  0.4530E+00
     58.052  0.8419E-02  0.4563E+00
     58.441  0.8479E-02  0.4597E+00
     58.829  0.7556E-02  0.4627E+00
     59.218  0.8295E-02  0.4660E+00
     59.607  0.5992E-02  0.4683E+00
     59.996  0.5790E-02  0.4706E+00
     60.385  0.7596E-02  0.4736E+00
     60.773  0.2830E-02  0.4748E+00
     61.162  0.3683E-02  0.4762E+00
     61.551  0.1516E-02  0.4768E+00
     61.940  0.1868E-02  0.4775E+00
     62.328  0.2663E-02  0.4786E+00
     62.717  0.1357E-02  0.4791E+00
     63.106  0.4006E-03  0.4792E+00
     63.495  0.1020E-02  0.4796E+00
     63.883  0.2203E-14  0.4796E+00
     64.272  0.5902E-03  0.4799E+00
     64.661  0.0000E+00  0.4799E+00
     65.050  0.9838E-08  0.4799E+00
     65.438  0.3087E-03  0.4800E+00
     65.827  0.0000E+00  0.4800E+00
     66.216  0.0000E+00  0.4800E+00
     66.605  0.0000E+00  0.4800E+00
     66.994  0.0000E+00  0.4800E+00
     67.382  0.0000E+00  0.4800E+00
     67.771  0.0000E+00  0.4800E+00
     68.160  0.0000E+00  0.4800E+00
     68.549  0.0000E+00  0.4800E+00
     68.937  0.0000E+00  0.4800E+00
     69.326  0.0000E+00  0.4800E+00
     69.715  0.0000E+00  0.4800E+00
     70.104  0.0000E+00  0.4800E+00
     70.492  0.0000E+00  0.4800E+00
     70.49241595    -46.13683646  301     12.21910704      1.00000000
    -46.137  0.0000E+00  0.0000E+00  0.0000E+00  0.0000E+00  0.0000E+00  0.0000E+00  0.0000E+00  0.0000E+00  0.0000E+00
    -45.748  0.0000E+00  0.0000E+00  0.0000E+00  0.0000E+00  0.0000E+00  0.0000E+00  0.0000E+00  0.0000E+00  0.0000E+00
    -45.359  0.0000E+00  0.0000E+00  0.0000E+00  0.0000E+00  0.0000E+00  0.0000E+00  0.0000E+00  0.0000E+00  0.0000E+00
    -44.971  0.0000E+00  0.0000E+00  0.0000E+00  0.0000E+00  0.0000E+00  0.0000E+00  0.0000E+00  0.0000E+00  0.0000E+00
    -44.582  0.0000E+00  0.0000E+00  0.0000E+00  0.0000E+00  0.0000E+00  0.0000E+00  0.0000E+00  0.0000E+00  0.0000E+00
    -44.193  0.0000E+00  0.0000E+00  0.0000E+00  0.0000E+00  0.0000E+00  0.0000E+00  0.0000E+00  0.0000E+00  0.0000E+00
    -43.804  0.0000E+00  0.0000E+00  0.0000E+00  0.0000E+00  0.0000E+00  0.0000E+00  0.0000E+00  0.0000E+00  0.0000E+00
    -43.415  0.0000E+00  0.0000E+00  0.0000E+00  0.0000E+00  0.0000E+00  0.0000E+00  0.0000E+00  0.0000E+00  0.0000E+00
    -43.027  0.0000E+00  0.0000E+00  0.0000E+00  0.0000E+00  0.0000E+00  0.0000E+00  0.0000E+00  0.0000E+00  0.0000E+00
    -42.638  0.0000E+00  0.0000E+00  0.0000E+00  0.0000E+00  0.0000E+00  0.0000E+00  0.0000E+00  0.0000E+00  0.0000E+00
    -42.249  0.0000E+00  0.0000E+00  0.0000E+00  0.0000E+00  0.0000E+00  0.0000E+00  0.0000E+00  0.0000E+00  0.0000E+00
    -41.860  0.0000E+00  0.0000E+00  0.0000E+00  0.0000E+00  0.0000E+00  0.0000E+00  0.0000E+00  0.0000E+00  0.0000E+00
    -41.472  0.0000E+00  0.0000E+00  0.0000E+00  0.0000E+00  0.0000E+00  0.0000E+00  0.0000E+00  0.0000E+00  0.0000E+00
    -41.083  0.1156E-18  0.1653E-13  0.1653E-13  0.1653E-13  0.6333E-19  0.6333E-19  0.4806E-19  0.6333E-19  0.4806E-19
    -40.694  0.1146E-03  0.1185E+01  0.1185E+01  0.1185E+01  0.3524E-04  0.3524E-04  0.1619E-04  0.3524E-04  0.1619E-04
    -40.305  0.1738E-03  0.3799E+01  0.3799E+01  0.3799E+01  0.1233E-03  0.1233E-03  0.6707E-04  0.1233E-03  0.6707E-04
    -39.917  0.0000E+00  0.0000E+00  0.0000E+00  0.0000E+00  0.0000E+00  0.0000E+00  0.0000E+00  0.0000E+00  0.0000E+00
    -39.528  0.0000E+00  0.0000E+00  0.0000E+00  0.0000E+00  0.0000E+00  0.0000E+00  0.0000E+00  0.0000E+00  0.0000E+00
    -39.139  0.0000E+00  0.0000E+00  0.0000E+00  0.0000E+00  0.0000E+00  0.0000E+00  0.0000E+00  0.0000E+00  0.0000E+00
    -38.750  0.0000E+00  0.0000E+00  0.0000E+00  0.0000E+00  0.0000E+00  0.0000E+00  0.0000E+00  0.0000E+00  0.0000E+00
    -38.362  0.0000E+00  0.0000E+00  0.0000E+00  0.0000E+00  0.0000E+00  0.0000E+00  0.0000E+00  0.0000E+00  0.0000E+00
    -37.973  0.0000E+00  0.0000E+00  0.0000E+00  0.0000E+00  0.0000E+00  0.0000E+00  0.0000E+00  0.0000E+00  0.0000E+00
    -37.584  0.0000E+00  0.0000E+00  0.0000E+00  0.0000E+00  0.0000E+00  0.0000E+00  0.0000E+00  0.0000E+00  0.0000E+00
    -37.195  0.0000E+00  0.0000E+00  0.0000E+00  0.0000E+00  0.0000E+00  0.0000E+00  0.0000E+00  0.0000E+00  0.0000E+00
    -36.806  0.0000E+00  0.0000E+00  0.0000E+00  0.0000E+00  0.0000E+00  0.0000E+00  0.0000E+00  0.0000E+00  0.0000E+00
    -36.418  0.0000E+00  0.0000E+00  0.0000E+00  0.0000E+00  0.0000E+00  0.0000E+00  0.0000E+00  0.0000E+00  0.0000E+00
    -36.029  0.0000E+00  0.0000E+00  0.0000E+00  0.0000E+00  0.0000E+00  0.0000E+00  0.0000E+00  0.0000E+00  0.0000E+00
    -35.640  0.0000E+00  0.0000E+00  0.0000E+00  0.0000E+00  0.0000E+00  0.0000E+00  0.0000E+00  0.0000E+00  0.0000E+00
    -35.251  0.0000E+00  0.0000E+00  0.0000E+00  0.0000E+00  0.0000E+00  0.0000E+00  0.0000E+00  0.0000E+00  0.0000E+00
    -34.863  0.0000E+00  0.0000E+00  0.0000E+00  0.0000E+00  0.0000E+00  0.0000E+00  0.0000E+00  0.0000E+00  0.0000E+00
    -34.474  0.0000E+00  0.0000E+00  0.0000E+00  0.0000E+00  0.0000E+00  0.0000E+00  0.0000E+00  0.0000E+00  0.0000E+00
    -34.085  0.0000E+00  0.0000E+00  0.0000E+00  0.0000E+00  0.0000E+00  0.0000E+00  0.0000E+00  0.0000E+00  0.0000E+00
    -33.696  0.0000E+00  0.0000E+00  0.0000E+00  0.0000E+00  0.0000E+00  0.0000E+00  0.0000E+00  0.0000E+00  0.0000E+00
    -33.308  0.0000E+00  0.0000E+00  0.0000E+00  0.0000E+00  0.0000E+00  0.0000E+00  0.0000E+00  0.0000E+00  0.0000E+00
    -32.919  0.0000E+00  0.0000E+00  0.0000E+00  0.0000E+00  0.0000E+00  0.0000E+00  0.0000E+00  0.0000E+00  0.0000E+00
    -32.530  0.0000E+00  0.0000E+00  0.0000E+00  0.0000E+00  0.0000E+00  0.0000E+00  0.0000E+00  0.0000E+00  0.0000E+00
    -32.141  0.0000E+00  0.0000E+00  0.0000E+00  0.0000E+00  0.0000E+00  0.0000E+00  0.0000E+00  0.0000E+00  0.0000E+00
    -31.753  0.0000E+00  0.0000E+00  0.0000E+00  0.0000E+00  0.0000E+00  0.0000E+00  0.0000E+00  0.0000E+00  0.0000E+00
    -31.364  0.0000E+00  0.0000E+00  0.0000E+00  0.0000E+00  0.0000E+00  0.0000E+00  0.0000E+00  0.0000E+00  0.0000E+00
    -30.975  0.0000E+00  0.0000E+00  0.0000E+00  0.0000E+00  0.0000E+00  0.0000E+00  0.0000E+00  0.0000E+00  0.0000E+00
    -30.586  0.0000E+00  0.0000E+00  0.0000E+00  0.0000E+00  0.0000E+00  0.0000E+00  0.0000E+00  0.0000E+00  0.0000E+00
    -30.198  0.0000E+00  0.0000E+00  0.0000E+00  0.0000E+00  0.0000E+00  0.0000E+00  0.0000E+00  0.0000E+00  0.0000E+00
    -29.809  0.0000E+00  0.0000E+00  0.0000E+00  0.0000E+00  0.0000E+00  0.0000E+00  0.0000E+00  0.0000E+00  0.0000E+00
    -29.420  0.0000E+00  0.0000E+00  0.0000E+00  0.0000E+00  0.0000E+00  0.0000E+00  0.0000E+00  0.0000E+00  0.0000E+00
    -29.031  0.0000E+00  0.0000E+00  0.0000E+00  0.0000E+00  0.0000E+00  0.0000E+00  0.0000E+00  0.0000E+00  0.0000E+00
    -28.642  0.0000E+00  0.0000E+00  0.0000E+00  0.0000E+00  0.0000E+00  0.0000E+00  0.0000E+00  0.0000E+00  0.0000E+00
    -28.254  0.0000E+00  0.0000E+00  0.0000E+00  0.0000E+00  0.0000E+00  0.0000E+00  0.0000E+00  0.0000E+00  0.0000E+00
    -27.865  0.0000E+00  0.0000E+00  0.0000E+00  0.0000E+00  0.0000E+00  0.0000E+00  0.0000E+00  0.0000E+00  0.0000E+00
    -27.476  0.0000E+00  0.0000E+00  0.0000E+00  0.0000E+00  0.0000E+00  0.0000E+00  0.0000E+00  0.0000E+00  0.0000E+00
    -27.087  0.0000E+00  0.0000E+00  0.0000E+00  0.0000E+00  0.0000E+00  0.0000E+00  0.0000E+00  0.0000E+00  0.0000E+00
    -26.699  0.0000E+00  0.0000E+00  0.0000E+00  0.0000E+00  0.0000E+00  0.0000E+00  0.0000E+00  0.0000E+00  0.0000E+00
    -26.310  0.0000E+00  0.0000E+00  0.0000E+00  0.0000E+00  0.0000E+00  0.0000E+00  0.0000E+00  0.0000E+00  0.0000E+00
    -25.921  0.0000E+00  0.0000E+00  0.0000E+00  0.0000E+00  0.0000E+00  0.0000E+00  0.0000E+00  0.0000E+00  0.0000E+00
    -25.532  0.0000E+00  0.0000E+00  0.0000E+00  0.0000E+00  0.0000E+00  0.0000E+00  0.0000E+00  0.0000E+00  0.0000E+00
    -25.144  0.0000E+00  0.0000E+00  0.0000E+00  0.0000E+00  0.0000E+00  0.0000E+00  0.0000E+00  0.0000E+00  0.0000E+00
    -24.755  0.0000E+00  0.0000E+00  0.0000E+00  0.0000E+00  0.0000E+00  0.0000E+00  0.0000E+00  0.0000E+00  0.0000E+00
    -24.366  0.0000E+00  0.0000E+00  0.0000E+00  0.0000E+00  0.0000E+00  0.0000E+00  0.0000E+00  0.0000E+00  0.0000E+00
    -23.977  0.0000E+00  0.0000E+00  0.0000E+00  0.0000E+00  0.0000E+00  0.0000E+00  0.0000E+00  0.0000E+00  0.0000E+00
    -23.589  0.0000E+00  0.0000E+00  0.0000E+00  0.0000E+00  0.0000E+00  0.0000E+00  0.0000E+00  0.0000E+00  0.0000E+00
    -23.200  0.0000E+00  0.0000E+00  0.0000E+00  0.0000E+00  0.0000E+00  0.0000E+00  0.0000E+00  0.0000E+00  0.0000E+00
    -22.811  0.0000E+00  0.0000E+00  0.0000E+00  0.0000E+00  0.0000E+00  0.0000E+00  0.0000E+00  0.0000E+00  0.0000E+00
    -22.422  0.0000E+00  0.0000E+00  0.0000E+00  0.0000E+00  0.0000E+00  0.0000E+00  0.0000E+00  0.0000E+00  0.0000E+00
    -22.033  0.0000E+00  0.0000E+00  0.0000E+00  0.0000E+00  0.0000E+00  0.0000E+00  0.0000E+00  0.0000E+00  0.0000E+00
    -21.645  0.0000E+00  0.0000E+00  0.0000E+00  0.0000E+00  0.0000E+00  0.0000E+00  0.0000E+00  0.0000E+00  0.0000E+00
    -21.256  0.0000E+00  0.0000E+00  0.0000E+00  0.0000E+00  0.0000E+00  0.0000E+00  0.0000E+00  0.0000E+00  0.0000E+00
    -20.867  0.0000E+00  0.0000E+00  0.0000E+00  0.0000E+00  0.0000E+00  0.0000E+00  0.0000E+00  0.0000E+00  0.0000E+00
    -20.478  0.0000E+00  0.0000E+00  0.0000E+00  0.0000E+00  0.0000E+00  0.0000E+00  0.0000E+00  0.0000E+00  0.0000E+00
    -20.090  0.0000E+00  0.0000E+00  0.0000E+00  0.0000E+00  0.0000E+00  0.0000E+00  0.0000E+00  0.0000E+00  0.0000E+00
    -19.701  0.0000E+00  0.0000E+00  0.0000E+00  0.0000E+00  0.0000E+00  0.0000E+00  0.0000E+00  0.0000E+00  0.0000E+00
    -19.312  0.0000E+00  0.0000E+00  0.0000E+00  0.0000E+00  0.0000E+00  0.0000E+00  0.0000E+00  0.0000E+00  0.0000E+00
    -18.923  0.0000E+00  0.0000E+00  0.0000E+00  0.0000E+00  0.0000E+00  0.0000E+00  0.0000E+00  0.0000E+00  0.0000E+00
    -18.535  0.0000E+00  0.0000E+00  0.0000E+00  0.0000E+00  0.0000E+00  0.0000E+00  0.0000E+00  0.0000E+00  0.0000E+00
    -18.146  0.0000E+00  0.0000E+00  0.0000E+00  0.0000E+00  0.0000E+00  0.0000E+00  0.0000E+00  0.0000E+00  0.0000E+00
    -17.757  0.0000E+00  0.0000E+00  0.0000E+00  0.0000E+00  0.0000E+00  0.0000E+00  0.0000E+00  0.0000E+00  0.0000E+00
    -17.368  0.0000E+00  0.0000E+00  0.0000E+00  0.0000E+00  0.0000E+00  0.0000E+00  0.0000E+00  0.0000E+00  0.0000E+00
    -16.980  0.0000E+00  0.0000E+00  0.0000E+00  0.0000E+00  0.0000E+00  0.0000E+00  0.0000E+00  0.0000E+00  0.0000E+00
    -16.591  0.0000E+00  0.0000E+00  0.0000E+00  0.0000E+00  0.0000E+00  0.0000E+00  0.0000E+00  0.0000E+00  0.0000E+00
    -16.202  0.0000E+00  0.0000E+00  0.0000E+00  0.0000E+00  0.0000E+00  0.0000E+00  0.0000E+00  0.0000E+00  0.0000E+00
    -15.813  0.0000E+00  0.0000E+00  0.0000E+00  0.0000E+00  0.0000E+00  0.0000E+00  0.0000E+00  0.0000E+00  0.0000E+00
    -15.424  0.0000E+00  0.0000E+00  0.0000E+00  0.0000E+00  0.0000E+00  0.0000E+00  0.0000E+00  0.0000E+00  0.0000E+00
    -15.036  0.0000E+00  0.0000E+00  0.0000E+00  0.0000E+00  0.0000E+00  0.0000E+00  0.0000E+00  0.0000E+00  0.0000E+00
    -14.647  0.0000E+00  0.0000E+00  0.0000E+00  0.0000E+00  0.0000E+00  0.0000E+00  0.0000E+00  0.0000E+00  0.0000E+00
    -14.258  0.0000E+00  0.0000E+00  0.0000E+00  0.0000E+00  0.0000E+00  0.0000E+00  0.0000E+00  0.0000E+00  0.0000E+00
    -13.869  0.0000E+00  0.0000E+00  0.0000E+00  0.0000E+00  0.0000E+00  0.0000E+00  0.0000E+00  0.0000E+00  0.0000E+00
    -13.481  0.0000E+00  0.0000E+00  0.0000E+00  0.0000E+00  0.0000E+00  0.0000E+00  0.0000E+00  0.0000E+00  0.0000E+00
    -13.092  0.0000E+00  0.0000E+00  0.0000E+00  0.0000E+00  0.0000E+00  0.0000E+00  0.0000E+00  0.0000E+00  0.0000E+00
    -12.703  0.0000E+00  0.0000E+00  0.0000E+00  0.0000E+00  0.0000E+00  0.0000E+00  0.0000E+00  0.0000E+00  0.0000E+00
    -12.314  0.0000E+00  0.0000E+00  0.0000E+00  0.0000E+00  0.0000E+00  0.0000E+00  0.0000E+00  0.0000E+00  0.0000E+00
    -11.926  0.0000E+00  0.0000E+00  0.0000E+00  0.0000E+00  0.0000E+00  0.0000E+00  0.0000E+00  0.0000E+00  0.0000E+00
    -11.537  0.0000E+00  0.0000E+00  0.0000E+00  0.0000E+00  0.0000E+00  0.0000E+00  0.0000E+00  0.0000E+00  0.0000E+00
    -11.148  0.0000E+00  0.0000E+00  0.0000E+00  0.0000E+00  0.0000E+00  0.0000E+00  0.0000E+00  0.0000E+00  0.0000E+00
    -10.759  0.0000E+00  0.0000E+00  0.0000E+00  0.0000E+00  0.0000E+00  0.0000E+00  0.0000E+00  0.0000E+00  0.0000E+00
    -10.371  0.0000E+00  0.0000E+00  0.0000E+00  0.0000E+00  0.0000E+00  0.0000E+00  0.0000E+00  0.0000E+00  0.0000E+00
     -9.982  0.0000E+00  0.0000E+00  0.0000E+00  0.0000E+00  0.0000E+00  0.0000E+00  0.0000E+00  0.0000E+00  0.0000E+00
     -9.593  0.0000E+00  0.0000E+00  0.0000E+00  0.0000E+00  0.0000E+00  0.0000E+00  0.0000E+00  0.0000E+00  0.0000E+00
     -9.204  0.0000E+00  0.0000E+00  0.0000E+00  0.0000E+00  0.0000E+00  0.0000E+00  0.0000E+00  0.0000E+00  0.0000E+00
     -8.815  0.0000E+00  0.0000E+00  0.0000E+00  0.0000E+00  0.0000E+00  0.0000E+00  0.0000E+00  0.0000E+00  0.0000E+00
     -8.427  0.0000E+00  0.0000E+00  0.0000E+00  0.0000E+00  0.0000E+00  0.0000E+00  0.0000E+00  0.0000E+00  0.0000E+00
     -8.038  0.0000E+00  0.0000E+00  0.0000E+00  0.0000E+00  0.0000E+00  0.0000E+00  0.0000E+00  0.0000E+00  0.0000E+00
     -7.649  0.0000E+00  0.0000E+00  0.0000E+00  0.0000E+00  0.0000E+00  0.0000E+00  0.0000E+00  0.0000E+00  0.0000E+00
     -7.260  0.0000E+00  0.0000E+00  0.0000E+00  0.0000E+00  0.0000E+00  0.0000E+00  0.0000E+00  0.0000E+00  0.0000E+00
     -6.872  0.0000E+00  0.0000E+00  0.0000E+00  0.0000E+00  0.0000E+00  0.0000E+00  0.0000E+00  0.0000E+00  0.0000E+00
     -6.483  0.0000E+00  0.0000E+00  0.0000E+00  0.0000E+00  0.0000E+00  0.0000E+00  0.0000E+00  0.0000E+00  0.0000E+00
     -6.094  0.0000E+00  0.0000E+00  0.0000E+00  0.0000E+00  0.0000E+00  0.0000E+00  0.0000E+00  0.0000E+00  0.0000E+00
     -5.705  0.0000E+00  0.0000E+00  0.0000E+00  0.0000E+00  0.0000E+00  0.0000E+00  0.0000E+00  0.0000E+00  0.0000E+00
     -5.317  0.0000E+00  0.0000E+00  0.0000E+00  0.0000E+00  0.0000E+00  0.0000E+00  0.0000E+00  0.0000E+00  0.0000E+00
     -4.928  0.0000E+00  0.0000E+00  0.0000E+00  0.0000E+00  0.0000E+00  0.0000E+00  0.0000E+00  0.0000E+00  0.0000E+00
     -4.539  0.0000E+00  0.0000E+00  0.0000E+00  0.0000E+00  0.0000E+00  0.0000E+00  0.0000E+00  0.0000E+00  0.0000E+00
     -4.150  0.0000E+00  0.0000E+00  0.0000E+00  0.0000E+00  0.0000E+00  0.0000E+00  0.0000E+00  0.0000E+00  0.0000E+00
     -3.762  0.0000E+00  0.0000E+00  0.0000E+00  0.0000E+00  0.0000E+00  0.0000E+00  0.0000E+00  0.0000E+00  0.0000E+00
     -3.373  0.0000E+00  0.0000E+00  0.0000E+00  0.0000E+00  0.0000E+00  0.0000E+00  0.0000E+00  0.0000E+00  0.0000E+00
     -2.984  0.0000E+00  0.0000E+00  0.0000E+00  0.0000E+00  0.0000E+00  0.0000E+00  0.0000E+00  0.0000E+00  0.0000E+00
     -2.595  0.0000E+00  0.0000E+00  0.0000E+00  0.0000E+00  0.0000E+00  0.0000E+00  0.0000E+00  0.0000E+00  0.0000E+00
     -2.206  0.0000E+00  0.0000E+00  0.0000E+00  0.0000E+00  0.0000E+00  0.0000E+00  0.0000E+00  0.0000E+00  0.0000E+00
     -1.818  0.0000E+00  0.0000E+00  0.0000E+00  0.0000E+00  0.0000E+00  0.0000E+00  0.0000E+00  0.0000E+00  0.0000E+00
     -1.429  0.0000E+00  0.0000E+00  0.0000E+00  0.0000E+00  0.0000E+00  0.0000E+00  0.0000E+00  0.0000E+00  0.0000E+00
     -1.040  0.0000E+00  0.0000E+00  0.0000E+00  0.0000E+00  0.0000E+00  0.0000E+00  0.0000E+00  0.0000E+00  0.0000E+00
     -0.651  0.0000E+00  0.0000E+00  0.0000E+00  0.0000E+00  0.0000E+00  0.0000E+00  0.0000E+00  0.0000E+00  0.0000E+00
     -0.263  0.0000E+00  0.0000E+00  0.0000E+00  0.0000E+00  0.0000E+00  0.0000E+00  0.0000E+00  0.0000E+00  0.0000E+00
      0.126  0.0000E+00  0.0000E+00  0.0000E+00  0.0000E+00  0.0000E+00  0.0000E+00  0.0000E+00  0.0000E+00  0.0000E+00
      0.515  0.0000E+00  0.0000E+00  0.0000E+00  0.0000E+00  0.0000E+00  0.0000E+00  0.0000E+00  0.0000E+00  0.0000E+00
      0.904  0.0000E+00  0.0000E+00  0.0000E+00  0.0000E+00  0.0000E+00  0.0000E+00  0.0000E+00  0.0000E+00  0.0000E+00
      1.292  0.0000E+00  0.0000E+00  0.0000E+00  0.0000E+00  0.0000E+00  0.0000E+00  0.0000E+00  0.0000E+00  0.0000E+00
      1.681  0.2295E-18  0.2624E-21  0.2624E-21  0.2624E-21  0.1532E-22  0.1532E-22  0.9506E-38  0.1532E-22  0.9506E-38
      2.070  0.4121E-02  0.4712E-05  0.4712E-05  0.4712E-05  0.2752E-06  0.2752E-06  0.2369E-11  0.2752E-06  0.2369E-11
      2.459  0.1362E-01  0.6106E-04  0.6106E-04  0.6106E-04  0.8761E-05  0.8761E-05  0.4877E-05  0.8761E-05  0.4877E-05
      2.847  0.2626E-01  0.2340E-03  0.2340E-03  0.2340E-03  0.6871E-04  0.6871E-04  0.4956E-04  0.6871E-04  0.4956E-04
      3.236  0.3145E-01  0.4225E-03  0.4225E-03  0.4225E-03  0.3070E-03  0.3070E-03  0.7909E-04  0.3070E-03  0.7909E-04
      3.625  0.2801E-01  0.5302E-03  0.5302E-03  0.5302E-03  0.4843E-03  0.4843E-03  0.2822E-03  0.4843E-03  0.2822E-03
      4.014  0.4050E-01  0.8742E-03  0.8742E-03  0.8742E-03  0.1269E-02  0.1269E-02  0.5264E-03  0.1269E-02  0.5264E-03
      4.403  0.5737E-01  0.1505E-02  0.1505E-02  0.1505E-02  0.4183E-02  0.4183E-02  0.1340E-02  0.4183E-02  0.1340E-02
      4.791  0.6036E-01  0.1792E-02  0.1792E-02  0.1792E-02  0.9847E-02  0.9847E-02  0.2461E-02  0.9847E-02  0.2461E-02
      5.180  0.1125E+00  0.2880E-02  0.2880E-02  0.2880E-02  0.5752E-01  0.5752E-01  0.1852E-01  0.5752E-01  0.1852E-01
      5.569  0.1291E+00  0.4844E-02  0.4844E-02  0.4844E-02  0.6838E-01  0.6838E-01  0.1058E+00  0.6838E-01  0.1058E+00
      5.958  0.1086E+00  0.5221E-02  0.5221E-02  0.5221E-02  0.1619E+00  0.1619E+00  0.1357E+00  0.1619E+00  0.1357E+00
      6.346  0.5742E-01  0.4636E-02  0.4636E-02  0.4636E-02  0.1935E+00  0.1935E+00  0.1087E+00  0.1935E+00  0.1087E+00
      6.735  0.3465E-01  0.6003E-02  0.6003E-02  0.6003E-02  0.1716E+00  0.1716E+00  0.1281E+00  0.1716E+00  0.1281E+00
      7.124  0.7495E-02  0.6492E-02  0.6492E-02  0.6492E-02  0.1369E+00  0.1369E+00  0.1207E+00  0.1369E+00  0.1207E+00
      7.513  0.8823E-02  0.8104E-02  0.8104E-02  0.8104E-02  0.1766E+00  0.1766E+00  0.1712E+00  0.1766E+00  0.1712E+00
      7.901  0.1502E-01  0.7328E-02  0.7328E-02  0.7328E-02  0.2069E+00  0.2069E+00  0.1575E+00  0.2069E+00  0.1575E+00
      8.290  0.2218E-01  0.9956E-02  0.9956E-02  0.9956E-02  0.2403E+00  0.2403E+00  0.1717E+00  0.2403E+00  0.1717E+00
      8.679  0.2777E-01  0.1439E-01  0.1439E-01  0.1439E-01  0.3184E+00  0.3184E+00  0.2488E+00  0.3184E+00  0.2488E+00
      9.068  0.1943E-01  0.7715E-02  0.7715E-02  0.7715E-02  0.2964E+00  0.2964E+00  0.2183E+00  0.2964E+00  0.2183E+00
      9.456  0.1179E-01  0.8871E-02  0.8871E-02  0.8871E-02  0.1730E+00  0.1730E+00  0.1574E+00  0.1730E+00  0.1574E+00
      9.845  0.1349E-01  0.7681E-02  0.7681E-02  0.7681E-02  0.1430E+00  0.1430E+00  0.2262E+00  0.1430E+00  0.2262E+00
     10.234  0.9253E-02  0.7531E-02  0.7531E-02  0.7531E-02  0.1420E+00  0.1420E+00  0.3996E+00  0.1420E+00  0.3996E+00
     10.623  0.1033E-01  0.4437E-02  0.4437E-02  0.4437E-02  0.9898E-01  0.9898E-01  0.3258E+00  0.9898E-01  0.3258E+00
     11.011  0.8094E-02  0.3791E-02  0.3791E-02  0.3791E-02  0.1174E+00  0.1174E+00  0.3062E+00  0.1174E+00  0.3062E+00
     11.400  0.6073E-02  0.4252E-02  0.4252E-02  0.4252E-02  0.1732E+00  0.1732E+00  0.2818E+00  0.1732E+00  0.2818E+00
     11.789  0.5283E-02  0.2314E-02  0.2314E-02  0.2314E-02  0.1649E+00  0.1649E+00  0.1771E+00  0.1649E+00  0.1771E+00
     12.178  0.6646E-02  0.2223E-02  0.2223E-02  0.2223E-02  0.3146E+00  0.3146E+00  0.2965E+00  0.3146E+00  0.2965E+00
     12.567  0.1636E-01  0.3499E-02  0.3499E-02  0.3499E-02  0.3368E+00  0.3368E+00  0.1645E+00  0.3368E+00  0.1645E+00
     12.955  0.3216E-02  0.1146E-02  0.1146E-02  0.1146E-02  0.9210E-01  0.9210E-01  0.1729E-01  0.9210E-01  0.1729E-01
     13.344  0.2545E-01  0.5220E-02  0.5220E-02  0.5220E-02  0.6323E-01  0.6323E-01  0.5335E-01  0.6323E-01  0.5335E-01
     13.733  0.7155E-02  0.3112E-02  0.3112E-02  0.3112E-02  0.1801E-01  0.1801E-01  0.1350E-01  0.1801E-01  0.1350E-01
     14.122  0.1782E-01  0.3808E-02  0.3808E-02  0.3808E-02  0.3189E-01  0.3189E-01  0.2672E-01  0.3189E-01  0.2672E-01
     14.510  0.2789E-01  0.8309E-02  0.8309E-02  0.8309E-02  0.4485E-01  0.4485E-01  0.2657E-01  0.4485E-01  0.2657E-01