       N       E                     dE             d eps       ncg     rms          rms(c)
DAV:   1     0.152354342499E+02    0.15235E+02   -0.11734E+04  5928   0.602E+02
DAV:   2    -0.612717495515E+01   -0.21363E+02   -0.21049E+02  6744   0.884E+01
DAV:   3    -0.615780385893E+01   -0.30629E-01   -0.30629E-01  7032   0.375E+00
DAV:   4    -0.615782692891E+01   -0.23070E-04   -0.23069E-04  8232   0.673E-02
DAV:   5    -0.615782692792E+01    0.99180E-09   -0.27133E-09  6936   0.196E-04    0.195E+01
DAV:   6    -0.585911774212E+01    0.29871E+00   -0.94779E-01  5976   0.462E+00    0.751E+00
DAV:   7    -0.583396903527E+01    0.25149E-01   -0.11077E-01  7824   0.137E+00    0.192E+00
DAV:   8    -0.583209927870E+01    0.18698E-02   -0.55788E-03  5544   0.550E-01    0.253E-01
DAV:   9    -0.583200274211E+01    0.96537E-04   -0.94192E-05  7368   0.717E-02    0.155E-02
DAV:  10    -0.583200681183E+01   -0.40697E-05   -0.36341E-06  7536   0.108E-02    0.449E-03
DAV:  11    -0.583200678897E+01    0.22857E-07   -0.41598E-09  3384   0.488E-04
   1 F= -.58320068E+01 E0= -.58309842E+01  d E =-.583201E+01
