 vasp.6.3.2 27Jun22 (build Aug 12 2022 00:53:59) complex                        
  
 executed on               tv2STD date 2024.11.30  17:14:11
 running   24 mpi-ranks, with    1 threads/rank
 distrk:  each k-point on   24 cores,    1 groups
 distr:  one band on NCORE=   1 cores,   24 groups


--------------------------------------------------------------------------------------------------------


 INCAR:
   SYSTEM = Pt-fcc
   NWRITE = 2    write-flag
   ISTART = 0    job   : 0-new, 1-cont, 2-samecut
   ICHARG = 2    charge: 0-wave, 1-file, 2-atom, >10-const
   INIWAV = 1    electr: 0-lowe 1-rand  2-diag
   ENCUT = 425.0     energy cutoff in eV
   PREC = accurate      normal | accurate
   ADDGRID = .FALSE.  (use fine grid)
   NELM = 100     number of ELM steps
   EDIFF = 1E-06    energy stopping-criterion for ELM
   LREAL = .FALSE.      real-space projection (.FALSE., .TRUE., On, Auto)
   ALGO = Normal     Normal, Fast, Very_Fast
   LWAVE = .TRUE.
   LCHARG = .TRUE.
   NSW = 100       max number of geometry steps
   IBRION = 2     ionic relax: 0-MD, 1-quasi-Newton, 2-CG, 3-Damped MD
   EDIFFG = -0.02  force (eV/A) stopping-criterion for geometry steps
   ISIF = 2     (1:force\=y stress\=trace only ions\=y shape\=n volume\=n)
   ISYM = 1     (1-use symmetry, 0-no symmetry)
   ISMEAR = 0     (-1-Fermi, 1-Methfessel/Paxton)
   SIGMA = 0.05   broadening in eV
   LORBIT = 11

 POTCAR:    PAW_PBE Pt_pv 12Dec2005               
 POTCAR:    PAW_PBE Pt_pv 12Dec2005               
   SHA256 =  e5abf7e8cd8db70d0153315afc5ad66b6e3eeee29cc2d5b91b16730957c1d208 Pt_pv/POTCAR          
   COPYR  = (c) Copyright 12Dec2005 Georg Kresse                                                    
   COPYR  = This file is part of the software VASP. Any use, copying, and all other rights are regul
   COPYR  = If you do not have a valid VASP license, you may not use, copy or distribute this file. 
   VRHFIN =Pt: 5ps1d9                                                                               
   LEXCH  = PE                                                                                      
   EATOM  =  2428.2504 eV,  178.4714 Ry                                                             
                                                                                                    
   TITEL  = PAW_PBE Pt_pv 12Dec2005                                                                 
   LULTRA =        F    use ultrasoft PP ?                                                          
   IUNSCR =        1    unscreen: 0-lin 1-nonlin 2-no                                               
   RPACOR =    2.000    partial core radius                                                         
   POMASS =  195.080; ZVAL   =   16.000    mass and valenz                                          
   RCORE  =    2.200    outmost cutoff radius                                                       
   RWIGS  =    2.200; RWIGS  =    1.164    wigner-seitz radius (au A)                               
   ENMAX  =  294.607; ENMIN  =  220.955 eV                                                          
   ICORE  =        3    local potential                                                             
   LCOR   =        T    correct aug charges                                                         
   LPAW   =        T    paw PP                                                                      
   EAUG   =  527.014                                                                                
   DEXC   =    0.000                                                                                
   RMAX   =    2.247    core radius for proj-oper                                                   
   RAUG   =    1.300    factor for augmentation sphere                                              
   RDEP   =    2.279    radius for radial grids                                                     
   RDEPT  =    1.878    core radius for aug-charge                                                  
                                                                                                    
   Atomic configuration                                                                             
   16 entries                                                                                       
     n  l   j            E        occ.                                                              
     1  0  0.50    -78401.1885   2.0000                                                             
     2  0  0.50    -13770.7750   2.0000                                                             
     2  1  1.50    -11931.0468   6.0000                                                             
     3  0  0.50     -3234.7234   2.0000                                                             
     3  1  1.50     -2699.2216   6.0000                                                             
     3  2  2.50     -2119.5714  10.0000                                                             
     4  0  0.50      -695.1528   2.0000                                                             
     4  1  1.50      -519.6034   6.0000                                                             
     4  2  2.50      -306.6786  10.0000                                                             
     4  3  3.50       -70.1041  14.0000                                                             
     5  0  0.50      -101.7747   2.0000                                                             
     5  1  1.50       -55.9873   6.0000                                                             
     6  1  1.50        -6.8029   0.0000                                                             
     5  2  2.50        -6.1423   9.0000                                                             
     6  0  0.50        -5.6573   1.0000                                                             
     5  3  2.50        -1.3606   0.0000                                                             
   Description                                                                                      
     l       E           TYP  RCUT    TYP  RCUT                                                     
     1    -55.9873477     23  2.000                                                                 
     1     27.2116520     23  2.000                                                                 
     2     -6.1423404     23  2.200                                                                 
     2     -4.6754623     23  2.200                                                                 
     0     -5.6573207     23  2.200                                                                 
     0     47.6203910     23  2.200                                                                 
     3      6.8029130     23  2.200                                                                 
  local pseudopotential read in
  partial core-charges read in
  partial kinetic energy density read in
  atomic valenz-charges read in
  non local Contribution for L=           1  read in
    real space projection operators read in
  non local Contribution for L=           1  read in
    real space projection operators read in
  non local Contribution for L=           2  read in
    real space projection operators read in
  non local Contribution for L=           2  read in
    real space projection operators read in
  non local Contribution for L=           0  read in
    real space projection operators read in
  non local Contribution for L=           0  read in
    real space projection operators read in
    PAW grid and wavefunctions read in
 
   number of l-projection  operators is LMAX  =           6
   number of lm-projection operators is LMMAX =          18
 
  PAW_PBE Pt_pv 12Dec2005               :
 energy of atom  1       EATOM=-2428.2504
 kinetic energy error for atom=    0.0554 (will be added to EATOM!!)
 
 
 POSCAR: Pt
  positions in cartesian coordinates
  No initial velocities read in
 exchange correlation table for  LEXCH =        8
   RHO(1)=    0.500       N(1)  =     2000
   RHO(2)=  100.500       N(2)  =     4000
 


--------------------------------------------------------------------------------------------------------


 ion  position               nearest neighbor table
   1  0.000  0.000  0.000-
 
  LATTYP: Found a face centered cubic cell.
 ALAT       =     3.9132249859
  
  Lattice vectors:
  
 A1 = (   0.0000000000,   1.9566124930,   1.9566124930)
 A2 = (   1.9566124930,   0.0000000000,   1.9566124930)
 A3 = (   1.9566124930,   1.9566124930,   0.0000000000)


Analysis of symmetry for initial positions (statically):
=====================================================================
 Subroutine PRICEL returns:
 Original cell was already a primitive cell.
 

 Routine SETGRP: Setting up the symmetry group for a 
 face centered cubic supercell.


 Subroutine GETGRP returns: Found 48 space group operations
 (whereof 48 operations were pure point group operations)
 out of a pool of 48 trial point group operations.


The static configuration has the point symmetry O_h .


Analysis of symmetry for dynamics (positions and initial velocities):
=====================================================================
 Subroutine PRICEL returns:
 Original cell was already a primitive cell.
 

 Routine SETGRP: Setting up the symmetry group for a 
 face centered cubic supercell.


 Subroutine GETGRP returns: Found 48 space group operations
 (whereof 48 operations were pure point group operations)
 out of a pool of 48 trial point group operations.


The dynamic configuration has the point symmetry O_h .


 Subroutine INISYM returns: Found 48 space group operations
 (whereof 48 operations are pure point group operations),
 and found     1 'primitive' translations


----------------------------------------------------------------------------------------

                                     Primitive cell                                     

  volume of cell :      14.9811

  direct lattice vectors                    reciprocal lattice vectors
     0.000000000  1.956612493  1.956612493    -0.255543702  0.255543702  0.255543702
     1.956612493  0.000000000  1.956612493     0.255543702 -0.255543702  0.255543702
     1.956612493  1.956612493  0.000000000     0.255543702  0.255543702 -0.255543702

  length of vectors
     2.767067924  2.767067924  2.767067924     0.442614676  0.442614676  0.442614676

  position of ions in fractional coordinates (direct lattice)
     0.000000000  0.000000000  0.000000000

  ion indices of the primitive-cell ions
   primitive index   ion index
                 1           1

----------------------------------------------------------------------------------------

 
 
 KPOINTS: Automatic mesh                          

Automatic generation of k-mesh.
 Grid dimensions read from file:
 generate k-points for:   10   10   10

 Generating k-lattice:

  Cartesian coordinates                     Fractional coordinates (reciprocal lattice)
    -0.025554370  0.025554370  0.025554370     0.100000000 -0.000000000 -0.000000000
     0.025554370 -0.025554370  0.025554370     0.000000000  0.100000000  0.000000000
     0.025554370  0.025554370 -0.025554370     0.000000000  0.000000000  0.100000000

  Length of vectors
     0.044261468  0.044261468  0.044261468

  Shift w.r.t. Gamma in fractional coordinates (k-lattice)
     0.500000000  0.500000000  0.500000000

 
 Subroutine IBZKPT returns following result:
 ===========================================
 
 Found    110 irreducible k-points:
 
 Following reciprocal coordinates:
            Coordinates               Weight
  0.050000  0.050000  0.050000      8.000000
  0.150000  0.050000  0.050000     24.000000
  0.250000  0.050000  0.050000     24.000000
  0.350000  0.050000  0.050000     24.000000
  0.450000  0.050000  0.050000     24.000000
 -0.450000  0.050000  0.050000     24.000000
 -0.350000  0.050000  0.050000     24.000000
 -0.250000  0.050000  0.050000     24.000000
 -0.150000  0.050000  0.050000     24.000000
 -0.050000  0.050000  0.050000     24.000000
  0.150000  0.150000  0.050000     24.000000
  0.250000  0.150000  0.050000     48.000000
  0.350000  0.150000  0.050000     48.000000
  0.450000  0.150000  0.050000     48.000000
 -0.450000  0.150000  0.050000     48.000000
 -0.350000  0.150000  0.050000     48.000000
 -0.250000  0.150000  0.050000     48.000000
 -0.150000  0.150000  0.050000     48.000000
 -0.050000  0.150000  0.050000     48.000000
  0.250000  0.250000  0.050000     24.000000
  0.350000  0.250000  0.050000     48.000000
  0.450000  0.250000  0.050000     48.000000
 -0.450000  0.250000  0.050000     48.000000
 -0.350000  0.250000  0.050000     48.000000
 -0.250000  0.250000  0.050000     48.000000
 -0.150000  0.250000  0.050000     48.000000
 -0.050000  0.250000  0.050000     48.000000
  0.350000  0.350000  0.050000     24.000000
  0.450000  0.350000  0.050000     48.000000
 -0.450000  0.350000  0.050000     48.000000
 -0.350000  0.350000  0.050000     48.000000
 -0.250000  0.350000  0.050000     48.000000
 -0.150000  0.350000  0.050000     48.000000
 -0.050000  0.350000  0.050000     48.000000
  0.450000  0.450000  0.050000     24.000000
 -0.450000  0.450000  0.050000     48.000000
 -0.350000  0.450000  0.050000     48.000000
 -0.250000  0.450000  0.050000     48.000000
 -0.150000  0.450000  0.050000     48.000000
 -0.050000  0.450000  0.050000     48.000000
 -0.450000 -0.450000  0.050000     24.000000
 -0.350000 -0.450000  0.050000     48.000000
 -0.250000 -0.450000  0.050000     48.000000
 -0.150000 -0.450000  0.050000     48.000000
 -0.350000 -0.350000  0.050000     24.000000
 -0.250000 -0.350000  0.050000     48.000000
 -0.150000 -0.350000  0.050000     48.000000
 -0.250000 -0.250000  0.050000     24.000000
 -0.150000 -0.250000  0.050000     48.000000
 -0.150000 -0.150000  0.050000     24.000000
  0.150000  0.150000  0.150000      8.000000
  0.250000  0.150000  0.150000     24.000000
  0.350000  0.150000  0.150000     24.000000
  0.450000  0.150000  0.150000     24.000000
 -0.450000  0.150000  0.150000     24.000000
 -0.350000  0.150000  0.150000     24.000000
 -0.250000  0.150000  0.150000     24.000000
 -0.150000  0.150000  0.150000     24.000000
  0.250000  0.250000  0.150000     24.000000
  0.350000  0.250000  0.150000     48.000000
  0.450000  0.250000  0.150000     48.000000
 -0.450000  0.250000  0.150000     48.000000
 -0.350000  0.250000  0.150000     48.000000
 -0.250000  0.250000  0.150000     48.000000
 -0.150000  0.250000  0.150000     48.000000
  0.350000  0.350000  0.150000     24.000000
  0.450000  0.350000  0.150000     48.000000
 -0.450000  0.350000  0.150000     48.000000
 -0.350000  0.350000  0.150000     48.000000
 -0.250000  0.350000  0.150000     48.000000
 -0.150000  0.350000  0.150000     48.000000
  0.450000  0.450000  0.150000     24.000000
 -0.450000  0.450000  0.150000     48.000000
 -0.350000  0.450000  0.150000     48.000000
 -0.250000  0.450000  0.150000     48.000000
 -0.150000  0.450000  0.150000     48.000000
 -0.450000 -0.450000  0.150000     24.000000
 -0.350000 -0.450000  0.150000     48.000000
 -0.250000 -0.450000  0.150000     48.000000
 -0.350000 -0.350000  0.150000     24.000000
 -0.250000 -0.350000  0.150000     48.000000
 -0.250000 -0.250000  0.150000     24.000000
  0.250000  0.250000  0.250000      8.000000
  0.350000  0.250000  0.250000     24.000000
  0.450000  0.250000  0.250000     24.000000
 -0.450000  0.250000  0.250000     24.000000
 -0.350000  0.250000  0.250000     24.000000
 -0.250000  0.250000  0.250000     24.000000
  0.350000  0.350000  0.250000     24.000000
  0.450000  0.350000  0.250000     48.000000
 -0.450000  0.350000  0.250000     48.000000
 -0.350000  0.350000  0.250000     48.000000
 -0.250000  0.350000  0.250000     48.000000
  0.450000  0.450000  0.250000     24.000000
 -0.450000  0.450000  0.250000     48.000000
 -0.350000  0.450000  0.250000     48.000000
 -0.250000  0.450000  0.250000     48.000000
 -0.450000 -0.450000  0.250000     24.000000
 -0.350000 -0.450000  0.250000     48.000000
 -0.350000 -0.350000  0.250000     24.000000
  0.350000  0.350000  0.350000      8.000000
  0.450000  0.350000  0.350000     24.000000
 -0.450000  0.350000  0.350000     24.000000
 -0.350000  0.350000  0.350000     24.000000
  0.450000  0.450000  0.350000     24.000000
 -0.450000  0.450000  0.350000     48.000000
 -0.350000  0.450000  0.350000     48.000000
 -0.450000 -0.450000  0.350000     24.000000
  0.450000  0.450000  0.450000      8.000000
 -0.450000  0.450000  0.450000     24.000000
 
 Following cartesian coordinates:
            Coordinates               Weight
  0.012777  0.012777  0.012777      8.000000
 -0.012777  0.038332  0.038332     24.000000
 -0.038332  0.063886  0.063886     24.000000
 -0.063886  0.089440  0.089440     24.000000
 -0.089440  0.114995  0.114995     24.000000
  0.140549 -0.114995 -0.114995     24.000000
  0.114995 -0.089440 -0.089440     24.000000
  0.089440 -0.063886 -0.063886     24.000000
  0.063886 -0.038332 -0.038332     24.000000
  0.038332 -0.012777 -0.012777     24.000000
  0.012777  0.012777  0.063886     24.000000
 -0.012777  0.038332  0.089440     48.000000
 -0.038332  0.063886  0.114995     48.000000
 -0.063886  0.089440  0.140549     48.000000
  0.166103 -0.140549 -0.089440     48.000000
  0.140549 -0.114995 -0.063886     48.000000
  0.114995 -0.089440 -0.038332     48.000000
  0.089440 -0.063886 -0.012777     48.000000
  0.063886 -0.038332  0.012777     48.000000
  0.012777  0.012777  0.114995     24.000000
 -0.012777  0.038332  0.140549     48.000000
 -0.038332  0.063886  0.166103     48.000000
  0.191658 -0.166103 -0.063886     48.000000
  0.166103 -0.140549 -0.038332     48.000000
  0.140549 -0.114995 -0.012777     48.000000
  0.114995 -0.089440  0.012777     48.000000
  0.089440 -0.063886  0.038332     48.000000
  0.012777  0.012777  0.166103     24.000000
 -0.012777  0.038332  0.191658     48.000000
  0.217212 -0.191658 -0.038332     48.000000
  0.191658 -0.166103 -0.012777     48.000000
  0.166103 -0.140549  0.012777     48.000000
  0.140549 -0.114995  0.038332     48.000000
  0.114995 -0.089440  0.063886     48.000000
  0.012777  0.012777  0.217212     24.000000
  0.242767 -0.217212 -0.012777     48.000000
  0.217212 -0.191658  0.012777     48.000000
  0.191658 -0.166103  0.038332     48.000000
  0.166103 -0.140549  0.063886     48.000000
  0.140549 -0.114995  0.089440     48.000000
  0.012777  0.012777 -0.242767     24.000000
 -0.012777  0.038332 -0.217212     48.000000
 -0.038332  0.063886 -0.191658     48.000000
 -0.063886  0.089440 -0.166103     48.000000
  0.012777  0.012777 -0.191658     24.000000
 -0.012777  0.038332 -0.166103     48.000000
 -0.038332  0.063886 -0.140549     48.000000
  0.012777  0.012777 -0.140549     24.000000
 -0.012777  0.038332 -0.114995     48.000000
  0.012777  0.012777 -0.089440     24.000000
  0.038332  0.038332  0.038332      8.000000
  0.012777  0.063886  0.063886     24.000000
 -0.012777  0.089440  0.089440     24.000000
 -0.038332  0.114995  0.114995     24.000000
  0.191658 -0.114995 -0.114995     24.000000
  0.166103 -0.089440 -0.089440     24.000000
  0.140549 -0.063886 -0.063886     24.000000
  0.114995 -0.038332 -0.038332     24.000000
  0.038332  0.038332  0.089440     24.000000
  0.012777  0.063886  0.114995     48.000000
 -0.012777  0.089440  0.140549     48.000000
  0.217212 -0.140549 -0.089440     48.000000
  0.191658 -0.114995 -0.063886     48.000000
  0.166103 -0.089440 -0.038332     48.000000
  0.140549 -0.063886 -0.012777     48.000000
  0.038332  0.038332  0.140549     24.000000
  0.012777  0.063886  0.166103     48.000000
  0.242767 -0.166103 -0.063886     48.000000
  0.217212 -0.140549 -0.038332     48.000000
  0.191658 -0.114995 -0.012777     48.000000
  0.166103 -0.089440  0.012777     48.000000
  0.038332  0.038332  0.191658     24.000000
  0.268321 -0.191658 -0.038332     48.000000
  0.242767 -0.166103 -0.012777     48.000000
  0.217212 -0.140549  0.012777     48.000000
  0.191658 -0.114995  0.038332     48.000000
  0.038332  0.038332 -0.268321     24.000000
  0.012777  0.063886 -0.242767     48.000000
 -0.012777  0.089440 -0.217212     48.000000
  0.038332  0.038332 -0.217212     24.000000
  0.012777  0.063886 -0.191658     48.000000
  0.038332  0.038332 -0.166103     24.000000
  0.063886  0.063886  0.063886      8.000000
  0.038332  0.089440  0.089440     24.000000
  0.012777  0.114995  0.114995     24.000000
  0.242767 -0.114995 -0.114995     24.000000
  0.217212 -0.089440 -0.089440     24.000000
  0.191658 -0.063886 -0.063886     24.000000
  0.063886  0.063886  0.114995     24.000000
  0.038332  0.089440  0.140549     48.000000
  0.268321 -0.140549 -0.089440     48.000000
  0.242767 -0.114995 -0.063886     48.000000
  0.217212 -0.089440 -0.038332     48.000000
  0.063886  0.063886  0.166103     24.000000
  0.293875 -0.166103 -0.063886     48.000000
  0.268321 -0.140549 -0.038332     48.000000
  0.242767 -0.114995 -0.012777     48.000000
  0.063886  0.063886 -0.293875     24.000000
  0.038332  0.089440 -0.268321     48.000000
  0.063886  0.063886 -0.242767     24.000000
  0.089440  0.089440  0.089440      8.000000
  0.063886  0.114995  0.114995     24.000000
  0.293875 -0.114995 -0.114995     24.000000
  0.268321 -0.089440 -0.089440     24.000000
  0.089440  0.089440  0.140549     24.000000
  0.319430 -0.140549 -0.089440     48.000000
  0.293875 -0.114995 -0.063886     48.000000
  0.089440  0.089440 -0.319430     24.000000
  0.114995  0.114995  0.114995      8.000000
  0.344984 -0.114995 -0.114995     24.000000
 


--------------------------------------------------------------------------------------------------------




 Dimension of arrays:
   k-points           NKPTS =    110   k-points in BZ     NKDIM =    110   number of bands    NBANDS=     24
   number of dos      NEDOS =    301   number of ions     NIONS =      1
   non local maximal  LDIM  =      6   non local SUM 2l+1 LMDIM =     18
   total plane-waves  NPLWV =   8000
   max r-space proj   IRMAX =      1   max aug-charges    IRDMAX=  18379
   dimension x,y,z NGX =    20 NGY =   20 NGZ =   20
   dimension x,y,z NGXF=    40 NGYF=   40 NGZF=   40
   support grid    NGXF=    40 NGYF=   40 NGZF=   40
   ions per type =               1
   NGX,Y,Z   is equivalent  to a cutoff of  12.02, 12.02, 12.02 a.u.
   NGXF,Y,Z  is equivalent  to a cutoff of  24.03, 24.03, 24.03 a.u.

 SYSTEM =  Pt-fcc                                  
 POSCAR =  Pt                                      

 Startparameter for this run:
   NWRITE =      2    write-flag & timer
   PREC   = accura    normal or accurate (medium, high low for compatibility)
   ISTART =      0    job   : 0-new  1-cont  2-samecut
   ICHARG =      2    charge: 1-file 2-atom 10-const
   ISPIN  =      1    spin polarized calculation?
   LNONCOLLINEAR =      F non collinear calculations
   LSORBIT =      F    spin-orbit coupling
   INIWAV =      1    electr: 0-lowe 1-rand  2-diag
   LASPH  =      F    aspherical Exc in radial PAW
 Electronic Relaxation 1
   ENCUT  =  425.0 eV  31.24 Ry    5.59 a.u.   4.65  4.65  4.65*2*pi/ulx,y,z
   ENINI  =  425.0     initial cutoff
   ENAUG  =  527.0 eV  augmentation charge cutoff
   NELM   =    100;   NELMIN=  2; NELMDL= -5     # of ELM steps 
   EDIFF  = 0.1E-05   stopping-criterion for ELM
   LREAL  =      F    real-space projection
   NLSPLINE    = F    spline interpolate recip. space projectors
   LCOMPAT=      F    compatible to vasp.4.4
   GGA_COMPAT  = T    GGA compatible to vasp.4.4-vasp.4.6
   LMAXPAW     = -100 max onsite density
   LMAXMIX     =    2 max onsite mixed and CHGCAR
   VOSKOWN=      0    Vosko Wilk Nusair interpolation
   ROPT   =    0.00000
 Ionic relaxation
   EDIFFG = -.2E-01   stopping-criterion for IOM
   NSW    =    100    number of steps for IOM
   NBLOCK =      1;   KBLOCK =    100    inner block; outer block 
   IBRION =      2    ionic relax: 0-MD 1-quasi-New 2-CG
   NFREE  =      1    steps in history (QN), initial steepest desc. (CG)
   ISIF   =      2    stress and relaxation
   IWAVPR =     11    prediction:  0-non 1-charg 2-wave 3-comb
   ISYM   =      1    0-nonsym 1-usesym 2-fastsym
   LCORR  =      T    Harris-Foulkes like correction to forces

   POTIM  = 0.5000    time-step for ionic-motion
   TEIN   =    0.0    initial temperature
   TEBEG  =    0.0;   TEEND  =   0.0 temperature during run
   SMASS  =  -3.00    Nose mass-parameter (am)
   estimated Nose-frequenzy (Omega)   =  0.10E-29 period in steps = 0.13E+47 mass=  -0.175E-27a.u.
   SCALEE = 1.0000    scale energy and forces
   NPACO  =    256;   APACO  = 10.0  distance and # of slots for P.C.
   PSTRESS=    0.0 pullay stress

  Mass of Ions in am
   POMASS = 195.08
  Ionic Valenz
   ZVAL   =  16.00
  Atomic Wigner-Seitz radii
   RWIGS  =  -1.00
  virtual crystal weights 
   VCA    =   1.00
   NELECT =      16.0000    total number of electrons
   NUPDOWN=      -1.0000    fix difference up-down

 DOS related values:
   EMIN   =  10.00;   EMAX   =-10.00  energy-range for DOS
   EFERMI =   0.00
   ISMEAR =     0;   SIGMA  =   0.05  broadening in eV -4-tet -1-fermi 0-gaus

 Electronic relaxation 2 (details)
   IALGO  =     38    algorithm
   LDIAG  =      T    sub-space diagonalisation (order eigenvalues)
   LSUBROT=      F    optimize rotation matrix (better conditioning)
   TURBO    =      0    0=normal 1=particle mesh
   IRESTART =      0    0=no restart 2=restart with 2 vectors
   NREBOOT  =      0    no. of reboots
   NMIN     =      0    reboot dimension
   EREF     =   0.00    reference energy to select bands
   IMIX   =      4    mixing-type and parameters
     AMIX     =   0.40;   BMIX     =  1.00
     AMIX_MAG =   1.60;   BMIX_MAG =  1.00
     AMIN     =   0.10
     WC   =   100.;   INIMIX=   1;  MIXPRE=   1;  MAXMIX= -45

 Intra band minimization:
   WEIMIN = 0.0010     energy-eigenvalue tresh-hold
   EBREAK =  0.10E-07  absolut break condition
   DEPER  =   0.30     relativ break condition  

   TIME   =   0.40     timestep for ELM

  volume/ion in A,a.u.               =      14.98       101.10
  Fermi-wavevector in a.u.,A,eV,Ry     =   1.673401  3.162269 38.099995  2.800271
  Thomas-Fermi vector in A             =   2.758379
 
 Write flags
   LWAVE        =      T    write WAVECAR
   LDOWNSAMPLE  =      F    k-point downsampling of WAVECAR
   LCHARG       =      T    write CHGCAR
   LVTOT        =      F    write LOCPOT, total local potential
   LVHAR        =      F    write LOCPOT, Hartree potential only
   LELF         =      F    write electronic localiz. function (ELF)
   LORBIT       =     11    0 simple, 1 ext, 2 COOP (PROOUT), +10 PAW based schemes


 Dipole corrections
   LMONO  =      F    monopole corrections only (constant potential shift)
   LDIPOL =      F    correct potential (dipole corrections)
   IDIPOL =      0    1-x, 2-y, 3-z, 4-all directions 
   EPSILON=  1.0000000 bulk dielectric constant

 Exchange correlation treatment:
   GGA     =    --    GGA type
   LEXCH   =     8    internal setting for exchange type
   LIBXC   =     F    Libxc                    
   VOSKOWN =     0    Vosko Wilk Nusair interpolation
   LHFCALC =     F    Hartree Fock is set to
   LHFONE  =     F    Hartree Fock one center treatment
   AEXX    =    0.0000 exact exchange contribution

 Linear response parameters
   LEPSILON=     F    determine dielectric tensor
   LRPA    =     F    only Hartree local field effects (RPA)
   LNABLA  =     F    use nabla operator in PAW spheres
   LVEL    =     F    velocity operator in full k-point grid
   CSHIFT  =0.1000    complex shift for real part using Kramers Kronig
   OMEGAMAX=  -1.0    maximum frequency
   DEG_THRESHOLD= 0.2000000E-02 threshold for treating states as degnerate
   RTIME   =   -0.100 relaxation time in fs
  (WPLASMAI=    0.000 imaginary part of plasma frequency in eV, 0.658/RTIME)
   DFIELD  = 0.0000000 0.0000000 0.0000000 field for delta impulse in time
 
  Optional k-point grid parameters
   LKPOINTS_OPT  =     F    use optional k-point grid
   KPOINTS_OPT_MODE=     1    mode for optional k-point grid
 
 Orbital magnetization related:
   ORBITALMAG=     F  switch on orbital magnetization
   LCHIMAG   =     F  perturbation theory with respect to B field
   DQ        =  0.001000  dq finite difference perturbation B field
   LLRAUG    =     F  two centre corrections for induced B field



--------------------------------------------------------------------------------------------------------


 conjugate gradient relaxation of ions
 charge density and potential will be updated during run
 non-spin polarized calculation
 Variant of blocked Davidson
 Davidson routine will perform the subspace rotation
 perform sub-space diagonalisation
    after iterative eigenvector-optimisation
 modified Broyden-mixing scheme, WC =      100.0
 initial mixing is a Kerker type mixing with AMIX =  0.4000 and BMIX =      1.0000
 Hartree-type preconditioning will be used
 using additional bands           16
 reciprocal scheme for non local part
 use partial core corrections
 calculate Harris-corrections to forces 
   (improved forces if not selfconsistent)
 use gradient corrections 
 use of overlap-Matrix (Vanderbilt PP)
 Gauss-broadening in eV      SIGMA  =   0.05


--------------------------------------------------------------------------------------------------------


  energy-cutoff  :      425.00
  volume of cell :       14.98
      direct lattice vectors                 reciprocal lattice vectors
     0.000000000  1.956612493  1.956612493    -0.255543702  0.255543702  0.255543702
     1.956612493  0.000000000  1.956612493     0.255543702 -0.255543702  0.255543702
     1.956612493  1.956612493  0.000000000     0.255543702  0.255543702 -0.255543702

  length of vectors
     2.767067924  2.767067924  2.767067924     0.442614676  0.442614676  0.442614676


 
 k-points in units of 2pi/SCALE and weight: Automatic mesh                          
   0.01277719  0.01277719  0.01277719       0.002
  -0.01277719  0.03833156  0.03833156       0.006
  -0.03833156  0.06388593  0.06388593       0.006
  -0.06388593  0.08944030  0.08944030       0.006
  -0.08944030  0.11499467  0.11499467       0.006
   0.14054904 -0.11499467 -0.11499467       0.006
   0.11499467 -0.08944030 -0.08944030       0.006
   0.08944030 -0.06388593 -0.06388593       0.006
   0.06388593 -0.03833156 -0.03833156       0.006
   0.03833156 -0.01277719 -0.01277719       0.006
   0.01277719  0.01277719  0.06388593       0.006
  -0.01277719  0.03833156  0.08944030       0.012
  -0.03833156  0.06388593  0.11499467       0.012
  -0.06388593  0.08944030  0.14054904       0.012
   0.16610341 -0.14054904 -0.08944030       0.012
   0.14054904 -0.11499467 -0.06388593       0.012
   0.11499467 -0.08944030 -0.03833156       0.012
   0.08944030 -0.06388593 -0.01277719       0.012
   0.06388593 -0.03833156  0.01277719       0.012
   0.01277719  0.01277719  0.11499467       0.006
  -0.01277719  0.03833156  0.14054904       0.012
  -0.03833156  0.06388593  0.16610341       0.012
   0.19165778 -0.16610341 -0.06388593       0.012
   0.16610341 -0.14054904 -0.03833156       0.012
   0.14054904 -0.11499467 -0.01277719       0.012
   0.11499467 -0.08944030  0.01277719       0.012
   0.08944030 -0.06388593  0.03833156       0.012
   0.01277719  0.01277719  0.16610341       0.006
  -0.01277719  0.03833156  0.19165778       0.012
   0.21721215 -0.19165778 -0.03833156       0.012
   0.19165778 -0.16610341 -0.01277719       0.012
   0.16610341 -0.14054904  0.01277719       0.012
   0.14054904 -0.11499467  0.03833156       0.012
   0.11499467 -0.08944030  0.06388593       0.012
   0.01277719  0.01277719  0.21721215       0.006
   0.24276652 -0.21721215 -0.01277719       0.012
   0.21721215 -0.19165778  0.01277719       0.012
   0.19165778 -0.16610341  0.03833156       0.012
   0.16610341 -0.14054904  0.06388593       0.012
   0.14054904 -0.11499467  0.08944030       0.012
   0.01277719  0.01277719 -0.24276652       0.006
  -0.01277719  0.03833156 -0.21721215       0.012
  -0.03833156  0.06388593 -0.19165778       0.012
  -0.06388593  0.08944030 -0.16610341       0.012
   0.01277719  0.01277719 -0.19165778       0.006
  -0.01277719  0.03833156 -0.16610341       0.012
  -0.03833156  0.06388593 -0.14054904       0.012
   0.01277719  0.01277719 -0.14054904       0.006
  -0.01277719  0.03833156 -0.11499467       0.012
   0.01277719  0.01277719 -0.08944030       0.006
   0.03833156  0.03833156  0.03833156       0.002
   0.01277719  0.06388593  0.06388593       0.006
  -0.01277719  0.08944030  0.08944030       0.006
  -0.03833156  0.11499467  0.11499467       0.006
   0.19165778 -0.11499467 -0.11499467       0.006
   0.16610341 -0.08944030 -0.08944030       0.006
   0.14054904 -0.06388593 -0.06388593       0.006
   0.11499467 -0.03833156 -0.03833156       0.006
   0.03833156  0.03833156  0.08944030       0.006
   0.01277719  0.06388593  0.11499467       0.012
  -0.01277719  0.08944030  0.14054904       0.012
   0.21721215 -0.14054904 -0.08944030       0.012
   0.19165778 -0.11499467 -0.06388593       0.012
   0.16610341 -0.08944030 -0.03833156       0.012
   0.14054904 -0.06388593 -0.01277719       0.012
   0.03833156  0.03833156  0.14054904       0.006
   0.01277719  0.06388593  0.16610341       0.012
   0.24276652 -0.16610341 -0.06388593       0.012
   0.21721215 -0.14054904 -0.03833156       0.012
   0.19165778 -0.11499467 -0.01277719       0.012
   0.16610341 -0.08944030  0.01277719       0.012
   0.03833156  0.03833156  0.19165778       0.006
   0.26832089 -0.19165778 -0.03833156       0.012
   0.24276652 -0.16610341 -0.01277719       0.012
   0.21721215 -0.14054904  0.01277719       0.012
   0.19165778 -0.11499467  0.03833156       0.012
   0.03833156  0.03833156 -0.26832089       0.006
   0.01277719  0.06388593 -0.24276652       0.012
  -0.01277719  0.08944030 -0.21721215       0.012
   0.03833156  0.03833156 -0.21721215       0.006
   0.01277719  0.06388593 -0.19165778       0.012
   0.03833156  0.03833156 -0.16610341       0.006
   0.06388593  0.06388593  0.06388593       0.002
   0.03833156  0.08944030  0.08944030       0.006
   0.01277719  0.11499467  0.11499467       0.006
   0.24276652 -0.11499467 -0.11499467       0.006
   0.21721215 -0.08944030 -0.08944030       0.006
   0.19165778 -0.06388593 -0.06388593       0.006
   0.06388593  0.06388593  0.11499467       0.006
   0.03833156  0.08944030  0.14054904       0.012
   0.26832089 -0.14054904 -0.08944030       0.012
   0.24276652 -0.11499467 -0.06388593       0.012
   0.21721215 -0.08944030 -0.03833156       0.012
   0.06388593  0.06388593  0.16610341       0.006
   0.29387526 -0.16610341 -0.06388593       0.012
   0.26832089 -0.14054904 -0.03833156       0.012
   0.24276652 -0.11499467 -0.01277719       0.012
   0.06388593  0.06388593 -0.29387526       0.006
   0.03833156  0.08944030 -0.26832089       0.012
   0.06388593  0.06388593 -0.24276652       0.006
   0.08944030  0.08944030  0.08944030       0.002
   0.06388593  0.11499467  0.11499467       0.006
   0.29387526 -0.11499467 -0.11499467       0.006
   0.26832089 -0.08944030 -0.08944030       0.006
   0.08944030  0.08944030  0.14054904       0.006
   0.31942963 -0.14054904 -0.08944030       0.012
   0.29387526 -0.11499467 -0.06388593       0.012
   0.08944030  0.08944030 -0.31942963       0.006
   0.11499467  0.11499467  0.11499467       0.002
   0.34498400 -0.11499467 -0.11499467       0.006
 
 k-points in reciprocal lattice and weights: Automatic mesh                          
   0.05000000  0.05000000  0.05000000       0.002
   0.15000000  0.05000000  0.05000000       0.006
   0.25000000  0.05000000  0.05000000       0.006
   0.35000000  0.05000000  0.05000000       0.006
   0.45000000  0.05000000  0.05000000       0.006
  -0.45000000  0.05000000  0.05000000       0.006
  -0.35000000  0.05000000  0.05000000       0.006
  -0.25000000  0.05000000  0.05000000       0.006
  -0.15000000  0.05000000  0.05000000       0.006
  -0.05000000  0.05000000  0.05000000       0.006
   0.15000000  0.15000000  0.05000000       0.006
   0.25000000  0.15000000  0.05000000       0.012
   0.35000000  0.15000000  0.05000000       0.012
   0.45000000  0.15000000  0.05000000       0.012
  -0.45000000  0.15000000  0.05000000       0.012
  -0.35000000  0.15000000  0.05000000       0.012
  -0.25000000  0.15000000  0.05000000       0.012
  -0.15000000  0.15000000  0.05000000       0.012
  -0.05000000  0.15000000  0.05000000       0.012
   0.25000000  0.25000000  0.05000000       0.006
   0.35000000  0.25000000  0.05000000       0.012
   0.45000000  0.25000000  0.05000000       0.012
  -0.45000000  0.25000000  0.05000000       0.012
  -0.35000000  0.25000000  0.05000000       0.012
  -0.25000000  0.25000000  0.05000000       0.012
  -0.15000000  0.25000000  0.05000000       0.012
  -0.05000000  0.25000000  0.05000000       0.012
   0.35000000  0.35000000  0.05000000       0.006
   0.45000000  0.35000000  0.05000000       0.012
  -0.45000000  0.35000000  0.05000000       0.012
  -0.35000000  0.35000000  0.05000000       0.012
  -0.25000000  0.35000000  0.05000000       0.012
  -0.15000000  0.35000000  0.05000000       0.012
  -0.05000000  0.35000000  0.05000000       0.012
   0.45000000  0.45000000  0.05000000       0.006
  -0.45000000  0.45000000  0.05000000       0.012
  -0.35000000  0.45000000  0.05000000       0.012
  -0.25000000  0.45000000  0.05000000       0.012
  -0.15000000  0.45000000  0.05000000       0.012
  -0.05000000  0.45000000  0.05000000       0.012
  -0.45000000 -0.45000000  0.05000000       0.006
  -0.35000000 -0.45000000  0.05000000       0.012
  -0.25000000 -0.45000000  0.05000000       0.012
  -0.15000000 -0.45000000  0.05000000       0.012
  -0.35000000 -0.35000000  0.05000000       0.006
  -0.25000000 -0.35000000  0.05000000       0.012
  -0.15000000 -0.35000000  0.05000000       0.012
  -0.25000000 -0.25000000  0.05000000       0.006
  -0.15000000 -0.25000000  0.05000000       0.012
  -0.15000000 -0.15000000  0.05000000       0.006
   0.15000000  0.15000000  0.15000000       0.002
   0.25000000  0.15000000  0.15000000       0.006
   0.35000000  0.15000000  0.15000000       0.006
   0.45000000  0.15000000  0.15000000       0.006
  -0.45000000  0.15000000  0.15000000       0.006
  -0.35000000  0.15000000  0.15000000       0.006
  -0.25000000  0.15000000  0.15000000       0.006
  -0.15000000  0.15000000  0.15000000       0.006
   0.25000000  0.25000000  0.15000000       0.006
   0.35000000  0.25000000  0.15000000       0.012
   0.45000000  0.25000000  0.15000000       0.012
  -0.45000000  0.25000000  0.15000000       0.012
  -0.35000000  0.25000000  0.15000000       0.012
  -0.25000000  0.25000000  0.15000000       0.012
  -0.15000000  0.25000000  0.15000000       0.012
   0.35000000  0.35000000  0.15000000       0.006
   0.45000000  0.35000000  0.15000000       0.012
  -0.45000000  0.35000000  0.15000000       0.012
  -0.35000000  0.35000000  0.15000000       0.012
  -0.25000000  0.35000000  0.15000000       0.012
  -0.15000000  0.35000000  0.15000000       0.012
   0.45000000  0.45000000  0.15000000       0.006
  -0.45000000  0.45000000  0.15000000       0.012
  -0.35000000  0.45000000  0.15000000       0.012
  -0.25000000  0.45000000  0.15000000       0.012
  -0.15000000  0.45000000  0.15000000       0.012
  -0.45000000 -0.45000000  0.15000000       0.006
  -0.35000000 -0.45000000  0.15000000       0.012
  -0.25000000 -0.45000000  0.15000000       0.012
  -0.35000000 -0.35000000  0.15000000       0.006
  -0.25000000 -0.35000000  0.15000000       0.012
  -0.25000000 -0.25000000  0.15000000       0.006
   0.25000000  0.25000000  0.25000000       0.002
   0.35000000  0.25000000  0.25000000       0.006
   0.45000000  0.25000000  0.25000000       0.006
  -0.45000000  0.25000000  0.25000000       0.006
  -0.35000000  0.25000000  0.25000000       0.006
  -0.25000000  0.25000000  0.25000000       0.006
   0.35000000  0.35000000  0.25000000       0.006
   0.45000000  0.35000000  0.25000000       0.012
  -0.45000000  0.35000000  0.25000000       0.012
  -0.35000000  0.35000000  0.25000000       0.012
  -0.25000000  0.35000000  0.25000000       0.012
   0.45000000  0.45000000  0.25000000       0.006
  -0.45000000  0.45000000  0.25000000       0.012
  -0.35000000  0.45000000  0.25000000       0.012
  -0.25000000  0.45000000  0.25000000       0.012
  -0.45000000 -0.45000000  0.25000000       0.006
  -0.35000000 -0.45000000  0.25000000       0.012
  -0.35000000 -0.35000000  0.25000000       0.006
   0.35000000  0.35000000  0.35000000       0.002
   0.45000000  0.35000000  0.35000000       0.006
  -0.45000000  0.35000000  0.35000000       0.006
  -0.35000000  0.35000000  0.35000000       0.006
   0.45000000  0.45000000  0.35000000       0.006
  -0.45000000  0.45000000  0.35000000       0.012
  -0.35000000  0.45000000  0.35000000       0.012
  -0.45000000 -0.45000000  0.35000000       0.006
   0.45000000  0.45000000  0.45000000       0.002
  -0.45000000  0.45000000  0.45000000       0.006
 
 position of ions in fractional coordinates (direct lattice) 
   0.00000000  0.00000000  0.00000000
 
 position of ions in cartesian coordinates  (Angst):
   0.00000000  0.00000000  0.00000000
 


--------------------------------------------------------------------------------------------------------


 k-point   1 :   0.0500 0.0500 0.0500  plane waves:     301
 k-point   2 :   0.1500 0.0500 0.0500  plane waves:     304
 k-point   3 :   0.2500 0.0500 0.0500  plane waves:     305
 k-point   4 :   0.3500 0.0500 0.0500  plane waves:     299
 k-point   5 :   0.4500 0.0500 0.0500  plane waves:     296
 k-point   6 :  -0.4500 0.0500 0.0500  plane waves:     293
 k-point   7 :  -0.3500 0.0500 0.0500  plane waves:     297
 k-point   8 :  -0.2500 0.0500 0.0500  plane waves:     298
 k-point   9 :  -0.1500 0.0500 0.0500  plane waves:     303
 k-point  10 :  -0.0500 0.0500 0.0500  plane waves:     305
 k-point  11 :   0.1500 0.1500 0.0500  plane waves:     303
 k-point  12 :   0.2500 0.1500 0.0500  plane waves:     299
 k-point  13 :   0.3500 0.1500 0.0500  plane waves:     298
 k-point  14 :   0.4500 0.1500 0.0500  plane waves:     298
 k-point  15 :  -0.4500 0.1500 0.0500  plane waves:     295
 k-point  16 :  -0.3500 0.1500 0.0500  plane waves:     297
 k-point  17 :  -0.2500 0.1500 0.0500  plane waves:     300
 k-point  18 :  -0.1500 0.1500 0.0500  plane waves:     301
 k-point  19 :  -0.0500 0.1500 0.0500  plane waves:     304
 k-point  20 :   0.2500 0.2500 0.0500  plane waves:     303
 k-point  21 :   0.3500 0.2500 0.0500  plane waves:     302
 k-point  22 :   0.4500 0.2500 0.0500  plane waves:     301
 k-point  23 :  -0.4500 0.2500 0.0500  plane waves:     295
 k-point  24 :  -0.3500 0.2500 0.0500  plane waves:     295
 k-point  25 :  -0.2500 0.2500 0.0500  plane waves:     298
 k-point  26 :  -0.1500 0.2500 0.0500  plane waves:     301
 k-point  27 :  -0.0500 0.2500 0.0500  plane waves:     300
 k-point  28 :   0.3500 0.3500 0.0500  plane waves:     307
 k-point  29 :   0.4500 0.3500 0.0500  plane waves:     303
 k-point  30 :  -0.4500 0.3500 0.0500  plane waves:     297
 k-point  31 :  -0.3500 0.3500 0.0500  plane waves:     292
 k-point  32 :  -0.2500 0.3500 0.0500  plane waves:     291
 k-point  33 :  -0.1500 0.3500 0.0500  plane waves:     298
 k-point  34 :  -0.0500 0.3500 0.0500  plane waves:     297
 k-point  35 :   0.4500 0.4500 0.0500  plane waves:     300
 k-point  36 :  -0.4500 0.4500 0.0500  plane waves:     302
 k-point  37 :  -0.3500 0.4500 0.0500  plane waves:     293
 k-point  38 :  -0.2500 0.4500 0.0500  plane waves:     296
 k-point  39 :  -0.1500 0.4500 0.0500  plane waves:     295
 k-point  40 :  -0.0500 0.4500 0.0500  plane waves:     297
 k-point  41 :  -0.4500-0.4500 0.0500  plane waves:     302
 k-point  42 :  -0.3500-0.4500 0.0500  plane waves:     300
 k-point  43 :  -0.2500-0.4500 0.0500  plane waves:     300
 k-point  44 :  -0.1500-0.4500 0.0500  plane waves:     298
 k-point  45 :  -0.3500-0.3500 0.0500  plane waves:     307
 k-point  46 :  -0.2500-0.3500 0.0500  plane waves:     304
 k-point  47 :  -0.1500-0.3500 0.0500  plane waves:     300
 k-point  48 :  -0.2500-0.2500 0.0500  plane waves:     304
 k-point  49 :  -0.1500-0.2500 0.0500  plane waves:     300
 k-point  50 :  -0.1500-0.1500 0.0500  plane waves:     301
 k-point  51 :   0.1500 0.1500 0.1500  plane waves:     304
 k-point  52 :   0.2500 0.1500 0.1500  plane waves:     301
 k-point  53 :   0.3500 0.1500 0.1500  plane waves:     301
 k-point  54 :   0.4500 0.1500 0.1500  plane waves:     300
 k-point  55 :  -0.4500 0.1500 0.1500  plane waves:     297
 k-point  56 :  -0.3500 0.1500 0.1500  plane waves:     297
 k-point  57 :  -0.2500 0.1500 0.1500  plane waves:     299
 k-point  58 :  -0.1500 0.1500 0.1500  plane waves:     298
 k-point  59 :   0.2500 0.2500 0.1500  plane waves:     300
 k-point  60 :   0.3500 0.2500 0.1500  plane waves:     302
 k-point  61 :   0.4500 0.2500 0.1500  plane waves:     303
 k-point  62 :  -0.4500 0.2500 0.1500  plane waves:     294
 k-point  63 :  -0.3500 0.2500 0.1500  plane waves:     298
 k-point  64 :  -0.2500 0.2500 0.1500  plane waves:     299
 k-point  65 :  -0.1500 0.2500 0.1500  plane waves:     303
 k-point  66 :   0.3500 0.3500 0.1500  plane waves:     299
 k-point  67 :   0.4500 0.3500 0.1500  plane waves:     300
 k-point  68 :  -0.4500 0.3500 0.1500  plane waves:     296
 k-point  69 :  -0.3500 0.3500 0.1500  plane waves:     294
 k-point  70 :  -0.2500 0.3500 0.1500  plane waves:     295
 k-point  71 :  -0.1500 0.3500 0.1500  plane waves:     301
 k-point  72 :   0.4500 0.4500 0.1500  plane waves:     305
 k-point  73 :  -0.4500 0.4500 0.1500  plane waves:     296
 k-point  74 :  -0.3500 0.4500 0.1500  plane waves:     295
 k-point  75 :  -0.2500 0.4500 0.1500  plane waves:     294
 k-point  76 :  -0.1500 0.4500 0.1500  plane waves:     295
 k-point  77 :  -0.4500-0.4500 0.1500  plane waves:     295
 k-point  78 :  -0.3500-0.4500 0.1500  plane waves:     296
 k-point  79 :  -0.2500-0.4500 0.1500  plane waves:     295
 k-point  80 :  -0.3500-0.3500 0.1500  plane waves:     301
 k-point  81 :  -0.2500-0.3500 0.1500  plane waves:     300
 k-point  82 :  -0.2500-0.2500 0.1500  plane waves:     305
 k-point  83 :   0.2500 0.2500 0.2500  plane waves:     302
 k-point  84 :   0.3500 0.2500 0.2500  plane waves:     300
 k-point  85 :   0.4500 0.2500 0.2500  plane waves:     299
 k-point  86 :  -0.4500 0.2500 0.2500  plane waves:     297
 k-point  87 :  -0.3500 0.2500 0.2500  plane waves:     297
 k-point  88 :  -0.2500 0.2500 0.2500  plane waves:     298
 k-point  89 :   0.3500 0.3500 0.2500  plane waves:     298
 k-point  90 :   0.4500 0.3500 0.2500  plane waves:     300
 k-point  91 :  -0.4500 0.3500 0.2500  plane waves:     295
 k-point  92 :  -0.3500 0.3500 0.2500  plane waves:     295
 k-point  93 :  -0.2500 0.3500 0.2500  plane waves:     295
 k-point  94 :   0.4500 0.4500 0.2500  plane waves:     300
 k-point  95 :  -0.4500 0.4500 0.2500  plane waves:     296
 k-point  96 :  -0.3500 0.4500 0.2500  plane waves:     295
 k-point  97 :  -0.2500 0.4500 0.2500  plane waves:     294
 k-point  98 :  -0.4500-0.4500 0.2500  plane waves:     296
 k-point  99 :  -0.3500-0.4500 0.2500  plane waves:     294
 k-point 100 :  -0.3500-0.3500 0.2500  plane waves:     294
 k-point 101 :   0.3500 0.3500 0.3500  plane waves:     299
 k-point 102 :   0.4500 0.3500 0.3500  plane waves:     297
 k-point 103 :  -0.4500 0.3500 0.3500  plane waves:     299
 k-point 104 :  -0.3500 0.3500 0.3500  plane waves:     287
 k-point 105 :   0.4500 0.4500 0.3500  plane waves:     298
 k-point 106 :  -0.4500 0.4500 0.3500  plane waves:     297
 k-point 107 :  -0.3500 0.4500 0.3500  plane waves:     294
 k-point 108 :  -0.4500-0.4500 0.3500  plane waves:     298
 k-point 109 :   0.4500 0.4500 0.4500  plane waves:     290
 k-point 110 :  -0.4500 0.4500 0.4500  plane waves:     290

 maximum and minimum number of plane-waves per node :       307      287

 maximum number of plane-waves:       307
 maximum index in each direction: 
   IXMAX=    5   IYMAX=    5   IZMAX=    4
   IXMIN=   -5   IYMIN=   -5   IZMIN=   -5


 serial   3D FFT for wavefunctions
 parallel 3D FFT for charge:
    minimum data exchange during FFTs selected (reduces bandwidth)


 total amount of memory used by VASP MPI-rank0    36185. kBytes
=======================================================================

   base      :      30000. kBytes
   nonl-proj :       4947. kBytes
   fftplans  :        147. kBytes
   grid      :        485. kBytes
   one-center:         15. kBytes
   wavefun   :        591. kBytes
 
     INWAV:  cpu time      0.0000: real time      0.0001
 Broyden mixing: mesh for mixing (old mesh)
   NGX =  9   NGY =  9   NGZ =  9
  (NGX  = 40   NGY  = 40   NGZ  = 40)
  gives a total of    729 points

 initial charge density was supplied:
 charge density of overlapping atoms calculated
 number of electron      16.0000000 magnetization 
 keeping initial charge density in first step


--------------------------------------------------------------------------------------------------------


 Maximum index for augmentation-charges          874 (set IRDMAX)


--------------------------------------------------------------------------------------------------------


 First call to EWALD:  gamma=   0.719
 Maximum number of real-space cells 3x 3x 3
 Maximum number of reciprocal cells 3x 3x 3

    FEWALD:  cpu time      0.0014: real time      0.0014


--------------------------------------- Iteration      1(   1)  ---------------------------------------


    POTLOK:  cpu time      0.0032: real time      0.0033
    SETDIJ:  cpu time      0.0023: real time      0.0023
     EDDAV:  cpu time      0.4986: real time      0.5017
       DOS:  cpu time      0.0009: real time      0.0009
    --------------------------------------------
      LOOP:  cpu time      0.5050: real time      0.5082

 eigenvalue-minimisations  :  5928
 total energy-change (2. order) : 0.1574848E+02  (-0.1165593E+04)
 number of electron      16.0000000 magnetization 
 augmentation part       16.0000000 magnetization 

 Free energy of the ion-electron system (eV)
  ---------------------------------------------------
  alpha Z        PSCENC =       160.15608772
  Ewald energy   TEWEN  =     -2159.52134120
  -Hartree energ DENC   =      -391.08934707
  -exchange      EXHF   =         0.00000000
  -V(xc)+E(xc)   XCENC  =        63.92226974
  PAW double counting   =      2065.75261637    -2030.83594803
  entropy T*S    EENTRO =        -0.00155363
  eigenvalues    EBANDS =      -120.82931222
  atomic energy  EATOM  =      2428.19501064
  Solvation  Ediel_sol  =         0.00000000
  ---------------------------------------------------
  free energy    TOTEN  =        15.74848232 eV

  energy without entropy =       15.75003596  energy(sigma->0) =       15.74925914


--------------------------------------------------------------------------------------------------------




--------------------------------------- Iteration      1(   2)  ---------------------------------------


     EDDAV:  cpu time      0.6341: real time      0.6378
       DOS:  cpu time      0.0005: real time      0.0005
    --------------------------------------------
      LOOP:  cpu time      0.6346: real time      0.6383

 eigenvalue-minimisations  :  6864
 total energy-change (2. order) :-0.2212478E+02  (-0.2185442E+02)
 number of electron      16.0000000 magnetization 
 augmentation part       16.0000000 magnetization 

 Free energy of the ion-electron system (eV)
  ---------------------------------------------------
  alpha Z        PSCENC =       160.15608772
  Ewald energy   TEWEN  =     -2159.52134120
  -Hartree energ DENC   =      -391.08934707
  -exchange      EXHF   =         0.00000000
  -V(xc)+E(xc)   XCENC  =        63.92226974
  PAW double counting   =      2065.75261637    -2030.83594803
  entropy T*S    EENTRO =        -0.00168172
  eigenvalues    EBANDS =      -142.95396824
  atomic energy  EATOM  =      2428.19501064
  Solvation  Ediel_sol  =         0.00000000
  ---------------------------------------------------
  free energy    TOTEN  =        -6.37630177 eV

  energy without entropy =       -6.37462006  energy(sigma->0) =       -6.37546092


--------------------------------------------------------------------------------------------------------




--------------------------------------- Iteration      1(   3)  ---------------------------------------


     EDDAV:  cpu time      0.6923: real time      0.6957
       DOS:  cpu time      0.0005: real time      0.0005
    --------------------------------------------
      LOOP:  cpu time      0.6928: real time      0.6962

 eigenvalue-minimisations  :  6888
 total energy-change (2. order) :-0.3102749E-01  (-0.3102624E-01)
 number of electron      16.0000000 magnetization 
 augmentation part       16.0000000 magnetization 

 Free energy of the ion-electron system (eV)
  ---------------------------------------------------
  alpha Z        PSCENC =       160.15608772
  Ewald energy   TEWEN  =     -2159.52134120
  -Hartree energ DENC   =      -391.08934707
  -exchange      EXHF   =         0.00000000
  -V(xc)+E(xc)   XCENC  =        63.92226974
  PAW double counting   =      2065.75261637    -2030.83594803
  entropy T*S    EENTRO =        -0.00168536
  eigenvalues    EBANDS =      -142.98499209
  atomic energy  EATOM  =      2428.19501064
  Solvation  Ediel_sol  =         0.00000000
  ---------------------------------------------------
  free energy    TOTEN  =        -6.40732927 eV

  energy without entropy =       -6.40564391  energy(sigma->0) =       -6.40648659


--------------------------------------------------------------------------------------------------------




--------------------------------------- Iteration      1(   4)  ---------------------------------------


     EDDAV:  cpu time      0.9327: real time      0.9370
       DOS:  cpu time      0.0005: real time      0.0005
    --------------------------------------------
      LOOP:  cpu time      0.9332: real time      0.9374

 eigenvalue-minimisations  :  8400
 total energy-change (2. order) :-0.2836425E-04  (-0.2836330E-04)
 number of electron      16.0000000 magnetization 
 augmentation part       16.0000000 magnetization 

 Free energy of the ion-electron system (eV)
  ---------------------------------------------------
  alpha Z        PSCENC =       160.15608772
  Ewald energy   TEWEN  =     -2159.52134120
  -Hartree energ DENC   =      -391.08934707
  -exchange      EXHF   =         0.00000000
  -V(xc)+E(xc)   XCENC  =        63.92226974
  PAW double counting   =      2065.75261637    -2030.83594803
  entropy T*S    EENTRO =        -0.00168537
  eigenvalues    EBANDS =      -142.98502045
  atomic energy  EATOM  =      2428.19501064
  Solvation  Ediel_sol  =         0.00000000
  ---------------------------------------------------
  free energy    TOTEN  =        -6.40735763 eV

  energy without entropy =       -6.40567227  energy(sigma->0) =       -6.40651495


--------------------------------------------------------------------------------------------------------




--------------------------------------- Iteration      1(   5)  ---------------------------------------


     EDDAV:  cpu time      0.6456: real time      0.6487
       DOS:  cpu time      0.0005: real time      0.0005
    CHARGE:  cpu time      0.0188: real time      0.0189
    MIXING:  cpu time      0.0004: real time      0.0004
    --------------------------------------------
      LOOP:  cpu time      0.6653: real time      0.6684

 eigenvalue-minimisations  :  6720
 total energy-change (2. order) :-0.1951776E-08  (-0.2267133E-08)
 number of electron      15.9999997 magnetization 
 augmentation part        3.9792426 magnetization 

 Broyden mixing:
  rms(total) = 0.15697E+01    rms(broyden)= 0.15696E+01
  rms(prec ) = 0.21040E+01
  weight for this iteration     100.00

 Free energy of the ion-electron system (eV)
  ---------------------------------------------------
  alpha Z        PSCENC =       160.15608772
  Ewald energy   TEWEN  =     -2159.52134120
  -Hartree energ DENC   =      -391.08934707
  -exchange      EXHF   =         0.00000000
  -V(xc)+E(xc)   XCENC  =        63.92226974
  PAW double counting   =      2065.75261637    -2030.83594803
  entropy T*S    EENTRO =        -0.00168537
  eigenvalues    EBANDS =      -142.98502045
  atomic energy  EATOM  =      2428.19501064
  Solvation  Ediel_sol  =         0.00000000
  ---------------------------------------------------
  free energy    TOTEN  =        -6.40735764 eV

  energy without entropy =       -6.40567227  energy(sigma->0) =       -6.40651495


--------------------------------------------------------------------------------------------------------




--------------------------------------- Iteration      1(   6)  ---------------------------------------


    POTLOK:  cpu time      0.0027: real time      0.0028
    SETDIJ:  cpu time      0.0021: real time      0.0021
     EDDAV:  cpu time      0.5159: real time      0.5184
       DOS:  cpu time      0.0005: real time      0.0005
    CHARGE:  cpu time      0.0180: real time      0.0181
    MIXING:  cpu time      0.0003: real time      0.0003
    --------------------------------------------
      LOOP:  cpu time      0.5395: real time      0.5422

 eigenvalue-minimisations  :  5976
 total energy-change (2. order) : 0.3286461E+00  (-0.1180249E+00)
 number of electron      15.9999996 magnetization 
 augmentation part        4.0889125 magnetization 

 Broyden mixing:
  rms(total) = 0.52398E+00    rms(broyden)= 0.52397E+00
  rms(prec ) = 0.63117E+00
  weight for this iteration     100.00

 eigenvalues of (default mixing * dielectric matrix)
  average eigenvalue GAMMA=   1.4792
  1.4792

 Free energy of the ion-electron system (eV)
  ---------------------------------------------------
  alpha Z        PSCENC =       160.15608772
  Ewald energy   TEWEN  =     -2159.52134120
  -Hartree energ DENC   =      -376.07405036
  -exchange      EXHF   =         0.00000000
  -V(xc)+E(xc)   XCENC  =        63.27313649
  PAW double counting   =      2249.75272780    -2216.92109076
  entropy T*S    EENTRO =        -0.00229969
  eigenvalues    EBANDS =      -154.93689219
  atomic energy  EATOM  =      2428.19501064
  Solvation  Ediel_sol  =         0.00000000
  ---------------------------------------------------
  free energy    TOTEN  =        -6.07871156 eV

  energy without entropy =       -6.07641186  energy(sigma->0) =       -6.07756171


--------------------------------------------------------------------------------------------------------




--------------------------------------- Iteration      1(   7)  ---------------------------------------


    POTLOK:  cpu time      0.0025: real time      0.0027
    SETDIJ:  cpu time      0.0018: real time      0.0019
     EDDAV:  cpu time      0.8012: real time      0.8049
       DOS:  cpu time      0.0005: real time      0.0005
    CHARGE:  cpu time      0.0178: real time      0.0178
    MIXING:  cpu time      0.0004: real time      0.0004
    --------------------------------------------
      LOOP:  cpu time      0.8242: real time      0.8281

 eigenvalue-minimisations  :  7896
 total energy-change (2. order) : 0.1985931E-01  (-0.8324809E-02)
 number of electron      15.9999996 magnetization 
 augmentation part        4.1166968 magnetization 

 Broyden mixing:
  rms(total) = 0.15766E+00    rms(broyden)= 0.15766E+00
  rms(prec ) = 0.18710E+00
  weight for this iteration     100.00

 eigenvalues of (default mixing * dielectric matrix)
  average eigenvalue GAMMA=   1.9684
  1.2100  2.7267

 Free energy of the ion-electron system (eV)
  ---------------------------------------------------
  alpha Z        PSCENC =       160.15608772
  Ewald energy   TEWEN  =     -2159.52134120
  -Hartree energ DENC   =      -371.89499683
  -exchange      EXHF   =         0.00000000
  -V(xc)+E(xc)   XCENC  =        63.08266373
  PAW double counting   =      2335.12218269    -2302.93476340
  entropy T*S    EENTRO =        -0.00236518
  eigenvalues    EBANDS =      -158.26133043
  atomic energy  EATOM  =      2428.19501064
  Solvation  Ediel_sol  =         0.00000000
  ---------------------------------------------------
  free energy    TOTEN  =        -6.05885225 eV

  energy without entropy =       -6.05648707  energy(sigma->0) =       -6.05766966


--------------------------------------------------------------------------------------------------------




--------------------------------------- Iteration      1(   8)  ---------------------------------------


    POTLOK:  cpu time      0.0025: real time      0.0026
    SETDIJ:  cpu time      0.0020: real time      0.0020
     EDDAV:  cpu time      0.4660: real time      0.4682
       DOS:  cpu time      0.0005: real time      0.0005
    CHARGE:  cpu time      0.0175: real time      0.0176
    MIXING:  cpu time      0.0002: real time      0.0002
    --------------------------------------------
      LOOP:  cpu time      0.4887: real time      0.4911

 eigenvalue-minimisations  :  5688
 total energy-change (2. order) : 0.1599129E-02  (-0.4349145E-03)
 number of electron      15.9999996 magnetization 
 augmentation part        4.1119038 magnetization 

 Broyden mixing:
  rms(total) = 0.16466E-01    rms(broyden)= 0.16460E-01
  rms(prec ) = 0.20465E-01
  weight for this iteration     100.00

 eigenvalues of (default mixing * dielectric matrix)
  average eigenvalue GAMMA=   1.5744
  1.0751  1.2106  2.4374

 Free energy of the ion-electron system (eV)
  ---------------------------------------------------
  alpha Z        PSCENC =       160.15608772
  Ewald energy   TEWEN  =     -2159.52134120
  -Hartree energ DENC   =      -371.87677231
  -exchange      EXHF   =         0.00000000
  -V(xc)+E(xc)   XCENC  =        63.06892793
  PAW double counting   =      2385.51036749    -2353.38214523
  entropy T*S    EENTRO =        -0.00239017
  eigenvalues    EBANDS =      -158.20499800
  atomic energy  EATOM  =      2428.19501064
  Solvation  Ediel_sol  =         0.00000000
  ---------------------------------------------------
  free energy    TOTEN  =        -6.05725312 eV

  energy without entropy =       -6.05486295  energy(sigma->0) =       -6.05605804


--------------------------------------------------------------------------------------------------------




--------------------------------------- Iteration      1(   9)  ---------------------------------------


    POTLOK:  cpu time      0.0023: real time      0.0025
    SETDIJ:  cpu time      0.0018: real time      0.0018
     EDDAV:  cpu time      0.7737: real time      0.7772
       DOS:  cpu time      0.0005: real time      0.0005
    CHARGE:  cpu time      0.0175: real time      0.0175
    MIXING:  cpu time      0.0003: real time      0.0003
    --------------------------------------------
      LOOP:  cpu time      0.7962: real time      0.7999

 eigenvalue-minimisations  :  7440
 total energy-change (2. order) : 0.7706714E-04  (-0.6565465E-05)
 number of electron      15.9999996 magnetization 
 augmentation part        4.1125129 magnetization 

 Broyden mixing:
  rms(total) = 0.16077E-02    rms(broyden)= 0.16063E-02
  rms(prec ) = 0.31996E-02
  weight for this iteration     100.00

 eigenvalues of (default mixing * dielectric matrix)
  average eigenvalue GAMMA=   1.8330
  1.0126  1.2021  2.7401  2.3773

 Free energy of the ion-electron system (eV)
  ---------------------------------------------------
  alpha Z        PSCENC =       160.15608772
  Ewald energy   TEWEN  =     -2159.52134120
  -Hartree energ DENC   =      -371.89058694
  -exchange      EXHF   =         0.00000000
  -V(xc)+E(xc)   XCENC  =        63.07077667
  PAW double counting   =      2381.51813311    -2349.36586600
  entropy T*S    EENTRO =        -0.00238624
  eigenvalues    EBANDS =      -158.21700382
  atomic energy  EATOM  =      2428.19501064
  Solvation  Ediel_sol  =         0.00000000
  ---------------------------------------------------
  free energy    TOTEN  =        -6.05717605 eV

  energy without entropy =       -6.05478981  energy(sigma->0) =       -6.05598293


--------------------------------------------------------------------------------------------------------




--------------------------------------- Iteration      1(  10)  ---------------------------------------


    POTLOK:  cpu time      0.0023: real time      0.0024
    SETDIJ:  cpu time      0.0019: real time      0.0019
     EDDAV:  cpu time      0.7317: real time      0.7350
       DOS:  cpu time      0.0005: real time      0.0005
    CHARGE:  cpu time      0.0181: real time      0.0181
    MIXING:  cpu time      0.0003: real time      0.0003
    --------------------------------------------
      LOOP:  cpu time      0.7548: real time      0.7583

 eigenvalue-minimisations  :  7320
 total energy-change (2. order) :-0.5252168E-05  (-0.4771241E-06)
 number of electron      15.9999996 magnetization 
 augmentation part        4.1125396 magnetization 

 Broyden mixing:
  rms(total) = 0.54256E-03    rms(broyden)= 0.54236E-03
  rms(prec ) = 0.56023E-03
  weight for this iteration     100.00

 eigenvalues of (default mixing * dielectric matrix)
  average eigenvalue GAMMA=   1.7337
  2.6800  2.3386  0.9855  1.4522  1.2125

 Free energy of the ion-electron system (eV)
  ---------------------------------------------------
  alpha Z        PSCENC =       160.15608772
  Ewald energy   TEWEN  =     -2159.52134120
  -Hartree energ DENC   =      -371.92190103
  -exchange      EXHF   =         0.00000000
  -V(xc)+E(xc)   XCENC  =        63.07199614
  PAW double counting   =      2383.25128101    -2351.07169651
  entropy T*S    EENTRO =        -0.00238509
  eigenvalues    EBANDS =      -158.21423300
  atomic energy  EATOM  =      2428.19501064
  Solvation  Ediel_sol  =         0.00000000
  ---------------------------------------------------
  free energy    TOTEN  =        -6.05718131 eV

  energy without entropy =       -6.05479622  energy(sigma->0) =       -6.05598876


--------------------------------------------------------------------------------------------------------




--------------------------------------- Iteration      1(  11)  ---------------------------------------


    POTLOK:  cpu time      0.0023: real time      0.0025
    SETDIJ:  cpu time      0.0020: real time      0.0020
     EDDAV:  cpu time      0.2902: real time      0.2915
       DOS:  cpu time      0.0005: real time      0.0005
    --------------------------------------------
      LOOP:  cpu time      0.2950: real time      0.2965

 eigenvalue-minimisations  :  3552
 total energy-change (2. order) : 0.5622451E-07  (-0.3674709E-09)
 number of electron      15.9999996 magnetization 
 augmentation part        4.1125396 magnetization 

 Free energy of the ion-electron system (eV)
  ---------------------------------------------------
  alpha Z        PSCENC =       160.15608772
  Ewald energy   TEWEN  =     -2159.52134120
  -Hartree energ DENC   =      -371.92114021
  -exchange      EXHF   =         0.00000000
  -V(xc)+E(xc)   XCENC  =        63.07195979
  PAW double counting   =      2383.09862512    -2350.91938867
  entropy T*S    EENTRO =        -0.00238509
  eigenvalues    EBANDS =      -158.21460935
  atomic energy  EATOM  =      2428.19501064
  Solvation  Ediel_sol  =         0.00000000
  ---------------------------------------------------
  free energy    TOTEN  =        -6.05718125 eV

  energy without entropy =       -6.05479616  energy(sigma->0) =       -6.05598870


--------------------------------------------------------------------------------------------------------




 average (electrostatic) potential at core
  the test charge radii are     0.9952
  (the norm of the test charge is              1.0000)
       1 -88.6282
 
 
 
 E-fermi :  12.2191     XC(G=0): -14.0479     alpha+bet :-17.5106

 Fermi energy:        12.2191070383

 k-point     1 :       0.0500    0.0500    0.0500
  band No.  band energies     occupation 
      1     -40.3700      2.00000
      2     -40.3594      2.00000
      3     -40.3594      2.00000
      4       1.9738      2.00000
      5       8.3102      2.00000
      6       8.3981      2.00000
      7       8.3981      2.00000
      8      10.5251      2.00000
      9      10.5251      2.00000
     10      26.9483      0.00000
     11      31.2383      0.00000
     12      31.9474      0.00000
     13      31.9474      0.00000
     14      37.7959      0.00000
     15      42.8916      0.00000
     16      43.6392      0.00000
     17      43.6392      0.00000
     18      47.0006      0.00000
     19      47.0006      0.00000
     20      47.9350      0.00000
     21      52.8477      0.00000
     22      53.7204      0.00000
     23      53.7204      0.00000
     24      61.0938      0.00000

 k-point     2 :       0.1500    0.0500    0.0500
  band No.  band energies     occupation 
      1     -40.4277      2.00000
      2     -40.3764      2.00000
      3     -40.3648      2.00000
      4       2.5008      2.00000
      5       8.0738      2.00000
      6       8.5820      2.00000
      7       8.6218      2.00000
      8      10.2936      2.00000
      9      10.5829      2.00000
     10      27.7170      0.00000
     11      29.5307      0.00000
     12      32.0910      0.00000
     13      33.0847      0.00000
     14      38.4860      0.00000
     15      40.9150      0.00000
     16      41.3055      0.00000
     17      42.6798      0.00000
     18      45.2909      0.00000
     19      48.4253      0.00000
     20      50.7085      0.00000
     21      52.5078      0.00000
     22      52.8386      0.00000
     23      54.8942      0.00000
     24      61.7028      0.00000

 k-point     3 :       0.2500    0.0500    0.0500
  band No.  band energies     occupation 
      1     -40.5549      2.00000
      2     -40.3995      2.00000
      3     -40.3818      2.00000
      4       3.6249      2.00000
      5       7.8475      2.00000
      6       8.7736      2.00000
      7       8.8134      2.00000
      8      10.2770      2.00000
      9      10.8523      2.00000
     10      26.6648      0.00000
     11      28.7158      0.00000
     12      33.2375      0.00000
     13      35.1986      0.00000
     14      35.2135      0.00000
     15      38.5581      0.00000
     16      38.6664      0.00000
     17      45.2085      0.00000
     18      45.7045      0.00000
     19      49.0317      0.00000
     20      51.0603      0.00000
     21      52.8328      0.00000
     22      53.7502      0.00000
     23      55.5270      0.00000
     24      62.0148      0.00000

 k-point     4 :       0.3500    0.0500    0.0500
  band No.  band energies     occupation 
      1     -40.6996      2.00000
      2     -40.4212      2.00000
      3     -40.4034      2.00000
      4       4.6146      2.00000
      5       8.4314      2.00000
      6       8.6181      2.00000
      7       8.6513      2.00000
      8      10.9525      2.00000
      9      11.6151      2.00000
     10      23.2194      0.00000
     11      27.9197      0.00000
     12      32.6513      0.00000
     13      34.8879      0.00000
     14      36.0397      0.00000
     15      37.9097      0.00000
     16      38.4694      0.00000
     17      46.1205      0.00000
     18      48.3693      0.00000
     19      50.4763      0.00000
     20      51.6442      0.00000
     21      52.8403      0.00000
     22      54.3893      0.00000
     23      56.2178      0.00000
     24      61.0155      0.00000

 k-point     5 :       0.4500    0.0500    0.0500
  band No.  band energies     occupation 
      1     -40.8059      2.00000
      2     -40.4351      2.00000
      3     -40.4220      2.00000
      4       4.8594      2.00000
      5       8.3183      2.00000
      6       8.4200      2.00000
      7      10.2265      2.00000
      8      11.8203      2.00000
      9      12.5130      0.00000
     10      19.6164      0.00000
     11      26.8164      0.00000
     12      31.1484      0.00000
     13      32.1847      0.00000
     14      39.0225      0.00000
     15      40.1168      0.00000
     16      40.6863      0.00000
     17      46.7475      0.00000
     18      48.1562      0.00000
     19      49.4476      0.00000
     20      52.8464      0.00000
     21      53.9465      0.00000
     22      56.7520      0.00000
     23      56.9310      0.00000
     24      58.1096      0.00000

 k-point     6 :      -0.4500    0.0500    0.0500
  band No.  band energies     occupation 
      1     -40.8355      2.00000
      2     -40.4350      2.00000
      3     -40.4307      2.00000
      4       4.8621      2.00000
      5       8.2264      2.00000
      6       8.3666      2.00000
      7      10.9608      2.00000
      8      12.2478      0.41731
      9      12.9449      0.00000
     10      18.1206      0.00000
     11      26.5227      0.00000
     12      31.0325      0.00000
     13      31.0768      0.00000
     14      40.3499      0.00000
     15      40.5767      0.00000
     16      42.0724      0.00000
     17      46.9910      0.00000
     18      47.8470      0.00000
     19      48.0886      0.00000
     20      52.8513      0.00000
     21      55.0465      0.00000
     22      55.6557      0.00000
     23      57.7289      0.00000
     24      58.5461      0.00000

 k-point     7 :      -0.3500    0.0500    0.0500
  band No.  band energies     occupation 
      1     -40.7779      2.00000
      2     -40.4261      2.00000
      3     -40.4223      2.00000
      4       4.8311      2.00000
      5       8.3599      2.00000
      6       8.5178      2.00000
      7       9.5638      2.00000
      8      11.8767      2.00000
      9      11.9462      2.00000
     10      20.7408      0.00000
     11      27.1090      0.00000
     12      31.7750      0.00000
     13      32.6226      0.00000
     14      38.7381      0.00000
     15      38.9112      0.00000
     16      39.8704      0.00000
     17      46.0170      0.00000
     18      49.1805      0.00000
     19      49.8483      0.00000
     20      52.8441      0.00000
     21      53.8285      0.00000
     22      55.0107      0.00000
     23      56.9068      0.00000
     24      58.8138      0.00000

 k-point     8 :      -0.2500    0.0500    0.0500
  band No.  band energies     occupation 
      1     -40.6531      2.00000
      2     -40.4095      2.00000
      3     -40.4007      2.00000
      4       4.3645      2.00000
      5       8.0821      2.00000
      6       8.6528      2.00000
      7       8.7571      2.00000
      8      10.7972      2.00000
      9      11.2195      2.00000
     10      24.4367      0.00000
     11      28.3631      0.00000
     12      33.3887      0.00000
     13      34.7308      0.00000
     14      36.4003      0.00000
     15      37.1425      0.00000
     16      37.8584      0.00000
     17      45.6514      0.00000
     18      48.6447      0.00000
     19      49.3870      0.00000
     20      51.7472      0.00000
     21      52.8420      0.00000
     22      53.1302      0.00000
     23      56.5796      0.00000
     24      62.0748      0.00000

 k-point     9 :      -0.1500    0.0500    0.0500
  band No.  band energies     occupation 
      1     -40.5072      2.00000
      2     -40.3876      2.00000
      3     -40.3793      2.00000
      4       3.2144      2.00000
      5       7.8623      2.00000
      6       8.7672      2.00000
      7       8.7902      2.00000
      8      10.2188      2.00000
      9      10.6945      2.00000
     10      27.7029      0.00000
     11      28.5213      0.00000
     12      33.0075      0.00000
     13      33.9397      0.00000
     14      36.6260      0.00000
     15      38.6885      0.00000
     16      40.2230      0.00000
     17      43.7474      0.00000
     18      45.4785      0.00000
     19      49.3449      0.00000
     20      51.1100      0.00000
     21      52.4936      0.00000
     22      52.8374      0.00000
     23      55.7209      0.00000
     24      61.9380      0.00000

 k-point    10 :      -0.0500    0.0500    0.0500
  band No.  band energies     occupation 
      1     -40.3963      2.00000
      2     -40.3684      2.00000
      3     -40.3658      2.00000
      4       2.2424      2.00000
      5       8.1498      2.00000
      6       8.5228      2.00000
      7       8.5310      2.00000
      8      10.3332      2.00000
      9      10.6034      2.00000
     10      27.3593      0.00000
     11      30.4741      0.00000
     12      31.9951      0.00000
     13      32.2493      0.00000
     14      39.0257      0.00000
     15      41.3179      0.00000
     16      41.6309      0.00000
     17      43.7053      0.00000
     18      44.9640      0.00000
     19      48.9896      0.00000
     20      49.4746      0.00000
     21      52.3797      0.00000
     22      52.8374      0.00000
     23      54.7810      0.00000
     24      61.5648      0.00000

 k-point    11 :       0.1500    0.1500    0.0500
  band No.  band energies     occupation 
      1     -40.4402      2.00000
      2     -40.3851      2.00000
      3     -40.3817      2.00000
      4       2.7616      2.00000
      5       7.8368      2.00000
      6       8.7873      2.00000
      7       8.7942      2.00000
      8       9.9977      2.00000
      9      10.7552      2.00000
     10      28.1332      0.00000
     11      29.7684      0.00000
     12      31.9286      0.00000
     13      32.2988      0.00000
     14      38.9680      0.00000
     15      39.8166      0.00000
     16      41.7741      0.00000
     17      41.8704      0.00000
     18      44.3161      0.00000
     19      50.0980      0.00000
     20      51.1108      0.00000
     21      51.3014      0.00000
     22      52.8367      0.00000
     23      55.6081      0.00000
     24      62.7264      0.00000

 k-point    12 :       0.2500    0.1500    0.0500
  band No.  band energies     occupation 
      1     -40.5288      2.00000
      2     -40.4174      2.00000
      3     -40.3943      2.00000
      4       3.6977      2.00000
      5       7.4754      2.00000
      6       8.9019      2.00000
      7       9.1656      2.00000
      8       9.8866      2.00000
      9      11.0456      2.00000
     10      28.0145      0.00000
     11      29.1874      0.00000
     12      31.5609      0.00000
     13      32.8667      0.00000
     14      36.5479      0.00000
     15      38.9001      0.00000
     16      40.0064      0.00000
     17      43.6800      0.00000
     18      45.3153      0.00000
     19      49.0467      0.00000
     20      50.5036      0.00000
     21      52.8401      0.00000
     22      53.9995      0.00000
     23      56.9981      0.00000
     24      62.5292      0.00000

 k-point    13 :       0.3500    0.1500    0.0500
  band No.  band energies     occupation 
      1     -40.6559      2.00000
      2     -40.4460      2.00000
      3     -40.4156      2.00000
      4       4.8388      2.00000
      5       7.5181      2.00000
      6       8.4667      2.00000
      7       9.1752      2.00000
      8      10.7537      2.00000
      9      11.7931      2.00000
     10      24.7126      0.00000
     11      28.8461      0.00000
     12      30.9244      0.00000
     13      33.0319      0.00000
     14      37.1423      0.00000
     15      38.0000      0.00000
     16      39.9778      0.00000
     17      42.9988      0.00000
     18      48.6545      0.00000
     19      50.3171      0.00000
     20      50.6899      0.00000
     21      52.8417      0.00000
     22      54.1845      0.00000
     23      58.5722      0.00000
     24      60.4323      0.00000

[...]
     13      33.5778      0.00000
     14      38.2995      0.00000
     15      39.2863      0.00000
     16      42.6995      0.00000
     17      46.6775      0.00000
     18      47.8928      0.00000
     19      50.8944      0.00000
     20      52.7753      0.00000
     21      52.8513      0.00000
     22      54.9640      0.00000
     23      57.9842      0.00000
     24      58.9816      0.00000

 k-point   100 :      -0.3500   -0.3500    0.2500
  band No.  band energies     occupation 
      1     -40.7402      2.00000
      2     -40.6362      2.00000
      3     -40.5028      2.00000
      4       5.8552      2.00000
      5       6.6707      2.00000
      6       9.2609      2.00000
      7      10.8031      2.00000
      8      12.0617      1.99999
      9      17.9911      0.00000
     10      18.6759      0.00000
     11      22.6973      0.00000
     12      26.9626      0.00000
     13      32.1730      0.00000
     14      38.8968      0.00000
     15      39.7153      0.00000
     16      41.0852      0.00000
     17      48.7650      0.00000
     18      49.7896      0.00000
     19      49.8809      0.00000
     20      52.4943      0.00000
     21      52.8468      0.00000
     22      54.1540      0.00000
     23      56.8381      0.00000
     24      58.6193      0.00000

 k-point   101 :       0.3500    0.3500    0.3500
  band No.  band energies     occupation 
      1     -40.7433      2.00000
      2     -40.4140      2.00000
      3     -40.4140      2.00000
      4       4.6742      2.00000
      5       8.5141      2.00000
      6       8.5141      2.00000
      7       9.1666      2.00000
      8      11.4990      2.00000
      9      11.4990      2.00000
     10      21.9400      0.00000
     11      27.3657      0.00000
     12      33.2085      0.00000
     13      33.2085      0.00000
     14      37.7944      0.00000
     15      38.2639      0.00000
     16      38.2639      0.00000
     17      47.8725      0.00000
     18      47.8725      0.00000
     19      49.6972      0.00000
     20      52.8413      0.00000
     21      53.6248      0.00000
     22      55.1604      0.00000
     23      55.1604      0.00000
     24      61.1114      0.00000

 k-point   102 :       0.4500    0.3500    0.3500
  band No.  band energies     occupation 
      1     -40.7694      2.00000
      2     -40.4598      2.00000
      3     -40.4184      2.00000
      4       5.0901      2.00000
      5       8.2380      2.00000
      6       8.6582      2.00000
      7       9.1531      2.00000
      8      11.3328      2.00000
      9      12.9246      0.00000
     10      20.8378      0.00000
     11      27.4257      0.00000
     12      30.2455      0.00000
     13      33.1765      0.00000
     14      37.1754      0.00000
     15      40.0281      0.00000
     16      41.1621      0.00000
     17      45.3965      0.00000
     18      48.1870      0.00000
     19      50.9326      0.00000
     20      51.9022      0.00000
     21      52.8444      0.00000
     22      56.2281      0.00000
     23      56.9275      0.00000
     24      58.3813      0.00000

 k-point   103 :      -0.4500    0.3500    0.3500
  band No.  band energies     occupation 
      1     -40.7583      2.00000
      2     -40.5511      2.00000
      3     -40.4418      2.00000
      4       5.9692      2.00000
      5       7.6602      2.00000
      6       8.5743      2.00000
      7       9.2667      2.00000
      8      11.2942      2.00000
      9      14.8025      0.00000
     10      20.2169      0.00000
     11      26.1290      0.00000
     12      29.3001      0.00000
     13      31.8245      0.00000
     14      37.1083      0.00000
     15      39.9722      0.00000
     16      43.6919      0.00000
     17      46.7883      0.00000
     18      48.2641      0.00000
     19      49.6332      0.00000
     20      50.8137      0.00000
     21      52.8397      0.00000
     22      54.3837      0.00000
     23      58.5102      0.00000
     24      59.2352      0.00000

 k-point   104 :      -0.3500    0.3500    0.3500
  band No.  band energies     occupation 
      1     -40.7108      2.00000
      2     -40.6533      2.00000
      3     -40.4732      2.00000
      4       6.3138      2.00000
      5       7.3316      2.00000
      6       8.3459      2.00000
      7      10.1190      2.00000
      8      11.5061      2.00000
      9      16.3244      0.00000
     10      20.5954      0.00000
     11      22.7984      0.00000
     12      29.4232      0.00000
     13      30.8245      0.00000
     14      38.4298      0.00000
     15      39.5373      0.00000
     16      41.9371      0.00000
     17      48.9928      0.00000
     18      49.8315      0.00000
     19      50.0469      0.00000
     20      52.5625      0.00000
     21      52.8558      0.00000
     22      52.8869      0.00000
     23      54.9993      0.00000
     24      60.4047      0.00000

 k-point   105 :       0.4500    0.4500    0.3500
  band No.  band energies     occupation 
      1     -40.7979      2.00000
      2     -40.4478      2.00000
      3     -40.4389      2.00000
      4       5.0891      2.00000
      5       8.1052      2.00000
      6       8.6605      2.00000
      7       9.4739      2.00000
      8      12.2268      0.82825
      9      12.9740      0.00000
     10      19.6011      0.00000
     11      27.1851      0.00000
     12      30.6838      0.00000
     13      31.4070      0.00000
     14      39.2048      0.00000
     15      40.4307      0.00000
     16      41.2475      0.00000
     17      44.4187      0.00000
     18      49.5899      0.00000
     19      50.0533      0.00000
     20      52.4962      0.00000
     21      52.8435      0.00000
     22      56.2527      0.00000
     23      57.1467      0.00000
     24      58.0758      0.00000

 k-point   106 :      -0.4500    0.4500    0.3500
  band No.  band energies     occupation 
      1     -40.7894      2.00000
      2     -40.5142      2.00000
      3     -40.4521      2.00000
      4       5.6700      2.00000
      5       7.6463      2.00000
      6       8.9198      2.00000
      7       9.1749      2.00000
      8      11.9843      2.00000
      9      14.9988      0.00000
     10      18.7085      0.00000
     11      27.4715      0.00000
     12      28.3654      0.00000
     13      31.2311      0.00000
     14      38.5634      0.00000
     15      40.7228      0.00000
     16      43.6499      0.00000
     17      44.5630      0.00000
     18      48.4519      0.00000
     19      50.4018      0.00000
     20      51.1266      0.00000
     21      52.8431      0.00000
     22      54.5582      0.00000
     23      58.2852      0.00000
     24      59.7734      0.00000

 k-point   107 :      -0.3500    0.4500    0.3500
  band No.  band energies     occupation 
      1     -40.7472      2.00000
      2     -40.6028      2.00000
      3     -40.4823      2.00000
      4       6.4254      2.00000
      5       7.1299      2.00000
      6       8.3221      2.00000
      7       9.8916      2.00000
      8      11.9116      2.00000
      9      16.9961      0.00000
     10      18.5793      0.00000
     11      24.8705      0.00000
     12      27.4975      0.00000
     13      32.0483      0.00000
     14      37.8802      0.00000
     15      41.2123      0.00000
     16      42.8425      0.00000
     17      45.5573      0.00000
     18      47.3483      0.00000
     19      52.2953      0.00000
     20      52.7760      0.00000
     21      52.8472      0.00000
     22      53.2360      0.00000
     23      56.6992      0.00000
     24      59.2184      0.00000

 k-point   108 :      -0.4500   -0.4500    0.3500
  band No.  band energies     occupation 
      1     -40.7859      2.00000
      2     -40.5395      2.00000
      3     -40.4621      2.00000
      4       5.8125      2.00000
      5       7.4962      2.00000
      6       8.8880      2.00000
      7       9.3107      2.00000
      8      12.1403      1.97414
      9      16.1272      0.00000
     10      17.7871      0.00000
     11      26.6687      0.00000
     12      29.5850      0.00000
     13      29.7014      0.00000
     14      39.6738      0.00000
     15      39.9760      0.00000
     16      42.9229      0.00000
     17      45.3735      0.00000
     18      48.8544      0.00000
     19      50.6233      0.00000
     20      51.3087      0.00000
     21      52.8409      0.00000
     22      54.0421      0.00000
     23      57.6348      0.00000
     24      60.2961      0.00000

 k-point   109 :       0.4500    0.4500    0.4500
  band No.  band energies     occupation 
      1     -40.8283      2.00000
      2     -40.4261      2.00000
      3     -40.4261      2.00000
      4       4.7808      2.00000
      5       8.3210      2.00000
      6       8.3210      2.00000
      7      11.2203      2.00000
      8      12.1462      1.96080
      9      12.1462      1.96080
     10      18.6922      0.00000
     11      26.4764      0.00000
     12      31.4477      0.00000
     13      31.4477      0.00000
     14      40.2517      0.00000
     15      40.2517      0.00000
     16      41.1568      0.00000
     17      47.6848      0.00000
     18      47.6848      0.00000
     19      48.1861      0.00000
     20      52.8552      0.00000
     21      56.1237      0.00000
     22      56.1237      0.00000
     23      57.5843      0.00000
     24      58.1352      0.00000

 k-point   110 :      -0.4500    0.4500    0.4500
  band No.  band energies     occupation 
      1     -40.8238      2.00000
      2     -40.4616      2.00000
      3     -40.4346      2.00000
      4       5.1008      2.00000
      5       8.0482      2.00000
      6       8.5526      2.00000
      7      10.1997      2.00000
      8      12.1093      1.99811
      9      14.0083      0.00000
     10      18.0612      0.00000
     11      26.9055      0.00000
     12      30.0740      0.00000
     13      31.0868      0.00000
     14      39.9300      0.00000
     15      40.3458      0.00000
     16      42.7922      0.00000
     17      47.1066      0.00000
     18      47.9492      0.00000
     19      47.9924      0.00000
     20      52.8539      0.00000
     21      53.6325      0.00000
     22      54.2630      0.00000
     23      58.4207      0.00000
     24      58.9035      0.00000


--------------------------------------------------------------------------------------------------------


 soft charge-density along one line, spin component           1
         0         1         2         3         4         5         6         7         8         9
 total charge-density along one line
 
 pseudopotential strength for first ion, spin component:           1
-31.356  -0.000  -0.000  10.409   0.000   0.000  -0.000   0.000
 -0.000 -31.356  -0.000   0.000  10.409   0.000   0.000  -0.000
 -0.000  -0.000 -31.356   0.000   0.000  10.409  -0.000   0.000
 10.409   0.000   0.000  16.379  -0.000  -0.000   0.000  -0.000
  0.000  10.409   0.000  -0.000  16.379  -0.000   0.000   0.000
  0.000   0.000  10.409  -0.000  -0.000  16.379   0.000  -0.000
 -0.000   0.000  -0.000   0.000   0.000   0.000  -3.503   0.000
  0.000  -0.000   0.000  -0.000   0.000  -0.000   0.000  -3.503
  0.000   0.000   0.000  -0.000   0.000  -0.000   0.000  -0.000
  0.000  -0.000  -0.000  -0.000   0.000  -0.000   0.000   0.000
  0.000   0.000   0.000   0.000  -0.000   0.000   0.000   0.000
 -0.000  -0.000  -0.000   0.000   0.000   0.000  -3.706   0.000
 -0.000  -0.000  -0.000   0.000   0.000   0.000   0.000  -3.706
  0.000   0.000   0.000  -0.000   0.000  -0.000   0.000  -0.000
 -0.000  -0.000   0.000   0.000   0.000   0.000   0.000   0.000
  0.000   0.000  -0.000   0.000  -0.000   0.000   0.000   0.000
  0.000   0.000   0.000   0.000   0.000   0.000   0.000   0.000
 -0.000  -0.000  -0.000  -0.000  -0.000   0.000  -0.000  -0.000
 total augmentation occupancy for first ion, spin component:           1
  2.003  -0.000   0.000  -0.021   0.000  -0.000   0.000   0.000   0.000   0.000   0.000   0.000   0.000   0.000   0.000   0.000
  0.000   2.003  -0.000   0.000  -0.021   0.000   0.000   0.000   0.000   0.000   0.000   0.000   0.000   0.000   0.000   0.000
 -0.000  -0.000   2.003   0.000   0.000  -0.021   0.000   0.000   0.000   0.000   0.000   0.000   0.000   0.000   0.000   0.000
 -0.021  -0.000   0.000   0.052   0.000  -0.000   0.000   0.000   0.000   0.000   0.000   0.000   0.000   0.000   0.000   0.000
  0.000  -0.021   0.000   0.000   0.052   0.000   0.000   0.000   0.000   0.000   0.000   0.000   0.000   0.000   0.000   0.000
  0.000  -0.000  -0.021   0.000   0.000   0.052   0.000   0.000   0.000   0.000   0.000   0.000   0.000   0.000   0.000   0.000
  0.000   0.000   0.000   0.000   0.000   0.000   5.666   0.000   0.000  -0.000   0.000  -3.274  -0.000  -0.000   0.000  -0.000
  0.000   0.000   0.000   0.000   0.000   0.000  -0.000   5.666  -0.000   0.000  -0.000  -0.000  -3.274  -0.000  -0.000   0.000
  0.000   0.000   0.000   0.000   0.000   0.000   0.000   0.000   4.676  -0.000   0.000   0.000   0.000  -2.625   0.000  -0.000
  0.000   0.000   0.000   0.000   0.000   0.000  -0.000  -0.000  -0.000   5.666  -0.000   0.000   0.000   0.000  -3.274   0.000
  0.000   0.000   0.000   0.000   0.000   0.000   0.000  -0.000   0.000  -0.000   4.676  -0.000   0.000  -0.000   0.000  -2.625
  0.000   0.000   0.000   0.000   0.000   0.000  -3.274  -0.000   0.000   0.000  -0.000   2.629   0.000   0.000  -0.000  -0.000
  0.000   0.000   0.000   0.000   0.000   0.000  -0.000  -3.274  -0.000   0.000   0.000   0.000   2.629   0.000  -0.000   0.000
  0.000   0.000   0.000   0.000   0.000   0.000  -0.000   0.000  -2.625   0.000  -0.000  -0.000   0.000   2.433   0.000   0.000
  0.000   0.000   0.000   0.000   0.000   0.000   0.000   0.000   0.000  -3.274   0.000  -0.000   0.000   0.000   2.629  -0.000
  0.000   0.000   0.000   0.000   0.000   0.000  -0.000   0.000  -0.000   0.000  -2.625  -0.000   0.000   0.000  -0.000   2.433
  0.000   0.000   0.000   0.000   0.000   0.000   0.000  -0.000  -0.000  -0.000  -0.000  -0.000   0.000   0.000   0.000   0.000
  0.000   0.000   0.000   0.000   0.000   0.000   0.000   0.000   0.000   0.000  -0.000   0.000   0.000   0.000  -0.000   0.000


------------------------ aborting loop because EDIFF is reached ----------------------------------------





 total charge

# of ion       s       p       d       tot
------------------------------------------
    1        0.348   6.090   7.072  13.510
 
    CHARGE:  cpu time      0.0174: real time      0.0175
    FORLOC:  cpu time      0.0001: real time      0.0001
    FORNL :  cpu time      0.0061: real time      0.0061
    STRESS:  cpu time      0.1141: real time      0.1145
    FORCOR:  cpu time      0.0020: real time      0.0020
    FORHAR:  cpu time      0.0004: real time      0.0004
    MIXING:  cpu time      0.0002: real time      0.0002
    OFIELD:  cpu time      0.0000: real time      0.0000

  FORCE on cell =-STRESS in cart. coord.  units (eV):
  Direction    XX          YY          ZZ          XY          YZ          ZX
  --------------------------------------------------------------------------------------
  Alpha Z   160.15609   160.15609   160.15609
  Ewald    -719.84047  -719.84047  -719.84047     0.00000     0.00000    -0.00000
  Hartree   123.97280   123.97280   123.97280     0.00000     0.00000     0.00000
  E(xc)     -85.62185   -85.62185   -85.62185     0.00000     0.00000     0.00000
  Local     128.78820   128.78820   128.78820     0.00000     0.00000     0.00000
  n-local   -29.51523   -26.74852   -32.25612     3.32978    -3.12668     0.16509
  augment    73.32014    73.32014    73.32014     0.00000     0.00000     0.00000
  Kinetic   348.75009   354.16098   345.99503     4.57287    -3.92700    -0.56619
  Fock        0.00000     0.00000     0.00000     0.00000     0.00000     0.00000
  -------------------------------------------------------------------------------------
  Total       0.90365     0.90365     0.90365    -0.00000    -0.00000     0.00000
  in kB      96.64253    96.64253    96.64253    -0.00000    -0.00000     0.00000
  external pressure =       96.64 kB  Pullay stress =        0.00 kB


 VOLUME and BASIS-vectors are now :
 -----------------------------------------------------------------------------
  energy-cutoff  :      425.00
  volume of cell :       14.98
      direct lattice vectors                 reciprocal lattice vectors
     0.000000000  1.956612493  1.956612493    -0.255543702  0.255543702  0.255543702
     1.956612493  0.000000000  1.956612493     0.255543702 -0.255543702  0.255543702
     1.956612493  1.956612493  0.000000000     0.255543702  0.255543702 -0.255543702

  length of vectors
     2.767067924  2.767067924  2.767067924     0.442614676  0.442614676  0.442614676


 FORCES acting on ions
    electron-ion (+dipol)            ewald-force                    non-local-force                 convergence-correction
 -----------------------------------------------------------------------------------------------
   -.482E-14 -.613E-14 -.629E-15   0.295E-14 -.223E-14 -.800E-14   -.194E-25 0.000E+00 0.000E+00   -.372E-13 -.952E-13 -.310E-13
 -----------------------------------------------------------------------------------------------
   -.482E-14 -.613E-14 -.629E-15   0.295E-14 -.223E-14 -.800E-14   -.194E-25 0.000E+00 0.000E+00   -.372E-13 -.952E-13 -.310E-13
 
 
 POSITION                                       TOTAL-FORCE (eV/Angst)
 -----------------------------------------------------------------------------------
      0.00000      0.00000      0.00000         0.000000      0.000000      0.000000
 -----------------------------------------------------------------------------------
    total drift:                               -0.000000     -0.000000     -0.000000


--------------------------------------------------------------------------------------------------------



  FREE ENERGIE OF THE ION-ELECTRON SYSTEM (eV)
  ---------------------------------------------------
  free  energy   TOTEN  =        -6.05718125 eV

  energy  without entropy=       -6.05479616  energy(sigma->0) =       -6.05598870
 


--------------------------------------------------------------------------------------------------------


    POTLOK:  cpu time      0.0047: real time      0.0047


--------------------------------------------------------------------------------------------------------




--------------------------------------------------------------------------------------------------------


  
 reached required accuracy - stopping structural energy minimisation
 writing wavefunctions
     LOOP+:  cpu time      7.3678: real time      7.5692
    4ORBIT:  cpu time      0.0000: real time      0.0000



 total charge

# of ion       s       p       d       tot
------------------------------------------
    1        0.348   6.090   7.072  13.510
 

 total amount of memory used by VASP MPI-rank0    36185. kBytes
=======================================================================

   base      :      30000. kBytes
   nonl-proj :       4947. kBytes
   fftplans  :        147. kBytes
   grid      :        485. kBytes
   one-center:         15. kBytes
   wavefun   :        591. kBytes
 
  
  
 General timing and accounting informations for this job:
 ========================================================
  
                  Total CPU time used (sec):        8.509
                            User time (sec):        8.015
                          System time (sec):        0.494
                         Elapsed time (sec):       10.088
  
                   Maximum memory used (kb):      224104.
                   Average memory used (kb):          N/A
  
                          Minor page faults:        27889
                          Major page faults:           91
                 Voluntary context switches:         2209
