PROCAR lm decomposed
# of k-points:  110         # of bands:   24         # of ions:    1

 k-point     1 :    0.05000000 0.05000000 0.05000000     weight = 0.00200000

band     1 # energy  -38.80846153 # occ.  2.00000000
 
ion      s     py     pz     px    dxy    dyz    dz2    dxz  x2-y2    tot
    1  0.000  0.333  0.333  0.333  0.000  0.000  0.000  0.000  0.000  0.998
 
band     2 # energy  -38.79427596 # occ.  2.00000000
 
ion      s     py     pz     px    dxy    dyz    dz2    dxz  x2-y2    tot
    1  0.000  0.534  0.076  0.388  0.000  0.000  0.000  0.000  0.000  0.998
 
band     3 # energy  -38.79427596 # occ.  2.00000000
 
ion      s     py     pz     px    dxy    dyz    dz2    dxz  x2-y2    tot
    1  0.000  0.131  0.589  0.277  0.000  0.000  0.000  0.000  0.000  0.998
 
band     4 # energy    2.80093763 # occ.  2.00000000
 
ion      s     py     pz     px    dxy    dyz    dz2    dxz  x2-y2    tot
    1  0.438  0.001  0.001  0.001  0.000  0.000  0.000  0.000  0.000  0.440
 
band     5 # energy    9.56372381 # occ.  2.00000000
 
ion      s     py     pz     px    dxy    dyz    dz2    dxz  x2-y2    tot
    1  0.000  0.000  0.000  0.000  0.285  0.285  0.000  0.285  0.000  0.854
 
band     6 # energy    9.66536144 # occ.  2.00000000
 
ion      s     py     pz     px    dxy    dyz    dz2    dxz  x2-y2    tot
    1  0.000  0.000  0.000  0.000  0.000  0.430  0.000  0.430  0.000  0.860
 
band     7 # energy    9.66536144 # occ.  2.00000000
 
ion      s     py     pz     px    dxy    dyz    dz2    dxz  x2-y2    tot
    1  0.000  0.000  0.000  0.000  0.573  0.143  0.000  0.143  0.000  0.860
 
band     8 # energy   12.12087457 # occ.  2.00000000
 
ion      s     py     pz     px    dxy    dyz    dz2    dxz  x2-y2    tot
    1  0.000  0.000  0.000  0.000  0.000  0.000  0.000  0.000  0.920  0.921
 
band     9 # energy   12.12087457 # occ.  2.00000000
 
ion      s     py     pz     px    dxy    dyz    dz2    dxz  x2-y2    tot
    1  0.000  0.000  0.000  0.000  0.000  0.000  0.920  0.000  0.000  0.921
 
band    10 # energy   28.53081492 # occ.  0.00000000
 
ion      s     py     pz     px    dxy    dyz    dz2    dxz  x2-y2    tot
    1  0.000  0.000  0.000  0.000  0.002  0.002  0.000  0.002  0.000  0.007
 
band    11 # energy   33.29283454 # occ.  0.00000000
 
ion      s     py     pz     px    dxy    dyz    dz2    dxz  x2-y2    tot
    1  0.008  0.019  0.019  0.019  0.001  0.001  0.000  0.001  0.000  0.070
 
band    12 # energy   34.03377548 # occ.  0.00000000
 
ion      s     py     pz     px    dxy    dyz    dz2    dxz  x2-y2    tot
    1  0.000  0.031  0.000  0.032  0.000  0.001  0.000  0.001  0.004  0.068
 
band    13 # energy   34.03377548 # occ.  0.00000000
 
ion      s     py     pz     px    dxy    dyz    dz2    dxz  x2-y2    tot
    1  0.000  0.011  0.042  0.010  0.001  0.000  0.004  0.000  0.000  0.068
 
band    14 # energy   40.25047876 # occ.  0.00000000
 
ion      s     py     pz     px    dxy    dyz    dz2    dxz  x2-y2    tot
    1  0.043  0.004  0.004  0.004  0.000  0.000  0.000  0.000  0.000  0.058
 
band    15 # energy   46.67216297 # occ.  0.00000000
 
ion      s     py     pz     px    dxy    dyz    dz2    dxz  x2-y2    tot
    1  0.007  0.057  0.057  0.057  0.128  0.128  0.000  0.128  0.000  0.560
 
band    16 # energy   47.43924031 # occ.  0.00000000
 
ion      s     py     pz     px    dxy    dyz    dz2    dxz  x2-y2    tot
    1  0.000  0.043  0.000  0.037  0.003  0.219  0.000  0.256  0.002  0.560
 
band    17 # energy   47.43924031 # occ.  0.00000000
 
ion      s     py     pz     px    dxy    dyz    dz2    dxz  x2-y2    tot
    1  0.000  0.010  0.053  0.017  0.316  0.100  0.002  0.062  0.000  0.560
 
band    18 # energy   51.42472014 # occ.  0.00000000
 
ion      s     py     pz     px    dxy    dyz    dz2    dxz  x2-y2    tot
    1  0.000  0.336  0.001  0.301  0.000  0.038  0.000  0.043  0.023  0.742
 
band    19 # energy   51.42472014 # occ.  0.00000000
 
ion      s     py     pz     px    dxy    dyz    dz2    dxz  x2-y2    tot
    1  0.000  0.089  0.424  0.124  0.054  0.016  0.023  0.011  0.000  0.742
 
band    20 # energy   52.41454232 # occ.  0.00000000
 
ion      s     py     pz     px    dxy    dyz    dz2    dxz  x2-y2    tot
    1  0.029  0.177  0.177  0.177  0.062  0.062  0.000  0.062  0.000  0.748
 
band    21 # energy   54.35107691 # occ.  0.00000000
 
ion      s     py     pz     px    dxy    dyz    dz2    dxz  x2-y2    tot
    1  6.294  0.000  0.000  0.000  0.000  0.000  0.000  0.000  0.000  6.294
 
band    22 # energy   57.88689163 # occ.  0.00000000
 
ion      s     py     pz     px    dxy    dyz    dz2    dxz  x2-y2    tot
    1  0.000  0.019  0.000  0.017  0.000  0.000  0.003  0.000  0.494  0.532
 
band    23 # energy   57.88689163 # occ.  0.00000000
 
ion      s     py     pz     px    dxy    dyz    dz2    dxz  x2-y2    tot
    1  0.000  0.005  0.023  0.007  0.000  0.000  0.494  0.000  0.003  0.532
 
band    24 # energy   64.89407113 # occ.  0.00000000
 
ion      s     py     pz     px    dxy    dyz    dz2    dxz  x2-y2    tot
    1  0.000  0.000  0.000  0.000  0.000  0.000  0.000  0.000  0.000  0.000
 

 k-point     2 :    0.15000000 0.05000000 0.05000000     weight = 0.00600000

band     1 # energy  -38.88907186 # occ.  2.00000000
 
ion      s     py     pz     px    dxy    dyz    dz2    dxz  x2-y2    tot
    1  0.000  0.454  0.454  0.087  0.000  0.000  0.000  0.000  0.000  0.995
 
band     2 # energy  -38.81756231 # occ.  2.00000000
 
ion      s     py     pz     px    dxy    dyz    dz2    dxz  x2-y2    tot
    1  0.000  0.044  0.044  0.910  0.000  0.000  0.000  0.000  0.000  0.997
 
band     3 # energy  -38.80039392 # occ.  2.00000000
 
ion      s     py     pz     px    dxy    dyz    dz2    dxz  x2-y2    tot
    1  0.000  0.499  0.499  0.000  0.000  0.000  0.000  0.000  0.000  0.998
 
band     4 # energy    3.37631763 # occ.  2.00000000
 
ion      s     py     pz     px    dxy    dyz    dz2    dxz  x2-y2    tot
    1  0.423  0.005  0.005  0.000  0.000  0.003  0.000  0.000  0.000  0.437
 
band     5 # energy    9.28626377 # occ.  2.00000000
 
ion      s     py     pz     px    dxy    dyz    dz2    dxz  x2-y2    tot
    1  0.000  0.000  0.000  0.002  0.400  0.029  0.000  0.400  0.000  0.832
 
band     6 # energy    9.87395939 # occ.  2.00000000
 
ion      s     py     pz     px    dxy    dyz    dz2    dxz  x2-y2    tot
    1  0.000  0.000  0.000  0.000  0.429  0.000  0.003  0.429  0.001  0.862
 
band     7 # energy    9.92095301 # occ.  2.00000000
 
ion      s     py     pz     px    dxy    dyz    dz2    dxz  x2-y2    tot
    1  0.000  0.001  0.001  0.000  0.015  0.800  0.006  0.015  0.018  0.857
 
band     8 # energy   11.84477246 # occ.  2.00000000
 
ion      s     py     pz     px    dxy    dyz    dz2    dxz  x2-y2    tot
    1  0.000  0.000  0.000  0.000  0.002  0.000  0.675  0.002  0.225  0.905
 
band     9 # energy   12.18373570 # occ.  2.00000000
 
ion      s     py     pz     px    dxy    dyz    dz2    dxz  x2-y2    tot
    1  0.000  0.000  0.000  0.000  0.001  0.024  0.223  0.001  0.668  0.917
 
band    10 # energy   29.43273182 # occ.  0.00000000
 
ion      s     py     pz     px    dxy    dyz    dz2    dxz  x2-y2    tot
    1  0.000  0.000  0.000  0.000  0.020  0.002  0.000  0.020  0.000  0.042
 
band    11 # energy   31.58352903 # occ.  0.00000000
 
ion      s     py     pz     px    dxy    dyz    dz2    dxz  x2-y2    tot
    1  0.030  0.022  0.022  0.006  0.003  0.015  0.002  0.003  0.005  0.107
 
band    12 # energy   34.31060418 # occ.  0.00000000
 
ion      s     py     pz     px    dxy    dyz    dz2    dxz  x2-y2    tot
    1  0.000  0.002  0.002  0.079  0.010  0.002  0.001  0.010  0.004  0.112
 
band    13 # energy   35.29234279 # occ.  0.00000000
 
ion      s     py     pz     px    dxy    dyz    dz2    dxz  x2-y2    tot
    1  0.000  0.029  0.029  0.000  0.001  0.000  0.025  0.001  0.008  0.092
 
band    14 # energy   41.64197113 # occ.  0.00000000
 
ion      s     py     pz     px    dxy    dyz    dz2    dxz  x2-y2    tot
    1  0.000  0.098  0.098  0.010  0.006  0.108  0.000  0.006  0.000  0.328
 
band    15 # energy   43.99841134 # occ.  0.00000000
 
ion      s     py     pz     px    dxy    dyz    dz2    dxz  x2-y2    tot
    1  0.055  0.025  0.025  0.011  0.003  0.095  0.003  0.003  0.009  0.230
 
band    16 # energy   44.59933003 # occ.  0.00000000
 
ion      s     py     pz     px    dxy    dyz    dz2    dxz  x2-y2    tot
    1  0.010  0.000  0.000  0.193  0.116  0.005  0.000  0.116  0.001  0.440
 
band    17 # energy   46.35681581 # occ.  0.00000000
 
ion      s     py     pz     px    dxy    dyz    dz2    dxz  x2-y2    tot
    1  0.000  0.068  0.068  0.000  0.179  0.000  0.013  0.179  0.004  0.511
 
band    18 # energy   49.46422723 # occ.  0.00000000
 
ion      s     py     pz     px    dxy    dyz    dz2    dxz  x2-y2    tot
    1  0.000  0.230  0.230  0.000  0.068  0.000  0.059  0.068  0.020  0.674
 
band    19 # energy   52.86068021 # occ.  0.00000000
 
ion      s     py     pz     px    dxy    dyz    dz2    dxz  x2-y2    tot
    1  0.089  0.138  0.138  0.036  0.000  0.279  0.009  0.000  0.026  0.716
 
band    20 # energy   54.35250407 # occ.  0.00000000
 
ion      s     py     pz     px    dxy    dyz    dz2    dxz  x2-y2    tot
    1  6.281  0.000  0.000  0.000  0.000  0.000  0.000  0.000  0.000  6.282
 
band    21 # energy   55.24287863 # occ.  0.00000000
 
ion      s     py     pz     px    dxy    dyz    dz2    dxz  x2-y2    tot
    1  0.035  0.010  0.010  0.287  0.125  0.001  0.022  0.125  0.066  0.682
 
band    22 # energy   56.51370344 # occ.  0.00000000
 
ion      s     py     pz     px    dxy    dyz    dz2    dxz  x2-y2    tot
    1  0.000  0.006  0.006  0.175  0.026  0.016  0.057  0.026  0.172  0.485
 
band    23 # energy   59.07533399 # occ.  0.00000000
 
ion      s     py     pz     px    dxy    dyz    dz2    dxz  x2-y2    tot
    1  0.000  0.075  0.075  0.000  0.001  0.000  0.243  0.001  0.081  0.476
 
band    24 # energy   65.64618583 # occ.  0.00000000
 
ion      s     py     pz     px    dxy    dyz    dz2    dxz  x2-y2    tot
    1  0.000  0.000  0.000  0.000  0.010  0.000  0.037  0.010  0.012  0.070
 

 k-point     3 :    0.25000000 0.05000000 0.05000000     weight = 0.00600000

band     1 # energy  -39.06813206 # occ.  2.00000000
 
ion      s     py     pz     px    dxy    dyz    dz2    dxz  x2-y2    tot
    1  0.000  0.390  0.390  0.209  0.000  0.000  0.000  0.000  0.000  0.990
 
band     2 # energy  -38.84888059 # occ.  2.00000000
 
ion      s     py     pz     px    dxy    dyz    dz2    dxz  x2-y2    tot
    1  0.000  0.105  0.105  0.786  0.000  0.000  0.000  0.000  0.000  0.997
 
band     3 # energy  -38.82348481 # occ.  2.00000000
 
ion      s     py     pz     px    dxy    dyz    dz2    dxz  x2-y2    tot
    1  0.000  0.499  0.499  0.000  0.000  0.000  0.000  0.000  0.000  0.997
 
band     4 # energy    4.58008836 # occ.  2.00000000
 
ion      s     py     pz     px    dxy    dyz    dz2    dxz  x2-y2    tot
    1  0.374  0.010  0.010  0.003  0.014  0.025  0.000  0.014  0.001  0.451
 
band     5 # energy    9.02994234 # occ.  2.00000000
 
ion      s     py     pz     px    dxy    dyz    dz2    dxz  x2-y2    tot
    1  0.012  0.004  0.004  0.008  0.338  0.063  0.000  0.338  0.000  0.767
 
band     6 # energy   10.09022248 # occ.  2.00000000
 
ion      s     py     pz     px    dxy    dyz    dz2    dxz  x2-y2    tot
    1  0.001  0.002  0.002  0.000  0.035  0.577  0.050  0.035  0.149  0.851
 
band     7 # energy   10.13560221 # occ.  2.00000000
 
ion      s     py     pz     px    dxy    dyz    dz2    dxz  x2-y2    tot
    1  0.000  0.000  0.000  0.000  0.351  0.000  0.121  0.351  0.040  0.863
 
band     8 # energy   11.81454395 # occ.  2.00000000
 
ion      s     py     pz     px    dxy    dyz    dz2    dxz  x2-y2    tot
    1  0.000  0.000  0.000  0.000  0.084  0.000  0.544  0.084  0.181  0.893
 
band     9 # energy   12.48769501 # occ.  2.00000000
 
ion      s     py     pz     px    dxy    dyz    dz2    dxz  x2-y2    tot
    1  0.002  0.001  0.001  0.000  0.011  0.182  0.175  0.011  0.526  0.911
 
band    10 # energy   28.84156283 # occ.  0.00000000
 
ion      s     py     pz     px    dxy    dyz    dz2    dxz  x2-y2    tot
    1  0.070  0.022  0.022  0.019  0.015  0.033  0.001  0.015  0.004  0.203
 
band    11 # energy   30.74864669 # occ.  0.00000000
 
ion      s     py     pz     px    dxy    dyz    dz2    dxz  x2-y2    tot
    1  0.006  0.005  0.005  0.011  0.058  0.023  0.000  0.058  0.000  0.167
 
band    12 # energy   35.80943250 # occ.  0.00000000
 
ion      s     py     pz     px    dxy    dyz    dz2    dxz  x2-y2    tot
    1  0.000  0.007  0.007  0.117  0.018  0.019  0.008  0.018  0.024  0.217
 
band    13 # energy   37.69769564 # occ.  0.00000000
 
ion      s     py     pz     px    dxy    dyz    dz2    dxz  x2-y2    tot
    1  0.000  0.027  0.027  0.000  0.006  0.000  0.065  0.006  0.022  0.151
 
band    14 # energy   38.02799945 # occ.  0.00000000
 
ion      s     py     pz     px    dxy    dyz    dz2    dxz  x2-y2    tot
    1  0.043  0.099  0.099  0.002  0.000  0.064  0.001  0.000  0.004  0.311
 
band    15 # energy   41.43354424 # occ.  0.00000000
 
ion      s     py     pz     px    dxy    dyz    dz2    dxz  x2-y2    tot
    1  0.004  0.000  0.000  0.145  0.034  0.017  0.007  0.034  0.022  0.264
 
band    16 # energy   41.94846274 # occ.  0.00000000
 
ion      s     py     pz     px    dxy    dyz    dz2    dxz  x2-y2    tot
    1  0.000  0.114  0.114  0.000  0.076  0.000  0.028  0.076  0.009  0.416
 
band    17 # energy   48.18288693 # occ.  0.00000000
 
ion      s     py     pz     px    dxy    dyz    dz2    dxz  x2-y2    tot
    1  0.063  0.001  0.001  0.000  0.001  0.003  0.002  0.001  0.006  0.077
 
band    18 # energy   49.76000534 # occ.  0.00000000
 
ion      s     py     pz     px    dxy    dyz    dz2    dxz  x2-y2    tot
    1  0.000  0.148  0.148  0.000  0.122  0.000  0.063  0.122  0.021  0.624
 
band    19 # energy   53.38149612 # occ.  0.00000000
 
ion      s     py     pz     px    dxy    dyz    dz2    dxz  x2-y2    tot
    1  0.080  0.069  0.069  0.097  0.002  0.283  0.022  0.002  0.066  0.691
 
band    20 # energy   54.34222155 # occ.  0.00000000
 
ion      s     py     pz     px    dxy    dyz    dz2    dxz  x2-y2    tot
    1  6.267  0.000  0.000  0.000  0.000  0.000  0.000  0.000  0.001  6.270
 
band    21 # energy   55.12071244 # occ.  0.00000000
 
ion      s     py     pz     px    dxy    dyz    dz2    dxz  x2-y2    tot
    1  0.088  0.016  0.016  0.001  0.083  0.000  0.035  0.083  0.105  0.426
 
band    22 # energy   58.20085565 # occ.  0.00000000
 
ion      s     py     pz     px    dxy    dyz    dz2    dxz  x2-y2    tot
    1  0.042  0.012  0.012  0.299  0.096  0.047  0.005  0.096  0.014  0.623
 
band    23 # energy   59.61858649 # occ.  0.00000000
 
ion      s     py     pz     px    dxy    dyz    dz2    dxz  x2-y2    tot
    1  0.000  0.103  0.103  0.000  0.009  0.000  0.127  0.009  0.042  0.394
 
band    24 # energy   65.98437844 # occ.  0.00000000
 
ion      s     py     pz     px    dxy    dyz    dz2    dxz  x2-y2    tot
    1  0.000  0.000  0.000  0.000  0.004  0.000  0.045  0.004  0.015  0.068
 

 k-point     4 :    0.35000000 0.05000000 0.05000000     weight = 0.00600000

band     1 # energy  -39.26846382 # occ.  2.00000000
 
ion      s     py     pz     px    dxy    dyz    dz2    dxz  x2-y2    tot
    1  0.000  0.359  0.359  0.267  0.000  0.000  0.000  0.000  0.000  0.984
 
band     2 # energy  -38.87919516 # occ.  2.00000000
 
ion      s     py     pz     px    dxy    dyz    dz2    dxz  x2-y2    tot
    1  0.000  0.135  0.135  0.726  0.000  0.000  0.000  0.000  0.000  0.996
 
band     3 # energy  -38.85435772 # occ.  2.00000000
 
ion      s     py     pz     px    dxy    dyz    dz2    dxz  x2-y2    tot
    1  0.000  0.498  0.498  0.000  0.000  0.000  0.000  0.000  0.000  0.997
 
band     4 # energy    5.56257604 # occ.  2.00000000
 
ion      s     py     pz     px    dxy    dyz    dz2    dxz  x2-y2    tot
    1  0.255  0.007  0.007  0.002  0.091  0.101  0.000  0.091  0.001  0.556
 
band     5 # energy    9.71508446 # occ.  2.00000000
 
ion      s     py     pz     px    dxy    dyz    dz2    dxz  x2-y2    tot
    1  0.047  0.012  0.012  0.020  0.257  0.018  0.014  0.257  0.042  0.681
 
band     6 # energy    9.90794475 # occ.  2.00000000
 
ion      s     py     pz     px    dxy    dyz    dz2    dxz  x2-y2    tot
    1  0.019  0.010  0.010  0.005  0.001  0.356  0.088  0.001  0.264  0.755
 
band     7 # energy    9.94366962 # occ.  2.00000000
 
ion      s     py     pz     px    dxy    dyz    dz2    dxz  x2-y2    tot
    1  0.000  0.000  0.000  0.000  0.218  0.000  0.313  0.218  0.104  0.853
 
band     8 # energy   12.59587207 # occ.  2.00000000
 
ion      s     py     pz     px    dxy    dyz    dz2    dxz  x2-y2    tot
    1  0.000  0.001  0.001  0.000  0.224  0.000  0.343  0.224  0.114  0.907
 
band     9 # energy   13.37034349 # occ.  2.00000000
 
ion      s     py     pz     px    dxy    dyz    dz2    dxz  x2-y2    tot
    1  0.008  0.003  0.003  0.000  0.028  0.364  0.120  0.028  0.359  0.913
 
band    10 # energy   25.68891648 # occ.  0.00000000
 
ion      s     py     pz     px    dxy    dyz    dz2    dxz  x2-y2    tot
    1  0.170  0.029  0.029  0.031  0.058  0.071  0.001  0.058  0.003  0.451
 
band    11 # energy   29.86874652 # occ.  0.00000000
 
ion      s     py     pz     px    dxy    dyz    dz2    dxz  x2-y2    tot
    1  0.013  0.011  0.011  0.016  0.041  0.015  0.001  0.041  0.002  0.151
 
band    12 # energy   35.49080983 # occ.  0.00000000
 
ion      s     py     pz     px    dxy    dyz    dz2    dxz  x2-y2    tot
    1  0.010  0.052  0.052  0.135  0.031  0.035  0.000  0.031  0.000  0.346
 
band    13 # energy   37.78241786 # occ.  0.00000000
 
ion      s     py     pz     px    dxy    dyz    dz2    dxz  x2-y2    tot
    1  0.000  0.111  0.111  0.000  0.034  0.000  0.024  0.034  0.008  0.321
 
band    14 # energy   38.56234282 # occ.  0.00000000
 
ion      s     py     pz     px    dxy    dyz    dz2    dxz  x2-y2    tot
    1  0.015  0.005  0.005  0.055  0.000  0.017  0.015  0.000  0.045  0.158
 
band    15 # energy   40.75495018 # occ.  0.00000000
 
ion      s     py     pz     px    dxy    dyz    dz2    dxz  x2-y2    tot
    1  0.000  0.020  0.020  0.000  0.020  0.000  0.127  0.020  0.042  0.250
 
band    16 # energy   41.09474157 # occ.  0.00000000
 
ion      s     py     pz     px    dxy    dyz    dz2    dxz  x2-y2    tot
    1  0.023  0.009  0.009  0.024  0.003  0.000  0.018  0.003  0.054  0.141
 
band    17 # energy   50.06755433 # occ.  0.00000000
 
ion      s     py     pz     px    dxy    dyz    dz2    dxz  x2-y2    tot
    1  0.000  0.147  0.147  0.000  0.100  0.000  0.053  0.100  0.018  0.563
 
band    18 # energy   52.45812333 # occ.  0.00000000
 
ion      s     py     pz     px    dxy    dyz    dz2    dxz  x2-y2    tot
    1  0.149  0.008  0.008  0.059  0.000  0.174  0.018  0.000  0.055  0.472
 
band    19 # energy   54.32054963 # occ.  0.00000000
 
ion      s     py     pz     px    dxy    dyz    dz2    dxz  x2-y2    tot
    1  2.936  0.023  0.023  0.042  0.021  0.031  0.011  0.021  0.033  3.140
 
band    20 # energy   54.36390048 # occ.  0.00000000
 
ion      s     py     pz     px    dxy    dyz    dz2    dxz  x2-y2    tot
    1  3.355  0.019  0.019  0.033  0.013  0.022  0.007  0.013  0.022  3.503
 
band    21 # energy   55.33856114 # occ.  0.00000000
 
ion      s     py     pz     px    dxy    dyz    dz2    dxz  x2-y2    tot
    1  0.065  0.012  0.012  0.021  0.076  0.006  0.010  0.076  0.031  0.309
 
band    22 # energy   58.45181532 # occ.  0.00000000
 
ion      s     py     pz     px    dxy    dyz    dz2    dxz  x2-y2    tot
    1  0.014  0.042  0.042  0.160  0.034  0.085  0.001  0.034  0.003  0.416
 
band    23 # energy   60.27075477 # occ.  0.00000000
 
ion      s     py     pz     px    dxy    dyz    dz2    dxz  x2-y2    tot
    1  0.000  0.112  0.112  0.000  0.016  0.000  0.066  0.016  0.022  0.345
 
band    24 # energy   65.04284418 # occ.  0.00000000
 
ion      s     py     pz     px    dxy    dyz    dz2    dxz  x2-y2    tot
    1  0.000  0.002  0.002  0.000  0.037  0.000  0.073  0.037  0.024  0.174
 

 k-point     5 :    0.45000000 0.05000000 0.05000000     weight = 0.00600000

band     1 # energy  -39.41533805 # occ.  2.00000000
 
ion      s     py     pz     px    dxy    dyz    dz2    dxz  x2-y2    tot
    1  0.000  0.338  0.338  0.303  0.000  0.000  0.000  0.000  0.000  0.980
 
band     2 # energy  -38.89813686 # occ.  2.00000000
 
ion      s     py     pz     px    dxy    dyz    dz2    dxz  x2-y2    tot
    1  0.000  0.154  0.154  0.687  0.000  0.000  0.000  0.000  0.000  0.995
 
band     3 # energy  -38.87999740 # occ.  2.00000000
 
ion      s     py     pz     px    dxy    dyz    dz2    dxz  x2-y2    tot
    1  0.000  0.498  0.498  0.000  0.000  0.000  0.000  0.000  0.000  0.996
 
band     4 # energy    5.74930017 # occ.  2.00000000
 
ion      s     py     pz     px    dxy    dyz    dz2    dxz  x2-y2    tot
    1  0.163  0.002  0.002  0.000  0.159  0.162  0.000  0.159  0.000  0.647
 
band     5 # energy    9.55897979 # occ.  2.00000000
 
ion      s     py     pz     px    dxy    dyz    dz2    dxz  x2-y2    tot
    1  0.000  0.000  0.000  0.000  0.055  0.248  0.120  0.055  0.359  0.838
 
band     6 # energy    9.67660331 # occ.  2.00000000
 
ion      s     py     pz     px    dxy    dyz    dz2    dxz  x2-y2    tot
    1  0.000  0.000  0.000  0.000  0.175  0.000  0.372  0.175  0.124  0.845
 
band     7 # energy   11.68753519 # occ.  2.00000000
 
ion      s     py     pz     px    dxy    dyz    dz2    dxz  x2-y2    tot
    1  0.049  0.043  0.043  0.045  0.100  0.007  0.013  0.100  0.038  0.438
 
band     8 # energy   13.61496188 # occ.  2.00000000
 
ion      s     py     pz     px    dxy    dyz    dz2    dxz  x2-y2    tot
    1  0.000  0.000  0.000  0.000  0.279  0.000  0.284  0.279  0.095  0.937
 
band     9 # energy   14.38403459 # occ.  0.00000000
 
ion      s     py     pz     px    dxy    dyz    dz2    dxz  x2-y2    tot
    1  0.016  0.011  0.011  0.006  0.031  0.407  0.088  0.031  0.264  0.865
 
band    10 # energy   22.17490977 # occ.  0.00000000
 
ion      s     py     pz     px    dxy    dyz    dz2    dxz  x2-y2    tot
    1  0.311  0.016  0.016  0.020  0.112  0.104  0.001  0.112  0.002  0.692
 
band    11 # energy   28.49755409 # occ.  0.00000000
 
ion      s     py     pz     px    dxy    dyz    dz2    dxz  x2-y2    tot
    1  0.003  0.005  0.005  0.007  0.010  0.000  0.001  0.010  0.003  0.045
 
band    12 # energy   33.70178486 # occ.  0.00000000
 
ion      s     py     pz     px    dxy    dyz    dz2    dxz  x2-y2    tot
    1  0.004  0.038  0.038  0.146  0.016  0.003  0.000  0.016  0.001  0.262
 
band    13 # energy   34.75624903 # occ.  0.00000000
 
ion      s     py     pz     px    dxy    dyz    dz2    dxz  x2-y2    tot
    1  0.000  0.108  0.108  0.000  0.008  0.000  0.014  0.008  0.005  0.250
 
band    14 # energy   42.00336036 # occ.  0.00000000
 
ion      s     py     pz     px    dxy    dyz    dz2    dxz  x2-y2    tot
    1  0.007  0.000  0.000  0.031  0.000  0.072  0.042  0.000  0.125  0.277
 
band    15 # energy   43.41876849 # occ.  0.00000000
 
ion      s     py     pz     px    dxy    dyz    dz2    dxz  x2-y2    tot
    1  0.000  0.004  0.004  0.000  0.051  0.000  0.215  0.051  0.072  0.398
 
band    16 # energy   43.72073132 # occ.  0.00000000
 
ion      s     py     pz     px    dxy    dyz    dz2    dxz  x2-y2    tot
    1  0.057  0.010  0.010  0.007  0.051  0.004  0.014  0.051  0.043  0.248
 
band    17 # energy   50.47824902 # occ.  0.00000000
 
ion      s     py     pz     px    dxy    dyz    dz2    dxz  x2-y2    tot
    1  0.000  0.173  0.173  0.000  0.035  0.000  0.010  0.035  0.003  0.428
 
band    18 # energy   52.11370976 # occ.  0.00000000
 
ion      s     py     pz     px    dxy    dyz    dz2    dxz  x2-y2    tot
    1  0.099  0.005  0.005  0.154  0.004  0.136  0.015  0.004  0.045  0.467
 
band    19 # energy   53.13028185 # occ.  0.00000000
 
ion      s     py     pz     px    dxy    dyz    dz2    dxz  x2-y2    tot
    1  0.022  0.068  0.068  0.039  0.048  0.001  0.010  0.048  0.031  0.335
 
band    20 # energy   54.34694009 # occ.  0.00000000
 
ion      s     py     pz     px    dxy    dyz    dz2    dxz  x2-y2    tot
    1  6.277  0.000  0.000  0.000  0.000  0.000  0.000  0.000  0.000  6.277
 
band    21 # energy   57.73564624 # occ.  0.00000000
 
ion      s     py     pz     px    dxy    dyz    dz2    dxz  x2-y2    tot
    1  0.005  0.045  0.045  0.097  0.011  0.065  0.002  0.011  0.006  0.287
 
band    22 # energy   60.60205737 # occ.  0.00000000
 
ion      s     py     pz     px    dxy    dyz    dz2    dxz  x2-y2    tot
    1  0.047  0.002  0.002  0.000  0.001  0.001  0.000  0.001  0.000  0.053
 
band    23 # energy   60.61716176 # occ.  0.00000000
 
ion      s     py     pz     px    dxy    dyz    dz2    dxz  x2-y2    tot
    1  0.000  0.084  0.084  0.000  0.001  0.000  0.029  0.001  0.010  0.209
 
band    24 # energy   62.10929625 # occ.  0.00000000
 
ion      s     py     pz     px    dxy    dyz    dz2    dxz  x2-y2    tot
    1  0.000  0.026  0.026  0.000  0.125  0.000  0.002  0.125  0.001  0.306
 

 k-point     6 :   -0.45000000 0.05000000 0.05000000     weight = 0.00600000

band     1 # energy  -39.45643894 # occ.  2.00000000
 
ion      s     py     pz     px    dxy    dyz    dz2    dxz  x2-y2    tot
    1  0.000  0.322  0.322  0.334  0.000  0.000  0.000  0.000  0.000  0.979
 
band     2 # energy  -38.89849562 # occ.  2.00000000
 
ion      s     py     pz     px    dxy    dyz    dz2    dxz  x2-y2    tot
    1  0.000  0.170  0.170  0.656  0.000  0.000  0.000  0.000  0.000  0.995
 
band     3 # energy  -38.89200206 # occ.  2.00000000
 
ion      s     py     pz     px    dxy    dyz    dz2    dxz  x2-y2    tot
    1  0.000  0.498  0.498  0.000  0.000  0.000  0.000  0.000  0.000  0.996
 
band     4 # energy    5.73587181 # occ.  2.00000000
 
ion      s     py     pz     px    dxy    dyz    dz2    dxz  x2-y2    tot
    1  0.146  0.000  0.000  0.001  0.169  0.180  0.000  0.169  0.000  0.664
 
band     5 # energy    9.45207870 # occ.  2.00000000
 
ion      s     py     pz     px    dxy    dyz    dz2    dxz  x2-y2    tot
    1  0.000  0.000  0.000  0.000  0.059  0.209  0.127  0.059  0.380  0.834
 
band     6 # energy    9.61549011 # occ.  2.00000000
 
ion      s     py     pz     px    dxy    dyz    dz2    dxz  x2-y2    tot
    1  0.000  0.000  0.000  0.000  0.171  0.000  0.375  0.171  0.125  0.843
 
band     7 # energy   12.48994959 # occ.  2.00000000
 
ion      s     py     pz     px    dxy    dyz    dz2    dxz  x2-y2    tot
    1  0.003  0.047  0.047  0.045  0.024  0.176  0.024  0.024  0.072  0.461
 
band     8 # energy   14.12360157 # occ.  0.18822071
 
ion      s     py     pz     px    dxy    dyz    dz2    dxz  x2-y2    tot
    1  0.000  0.000  0.000  0.000  0.288  0.000  0.286  0.288  0.095  0.957
 
band     9 # energy   14.78421039 # occ.  0.00000000
 
ion      s     py     pz     px    dxy    dyz    dz2    dxz  x2-y2    tot
    1  0.002  0.024  0.024  0.028  0.078  0.215  0.068  0.078  0.205  0.721
 
band    10 # energy   20.69569170 # occ.  0.00000000
 
ion      s     py     pz     px    dxy    dyz    dz2    dxz  x2-y2    tot
    1  0.398  0.002  0.002  0.000  0.137  0.140  0.000  0.137  0.000  0.816
 
band    11 # energy   28.14550218 # occ.  0.00000000
 
ion      s     py     pz     px    dxy    dyz    dz2    dxz  x2-y2    tot
    1  0.000  0.004  0.004  0.005  0.000  0.005  0.001  0.000  0.003  0.023
 
band    12 # energy   33.51901437 # occ.  0.00000000
 
ion      s     py     pz     px    dxy    dyz    dz2    dxz  x2-y2    tot
    1  0.003  0.036  0.036  0.142  0.003  0.007  0.002  0.003  0.006  0.239
 
band    13 # energy   33.53554395 # occ.  0.00000000
 
ion      s     py     pz     px    dxy    dyz    dz2    dxz  x2-y2    tot
    1  0.000  0.109  0.109  0.000  0.001  0.000  0.004  0.001  0.001  0.226
 
band    14 # energy   43.69236200 # occ.  0.00000000
 
ion      s     py     pz     px    dxy    dyz    dz2    dxz  x2-y2    tot
    1  0.000  0.003  0.003  0.000  0.057  0.000  0.221  0.057  0.074  0.415
 
band    15 # energy   43.96910146 # occ.  0.00000000
 
ion      s     py     pz     px    dxy    dyz    dz2    dxz  x2-y2    tot
    1  0.000  0.000  0.000  0.002  0.017  0.083  0.078  0.017  0.233  0.432
 
band    16 # energy   45.42111251 # occ.  0.00000000
 
ion      s     py     pz     px    dxy    dyz    dz2    dxz  x2-y2    tot
    1  0.104  0.003  0.003  0.000  0.073  0.076  0.000  0.073  0.000  0.332
 
band    17 # energy   50.52604899 # occ.  0.00000000
 
ion      s     py     pz     px    dxy    dyz    dz2    dxz  x2-y2    tot
    1  0.025  0.091  0.091  0.049  0.009  0.001  0.000  0.009  0.000  0.275
 
band    18 # energy   51.14153302 # occ.  0.00000000
 
ion      s     py     pz     px    dxy    dyz    dz2    dxz  x2-y2    tot
    1  0.002  0.001  0.001  0.212  0.003  0.000  0.002  0.003  0.007  0.231
 
band    19 # energy   51.84135641 # occ.  0.00000000
 
ion      s     py     pz     px    dxy    dyz    dz2    dxz  x2-y2    tot
    1  0.000  0.177  0.177  0.000  0.003  0.000  0.023  0.003  0.008  0.391
 
band    20 # energy   54.34389792 # occ.  0.00000000
 
ion      s     py     pz     px    dxy    dyz    dz2    dxz  x2-y2    tot
    1  6.291  0.000  0.000  0.000  0.000  0.000  0.000  0.000  0.000  6.291
 
band    21 # energy   58.80076727 # occ.  0.00000000
 
ion      s     py     pz     px    dxy    dyz    dz2    dxz  x2-y2    tot
    1  0.000  0.064  0.064  0.000  0.056  0.000  0.000  0.056  0.000  0.241
 
band    22 # energy   59.36769977 # occ.  0.00000000
 
ion      s     py     pz     px    dxy    dyz    dz2    dxz  x2-y2    tot
    1  0.009  0.016  0.016  0.065  0.011  0.051  0.001  0.011  0.002  0.182
 