Pt-hcc                                  
   1.00000000000000     
     2.697913    0.000000    0.000000
    -1.348956    2.336461    0.000000
     0.000000    0.000000    4.674071
   Pt
     2
Direct
  0.000000  0.000000  0.000000
  0.333333  0.666667  0.500000
 
   40   40   64
  257.94      257.64      256.24      252.34      244.20      230.38      210.31      184.70      155.44      125.19    
  96.723      72.234      52.937      38.930      29.408      23.024      18.642      15.755      13.984      13.038    
  12.741      13.039      13.983      15.756      18.640      23.026      29.407      38.929      52.938      72.233    
  96.723      125.19      155.44      184.70      210.31      230.38      244.20      252.34      256.24      257.64    
  257.64      257.64      256.79      254.10      248.01      236.88      219.71      196.60      168.89      138.92    
  109.45      83.010      61.284      44.893      33.422      25.747      20.506      16.954      14.692      13.373    
  12.772      12.772      13.373      14.691      16.954      20.506      25.745      33.424      44.892      61.285    
  83.010      109.45      138.92      168.89      196.60      219.71      236.88      248.01      254.10      256.79    
  256.24      256.79      256.24      254.10      249.17      239.91      225.12      204.45      178.70      149.79    
  120.27      92.757      69.278      50.890      37.594      28.555      22.445      18.234      15.462      13.757    
  12.847      12.561      12.847      13.757      15.462      18.233      22.448      28.554      37.595      50.890    
  69.277      92.758      120.27      149.79      178.70      204.45      225.12      239.91      249.17      254.10    
  252.34      254.12      254.12      252.34      248.01      239.91      226.88      208.32      184.63      157.26    
  128.46      100.74      76.283      56.460      41.654      31.337      24.368      19.540      16.266      14.179    
  12.959      12.404      12.403      12.960      14.178      16.267      19.538      24.368      31.337      41.653    
  56.461      76.283      100.74      128.46      157.26      184.63      208.32      226.88      239.91      248.01    
  244.20      248.04      249.21      248.04      244.20      236.88      225.12      208.32      186.61      161.06    
  133.56      106.39      81.732      61.136      45.278      33.924      26.170      20.797      17.068      14.615    
  13.101      12.291      12.035      12.291      13.101      14.615      17.068      20.798      26.168      33.925    
  45.277      61.137      81.731      106.39      133.56      161.06      186.60      208.32      225.12      236.88    
  230.38      236.92      239.97      239.97      236.92      230.38      219.71      204.45      184.63      161.06    
  135.28      109.31      85.184      64.506      48.143      36.112      27.744      21.927      17.822      15.042    
  13.259      12.215      11.736      11.736      12.215      13.259      15.042      17.820      21.929      27.743    
  36.113      48.143      64.506      85.184      109.31      135.28      161.06      184.63      204.45      219.71    
  210.31      219.75      225.18      226.95      225.19      219.75      210.31      196.60      178.70      157.26    
  133.56      109.31      86.365      66.271      49.981      37.704      28.977      22.858      18.475      15.431    
  13.417      12.169      11.494      11.282      11.494      12.169      13.417      15.432      18.474      22.859    
  28.977      37.704      49.981      66.270      86.365      109.31      133.56      157.26      178.70      196.60    
  184.70      196.63      204.50      208.39      208.39      204.50      196.63      184.70      168.89      149.79    
  128.46      106.39      85.183      66.271      50.614      38.543      29.766      23.522      18.981      15.754    
  13.562      12.142      11.304      10.915      10.915      11.303      12.143      13.561      15.755      18.981    
  23.522      29.767      38.542      50.615      66.270      85.184      106.39      128.46      149.79      168.89    
  155.44      168.90      178.73      184.67      186.66      184.68      178.73      168.90      155.44      138.92    
  120.27      100.74      81.731      64.507      49.981      38.543      30.038      23.867      19.302      15.986    
  13.676      12.129      11.158      10.627      10.459      10.627      11.158      12.129      13.676      15.986    
  19.303      23.867      30.039      38.542      49.981      64.506      81.731      100.74      120.27      138.92    
  125.19      138.91      149.78      157.27      161.07      161.07      157.27      149.78      138.91      125.19    
  109.45      92.757      76.283      61.136      48.142      37.705      29.766      23.868      19.412      16.107    
  13.750      12.124      11.056      10.412      10.111      10.111      10.412      11.055      12.124      13.750    
  16.107      19.412      23.867      29.767      37.704      48.143      61.137      76.283      92.758      109.45    
  96.723      109.43      120.23      128.42      133.52      135.24      133.52      128.42      120.23      109.43    
  96.723      83.010      69.278      56.460      45.277      36.114      28.976      23.523      19.302      16.108    
  13.775      12.122      10.994      10.269      9.8658      9.7359      9.8658      10.269      10.994      12.122    
  13.776      16.107      19.303      23.522      28.977      36.113      45.277      56.461      69.277      83.010    
  72.233      82.970      92.689      100.66      106.30      109.21      109.21      106.30      100.66      92.689    
  82.970      72.234      61.285      50.889      41.654      33.924      27.742      22.859      18.981      15.987    
  13.750      12.123      10.974      10.198      9.7186      9.4906      9.4903      9.7188      10.197      10.974    
  12.122      13.750      15.986      18.981      22.859      27.743      33.925      41.653      50.890      61.285    
  52.938      61.239      69.191      76.165      81.594      85.034      86.213      85.034      81.594      76.166    
  69.192      61.239      52.937      44.892      37.596      31.336      26.170      21.928      18.474      15.755    
  13.675      12.124      10.994      10.198      9.6697      9.3687      9.2707      9.3687      9.6697      10.197    
  10.994      12.124      13.676      15.755      18.474      21.929      26.168      31.337      37.595      44.892    
  38.929      44.846      50.798      56.329      60.973      64.323      66.076      66.077      64.323      60.973    
  56.328      50.797      44.846      38.931      33.423      28.553      24.370      20.796      17.821      15.431    
  13.561      12.130      11.055      10.269      9.7187      9.3687      9.1983      9.1982      9.3687      9.7188    
  10.269      11.055      12.129      13.561      15.432      17.820      20.798      24.368      28.554      33.424    
  29.407      33.382      37.507      41.523      45.109      47.947      49.768      50.396      49.768      47.947    
  45.110      41.524      37.508      33.381      29.406      25.748      22.447      19.538      17.070      15.041    
  13.418      12.142      11.158      10.412      9.8656      9.4904      9.2708      9.1983      9.2707      9.4903    
  9.8658      10.412      11.158      12.143      13.417      15.042      17.068      19.538      22.448      25.745    
  23.026      25.709      28.478      31.221      33.770      35.926      37.494      38.320      38.320      37.494    
  35.926      33.769      31.219      28.477      25.712      23.026      20.504      18.234      16.267      14.614    
  13.259      12.169      11.303      10.627      10.111      9.7361      9.4904      9.3687      9.3687      9.4906    
  9.7359      10.111      10.627      11.303      12.169      13.259      14.615      16.267      18.233      20.506    
  18.640      20.477      22.386      24.270      26.034      27.577      28.788      29.562      29.829      29.562    
  28.787      27.578      26.035      24.272      22.385      20.475      18.641      16.955      15.461      14.178    
  13.102      12.215      11.494      10.915      10.459      10.111      9.8656      9.7187      9.6697      9.7186    
  9.8658      10.111      10.459      10.915      11.494      12.215      13.101      14.178      15.462      16.954    
  15.756      16.932      18.184      19.459      20.689      21.794      22.700      23.346      23.682      23.682    
  23.346      22.701      21.793      20.687      19.459      18.185      16.932      15.755      14.691      13.758    
  12.960      12.290      11.736      11.282      10.915      10.627      10.412      10.269      10.198      10.198    
  10.269      10.412      10.627      10.915      11.282      11.736      12.291      12.960      13.757      14.691    
  13.983      14.673      15.424      16.206      16.983      17.712      18.345      18.836      19.147      19.254    
  19.147      18.836      18.346      17.714      16.984      16.206      15.423      14.673      13.984      13.373    
  12.847      12.403      12.036      11.736      11.494      11.303      11.158      11.055      10.994      10.974    
  10.994      11.056      11.158      11.304      11.494      11.736      12.035      12.403      12.847      13.373    
  13.039      13.359      13.726      14.130      14.549      14.959      15.333      15.643      15.865      15.982    
  15.982      15.866      15.643      15.332      14.958      14.548      14.130      13.727      13.359      13.038    
  12.772      12.561      12.403      12.290      12.215      12.169      12.142      12.130      12.124      12.123    
  12.122      12.124      12.129      12.142      12.169      12.215      12.291      12.404      12.561      12.772    
  12.741      12.759      12.821      12.921      13.049      13.194      13.341      13.475      13.583      13.653    
  13.677      13.653      13.583      13.476      13.342      13.194      13.050      12.921      12.821      12.759    
  12.742      12.772      12.847      12.960      13.102      13.259      13.418      13.561      13.675      13.750    
  13.775      13.750      13.676      13.562      13.417      13.259      13.101      12.959      12.847      12.772    
  13.038      12.759      12.536      12.368      12.247      12.163      12.110      12.078      12.061      12.053    
  12.050      12.050      12.053      12.061      12.078      12.110      12.163      12.246      12.368      12.537    
  12.759      13.038      13.373      13.758      14.178      14.614      15.041      15.431      15.755      15.987    
  16.108      16.107      15.986      15.754      15.431      15.042      14.615      14.179      13.757      13.373    
  13.984      13.358      12.821      12.369      11.994      11.690      11.445      11.252      11.106      11.003    
  10.942      10.922      10.942      11.003      11.106      11.252      11.445      11.690      11.995      12.368    
  12.821      13.359      13.984      14.691      15.461      16.267      17.070      17.821      18.474      18.981    
  19.302      19.412      19.302      18.981      18.475      17.822      17.068      16.266      15.462      14.692    
  15.755      14.674      13.726      12.920      12.247      11.690      11.236      10.871      10.585      10.373    
  10.232      10.162      10.162      10.232      10.373      10.585      10.871      11.236      11.690      12.246    
  12.921      13.727      14.673      15.755      16.955      18.234      19.538      20.796      21.928      22.859    
  23.523      23.868      23.867      23.522      22.858      21.927      20.797      19.540      18.234      16.954    
  18.642      16.931      15.423      14.131      13.049      12.163      11.445      10.871      10.420      10.078    
  9.8373      9.6935      9.6457      9.6936      9.8375      10.078      10.420      10.871      11.445      12.163    
  13.050      14.130      15.423      16.932      18.641      20.504      22.447      24.370      26.170      27.742    
  28.976      29.766      30.038      29.766      28.977      27.744      26.170      24.368      22.445      20.506    
  23.024      20.477      18.185      16.204      14.549      13.194      12.110      11.253      10.585      10.078    
  9.7109      9.4709      9.3519      9.3520      9.4707      9.7109      10.078      10.585      11.252      12.110    
  13.194      14.548      16.206      18.185      20.475      23.026      25.748      28.553      31.336      33.924    
  36.114      37.705      38.543      38.543      37.704      36.112      33.924      31.337      28.555      25.747    
  29.408      25.711      22.383      19.461      16.983      14.958      13.341      12.077      11.106      10.373    
  9.8374      9.4706      9.2564      9.1856      9.2565      9.4707      9.8375      10.373      11.106      12.078    
  13.342      14.958      16.984      19.459      22.385      25.712      29.406      33.423      37.596      41.654    
  45.277      48.142      49.981      50.614      49.981      48.143      45.278      41.654      37.594      33.422    
  38.930      33.379      28.480      24.269      20.688      17.714      15.332      13.476      12.060      11.004    
  10.232      9.6939      9.3518      9.1860      9.1856      9.3520      9.6936      10.232      11.003      12.061    
  13.476      15.332      17.714      20.687      24.272      28.477      33.381      38.931      44.892      50.889    
  56.460      61.136      64.507      66.271      66.271      64.506      61.136      56.460      50.890      44.893    
  52.937      44.847      37.506      31.220      26.035      21.792      18.346      15.642      13.583      12.053    
  10.942      10.162      9.6458      9.3518      9.2564      9.3519      9.6457      10.162      10.942      12.053    
  13.583      15.643      18.346      21.793      26.035      31.219      37.508      44.846      52.937      61.285    
  69.278      76.283      81.731      85.183      86.365      85.184      81.732      76.283      69.278      61.284    
  72.234      61.238      50.798      41.524      33.768      27.579      22.700      18.837      15.865      13.653    
  12.050      10.922      10.162      9.6939      9.4706      9.4709      9.6935      10.162      10.922      12.050    
  13.653      15.866      18.836      22.701      27.578      33.769      41.524      50.797      61.239      72.234    
  83.010      92.757      100.74      106.39      109.31      109.31      106.39      100.74      92.757      83.010    
  96.723      82.971      69.191      56.328      45.110      35.925      28.788      23.346      19.147      15.982    
  13.677      12.050      10.942      10.232      9.8374      9.7109      9.8373      10.232      10.942      12.050    
  13.677      15.982      19.147      23.346      28.787      35.926      45.110      56.328      69.192      82.970    
  96.723      109.45      120.27      128.46      133.56      135.28      133.56      128.46      120.27      109.45    
  125.19      109.43      92.689      76.166      60.973      47.948      37.494      29.562      23.682      19.253    
  15.982      13.653      12.053      11.004      10.373      10.078      10.078      10.373      11.003      12.053    
  13.653      15.982      19.254      23.682      29.562      37.494      47.947      60.973      76.166      92.689    
  109.43      125.19      138.92      149.79      157.26      161.06      161.06      157.26      149.79      138.92    
  155.44      138.91      120.23      100.66      81.594      64.322      49.768      38.320      29.828      23.682    
  19.147      15.865      13.583      12.060      11.106      10.585      10.420      10.585      11.106      12.061    
  13.583      15.865      19.147      23.682      29.829      38.320      49.768      64.323      81.594      100.66    
  120.23      138.91      155.44      168.89      178.70      184.63      186.61      184.63      178.70      168.89    
  184.70      168.90      149.78      128.42      106.30      85.035      66.076      50.396      38.320      29.562    
  23.346      18.837      15.642      13.476      12.077      11.253      10.871      10.871      11.252      12.078    
  13.475      15.643      18.836      23.346      29.562      38.320      50.396      66.077      85.034      106.30    
  128.42      149.78      168.90      184.70      196.60      204.45      208.32      208.32      204.45      196.60    
  210.31      196.63      178.73      157.27      133.52      109.21      86.212      66.076      49.768      37.494    
  28.788      22.700      18.346      15.332      13.341      12.110      11.445      11.236      11.445      12.110    
  13.341      15.333      18.345      22.700      28.788      37.494      49.768      66.076      86.213      109.21    
  133.52      157.27      178.73      196.63      210.31      219.71      225.12      226.88      225.12      219.71    
  230.38      219.75      204.50      184.68      161.07      135.24      109.21      85.035      64.322      47.948    
  35.925      27.579      21.792      17.714      14.958      13.194      12.163      11.690      11.690      12.163    
  13.194      14.959      17.712      21.794      27.577      35.926      47.947      64.323      85.034      109.21    
  135.24      161.07      184.68      204.50      219.75      230.38      236.88      239.91      239.91      236.88    
  244.20      236.92      225.18      208.39      186.66      161.07      133.52      106.30      81.594      60.973    
  45.110      33.768      26.035      20.688      16.983      14.549      13.049      12.247      11.994      12.247    
  13.049      14.549      16.983      20.689      26.034      33.770      45.109      60.973      81.594      106.30    
  133.52      161.07      186.66      208.39      225.19      236.92      244.20      248.01      249.17      248.01    
  252.34      248.04      239.97      226.95      208.39      184.68      157.27      128.42      100.66      76.166    
  56.328      41.524      31.220      24.269      19.461      16.204      14.131      12.920      12.369      12.368    
  12.921      14.130      16.206      19.459      24.270      31.221      41.523      56.329      76.165      100.66    
  128.42      157.27      184.67      208.39      226.95      239.97      248.04      252.34      254.10      254.10    
  256.24      254.12      249.21      239.97      225.18      204.50      178.73      149.78      120.23      92.689    
  69.191      50.798      37.506      28.480      22.383      18.185      15.423      13.726      12.821      12.536    
  12.821      13.726      15.424      18.184      22.386      28.478      37.507      50.798      69.191      92.689    
  120.23      149.78      178.73      204.50      225.18      239.97      249.21      254.12      256.24      256.79    
  257.64      256.79      254.12      248.04      236.92      219.75      196.63      168.90      138.91      109.43    
  82.971      61.238      44.847      33.379      25.711      20.477      16.931      14.674      13.358      12.759    
  12.759      13.359      14.673      16.932      20.477      25.709      33.382      44.846      61.239      82.970    
  109.43      138.91      168.90      196.63      219.75      236.92      248.04      254.12      256.79      257.64    
  257.76      257.39      255.77      251.55      243.06      228.90      208.59      182.88      153.66      123.59    
  95.387      71.205      52.201      38.435      29.082      22.795      18.473      15.629      13.881      12.949    
  12.656      12.949      13.881      15.629      18.472      22.798      29.081      38.434      52.202      71.204    
  95.387      123.59      153.66      182.88      208.59      228.90      243.06      251.55      255.77      257.39    
  257.39      257.39      256.39      253.44      247.01      235.53      218.08      194.81      167.07      137.22    
  107.98      81.835      60.413      44.291      33.024      25.478      20.310      16.808      14.578      13.277    
  12.685      12.685      13.278      14.577      16.809      20.310      25.476      33.027      44.290      60.414    
  81.834      107.98      137.22      167.07      194.81      218.08      235.53      247.01      253.44      256.39    
  255.77      256.39      255.77      253.44      248.22      238.64      223.56      202.69      176.87      148.02    
  118.70      91.461      68.286      50.184      37.119      28.240      22.222      18.069      15.336      13.655    
  12.758      12.475      12.758      13.654      15.336      18.067      22.224      28.238      37.120      50.184    
  68.286      91.461      118.70      148.02      176.87      202.69      223.56      238.64      248.22      253.44    
  251.55      253.46      253.46      251.55      247.01      238.64      225.34      206.58      182.80      155.47    
  126.83      99.357      75.192      55.661      41.105      30.972      24.116      19.354      16.127      14.069    
  12.866      12.318      12.317      12.867      14.068      16.128      19.353      24.116      30.973      41.104    
  55.662      75.191      99.357      126.83      155.47      182.80      206.58      225.34      238.64      247.01    
  243.06      247.04      248.26      247.04      243.06      235.53      223.56      206.58      184.78      159.25    
  131.88      104.94      80.567      60.262      44.664      33.512      25.890      20.593      16.917      14.498    
  13.004      12.205      11.953      12.205      13.005      14.498      16.917      20.594      25.888      33.513    
  44.662      60.263      80.567      104.94      131.88      159.25      184.78      206.58      223.56      235.53    
  228.90      235.57      238.70      238.70      235.57      228.90      218.08      202.69      182.80      159.25    
  133.60      107.83      83.975      63.580      47.479      35.659      27.438      21.707      17.658      14.917    
  13.159      12.129      11.656      11.656      12.129      13.159      14.918      17.657      21.709      27.436    
  35.660      47.478      63.580      83.974      107.83      133.60      159.25      182.80      202.69      218.08    
  208.59      218.12      223.63      225.42      223.63      218.12      208.59      194.81      176.87      155.47    
  131.88      107.84      85.141      65.318      49.285      37.222      28.649      22.624      18.301      15.300    
  13.314      12.082      11.415      11.206      11.415      12.082      13.313      15.301      18.300      22.625    
  28.649      37.222      49.285      65.317      85.141      107.83      131.88      155.47      176.87      194.81    
  182.88      194.84      202.75      206.66      206.66      202.75      194.84      182.88      167.07      148.02    
  126.83      104.94      83.974      65.318      49.907      38.045      29.425      23.278      18.800      15.618    
  13.455      12.054      11.226      10.842      10.842      11.226      12.055      13.454      15.619      18.800    
  23.278      29.425      38.044      49.908      65.317      83.975      104.94      126.83      148.02      167.07    
  153.66      167.09      176.91      182.86      184.85      182.86      176.91      167.09      153.66      137.22    
  118.70      99.357      80.567      63.580      49.284      38.045      29.692      23.618      19.116      15.846    
  13.567      12.041      11.081      10.556      10.390      10.556      11.081      12.041      13.567      15.846    
  19.116      23.618      29.692      38.044      49.285      63.580      80.567      99.357      118.70      137.22    
  123.59      137.21      148.03      155.49      159.28      159.28      155.49      148.03      137.21      123.59    
  107.98      91.461      75.191      60.263      47.478      37.222      29.424      23.619      19.224      15.966    
  13.640      12.035      10.979      10.343      10.045      10.046      10.343      10.979      12.035      13.640    
  15.965      19.224      23.618      29.425      37.221      47.478      60.263      75.191      91.461      107.98    
  95.387      107.96      118.67      126.80      131.86      133.58      131.86      126.80      118.67      107.96    
  95.386      81.834      68.286      55.661      44.663      35.661      28.649      23.279      19.115      15.966    
  13.665      12.033      10.918      10.201      9.8021      9.6735      9.8021      10.201      10.918      12.033    
  13.665      15.965      19.116      23.278      28.649      35.660      44.662      55.662      68.286      81.834    
  71.204      81.801      91.405      99.288      104.87      107.76      107.76      104.87      99.287      91.404    
  81.800      71.204      60.414      50.183      41.105      33.512      27.436      22.625      18.799      15.847    
  13.639      12.033      10.898      10.130      9.6560      9.4302      9.4299      9.6564      10.130      10.898    
  12.032      13.640      15.846      18.800      22.625      27.437      33.513      41.104      50.184      60.414    
  52.202      60.373      68.211      75.090      80.449      83.848      85.012      83.848      80.450      75.091    
  68.212      60.373      52.201      44.290      37.121      30.971      25.890      21.708      18.301      15.619    
  13.567      12.035      10.918      10.130      9.6076      9.3093      9.2122      9.3093      9.6075      10.130    
  10.918      12.035      13.567      15.619      18.301      21.708      25.888      30.973      37.120      44.290    
  38.434      44.249      50.102      55.545      60.119      63.419      65.148      65.148      63.419      60.119    
  55.544      50.101      44.249      38.436      33.025      28.238      24.118      20.592      17.658      15.300    
  13.454      12.041      10.979      10.201      9.6562      9.3092      9.1403      9.1402      9.3095      9.6561    
  10.201      10.979      12.041      13.454      15.301      17.657      20.594      24.116      28.238      33.026    
  29.082      32.988      37.041      40.988      44.513      47.304      49.096      49.713      49.095      47.304    
  44.514      40.989      37.042      32.987      29.080      25.479      22.222      19.353      16.918      14.917    
  13.314      12.054      11.081      10.343      9.8019      9.4301      9.2122      9.1403      9.2120      9.4301    
  9.8021      10.344      11.081      12.055      13.314      14.918      16.917      19.353      22.224      25.477    
  22.798      25.445      28.171      30.869      33.374      35.493      37.034      37.846      37.846      37.034    
  35.493      33.373      30.867      28.171      25.447      22.797      20.308      18.069      16.128      14.497    
  13.159      12.082      11.226      10.557      10.045      9.6737      9.4300      9.3093      9.3094      9.4301    
  9.6735      10.045      10.556      11.226      12.082      13.159      14.498      16.129      18.067      20.310    
  18.472      20.284      22.169      24.029      25.769      27.290      28.481      29.243      29.505      29.242    
  28.480      27.290      25.771      24.031      22.168      20.283      18.473      16.809      15.335      14.068    
  13.005      12.129      11.416      10.842      10.390      10.045      9.8020      9.6561      9.6075      9.6562    
  9.8021      10.046      10.390      10.843      11.415      12.129      13.005      14.068      15.336      16.809    
  15.629      16.790      18.025      19.284      20.498      21.590      22.486      23.123      23.455      23.455    
  23.124      22.486      21.589      20.496      19.284      18.027      16.790      15.628      14.577      13.655    
  12.867      12.205      11.656      11.206      10.842      10.556      10.343      10.201      10.130      10.130    
  10.201      10.343      10.556      10.842      11.206      11.656      12.205      12.868      13.654      14.577    
  13.881      14.562      15.304      16.077      16.844      17.565      18.190      18.674      18.982      19.087    
  18.981      18.674      18.190      17.566      16.845      16.076      15.303      14.562      13.882      13.278    
  12.757      12.318      11.953      11.656      11.416      11.226      11.081      10.979      10.918      10.898    
  10.918      10.979      11.082      11.226      11.415      11.656      11.953      12.317      12.758      13.278    
  12.949      13.267      13.630      14.029      14.444      14.848      15.218      15.525      15.745      15.860    
  15.860      15.745      15.525      15.217      14.848      14.443      14.029      13.631      13.266      12.949    
  12.685      12.475      12.318      12.205      12.129      12.082      12.054      12.041      12.035      12.033    
  12.033      12.035      12.040      12.054      12.082      12.129      12.205      12.318      12.475      12.684    
  12.656      12.674      12.737      12.837      12.963      13.108      13.253      13.386      13.493      13.562    
  13.586      13.562      13.493      13.387      13.254      13.108      12.964      12.836      12.737      12.675    
  12.657      12.685      12.757      12.867      13.005      13.159      13.314      13.454      13.567      13.639    
  13.665      13.640      13.567      13.455      13.314      13.159      13.004      12.866      12.757      12.685    
  12.949      12.675      12.456      12.291      12.172      12.090      12.038      12.007      11.990      11.983    