Pt-hcc                                  
   1.00000000000000     
     2.697913    0.000000    0.000000
    -1.348956    2.336461    0.000000
     0.000000    0.000000    4.674071
   Pt
     2
Direct
  0.000000  0.000000  0.000000
  0.333333  0.666667  0.500000
 
   40   40   64
 0.25793726235E+03 0.25764211130E+03 0.25623630899E+03 0.25233726126E+03 0.24420126046E+03
 0.23037518626E+03 0.21031118172E+03 0.18470170173E+03 0.15544275846E+03 0.12519395540E+03
 0.96722737203E+02 0.72233555662E+02 0.52937020749E+02 0.38929726073E+02 0.29408112748E+02
 0.23024096727E+02 0.18641659862E+02 0.15755453704E+02 0.13983897359E+02 0.13038481606E+02
 0.12741486963E+02 0.13038682003E+02 0.13983453312E+02 0.15756270654E+02 0.18640184257E+02
 0.23026122112E+02 0.29407450575E+02 0.38928849931E+02 0.52937694916E+02 0.72233272129E+02
 0.96722854199E+02 0.12519377345E+03 0.15544290962E+03 0.18470146785E+03 0.21031131652E+03
 0.23037513940E+03 0.24420125461E+03 0.25233743994E+03 0.25623632128E+03 0.25764189302E+03
 0.25764189302E+03 0.25764222090E+03 0.25678524802E+03 0.25410370204E+03 0.24800769257E+03
 0.23687990221E+03 0.21971245985E+03 0.19660305821E+03 0.16889145592E+03 0.13892023079E+03
 0.10945392560E+03 0.83010404968E+02 0.61284123276E+02 0.44893253137E+02 0.33422172619E+02
 0.25746790895E+02 0.20505865928E+02 0.16953700381E+02 0.14691596415E+02 0.13372595951E+02
 0.12772306635E+02 0.12771649733E+02 0.13373259273E+02 0.14690898970E+02 0.16954352048E+02
 0.20505775977E+02 0.25745191900E+02 0.33424254161E+02 0.44892226306E+02 0.61284705426E+02
 0.83009935795E+02 0.10945442118E+03 0.13891980255E+03 0.16889197133E+03 0.19660259019E+03
 0.21971306957E+03 0.23687951975E+03 0.24800805718E+03 0.25410360479E+03 0.25678543262E+03
 0.25623632128E+03 0.25679235640E+03 0.25623589683E+03 0.25410340745E+03 0.24916902580E+03
 0.23991206690E+03 0.22512130512E+03 0.20444782940E+03 0.17870189383E+03 0.14978662019E+03
 0.12026931076E+03 0.92757484723E+02 0.69277591767E+02 0.50890329879E+02 0.37594212153E+02
 0.28555250633E+02 0.22445327932E+02 0.18234109987E+02 0.15461695152E+02 0.13757031785E+02
 0.12847276901E+02 0.12560619638E+02 0.12847434738E+02 0.13756637988E+02 0.15462385167E+02
 0.18232725107E+02 0.22447649091E+02 0.28553585878E+02 0.37594630053E+02 0.50890308574E+02
 0.69277404015E+02 0.92757677133E+02 0.12026906520E+03 0.14978664876E+03 0.17870190193E+03
 0.20444782476E+03 0.22512118261E+03 0.23991243639E+03 0.24916870260E+03 0.25410360479E+03
 0.25233743994E+03 0.25412127658E+03 0.25412169402E+03 0.25233751994E+03 0.24800798746E+03
 0.23991187848E+03 0.22687569309E+03 0.20831642579E+03 0.18462782618E+03 0.15726152100E+03
 0.12846280709E+03 0.10074333889E+03 0.76283297222E+02 0.56460190640E+02 0.41654068548E+02
 0.31336663024E+02 0.24367775834E+02 0.19539654958E+02 0.16265930176E+02 0.14178771949E+02
 0.12959270144E+02 0.12403573330E+02 0.12402548965E+02 0.12960329324E+02 0.14177558710E+02
 0.16267355907E+02 0.19538137980E+02 0.24368130394E+02 0.31337452139E+02 0.41653123339E+02
 0.56461170387E+02 0.76282585860E+02 0.10074376821E+03 0.12846261608E+03 0.15726161776E+03
 0.18462782265E+03 0.20831671353E+03 0.22687557750E+03 0.23991243639E+03 0.24800805718E+03
 0.24420125461E+03 0.24803708970E+03 0.24920920491E+03 0.24803685484E+03 0.24420113842E+03
 0.23687940442E+03 0.22512173355E+03 0.20831637894E+03 0.18660523705E+03 0.16105747228E+03
 0.13355627733E+03 0.10639049700E+03 0.81731794675E+02 0.61135817804E+02 0.45277791642E+02
 0.33923757345E+02 0.26169859865E+02 0.20796505716E+02 0.17068168475E+02 0.14615349346E+02
 0.13100900999E+02 0.12291173527E+02 0.12035058334E+02 0.12291120903E+02 0.13100956992E+02
 0.14615247587E+02 0.17068031373E+02 0.20797674475E+02 0.26168146724E+02 0.33925295579E+02
 0.45276641340E+02 0.61136543046E+02 0.81731311917E+02 0.10639070489E+03 0.13355606408E+03
 0.16105748279E+03 0.18660496932E+03 0.20831671353E+03 0.22512118261E+03 0.23687951975E+03
 0.23037513940E+03 0.23691522750E+03 0.23997006893E+03 0.23996997042E+03 0.23691513695E+03
 0.23037533344E+03 0.21971286144E+03 0.20444745045E+03 0.18462796673E+03 0.16105747855E+03
 0.13528180511E+03 0.10931031557E+03 0.85183655371E+02 0.64505893397E+02 0.48143199054E+02
 0.36112425845E+02 0.27743733674E+02 0.21927305724E+02 0.17821769574E+02 0.15041593811E+02
 0.13259213340E+02 0.12215118998E+02 0.11735983959E+02 0.11735644141E+02 0.12215483974E+02
 0.13258748279E+02 0.15042289182E+02 0.17820358502E+02 0.21928889335E+02 0.27742570818E+02
 0.36113197721E+02 0.48142790308E+02 0.64506054389E+02 0.85183700431E+02 0.10931010847E+03
 0.13528211024E+03 0.16105748279E+03 0.18462782265E+03 0.20444782476E+03 0.21971306957E+03
 0.21031131652E+03 0.21974732392E+03 0.22518467315E+03 0.22695019541E+03 0.22518503336E+03
 0.21974750395E+03 0.21031123428E+03 0.19660281008E+03 0.17870231488E+03 0.15726160007E+03
 0.13355605470E+03 0.10931072353E+03 0.86364821075E+02 0.66270519505E+02 0.49980982729E+02
 0.37704340630E+02 0.28976906176E+02 0.22858386838E+02 0.18474997375E+02 0.15431035730E+02
 0.13417483088E+02 0.12168668244E+02 0.11494024696E+02 0.11281895818E+02 0.11493911672E+02
 0.12168895213E+02 0.13417046124E+02 0.15431930597E+02 0.18474117408E+02 0.22858872184E+02
 0.28976806464E+02 0.37704199916E+02 0.49981384924E+02 0.66269994572E+02 0.86365380962E+02
 0.10931010847E+03 0.13355606408E+03 0.15726161776E+03 0.17870190193E+03 0.19660259019E+03
 0.18470146785E+03 0.19662803354E+03 0.20450123919E+03 0.20838833829E+03 0.20838796735E+03
 0.20450098347E+03 0.19662771846E+03 0.18470193457E+03 0.16889178498E+03 0.14978641508E+03
 0.12846263658E+03 0.10639080963E+03 0.85183048781E+02 0.66270659647E+02 0.50614151001E+02
 0.38542712465E+02 0.29766339367E+02 0.23521805413E+02 0.18981494528E+02 0.15754152857E+02
 0.13561521088E+02 0.12142071715E+02 0.11303556595E+02 0.10914853722E+02 0.10915322197E+02
 0.11303074871E+02 0.12142628394E+02 0.13560716984E+02 0.15754830375E+02 0.18981205735E+02
 0.23521717164E+02 0.29766619774E+02 0.38542192419E+02 0.50614747142E+02 0.66269994572E+02
 0.85183700431E+02 0.10639070489E+03 0.12846261608E+03 0.14978664876E+03 0.16889197133E+03
 0.15544290962E+03 0.16890129305E+03 0.17873055772E+03 0.18467461248E+03 0.18665915616E+03
 0.18467505900E+03 0.17873119945E+03 0.16890155991E+03 0.15544266100E+03 0.13891999060E+03
 0.12026958876E+03 0.10074364450E+03 0.81731220503E+02 0.64506729216E+02 0.49980514010E+02
 0.38542982145E+02 0.30038161824E+02 0.23867377585E+02 0.19302075773E+02 0.15986107300E+02
 0.13676167757E+02 0.12129113566E+02 0.11158315108E+02 0.10626728930E+02 0.10458773394E+02
 0.10626774894E+02 0.11158228129E+02 0.12129400337E+02 0.13675994557E+02 0.15985934371E+02
 0.19302523521E+02 0.23866795320E+02 0.30038935956E+02 0.38542192419E+02 0.49981384924E+02
 0.64506054389E+02 0.81731311917E+02 0.10074376821E+03 0.12026906520E+03 0.13891980255E+03
 0.12519377345E+03 0.13891055859E+03 0.14978212849E+03 0.15726781881E+03 0.16107170645E+03
 0.16107156711E+03 0.15726727803E+03 0.14978167118E+03 0.13891037949E+03 0.12519421923E+03
 0.10945422919E+03 0.92757022008E+02 0.76282908330E+02 0.61136479462E+02 0.48142125525E+02
 0.37705018896E+02 0.29765814483E+02 0.23867628513E+02 0.19411681999E+02 0.16107430514E+02
 0.13749928725E+02 0.12123917754E+02 0.11055550416E+02 0.10412234352E+02 0.10111201584E+02
 0.10111148461E+02 0.10412308090E+02 0.11055391196E+02 0.12123987049E+02 0.13750174074E+02
 0.16106901142E+02 0.19412244897E+02 0.23866795320E+02 0.29766619774E+02 0.37704199916E+02
 0.48142790308E+02 0.61136543046E+02 0.76282585860E+02 0.92757677133E+02 0.10945442118E+03
 0.96722854199E+02 0.10942792429E+03 0.12022955660E+03 0.12842075312E+03 0.13351611375E+03
 0.13524367560E+03 0.13351643484E+03 0.12842121047E+03 0.12023022921E+03 0.10942799187E+03
 0.96722506832E+02 0.83009991978E+02 0.69278210988E+02 0.56460288317E+02 0.45276962302E+02
 0.36113670097E+02 0.28976033205E+02 0.23522530504E+02 0.19301666376E+02 0.16107537534E+02
 0.13775425937E+02 0.12122219526E+02 0.10994336042E+02 0.10268969382E+02 0.98658056891E+01
 0.97358605330E+01 0.98658378324E+01 0.10269023585E+02 0.10994400316E+02 0.12121883545E+02
 0.13776006396E+02 0.16106901142E+02 0.19302523521E+02 0.23521717164E+02 0.28976806464E+02
 0.36113197721E+02 0.45276641340E+02 0.56461170387E+02 0.69277404015E+02 0.83009935795E+02
 0.72233272129E+02 0.82970256992E+02 0.92689368180E+02 0.10065800328E+03 0.10629663877E+03
 0.10921307453E+03 0.10921314253E+03 0.10629631258E+03 0.10065751585E+03 0.92688547076E+02
 0.82970136413E+02 0.72233599438E+02 0.61284615532E+02 0.50889317461E+02 0.41654365236E+02
 0.33924394086E+02 0.27742404996E+02 0.22859443516E+02 0.18980531377E+02 0.15986804991E+02
 0.13749539921E+02 0.12122544066E+02 0.10973624250E+02 0.10197541877E+02 0.97186254587E+01
 0.94905500088E+01 0.94903198686E+01 0.97188061300E+01 0.10197339057E+02 0.10974094260E+02
 0.12121883545E+02 0.13750174074E+02 0.15985934371E+02 0.18981205735E+02 0.22858872184E+02
 0.27742570818E+02 0.33925295579E+02 0.41653123339E+02 0.50890308574E+02 0.61284705426E+02
 0.52937694916E+02 0.61238516079E+02 0.69191342177E+02 0.76165440895E+02 0.81593638913E+02
 0.85034318024E+02 0.86212516066E+02 0.85034122536E+02 0.81593907838E+02 0.76165984836E+02
 0.69192271814E+02 0.61238536278E+02 0.52936981360E+02 0.44892216377E+02 0.37595763532E+02
 0.31335631852E+02 0.26169776413E+02 0.21928430968E+02 0.18474050459E+02 0.15755124622E+02
 0.13675433531E+02 0.12124344407E+02 0.10993956083E+02 0.10197579961E+02 0.96696985990E+01
 0.93687064470E+01 0.92706814748E+01 0.93687261237E+01 0.96697231076E+01 0.10197339057E+02
 0.10994400316E+02 0.12123987049E+02 0.13675994557E+02 0.15754830375E+02 0.18474117408E+02
 0.21928889335E+02 0.26168146724E+02 0.31337452139E+02 0.37594630053E+02 0.44892226306E+02
 0.38928849931E+02 0.44846024483E+02 0.50797945186E+02 0.56329252427E+02 0.60973448190E+02
 0.64322621667E+02 0.66076237838E+02 0.66076559191E+02 0.64322695460E+02 0.60973266580E+02
 0.56328104504E+02 0.50796969201E+02 0.44845888245E+02 0.38930550958E+02 0.33423104205E+02
 0.28553131341E+02 0.24369918666E+02 0.20795569850E+02 0.17821426045E+02 0.15431465952E+02
 0.13560876541E+02 0.12129637876E+02 0.11055294787E+02 0.10269276485E+02 0.97186757500E+01
 0.93686675571E+01 0.91982532922E+01 0.91982431051E+01 0.93687261237E+01 0.97188061300E+01
 0.10269023585E+02 0.11055391196E+02 0.12129400337E+02 0.13560716984E+02 0.15431930597E+02
 0.17820358502E+02 0.20797674475E+02 0.24368130394E+02 0.28553585878E+02 0.33424254161E+02
 0.29407450575E+02 0.33381581255E+02 0.37506827670E+02 0.41522741947E+02 0.45109184918E+02
 0.47947380895E+02 0.49768334638E+02 0.50395798507E+02 0.49768008547E+02 0.47947005879E+02
 0.45109730043E+02 0.41524125088E+02 0.37508037567E+02 0.33380524697E+02 0.29405841919E+02
 0.25747612322E+02 0.22446518509E+02 0.19537623388E+02 0.17069599422E+02 0.15041422454E+02
 0.13417534237E+02 0.12142368285E+02 0.11158049829E+02 0.10412304818E+02 0.98656319138E+01
 0.94904102634E+01 0.92707817034E+01 0.91982532922E+01 0.92706814748E+01 0.94903198686E+01
 0.98658378324E+01 0.10412308090E+02 0.11158228129E+02 0.12142628394E+02 0.13417046124E+02
 0.15042289182E+02 0.17068031373E+02 0.19538137980E+02 0.22447649091E+02 0.25745191900E+02
 0.23026122112E+02 0.25709150750E+02 0.28477900867E+02 0.31220604746E+02 0.33769627569E+02
 0.35925526391E+02 0.37493815167E+02 0.38320364471E+02 0.38320476631E+02 0.37494345033E+02
 0.35925766214E+02 0.33768600721E+02 0.31218717354E+02 0.28477410446E+02 0.25711531247E+02
 0.23025984035E+02 0.20504142743E+02 0.18234345259E+02 0.16267116087E+02 0.14614300974E+02
 0.13259232273E+02 0.12168597923E+02 0.11303248394E+02 0.10627035331E+02 0.10111135006E+02
 0.97361274070E+01 0.94904102634E+01 0.93686675571E+01 0.93687064470E+01 0.94905500088E+01
 0.97358605330E+01 0.10111148461E+02 0.10626774894E+02 0.11303074871E+02 0.12168895213E+02
 0.13258748279E+02 0.14615247587E+02 0.16267355907E+02 0.18232725107E+02 0.20505775977E+02
 0.18640184257E+02 0.20476838543E+02 0.22385629576E+02 0.24269713565E+02 0.26033581502E+02
 0.27577485308E+02 0.28787524698E+02 0.29561888323E+02 0.29828512785E+02 0.29561506471E+02
 0.28786984013E+02 0.27577545389E+02 0.26035339665E+02 0.24271567050E+02 0.22384552060E+02
 0.20475224480E+02 0.18641302043E+02 0.16954982548E+02 0.15461223704E+02 0.14177910553E+02
 0.13101797585E+02 0.12215109825E+02 0.11494190020E+02 0.10915080331E+02 0.10458555584E+02
 0.10111135006E+02 0.98656319138E+01 0.97186757500E+01 0.96696985990E+01 0.97186254587E+01
 0.98658056891E+01 0.10111201584E+02 0.10458773394E+02 0.10915322197E+02 0.11493911672E+02
 0.12215483974E+02 0.13100956992E+02 0.14177558710E+02 0.15462385167E+02 0.16954352048E+02
 0.15756270654E+02 0.16931820512E+02 0.18183510931E+02 0.19459470050E+02 0.20688908869E+02
 0.21793514736E+02 0.22700391314E+02 0.23345753492E+02 0.23681683619E+02 0.23681949341E+02
 0.23346247703E+02 0.22700778641E+02 0.21792862957E+02 0.20686778472E+02 0.19458878393E+02
 0.18185117231E+02 0.16932418650E+02 0.15755395198E+02 0.14690694829E+02 0.13757645718E+02
 0.12959867348E+02 0.12290387829E+02 0.11735831591E+02 0.11281711709E+02 0.10915080331E+02
 0.10627035331E+02 0.10412304818E+02 0.10269276485E+02 0.10197579961E+02 0.10197541877E+02
 0.10268969382E+02 0.10412234352E+02 0.10626728930E+02 0.10914853722E+02 0.11281895818E+02
 0.11735644141E+02 0.12291120903E+02 0.12960329324E+02 0.13756637988E+02 0.14690898970E+02
 0.13983453312E+02 0.14673132926E+02 0.15423900601E+02 0.16205876050E+02 0.16982868377E+02
 0.17712443586E+02 0.18345399123E+02 0.18836289410E+02 0.19147305801E+02 0.19253596582E+02
 0.19146900078E+02 0.18835809103E+02 0.18345530662E+02 0.17713600958E+02 0.16984484374E+02
 0.16205661649E+02 0.15422734542E+02 0.14672944103E+02 0.13984233164E+02 0.13373159616E+02
 0.12846612333E+02 0.12402982656E+02 0.12035805524E+02 0.11735831591E+02 0.11494190020E+02
 0.11303248394E+02 0.11158049829E+02 0.11055294787E+02 0.10993956083E+02 0.10973624250E+02
 0.10994336042E+02 0.11055550416E+02 0.11158315108E+02 0.11303556595E+02 0.11494024696E+02
 0.11735983959E+02 0.12035058334E+02 0.12402548965E+02 0.12847434738E+02 0.13373259273E+02
 0.13038682003E+02 0.13358785061E+02 0.13726046802E+02 0.14129557083E+02 0.14549279290E+02
 0.14958766298E+02 0.15332507139E+02 0.15642767078E+02 0.15865283050E+02 0.15981779020E+02
 0.15981920179E+02 0.15865765779E+02 0.15642891913E+02 0.15331895190E+02 0.14957801047E+02
 0.14548284323E+02 0.14129859161E+02 0.13727029750E+02 0.13358657120E+02 0.13038063805E+02
 0.12771837678E+02 0.12561347964E+02 0.12402982656E+02 0.12290387829E+02 0.12215109825E+02
 0.12168597923E+02 0.12142368285E+02 0.12129637876E+02 0.12124344407E+02 0.12122544066E+02
 0.12122219526E+02 0.12123917754E+02 0.12129113566E+02 0.12142071715E+02 0.12168668244E+02
 0.12215118998E+02 0.12291173527E+02 0.12403573330E+02 0.12560619638E+02 0.12771649733E+02
 0.12741486963E+02 0.12758757082E+02 0.12821495756E+02 0.12921200531E+02 0.13048707902E+02
 0.13193995014E+02 0.13340958062E+02 0.13475422878E+02 0.13583286461E+02 0.13652815160E+02
 0.13676819991E+02 0.13652559418E+02 0.13583034923E+02 0.13475653348E+02 0.13341616744E+02
 0.13194491068E+02 0.13049586025E+02 0.12920731881E+02 0.12820691460E+02 0.12758948317E+02
 0.12742001824E+02 0.12771837678E+02 0.12846612333E+02 0.12959867348E+02 0.13101797585E+02
 0.13259232273E+02 0.13417534237E+02 0.13560876541E+02 0.13675433531E+02 0.13749539921E+02
 0.13775425937E+02 0.13749928725E+02 0.13676167757E+02 0.13561521088E+02 0.13417483088E+02
 0.13259213340E+02 0.13100900999E+02 0.12959270144E+02 0.12847276901E+02 0.12772306635E+02
 0.13038481606E+02 0.12759414571E+02 0.12536264157E+02 0.12367865249E+02 0.12247210917E+02
 0.12163352598E+02 0.12109928320E+02 0.12078025598E+02 0.12060790302E+02 0.12052906033E+02
 0.12049999030E+02 0.12050139656E+02 0.12052988972E+02 0.12060820002E+02 0.12077651504E+02
 0.12109513766E+02 0.12162941369E+02 0.12246436780E+02 0.12368280433E+02 0.12536982579E+02
 0.12758948317E+02 0.13038063805E+02 0.13373159616E+02 0.13757645718E+02 0.14177910553E+02
 0.14614300974E+02 0.15041422454E+02 0.15431465952E+02 0.15755124622E+02 0.15986804991E+02
 0.16107537534E+02 0.16107430514E+02 0.15986107300E+02 0.15754152857E+02 0.15431035730E+02
 0.15041593811E+02 0.14615349346E+02 0.14178771949E+02 0.13757031785E+02 0.13372595951E+02
 0.13983897359E+02 0.13358098146E+02 0.12821315414E+02 0.12368878106E+02 0.11993764339E+02
 0.11689691190E+02 0.11444666137E+02 0.11252025981E+02 0.11106121915E+02 0.11003204267E+02
 0.10941970561E+02 0.10921509348E+02 0.10941964083E+02 0.11003253840E+02 0.11106242427E+02
 0.11252228752E+02 0.11445088706E+02 0.11689859809E+02 0.11994579153E+02 0.12368280433E+02
 0.12820691460E+02 0.13358657120E+02 0.13984233164E+02 0.14690694829E+02 0.15461223704E+02
 0.16267116087E+02 0.17069599422E+02 0.17821426045E+02 0.18474050459E+02 0.18980531377E+02
 0.19301666376E+02 0.19411681999E+02 0.19302075773E+02 0.18981494528E+02 0.18474997375E+02
 0.17821769574E+02 0.17068168475E+02 0.16265930176E+02 0.15461695152E+02 0.14691596415E+02
 0.15755453704E+02 0.14673825554E+02 0.13726410757E+02 0.12920111776E+02 0.12247243914E+02
 0.11690006737E+02 0.11236204496E+02 0.10871116092E+02 0.10585178101E+02 0.10373205055E+02
 0.10232202707E+02 0.10161791093E+02 0.10161674952E+02 0.10232195231E+02 0.10373010506E+02
 0.10585248830E+02 0.10870832991E+02 0.11235922569E+02 0.11689859809E+02 0.12246436780E+02
 0.12920731881E+02 0.13727029750E+02 0.14672944103E+02 0.15755395198E+02 0.16954982548E+02
 0.18234345259E+02 0.19537623388E+02 0.20795569850E+02 0.21928430968E+02 0.22859443516E+02
 0.23522530504E+02 0.23867628513E+02 0.23867377585E+02 0.23521805413E+02 0.22858386838E+02
 0.21927305724E+02 0.20796505716E+02 0.19539654958E+02 0.18234109987E+02 0.16953700381E+02
 0.18641659862E+02 0.16931149430E+02 0.15423166353E+02 0.14130742675E+02 0.13048607213E+02
 0.12162996496E+02 0.11444773010E+02 0.10870636272E+02 0.10420025667E+02 0.10078136510E+02
 0.98372876998E+01 0.96934611884E+01 0.96457492448E+01 0.96935505281E+01 0.98374778752E+01
 0.10078196292E+02 0.10420057491E+02 0.10870832991E+02 0.11445088706E+02 0.12162941369E+02
 0.13049586025E+02 0.14129859161E+02 0.15422734542E+02 0.16932418650E+02 0.18641302043E+02
 0.20504142743E+02 0.22446518509E+02 0.24369918666E+02 0.26169776413E+02 0.27742404996E+02
 0.28976033205E+02 0.29765814483E+02 0.30038161824E+02 0.29766339367E+02 0.28976906176E+02
 0.27743733674E+02 0.26169859865E+02 0.24367775834E+02 0.22445327932E+02 0.20505865928E+02
 0.23024096727E+02 0.20476916706E+02 0.18184920813E+02 0.16204421491E+02 0.14549373050E+02
 0.13194410940E+02 0.12109696717E+02 0.11252529746E+02 0.10585141847E+02 0.10078348789E+02
 0.97109086679E+01 0.94709163790E+01 0.93519047038E+01 0.93520059683E+01 0.94706674392E+01
 0.97109191451E+01 0.10078196292E+02 0.10585248830E+02 0.11252228752E+02 0.12109513766E+02
 0.13194491068E+02 0.14548284323E+02 0.16205661649E+02 0.18185117231E+02 0.20475224480E+02
 0.23025984035E+02 0.25747612322E+02 0.28553131341E+02 0.31335631852E+02 0.33924394086E+02
 0.36113670097E+02 0.37705018896E+02 0.38542982145E+02 0.38542712465E+02 0.37704340630E+02
 0.36112425845E+02 0.33923757345E+02 0.31336663024E+02 0.28555250633E+02 0.25746790895E+02
 0.29408112748E+02 0.25710790755E+02 0.22383299792E+02 0.19460980900E+02 0.16982970633E+02
 0.14958085789E+02 0.13341401791E+02 0.12077448688E+02 0.11106260759E+02 0.10372973095E+02
 0.98373517284E+01 0.94706002756E+01 0.92564355754E+01 0.91856133432E+01 0.92565345617E+01
 0.94706674392E+01 0.98374778752E+01 0.10373010506E+02 0.11106242427E+02 0.12077651504E+02
 0.13341616744E+02 0.14957801047E+02 0.16984484374E+02 0.19458878393E+02 0.22384552060E+02
 0.25711531247E+02 0.29405841919E+02 0.33423104205E+02 0.37595763532E+02 0.41654365236E+02
 0.45276962302E+02 0.48142125525E+02 0.49980514010E+02 0.50614151001E+02 0.49980982729E+02
 0.48143199054E+02 0.45277791642E+02 0.41654068548E+02 0.37594212153E+02 0.33422172619E+02
 0.38929726073E+02 0.33379494105E+02 0.28479598937E+02 0.24269385594E+02 0.20687811160E+02
 0.17713831457E+02 0.15331578587E+02 0.13476264099E+02 0.12060471629E+02 0.11003580142E+02
 0.10232048258E+02 0.96938635649E+01 0.93517739596E+01 0.91859938307E+01 0.91856133432E+01
 0.93520059683E+01 0.96935505281E+01 0.10232195231E+02 0.11003253840E+02 0.12060820002E+02
 0.13475653348E+02 0.15331895190E+02 0.17713600958E+02 0.20686778472E+02 0.24271567050E+02
 0.28477410446E+02 0.33380524697E+02 0.38930550958E+02 0.44892216377E+02 0.50889317461E+02
 0.56460288317E+02 0.61136479462E+02 0.64506729216E+02 0.66270659647E+02 0.66270519505E+02
 0.64505893397E+02 0.61135817804E+02 0.56460190640E+02 0.50890329879E+02 0.44893253137E+02
 0.52937020749E+02 0.44847046713E+02 0.37506463121E+02 0.31219880580E+02 0.26035273225E+02
 0.21791942328E+02 0.18346307589E+02 0.15642084451E+02 0.13583463247E+02 0.12052714219E+02
 0.10942030525E+02 0.10161530009E+02 0.96458251214E+01 0.93517739596E+01 0.92564355754E+01
 0.93519047038E+01 0.96457492448E+01 0.10161674952E+02 0.10941964083E+02 0.12052988972E+02
 0.13583034923E+02 0.15642891913E+02 0.18345530662E+02 0.21792862957E+02 0.26035339665E+02
 0.31218717354E+02 0.37508037567E+02 0.44845888245E+02 0.52936981360E+02 0.61284615532E+02
 0.69278210988E+02 0.76282908330E+02 0.81731220503E+02 0.85183048781E+02 0.86364821075E+02
 0.85183655371E+02 0.81731794675E+02 0.76283297222E+02 0.69277591767E+02 0.61284123276E+02
 0.72233555662E+02 0.61237946682E+02 0.50798028785E+02 0.41523679197E+02 0.33768137166E+02
 0.27578746148E+02 0.22699843259E+02 0.18836613234E+02 0.15865323903E+02 0.13652851235E+02
 0.12050015117E+02 0.10921784654E+02 0.10161530009E+02 0.96938635649E+01 0.94706002756E+01
 0.94709163790E+01 0.96934611884E+01 0.10161791093E+02 0.10921509348E+02 0.12050139656E+02
 0.13652559418E+02 0.15865765779E+02 0.18835809103E+02 0.22700778641E+02 0.27577545389E+02
 0.33768600721E+02 0.41524125088E+02 0.50796969201E+02 0.61238536278E+02 0.72233599438E+02
 0.83009991978E+02 0.92757022008E+02 0.10074364450E+03 0.10639080963E+03 0.10931072353E+03
 0.10931031557E+03 0.10639049700E+03 0.10074333889E+03 0.92757484723E+02 0.83010404968E+02
 0.96722737203E+02 0.82970734152E+02 0.69191484922E+02 0.56328233451E+02 0.45110427685E+02
 0.35924700692E+02 0.28787681009E+02 0.23345763371E+02 0.19146994359E+02 0.15981932940E+02
 0.13676656882E+02 0.12050015117E+02 0.10942030525E+02 0.10232048258E+02 0.98373517284E+01
 0.97109086679E+01 0.98372876998E+01 0.10232202707E+02 0.10941970561E+02 0.12049999030E+02
 0.13676819991E+02 0.15981920179E+02 0.19146900078E+02 0.23346247703E+02 0.28786984013E+02
 0.35925766214E+02 0.45109730043E+02 0.56328104504E+02 0.69192271814E+02 0.82970136413E+02
 0.96722506832E+02 0.10945422919E+03 0.12026958876E+03 0.12846263658E+03 0.13355605470E+03
 0.13528180511E+03 0.13355627733E+03 0.12846280709E+03 0.12026931076E+03 0.10945392560E+03
 0.12519395540E+03 0.10942746225E+03 0.92689066113E+02 0.76166242135E+02 0.60972711170E+02
 0.47947849496E+02 0.37493901291E+02 0.29561737564E+02 0.23681960366E+02 0.19253460125E+02
 0.15981932940E+02 0.13652851235E+02 0.12052714219E+02 0.11003580142E+02 0.10372973095E+02
 0.10078348789E+02 0.10078136510E+02 0.10373205055E+02 0.11003204267E+02 0.12052906033E+02
 0.13652815160E+02 0.15981779020E+02 0.19253596582E+02 0.23681949341E+02 0.29561506471E+02
 0.37494345033E+02 0.47947005879E+02 0.60973266580E+02 0.76165984836E+02 0.92688547076E+02
 0.10942799187E+03 0.12519421923E+03 0.13891999060E+03 0.14978641508E+03 0.15726160007E+03
 0.16105747855E+03 0.16105747228E+03 0.15726152100E+03 0.14978662019E+03 0.13892023079E+03
 0.15544275846E+03 0.13891083534E+03 0.12022984261E+03 0.10065743521E+03 0.81594170010E+02
 0.64322173925E+02 0.49768262743E+02 0.38320480069E+02 0.29828294218E+02 0.23681960366E+02
 0.19146994359E+02 0.15865323903E+02 0.13583463247E+02 0.12060471629E+02 0.11106260759E+02
 0.10585141847E+02 0.10420025667E+02 0.10585178101E+02 0.11106121915E+02 0.12060790302E+02
 0.13583286461E+02 0.15865283050E+02 0.19147305801E+02 0.23681683619E+02 0.29828512785E+02
 0.38320476631E+02 0.49768008547E+02 0.64322695460E+02 0.81593907838E+02 0.10065751585E+03
 0.12023022921E+03 0.13891037949E+03 0.15544266100E+03 0.16889178498E+03 0.17870231488E+03
 0.18462796673E+03 0.18660523705E+03 0.18462782618E+03 0.17870189383E+03 0.16889145592E+03
 0.18470170173E+03 0.16890104694E+03 0.14978188637E+03 0.12842120047E+03 0.10629599649E+03
 0.85034762059E+02 0.66076340710E+02 0.50395790231E+02 0.38320480069E+02 0.29561737564E+02
 0.23345763371E+02 0.18836613234E+02 0.15642084451E+02 0.13476264099E+02 0.12077448688E+02
 0.11252529746E+02 0.10870636272E+02 0.10871116092E+02 0.11252025981E+02 0.12078025598E+02
 0.13475422878E+02 0.15642767078E+02 0.18836289410E+02 0.23345753492E+02 0.29561888323E+02
 0.38320364471E+02 0.50395798507E+02 0.66076559191E+02 0.85034122536E+02 0.10629631258E+03
 0.12842121047E+03 0.14978167118E+03 0.16890155991E+03 0.18470193457E+03 0.19660281008E+03
 0.20444745045E+03 0.20831637894E+03 0.20831642579E+03 0.20444782940E+03 0.19660305821E+03
 0.21031118172E+03 0.19662804049E+03 0.17873089428E+03 0.15726721740E+03 0.13351672324E+03
 0.10921270801E+03 0.86212479262E+02 0.66076340710E+02 0.49768262743E+02 0.37493901291E+02
 0.28787681009E+02 0.22699843259E+02 0.18346307589E+02 0.15331578587E+02 0.13341401791E+02
 0.12109696717E+02 0.11444773010E+02 0.11236204496E+02 0.11444666137E+02 0.12109928320E+02
 0.13340958062E+02 0.15332507139E+02 0.18345399123E+02 0.22700391314E+02 0.28787524698E+02
 0.37493815167E+02 0.49768334638E+02 0.66076237838E+02 0.86212516066E+02 0.10921314253E+03
 0.13351643484E+03 0.15726727803E+03 0.17873119945E+03 0.19662771846E+03 0.21031123428E+03
 0.21971286144E+03 0.22512173355E+03 0.22687569309E+03 0.22512130512E+03 0.21971245985E+03
 0.23037518626E+03 0.21974748096E+03 0.20450099683E+03 0.18467527006E+03 0.16107104879E+03
 0.13524416752E+03 0.10921270801E+03 0.85034762059E+02 0.64322173925E+02 0.47947849496E+02
 0.35924700692E+02 0.27578746148E+02 0.21791942328E+02 0.17713831457E+02 0.14958085789E+02
 0.13194410940E+02 0.12162996496E+02 0.11690006737E+02 0.11689691190E+02 0.12163352598E+02
 0.13193995014E+02 0.14958766298E+02 0.17712443586E+02 0.21793514736E+02 0.27577485308E+02
 0.35925526391E+02 0.47947380895E+02 0.64322621667E+02 0.85034318024E+02 0.10921307453E+03
 0.13524367560E+03 0.16107156711E+03 0.18467505900E+03 0.20450098347E+03 0.21974750395E+03
 0.23037533344E+03 0.23687940442E+03 0.23991187848E+03 0.23991206690E+03 0.23687990221E+03
 0.24420126046E+03 0.23691522739E+03 0.22518495716E+03 0.20838772558E+03 0.18665973955E+03
 0.16107104879E+03 0.13351672324E+03 0.10629599649E+03 0.81594170010E+02 0.60972711170E+02
 0.45110427685E+02 0.33768137166E+02 0.26035273225E+02 0.20687811160E+02 0.16982970633E+02
 0.14549373050E+02 0.13048607213E+02 0.12247243914E+02 0.11993764339E+02 0.12247210917E+02
 0.13048707902E+02 0.14549279290E+02 0.16982868377E+02 0.20688908869E+02 0.26033581502E+02
 0.33769627569E+02 0.45109184918E+02 0.60973448190E+02 0.81593638913E+02 0.10629663877E+03
 0.13351611375E+03 0.16107170645E+03 0.18665915616E+03 0.20838796735E+03 0.22518503336E+03
 0.23691513695E+03 0.24420113842E+03 0.24800798746E+03 0.24916902580E+03 0.24800769257E+03
 0.25233726126E+03 0.24803721973E+03 0.23996996838E+03 0.22695085957E+03 0.20838772558E+03
 0.18467527006E+03 0.15726721740E+03 0.12842120047E+03 0.10065743521E+03 0.76166242135E+02
 0.56328233451E+02 0.41523679197E+02 0.31219880580E+02 0.24269385594E+02 0.19460980900E+02
 0.16204421491E+02 0.14130742675E+02 0.12920111776E+02 0.12368878106E+02 0.12367865249E+02
 0.12921200531E+02 0.14129557083E+02 0.16205876050E+02 0.19459470050E+02 0.24269713565E+02
 0.31220604746E+02 0.41522741947E+02 0.56329252427E+02 0.76165440895E+02 0.10065800328E+03
 0.12842075312E+03 0.15726781881E+03 0.18467461248E+03 0.20838833829E+03 0.22695019541E+03
 0.23996997042E+03 0.24803685484E+03 0.25233751994E+03 0.25410340745E+03 0.25410370204E+03
 0.25623630899E+03 0.25412178398E+03 0.24920909135E+03 0.23996996838E+03 0.22518495716E+03
 0.20450099683E+03 0.17873089428E+03 0.14978188637E+03 0.12022984261E+03 0.92689066113E+02
 0.69191484922E+02 0.50798028785E+02 0.37506463121E+02 0.28479598937E+02 0.22383299792E+02
 0.18184920813E+02 0.15423166353E+02 0.13726410757E+02 0.12821315414E+02 0.12536264157E+02
 0.12821495756E+02 0.13726046802E+02 0.15423900601E+02 0.18183510931E+02 0.22385629576E+02
 0.28477900867E+02 0.37506827670E+02 0.50797945186E+02 0.69191342177E+02 0.92689368180E+02
 0.12022955660E+03 0.14978212849E+03 0.17873055772E+03 0.20450123919E+03 0.22518467315E+03
 0.23997006893E+03 0.24920920491E+03 0.25412169402E+03 0.25623589683E+03 0.25678524802E+03
 0.25764211130E+03 0.25679193608E+03 0.25412178398E+03 0.24803721973E+03 0.23691522739E+03
 0.21974748096E+03 0.19662804049E+03 0.16890104694E+03 0.13891083534E+03 0.10942746225E+03
 0.82970734152E+02 0.61237946682E+02 0.44847046713E+02 0.33379494105E+02 0.25710790755E+02
 0.20476916706E+02 0.16931149430E+02 0.14673825554E+02 0.13358098146E+02 0.12759414571E+02
 0.12758757082E+02 0.13358785061E+02 0.14673132926E+02 0.16931820512E+02 0.20476838543E+02
 0.25709150750E+02 0.33381581255E+02 0.44846024483E+02 0.61238516079E+02 0.82970256992E+02
 0.10942792429E+03 0.13891055859E+03 0.16890129305E+03 0.19662803354E+03 0.21974732392E+03
 0.23691522750E+03 0.24803708970E+03 0.25412127658E+03 0.25679235640E+03 0.25764222090E+03
 0.25776141756E+03 0.25738951546E+03 0.25576733907E+03 0.25155210658E+03 0.24305776152E+03
 0.22890042508E+03 0.20859460970E+03 0.18287789538E+03 0.15366156480E+03 0.12358919671E+03
 0.95386554980E+02 0.71204505472E+02 0.52201178393E+02 0.38434897214E+02 0.29082428880E+02
 0.22795495403E+02 0.18473424036E+02 0.15628561980E+02 0.13881289531E+02 0.12949308786E+02
 0.12655950939E+02 0.12949493443E+02 0.13880880685E+02 0.15629325143E+02 0.18472026190E+02
 0.22797730056E+02 0.29081347301E+02 0.38434228772E+02 0.52201710731E+02 0.71204286114E+02