   2   2   1   0
  0.1473166E+02  0.2697913E-09  0.2697913E-09  0.4674071E-09  0.5000000E-15
  1.000000000000000E-004
  CAR 
 Pt-hcc                                  
     38.02133443    -44.38909915  301     12.49826473      1.00000000
    -44.389  0.0000E+00  0.0000E+00
    -44.114  0.0000E+00  0.0000E+00
    -43.840  0.0000E+00  0.0000E+00
    -43.565  0.0000E+00  0.0000E+00
    -43.290  0.0000E+00  0.0000E+00
    -43.016  0.0000E+00  0.0000E+00
    -42.741  0.0000E+00  0.0000E+00
    -42.466  0.0000E+00  0.0000E+00
    -42.191  0.0000E+00  0.0000E+00
    -41.917  0.0000E+00  0.0000E+00
    -41.642  0.0000E+00  0.0000E+00
    -41.367  0.0000E+00  0.0000E+00
    -41.093  0.0000E+00  0.0000E+00
    -40.818  0.6964E-09  0.1913E-09
    -40.543  0.5080E-01  0.1396E-01
    -40.269  0.1546E+00  0.5641E-01
    -39.994  0.2277E+00  0.1190E+00
    -39.719  0.3756E-02  0.1200E+00
    -39.444  0.0000E+00  0.1200E+00
    -39.170  0.0000E+00  0.1200E+00
    -38.895  0.0000E+00  0.1200E+00
    -38.620  0.0000E+00  0.1200E+00
    -38.346  0.0000E+00  0.1200E+00
    -38.071  0.0000E+00  0.1200E+00
    -37.796  0.0000E+00  0.1200E+00
    -37.522  0.0000E+00  0.1200E+00
    -37.247  0.0000E+00  0.1200E+00
    -36.972  0.0000E+00  0.1200E+00
    -36.697  0.0000E+00  0.1200E+00
    -36.423  0.0000E+00  0.1200E+00
    -36.148  0.0000E+00  0.1200E+00
    -35.873  0.0000E+00  0.1200E+00
    -35.599  0.0000E+00  0.1200E+00
    -35.324  0.0000E+00  0.1200E+00
    -35.049  0.0000E+00  0.1200E+00
    -34.775  0.0000E+00  0.1200E+00
    -34.500  0.0000E+00  0.1200E+00
    -34.225  0.0000E+00  0.1200E+00
    -33.950  0.0000E+00  0.1200E+00
    -33.676  0.0000E+00  0.1200E+00
    -33.401  0.0000E+00  0.1200E+00
    -33.126  0.0000E+00  0.1200E+00
    -32.852  0.0000E+00  0.1200E+00
    -32.577  0.0000E+00  0.1200E+00
    -32.302  0.0000E+00  0.1200E+00
    -32.028  0.0000E+00  0.1200E+00
    -31.753  0.0000E+00  0.1200E+00
    -31.478  0.0000E+00  0.1200E+00
    -31.203  0.0000E+00  0.1200E+00
    -30.929  0.0000E+00  0.1200E+00
    -30.654  0.0000E+00  0.1200E+00
    -30.379  0.0000E+00  0.1200E+00
    -30.105  0.0000E+00  0.1200E+00
    -29.830  0.0000E+00  0.1200E+00
    -29.555  0.0000E+00  0.1200E+00
    -29.281  0.0000E+00  0.1200E+00
    -29.006  0.0000E+00  0.1200E+00
    -28.731  0.0000E+00  0.1200E+00
    -28.456  0.0000E+00  0.1200E+00
    -28.182  0.0000E+00  0.1200E+00
    -27.907  0.0000E+00  0.1200E+00
    -27.632  0.0000E+00  0.1200E+00
    -27.358  0.0000E+00  0.1200E+00
    -27.083  0.0000E+00  0.1200E+00
    -26.808  0.0000E+00  0.1200E+00
    -26.534  0.0000E+00  0.1200E+00
    -26.259  0.0000E+00  0.1200E+00
    -25.984  0.0000E+00  0.1200E+00
    -25.709  0.0000E+00  0.1200E+00
    -25.435  0.0000E+00  0.1200E+00
    -25.160  0.0000E+00  0.1200E+00
    -24.885  0.0000E+00  0.1200E+00
    -24.611  0.0000E+00  0.1200E+00
    -24.336  0.0000E+00  0.1200E+00
    -24.061  0.0000E+00  0.1200E+00
    -23.786  0.0000E+00  0.1200E+00
    -23.512  0.0000E+00  0.1200E+00
    -23.237  0.0000E+00  0.1200E+00
    -22.962  0.0000E+00  0.1200E+00
    -22.688  0.0000E+00  0.1200E+00
    -22.413  0.0000E+00  0.1200E+00
    -22.138  0.0000E+00  0.1200E+00
    -21.864  0.0000E+00  0.1200E+00
    -21.589  0.0000E+00  0.1200E+00
    -21.314  0.0000E+00  0.1200E+00
    -21.039  0.0000E+00  0.1200E+00
    -20.765  0.0000E+00  0.1200E+00
    -20.490  0.0000E+00  0.1200E+00
    -20.215  0.0000E+00  0.1200E+00
    -19.941  0.0000E+00  0.1200E+00
    -19.666  0.0000E+00  0.1200E+00
    -19.391  0.0000E+00  0.1200E+00
    -19.117  0.0000E+00  0.1200E+00
    -18.842  0.0000E+00  0.1200E+00
    -18.567  0.0000E+00  0.1200E+00
    -18.292  0.0000E+00  0.1200E+00
    -18.018  0.0000E+00  0.1200E+00
    -17.743  0.0000E+00  0.1200E+00
    -17.468  0.0000E+00  0.1200E+00
    -17.194  0.0000E+00  0.1200E+00
    -16.919  0.0000E+00  0.1200E+00
    -16.644  0.0000E+00  0.1200E+00
    -16.370  0.0000E+00  0.1200E+00
    -16.095  0.0000E+00  0.1200E+00
    -15.820  0.0000E+00  0.1200E+00
    -15.545  0.0000E+00  0.1200E+00
    -15.271  0.0000E+00  0.1200E+00
    -14.996  0.0000E+00  0.1200E+00
    -14.721  0.0000E+00  0.1200E+00
    -14.447  0.0000E+00  0.1200E+00
    -14.172  0.0000E+00  0.1200E+00
    -13.897  0.0000E+00  0.1200E+00
    -13.623  0.0000E+00  0.1200E+00
    -13.348  0.0000E+00  0.1200E+00
    -13.073  0.0000E+00  0.1200E+00
    -12.798  0.0000E+00  0.1200E+00
    -12.524  0.0000E+00  0.1200E+00
    -12.249  0.0000E+00  0.1200E+00
    -11.974  0.0000E+00  0.1200E+00
    -11.700  0.0000E+00  0.1200E+00
    -11.425  0.0000E+00  0.1200E+00
    -11.150  0.0000E+00  0.1200E+00
    -10.876  0.0000E+00  0.1200E+00
    -10.601  0.0000E+00  0.1200E+00
    -10.326  0.0000E+00  0.1200E+00
    -10.051  0.0000E+00  0.1200E+00
     -9.777  0.0000E+00  0.1200E+00
     -9.502  0.0000E+00  0.1200E+00
     -9.227  0.0000E+00  0.1200E+00
     -8.953  0.0000E+00  0.1200E+00
     -8.678  0.0000E+00  0.1200E+00
     -8.403  0.0000E+00  0.1200E+00
     -8.129  0.0000E+00  0.1200E+00
     -7.854  0.0000E+00  0.1200E+00
     -7.579  0.0000E+00  0.1200E+00
     -7.304  0.0000E+00  0.1200E+00
     -7.030  0.0000E+00  0.1200E+00
     -6.755  0.0000E+00  0.1200E+00
     -6.480  0.0000E+00  0.1200E+00
     -6.206  0.0000E+00  0.1200E+00
     -5.931  0.0000E+00  0.1200E+00
     -5.656  0.0000E+00  0.1200E+00
     -5.381  0.0000E+00  0.1200E+00
     -5.107  0.0000E+00  0.1200E+00
     -4.832  0.0000E+00  0.1200E+00
     -4.557  0.0000E+00  0.1200E+00
     -4.283  0.0000E+00  0.1200E+00
     -4.008  0.0000E+00  0.1200E+00
     -3.733  0.0000E+00  0.1200E+00
     -3.459  0.0000E+00  0.1200E+00
     -3.184  0.0000E+00  0.1200E+00
     -2.909  0.0000E+00  0.1200E+00
     -2.634  0.0000E+00  0.1200E+00
     -2.360  0.0000E+00  0.1200E+00
     -2.085  0.0000E+00  0.1200E+00
     -1.810  0.0000E+00  0.1200E+00
     -1.536  0.0000E+00  0.1200E+00
     -1.261  0.0000E+00  0.1200E+00
     -0.986  0.0000E+00  0.1200E+00
     -0.712  0.0000E+00  0.1200E+00
     -0.437  0.0000E+00  0.1200E+00
     -0.162  0.0000E+00  0.1200E+00
      0.113  0.0000E+00  0.1200E+00
      0.387  0.0000E+00  0.1200E+00
      0.662  0.0000E+00  0.1200E+00
      0.937  0.0000E+00  0.1200E+00
      1.211  0.0000E+00  0.1200E+00
      1.486  0.0000E+00  0.1200E+00
      1.761  0.2574E-16  0.1200E+00
      2.035  0.6490E-04  0.1200E+00
      2.310  0.2106E-03  0.1201E+00
      2.585  0.1625E-02  0.1205E+00
      2.860  0.1997E-03  0.1206E+00
      3.134  0.1411E-02  0.1210E+00
      3.409  0.1569E-02  0.1214E+00
      3.684  0.3638E-02  0.1224E+00
      3.958  0.1197E-02  0.1227E+00
      4.233  0.1534E-02  0.1231E+00
      4.508  0.5124E-02  0.1246E+00
      4.782  0.5095E-02  0.1260E+00
      5.057  0.4456E-02  0.1272E+00
      5.332  0.1193E-01  0.1305E+00
      5.607  0.2361E-01  0.1369E+00
      5.881  0.2409E-01  0.1436E+00
      6.156  0.2181E-01  0.1495E+00
      6.431  0.1703E-01  0.1542E+00
      6.705  0.2206E-01  0.1603E+00
      6.980  0.3330E-01  0.1694E+00
      7.255  0.2504E-01  0.1763E+00
      7.529  0.2711E-01  0.1838E+00
      7.804  0.2920E-01  0.1918E+00
      8.079  0.2477E-01  0.1986E+00
      8.354  0.2447E-01  0.2053E+00
      8.628  0.3210E-01  0.2141E+00
      8.903  0.3231E-01  0.2230E+00
      9.178  0.3163E-01  0.2317E+00
      9.452  0.3027E-01  0.2400E+00
      9.727  0.3741E-01  0.2503E+00
     10.002  0.3198E-01  0.2591E+00
     10.276  0.1384E-01  0.2629E+00
     10.551  0.2205E-01  0.2689E+00
     10.826  0.2024E-01  0.2745E+00
     11.101  0.2483E-01  0.2813E+00
     11.375  0.2284E-01  0.2876E+00
     11.650  0.2112E-01  0.2934E+00
     11.925  0.2282E-01  0.2996E+00
     12.199  0.3021E-01  0.3079E+00
     12.474  0.4115E-01  0.3192E+00
     12.749  0.2642E-01  0.3265E+00
     13.024  0.2297E-01  0.3328E+00
     13.298  0.7885E-02  0.3350E+00
     13.573  0.5042E-02  0.3364E+00
     13.848  0.1637E-02  0.3368E+00
     14.122  0.1924E-02  0.3373E+00
     14.397  0.3865E-02  0.3384E+00
     14.672  0.9853E-02  0.3411E+00
     14.946  0.9445E-02  0.3437E+00
     15.221  0.5486E-02  0.3452E+00
     15.496  0.6257E-03  0.3454E+00
     15.771  0.4358E-02  0.3466E+00
     16.045  0.5466E-02  0.3481E+00
     16.320  0.2274E-02  0.3487E+00
     16.595  0.7744E-02  0.3508E+00
     16.869  0.4212E-02  0.3520E+00
     17.144  0.3767E-02  0.3530E+00
     17.419  0.7500E-02  0.3551E+00
     17.693  0.6285E-02  0.3568E+00
     17.968  0.4861E-02  0.3582E+00
     18.243  0.3604E-02  0.3591E+00
     18.518  0.1625E-02  0.3596E+00
     18.792  0.1933E-02  0.3601E+00
     19.067  0.3267E-02  0.3610E+00
     19.342  0.6231E-02  0.3627E+00
     19.616  0.1173E-01  0.3660E+00
     19.891  0.8534E-02  0.3683E+00
     20.166  0.8729E-02  0.3707E+00
     20.440  0.5237E-02  0.3721E+00
     20.715  0.8299E-02  0.3744E+00
     20.990  0.7054E-02  0.3764E+00
     21.265  0.3469E-02  0.3773E+00
     21.539  0.8793E-02  0.3797E+00
     21.814  0.7871E-02  0.3819E+00
     22.089  0.7064E-02  0.3838E+00
     22.363  0.1015E-01  0.3866E+00
     22.638  0.3141E-02  0.3875E+00
     22.913  0.4211E-02  0.3886E+00
     23.187  0.8970E-02  0.3911E+00
     23.462  0.8947E-02  0.3936E+00
     23.737  0.5009E-02  0.3949E+00
     24.012  0.5747E-02  0.3965E+00
     24.286  0.4849E-02  0.3978E+00
     24.561  0.7752E-02  0.4000E+00
     24.836  0.3626E-02  0.4010E+00
     25.110  0.6617E-02  0.4028E+00
     25.385  0.1100E-01  0.4058E+00
     25.660  0.1099E-01  0.4088E+00
     25.934  0.8480E-02  0.4112E+00
     26.209  0.9471E-02  0.4138E+00
     26.484  0.5520E-02  0.4153E+00
     26.759  0.7400E-02  0.4173E+00
     27.033  0.1523E-01  0.4215E+00
     27.308  0.2449E-01  0.4282E+00
     27.583  0.1521E-01  0.4324E+00
     27.857  0.1357E-01  0.4361E+00
     28.132  0.1006E-01  0.4389E+00
     28.407  0.1466E-01  0.4429E+00
     28.681  0.1007E-01  0.4457E+00
     28.956  0.1585E-01  0.4500E+00
     29.231  0.2144E-01  0.4559E+00
     29.506  0.1488E-01  0.4600E+00
     29.780  0.8081E-02  0.4622E+00
     30.055  0.1119E-01  0.4653E+00
     30.330  0.1060E-01  0.4682E+00
     30.604  0.7724E-02  0.4703E+00
     30.879  0.8632E-02  0.4727E+00
     31.154  0.4897E-02  0.4741E+00
     31.428  0.1961E-02  0.4746E+00
     31.703  0.6527E-02  0.4764E+00
     31.978  0.3767E-02  0.4774E+00
     32.253  0.1391E-02  0.4778E+00
     32.527  0.4328E-02  0.4790E+00
     32.802  0.2570E-02  0.4797E+00
     33.077  0.3831E-03  0.4798E+00
     33.351  0.1821E-03  0.4799E+00
     33.626  0.3640E-03  0.4799E+00
     33.901  0.0000E+00  0.4800E+00
     34.176  0.4298E-06  0.4800E+00
     34.450  0.1816E-03  0.4800E+00
     34.725  0.0000E+00  0.4800E+00
     35.000  0.0000E+00  0.4800E+00
     35.274  0.0000E+00  0.4800E+00
     35.549  0.0000E+00  0.4800E+00
     35.824  0.0000E+00  0.4800E+00
     36.098  0.0000E+00  0.4800E+00
     36.373  0.0000E+00  0.4800E+00
     36.648  0.0000E+00  0.4800E+00
     36.923  0.0000E+00  0.4800E+00
     37.197  0.0000E+00  0.4800E+00
     37.472  0.0000E+00  0.4800E+00
     37.747  0.0000E+00  0.4800E+00
     38.021  0.0000E+00  0.4800E+00
     38.02133443    -44.38909915  301     12.49826473      1.00000000
    -44.389  0.0000E+00  0.0000E+00  0.0000E+00  0.0000E+00  0.0000E+00  0.0000E+00  0.0000E+00  0.0000E+00  0.0000E+00
    -44.114  0.0000E+00  0.0000E+00  0.0000E+00  0.0000E+00  0.0000E+00  0.0000E+00  0.0000E+00  0.0000E+00  0.0000E+00
    -43.840  0.0000E+00  0.0000E+00  0.0000E+00  0.0000E+00  0.0000E+00  0.0000E+00  0.0000E+00  0.0000E+00  0.0000E+00
    -43.565  0.0000E+00  0.0000E+00  0.0000E+00  0.0000E+00  0.0000E+00  0.0000E+00  0.0000E+00  0.0000E+00  0.0000E+00
    -43.290  0.0000E+00  0.0000E+00  0.0000E+00  0.0000E+00  0.0000E+00  0.0000E+00  0.0000E+00  0.0000E+00  0.0000E+00
    -43.016  0.0000E+00  0.0000E+00  0.0000E+00  0.0000E+00  0.0000E+00  0.0000E+00  0.0000E+00  0.0000E+00  0.0000E+00
    -42.741  0.0000E+00  0.0000E+00  0.0000E+00  0.0000E+00  0.0000E+00  0.0000E+00  0.0000E+00  0.0000E+00  0.0000E+00
    -42.466  0.0000E+00  0.0000E+00  0.0000E+00  0.0000E+00  0.0000E+00  0.0000E+00  0.0000E+00  0.0000E+00  0.0000E+00
    -42.191  0.0000E+00  0.0000E+00  0.0000E+00  0.0000E+00  0.0000E+00  0.0000E+00  0.0000E+00  0.0000E+00  0.0000E+00
    -41.917  0.0000E+00  0.0000E+00  0.0000E+00  0.0000E+00  0.0000E+00  0.0000E+00  0.0000E+00  0.0000E+00  0.0000E+00
    -41.642  0.0000E+00  0.0000E+00  0.0000E+00  0.0000E+00  0.0000E+00  0.0000E+00  0.0000E+00  0.0000E+00  0.0000E+00
    -41.367  0.0000E+00  0.0000E+00  0.0000E+00  0.0000E+00  0.0000E+00  0.0000E+00  0.0000E+00  0.0000E+00  0.0000E+00
    -41.093  0.0000E+00  0.0000E+00  0.0000E+00  0.0000E+00  0.0000E+00  0.0000E+00  0.0000E+00  0.0000E+00  0.0000E+00
    -40.818  0.2578E-12  0.1664E-07  0.8874E-09  0.1664E-07  0.2570E-13  0.1755E-13  0.2920E-12  0.1755E-13  0.2570E-13
    -40.543  0.7215E-04  0.1212E+01  0.7297E-01  0.1212E+01  0.3704E-04  0.3638E-05  0.4187E-04  0.3638E-05  0.3704E-04
    -40.269  0.3576E-03  0.3266E+01  0.1103E+01  0.3266E+01  0.1859E-03  0.2920E-04  0.1486E-03  0.2920E-04  0.1859E-03
    -39.994  0.9135E-04  0.2729E+01  0.5849E+01  0.2729E+01  0.9384E-04  0.8079E-04  0.1012E-03  0.8079E-04  0.9384E-04
    -39.719  0.6289E-06  0.1091E-02  0.1847E+00  0.1091E-02  0.4449E-07  0.7798E-06  0.8547E-06  0.7798E-06  0.4449E-07
    -39.444  0.0000E+00  0.0000E+00  0.0000E+00  0.0000E+00  0.0000E+00  0.0000E+00  0.0000E+00  0.0000E+00  0.0000E+00
    -39.170  0.0000E+00  0.0000E+00  0.0000E+00  0.0000E+00  0.0000E+00  0.0000E+00  0.0000E+00  0.0000E+00  0.0000E+00
    -38.895  0.0000E+00  0.0000E+00  0.0000E+00  0.0000E+00  0.0000E+00  0.0000E+00  0.0000E+00  0.0000E+00  0.0000E+00
    -38.620  0.0000E+00  0.0000E+00  0.0000E+00  0.0000E+00  0.0000E+00  0.0000E+00  0.0000E+00  0.0000E+00  0.0000E+00
    -38.346  0.0000E+00  0.0000E+00  0.0000E+00  0.0000E+00  0.0000E+00  0.0000E+00  0.0000E+00  0.0000E+00  0.0000E+00
    -38.071  0.0000E+00  0.0000E+00  0.0000E+00  0.0000E+00  0.0000E+00  0.0000E+00  0.0000E+00  0.0000E+00  0.0000E+00
    -37.796  0.0000E+00  0.0000E+00  0.0000E+00  0.0000E+00  0.0000E+00  0.0000E+00  0.0000E+00  0.0000E+00  0.0000E+00
    -37.522  0.0000E+00  0.0000E+00  0.0000E+00  0.0000E+00  0.0000E+00  0.0000E+00  0.0000E+00  0.0000E+00  0.0000E+00
    -37.247  0.0000E+00  0.0000E+00  0.0000E+00  0.0000E+00  0.0000E+00  0.0000E+00  0.0000E+00  0.0000E+00  0.0000E+00
    -36.972  0.0000E+00  0.0000E+00  0.0000E+00  0.0000E+00  0.0000E+00  0.0000E+00  0.0000E+00  0.0000E+00  0.0000E+00
    -36.697  0.0000E+00  0.0000E+00  0.0000E+00  0.0000E+00  0.0000E+00  0.0000E+00  0.0000E+00  0.0000E+00  0.0000E+00
    -36.423  0.0000E+00  0.0000E+00  0.0000E+00  0.0000E+00  0.0000E+00  0.0000E+00  0.0000E+00  0.0000E+00  0.0000E+00
    -36.148  0.0000E+00  0.0000E+00  0.0000E+00  0.0000E+00  0.0000E+00  0.0000E+00  0.0000E+00  0.0000E+00  0.0000E+00
    -35.873  0.0000E+00  0.0000E+00  0.0000E+00  0.0000E+00  0.0000E+00  0.0000E+00  0.0000E+00  0.0000E+00  0.0000E+00
    -35.599  0.0000E+00  0.0000E+00  0.0000E+00  0.0000E+00  0.0000E+00  0.0000E+00  0.0000E+00  0.0000E+00  0.0000E+00
    -35.324  0.0000E+00  0.0000E+00  0.0000E+00  0.0000E+00  0.0000E+00  0.0000E+00  0.0000E+00  0.0000E+00  0.0000E+00
    -35.049  0.0000E+00  0.0000E+00  0.0000E+00  0.0000E+00  0.0000E+00  0.0000E+00  0.0000E+00  0.0000E+00  0.0000E+00
    -34.775  0.0000E+00  0.0000E+00  0.0000E+00  0.0000E+00  0.0000E+00  0.0000E+00  0.0000E+00  0.0000E+00  0.0000E+00
    -34.500  0.0000E+00  0.0000E+00  0.0000E+00  0.0000E+00  0.0000E+00  0.0000E+00  0.0000E+00  0.0000E+00  0.0000E+00
    -34.225  0.0000E+00  0.0000E+00  0.0000E+00  0.0000E+00  0.0000E+00  0.0000E+00  0.0000E+00  0.0000E+00  0.0000E+00
    -33.950  0.0000E+00  0.0000E+00  0.0000E+00  0.0000E+00  0.0000E+00  0.0000E+00  0.0000E+00  0.0000E+00  0.0000E+00
    -33.676  0.0000E+00  0.0000E+00  0.0000E+00  0.0000E+00  0.0000E+00  0.0000E+00  0.0000E+00  0.0000E+00  0.0000E+00
    -33.401  0.0000E+00  0.0000E+00  0.0000E+00  0.0000E+00  0.0000E+00  0.0000E+00  0.0000E+00  0.0000E+00  0.0000E+00
    -33.126  0.0000E+00  0.0000E+00  0.0000E+00  0.0000E+00  0.0000E+00  0.0000E+00  0.0000E+00  0.0000E+00  0.0000E+00
    -32.852  0.0000E+00  0.0000E+00  0.0000E+00  0.0000E+00  0.0000E+00  0.0000E+00  0.0000E+00  0.0000E+00  0.0000E+00
    -32.577  0.0000E+00  0.0000E+00  0.0000E+00  0.0000E+00  0.0000E+00  0.0000E+00  0.0000E+00  0.0000E+00  0.0000E+00
    -32.302  0.0000E+00  0.0000E+00  0.0000E+00  0.0000E+00  0.0000E+00  0.0000E+00  0.0000E+00  0.0000E+00  0.0000E+00
    -32.028  0.0000E+00  0.0000E+00  0.0000E+00  0.0000E+00  0.0000E+00  0.0000E+00  0.0000E+00  0.0000E+00  0.0000E+00
    -31.753  0.0000E+00  0.0000E+00  0.0000E+00  0.0000E+00  0.0000E+00  0.0000E+00  0.0000E+00  0.0000E+00  0.0000E+00
    -31.478  0.0000E+00  0.0000E+00  0.0000E+00  0.0000E+00  0.0000E+00  0.0000E+00  0.0000E+00  0.0000E+00  0.0000E+00
    -31.203  0.0000E+00  0.0000E+00  0.0000E+00  0.0000E+00  0.0000E+00  0.0000E+00  0.0000E+00  0.0000E+00  0.0000E+00
    -30.929  0.0000E+00  0.0000E+00  0.0000E+00  0.0000E+00  0.0000E+00  0.0000E+00  0.0000E+00  0.0000E+00  0.0000E+00
    -30.654  0.0000E+00  0.0000E+00  0.0000E+00  0.0000E+00  0.0000E+00  0.0000E+00  0.0000E+00  0.0000E+00  0.0000E+00
    -30.379  0.0000E+00  0.0000E+00  0.0000E+00  0.0000E+00  0.0000E+00  0.0000E+00  0.0000E+00  0.0000E+00  0.0000E+00
    -30.105  0.0000E+00  0.0000E+00  0.0000E+00  0.0000E+00  0.0000E+00  0.0000E+00  0.0000E+00  0.0000E+00  0.0000E+00
    -29.830  0.0000E+00  0.0000E+00  0.0000E+00  0.0000E+00  0.0000E+00  0.0000E+00  0.0000E+00  0.0000E+00  0.0000E+00
    -29.555  0.0000E+00  0.0000E+00  0.0000E+00  0.0000E+00  0.0000E+00  0.0000E+00  0.0000E+00  0.0000E+00  0.0000E+00
    -29.281  0.0000E+00  0.0000E+00  0.0000E+00  0.0000E+00  0.0000E+00  0.0000E+00  0.0000E+00  0.0000E+00  0.0000E+00
    -29.006  0.0000E+00  0.0000E+00  0.0000E+00  0.0000E+00  0.0000E+00  0.0000E+00  0.0000E+00  0.0000E+00  0.0000E+00
    -28.731  0.0000E+00  0.0000E+00  0.0000E+00  0.0000E+00  0.0000E+00  0.0000E+00  0.0000E+00  0.0000E+00  0.0000E+00
    -28.456  0.0000E+00  0.0000E+00  0.0000E+00  0.0000E+00  0.0000E+00  0.0000E+00  0.0000E+00  0.0000E+00  0.0000E+00
    -28.182  0.0000E+00  0.0000E+00  0.0000E+00  0.0000E+00  0.0000E+00  0.0000E+00  0.0000E+00  0.0000E+00  0.0000E+00
    -27.907  0.0000E+00  0.0000E+00  0.0000E+00  0.0000E+00  0.0000E+00  0.0000E+00  0.0000E+00  0.0000E+00  0.0000E+00
    -27.632  0.0000E+00  0.0000E+00  0.0000E+00  0.0000E+00  0.0000E+00  0.0000E+00  0.0000E+00  0.0000E+00  0.0000E+00
    -27.358  0.0000E+00  0.0000E+00  0.0000E+00  0.0000E+00  0.0000E+00  0.0000E+00  0.0000E+00  0.0000E+00  0.0000E+00
    -27.083  0.0000E+00  0.0000E+00  0.0000E+00  0.0000E+00  0.0000E+00  0.0000E+00  0.0000E+00  0.0000E+00  0.0000E+00
    -26.808  0.0000E+00  0.0000E+00  0.0000E+00  0.0000E+00  0.0000E+00  0.0000E+00  0.0000E+00  0.0000E+00  0.0000E+00
    -26.534  0.0000E+00  0.0000E+00  0.0000E+00  0.0000E+00  0.0000E+00  0.0000E+00  0.0000E+00  0.0000E+00  0.0000E+00
    -26.259  0.0000E+00  0.0000E+00  0.0000E+00  0.0000E+00  0.0000E+00  0.0000E+00  0.0000E+00  0.0000E+00  0.0000E+00
    -25.984  0.0000E+00  0.0000E+00  0.0000E+00  0.0000E+00  0.0000E+00  0.0000E+00  0.0000E+00  0.0000E+00  0.0000E+00
    -25.709  0.0000E+00  0.0000E+00  0.0000E+00  0.0000E+00  0.0000E+00  0.0000E+00  0.0000E+00  0.0000E+00  0.0000E+00
    -25.435  0.0000E+00  0.0000E+00  0.0000E+00  0.0000E+00  0.0000E+00  0.0000E+00  0.0000E+00  0.0000E+00  0.0000E+00
    -25.160  0.0000E+00  0.0000E+00  0.0000E+00  0.0000E+00  0.0000E+00  0.0000E+00  0.0000E+00  0.0000E+00  0.0000E+00
    -24.885  0.0000E+00  0.0000E+00  0.0000E+00  0.0000E+00  0.0000E+00  0.0000E+00  0.0000E+00  0.0000E+00  0.0000E+00
    -24.611  0.0000E+00  0.0000E+00  0.0000E+00  0.0000E+00  0.0000E+00  0.0000E+00  0.0000E+00  0.0000E+00  0.0000E+00
    -24.336  0.0000E+00  0.0000E+00  0.0000E+00  0.0000E+00  0.0000E+00  0.0000E+00  0.0000E+00  0.0000E+00  0.0000E+00
    -24.061  0.0000E+00  0.0000E+00  0.0000E+00  0.0000E+00  0.0000E+00  0.0000E+00  0.0000E+00  0.0000E+00  0.0000E+00
    -23.786  0.0000E+00  0.0000E+00  0.0000E+00  0.0000E+00  0.0000E+00  0.0000E+00  0.0000E+00  0.0000E+00  0.0000E+00
    -23.512  0.0000E+00  0.0000E+00  0.0000E+00  0.0000E+00  0.0000E+00  0.0000E+00  0.0000E+00  0.0000E+00  0.0000E+00
    -23.237  0.0000E+00  0.0000E+00  0.0000E+00  0.0000E+00  0.0000E+00  0.0000E+00  0.0000E+00  0.0000E+00  0.0000E+00
    -22.962  0.0000E+00  0.0000E+00  0.0000E+00  0.0000E+00  0.0000E+00  0.0000E+00  0.0000E+00  0.0000E+00  0.0000E+00
    -22.688  0.0000E+00  0.0000E+00  0.0000E+00  0.0000E+00  0.0000E+00  0.0000E+00  0.0000E+00  0.0000E+00  0.0000E+00
    -22.413  0.0000E+00  0.0000E+00  0.0000E+00  0.0000E+00  0.0000E+00  0.0000E+00  0.0000E+00  0.0000E+00  0.0000E+00
    -22.138  0.0000E+00  0.0000E+00  0.0000E+00  0.0000E+00  0.0000E+00  0.0000E+00  0.0000E+00  0.0000E+00  0.0000E+00
    -21.864  0.0000E+00  0.0000E+00  0.0000E+00  0.0000E+00  0.0000E+00  0.0000E+00  0.0000E+00  0.0000E+00  0.0000E+00
    -21.589  0.0000E+00  0.0000E+00  0.0000E+00  0.0000E+00  0.0000E+00  0.0000E+00  0.0000E+00  0.0000E+00  0.0000E+00
    -21.314  0.0000E+00  0.0000E+00  0.0000E+00  0.0000E+00  0.0000E+00  0.0000E+00  0.0000E+00  0.0000E+00  0.0000E+00
    -21.039  0.0000E+00  0.0000E+00  0.0000E+00  0.0000E+00  0.0000E+00  0.0000E+00  0.0000E+00  0.0000E+00  0.0000E+00
    -20.765  0.0000E+00  0.0000E+00  0.0000E+00  0.0000E+00  0.0000E+00  0.0000E+00  0.0000E+00  0.0000E+00  0.0000E+00
    -20.490  0.0000E+00  0.0000E+00  0.0000E+00  0.0000E+00  0.0000E+00  0.0000E+00  0.0000E+00  0.0000E+00  0.0000E+00
    -20.215  0.0000E+00  0.0000E+00  0.0000E+00  0.0000E+00  0.0000E+00  0.0000E+00  0.0000E+00  0.0000E+00  0.0000E+00
    -19.941  0.0000E+00  0.0000E+00  0.0000E+00  0.0000E+00  0.0000E+00  0.0000E+00  0.0000E+00  0.0000E+00  0.0000E+00
    -19.666  0.0000E+00  0.0000E+00  0.0000E+00  0.0000E+00  0.0000E+00  0.0000E+00  0.0000E+00  0.0000E+00  0.0000E+00
    -19.391  0.0000E+00  0.0000E+00  0.0000E+00  0.0000E+00  0.0000E+00  0.0000E+00  0.0000E+00  0.0000E+00  0.0000E+00
    -19.117  0.0000E+00  0.0000E+00  0.0000E+00  0.0000E+00  0.0000E+00  0.0000E+00  0.0000E+00  0.0000E+00  0.0000E+00
    -18.842  0.0000E+00  0.0000E+00  0.0000E+00  0.0000E+00  0.0000E+00  0.0000E+00  0.0000E+00  0.0000E+00  0.0000E+00
    -18.567  0.0000E+00  0.0000E+00  0.0000E+00  0.0000E+00  0.0000E+00  0.0000E+00  0.0000E+00  0.0000E+00  0.0000E+00
    -18.292  0.0000E+00  0.0000E+00  0.0000E+00  0.0000E+00  0.0000E+00  0.0000E+00  0.0000E+00  0.0000E+00  0.0000E+00
    -18.018  0.0000E+00  0.0000E+00  0.0000E+00  0.0000E+00  0.0000E+00  0.0000E+00  0.0000E+00  0.0000E+00  0.0000E+00
    -17.743  0.0000E+00  0.0000E+00  0.0000E+00  0.0000E+00  0.0000E+00  0.0000E+00  0.0000E+00  0.0000E+00  0.0000E+00
    -17.468  0.0000E+00  0.0000E+00  0.0000E+00  0.0000E+00  0.0000E+00  0.0000E+00  0.0000E+00  0.0000E+00  0.0000E+00
    -17.194  0.0000E+00  0.0000E+00  0.0000E+00  0.0000E+00  0.0000E+00  0.0000E+00  0.0000E+00  0.0000E+00  0.0000E+00
    -16.919  0.0000E+00  0.0000E+00  0.0000E+00  0.0000E+00  0.0000E+00  0.0000E+00  0.0000E+00  0.0000E+00  0.0000E+00
    -16.644  0.0000E+00  0.0000E+00  0.0000E+00  0.0000E+00  0.0000E+00  0.0000E+00  0.0000E+00  0.0000E+00  0.0000E+00
    -16.370  0.0000E+00  0.0000E+00  0.0000E+00  0.0000E+00  0.0000E+00  0.0000E+00  0.0000E+00  0.0000E+00  0.0000E+00
    -16.095  0.0000E+00  0.0000E+00  0.0000E+00  0.0000E+00  0.0000E+00  0.0000E+00  0.0000E+00  0.0000E+00  0.0000E+00
    -15.820  0.0000E+00  0.0000E+00  0.0000E+00  0.0000E+00  0.0000E+00  0.0000E+00  0.0000E+00  0.0000E+00  0.0000E+00
    -15.545  0.0000E+00  0.0000E+00  0.0000E+00  0.0000E+00  0.0000E+00  0.0000E+00  0.0000E+00  0.0000E+00  0.0000E+00
    -15.271  0.0000E+00  0.0000E+00  0.0000E+00  0.0000E+00  0.0000E+00  0.0000E+00  0.0000E+00  0.0000E+00  0.0000E+00
    -14.996  0.0000E+00  0.0000E+00  0.0000E+00  0.0000E+00  0.0000E+00  0.0000E+00  0.0000E+00  0.0000E+00  0.0000E+00
    -14.721  0.0000E+00  0.0000E+00  0.0000E+00  0.0000E+00  0.0000E+00  0.0000E+00  0.0000E+00  0.0000E+00  0.0000E+00
    -14.447  0.0000E+00  0.0000E+00  0.0000E+00  0.0000E+00  0.0000E+00  0.0000E+00  0.0000E+00  0.0000E+00  0.0000E+00
    -14.172  0.0000E+00  0.0000E+00  0.0000E+00  0.0000E+00  0.0000E+00  0.0000E+00  0.0000E+00  0.0000E+00  0.0000E+00
    -13.897  0.0000E+00  0.0000E+00  0.0000E+00  0.0000E+00  0.0000E+00  0.0000E+00  0.0000E+00  0.0000E+00  0.0000E+00
    -13.623  0.0000E+00  0.0000E+00  0.0000E+00  0.0000E+00  0.0000E+00  0.0000E+00  0.0000E+00  0.0000E+00  0.0000E+00
    -13.348  0.0000E+00  0.0000E+00  0.0000E+00  0.0000E+00  0.0000E+00  0.0000E+00  0.0000E+00  0.0000E+00  0.0000E+00
    -13.073  0.0000E+00  0.0000E+00  0.0000E+00  0.0000E+00  0.0000E+00  0.0000E+00  0.0000E+00  0.0000E+00  0.0000E+00
    -12.798  0.0000E+00  0.0000E+00  0.0000E+00  0.0000E+00  0.0000E+00  0.0000E+00  0.0000E+00  0.0000E+00  0.0000E+00
    -12.524  0.0000E+00  0.0000E+00  0.0000E+00  0.0000E+00  0.0000E+00  0.0000E+00  0.0000E+00  0.0000E+00  0.0000E+00
    -12.249  0.0000E+00  0.0000E+00  0.0000E+00  0.0000E+00  0.0000E+00  0.0000E+00  0.0000E+00  0.0000E+00  0.0000E+00
    -11.974  0.0000E+00  0.0000E+00  0.0000E+00  0.0000E+00  0.0000E+00  0.0000E+00  0.0000E+00  0.0000E+00  0.0000E+00
    -11.700  0.0000E+00  0.0000E+00  0.0000E+00  0.0000E+00  0.0000E+00  0.0000E+00  0.0000E+00  0.0000E+00  0.0000E+00
    -11.425  0.0000E+00  0.0000E+00  0.0000E+00  0.0000E+00  0.0000E+00  0.0000E+00  0.0000E+00  0.0000E+00  0.0000E+00
    -11.150  0.0000E+00  0.0000E+00  0.0000E+00  0.0000E+00  0.0000E+00  0.0000E+00  0.0000E+00  0.0000E+00  0.0000E+00
    -10.876  0.0000E+00  0.0000E+00  0.0000E+00  0.0000E+00  0.0000E+00  0.0000E+00  0.0000E+00  0.0000E+00  0.0000E+00
    -10.601  0.0000E+00  0.0000E+00  0.0000E+00  0.0000E+00  0.0000E+00  0.0000E+00  0.0000E+00  0.0000E+00  0.0000E+00
    -10.326  0.0000E+00  0.0000E+00  0.0000E+00  0.0000E+00  0.0000E+00  0.0000E+00  0.0000E+00  0.0000E+00  0.0000E+00
    -10.051  0.0000E+00  0.0000E+00  0.0000E+00  0.0000E+00  0.0000E+00  0.0000E+00  0.0000E+00  0.0000E+00  0.0000E+00
     -9.777  0.0000E+00  0.0000E+00  0.0000E+00  0.0000E+00  0.0000E+00  0.0000E+00  0.0000E+00  0.0000E+00  0.0000E+00
     -9.502  0.0000E+00  0.0000E+00  0.0000E+00  0.0000E+00  0.0000E+00  0.0000E+00  0.0000E+00  0.0000E+00  0.0000E+00
     -9.227  0.0000E+00  0.0000E+00  0.0000E+00  0.0000E+00  0.0000E+00  0.0000E+00  0.0000E+00  0.0000E+00  0.0000E+00
     -8.953  0.0000E+00  0.0000E+00  0.0000E+00  0.0000E+00  0.0000E+00  0.0000E+00  0.0000E+00  0.0000E+00  0.0000E+00
     -8.678  0.0000E+00  0.0000E+00  0.0000E+00  0.0000E+00  0.0000E+00  0.0000E+00  0.0000E+00  0.0000E+00  0.0000E+00
     -8.403  0.0000E+00  0.0000E+00  0.0000E+00  0.0000E+00  0.0000E+00  0.0000E+00  0.0000E+00  0.0000E+00  0.0000E+00
     -8.129  0.0000E+00  0.0000E+00  0.0000E+00  0.0000E+00  0.0000E+00  0.0000E+00  0.0000E+00  0.0000E+00  0.0000E+00
     -7.854  0.0000E+00  0.0000E+00  0.0000E+00  0.0000E+00  0.0000E+00  0.0000E+00  0.0000E+00  0.0000E+00  0.0000E+00
     -7.579  0.0000E+00  0.0000E+00  0.0000E+00  0.0000E+00  0.0000E+00  0.0000E+00  0.0000E+00  0.0000E+00  0.0000E+00
     -7.304  0.0000E+00  0.0000E+00  0.0000E+00  0.0000E+00  0.0000E+00  0.0000E+00  0.0000E+00  0.0000E+00  0.0000E+00
     -7.030  0.0000E+00  0.0000E+00  0.0000E+00  0.0000E+00  0.0000E+00  0.0000E+00  0.0000E+00  0.0000E+00  0.0000E+00
     -6.755  0.0000E+00  0.0000E+00  0.0000E+00  0.0000E+00  0.0000E+00  0.0000E+00  0.0000E+00  0.0000E+00  0.0000E+00
     -6.480  0.0000E+00  0.0000E+00  0.0000E+00  0.0000E+00  0.0000E+00  0.0000E+00  0.0000E+00  0.0000E+00  0.0000E+00
     -6.206  0.0000E+00  0.0000E+00  0.0000E+00  0.0000E+00  0.0000E+00  0.0000E+00  0.0000E+00  0.0000E+00  0.0000E+00
     -5.931  0.0000E+00  0.0000E+00  0.0000E+00  0.0000E+00  0.0000E+00  0.0000E+00  0.0000E+00  0.0000E+00  0.0000E+00
     -5.656  0.0000E+00  0.0000E+00  0.0000E+00  0.0000E+00  0.0000E+00  0.0000E+00  0.0000E+00  0.0000E+00  0.0000E+00
     -5.381  0.0000E+00  0.0000E+00  0.0000E+00  0.0000E+00  0.0000E+00  0.0000E+00  0.0000E+00  0.0000E+00  0.0000E+00
     -5.107  0.0000E+00  0.0000E+00  0.0000E+00  0.0000E+00  0.0000E+00  0.0000E+00  0.0000E+00  0.0000E+00  0.0000E+00
     -4.832  0.0000E+00  0.0000E+00  0.0000E+00  0.0000E+00  0.0000E+00  0.0000E+00  0.0000E+00  0.0000E+00  0.0000E+00
     -4.557  0.0000E+00  0.0000E+00  0.0000E+00  0.0000E+00  0.0000E+00  0.0000E+00  0.0000E+00  0.0000E+00  0.0000E+00
     -4.283  0.0000E+00  0.0000E+00  0.0000E+00  0.0000E+00  0.0000E+00  0.0000E+00  0.0000E+00  0.0000E+00  0.0000E+00
     -4.008  0.0000E+00  0.0000E+00  0.0000E+00  0.0000E+00  0.0000E+00  0.0000E+00  0.0000E+00  0.0000E+00  0.0000E+00
     -3.733  0.0000E+00  0.0000E+00  0.0000E+00  0.0000E+00  0.0000E+00  0.0000E+00  0.0000E+00  0.0000E+00  0.0000E+00
     -3.459  0.0000E+00  0.0000E+00  0.0000E+00  0.0000E+00  0.0000E+00  0.0000E+00  0.0000E+00  0.0000E+00  0.0000E+00
     -3.184  0.0000E+00  0.0000E+00  0.0000E+00  0.0000E+00  0.0000E+00  0.0000E+00  0.0000E+00  0.0000E+00  0.0000E+00
     -2.909  0.0000E+00  0.0000E+00  0.0000E+00  0.0000E+00  0.0000E+00  0.0000E+00  0.0000E+00  0.0000E+00  0.0000E+00
     -2.634  0.0000E+00  0.0000E+00  0.0000E+00  0.0000E+00  0.0000E+00  0.0000E+00  0.0000E+00  0.0000E+00  0.0000E+00
     -2.360  0.0000E+00  0.0000E+00  0.0000E+00  0.0000E+00  0.0000E+00  0.0000E+00  0.0000E+00  0.0000E+00  0.0000E+00
     -2.085  0.0000E+00  0.0000E+00  0.0000E+00  0.0000E+00  0.0000E+00  0.0000E+00  0.0000E+00  0.0000E+00  0.0000E+00
     -1.810  0.0000E+00  0.0000E+00  0.0000E+00  0.0000E+00  0.0000E+00  0.0000E+00  0.0000E+00  0.0000E+00  0.0000E+00
     -1.536  0.0000E+00  0.0000E+00  0.0000E+00  0.0000E+00  0.0000E+00  0.0000E+00  0.0000E+00  0.0000E+00  0.0000E+00