PROCAR lm decomposed
# of k-points:   70         # of bands:   24         # of ions:    2

 k-point     1 :    0.00000000 0.00000000 0.00000000     weight = 0.00125000

band     1 # energy  -40.42279452 # occ.  2.00000000
 
ion      s     py     pz     px    dxy    dyz    dz2    dxz  x2-y2    tot
    1  0.000  0.000  0.491  0.000  0.000  0.000  0.000  0.000  0.000  0.491
    2  0.000  0.000  0.491  0.000  0.000  0.000  0.000  0.000  0.000  0.491
tot    0.000  0.000  0.981  0.000  0.000  0.000  0.000  0.000  0.000  0.981
 
band     2 # energy  -40.15219022 # occ.  2.00000000
 
ion      s     py     pz     px    dxy    dyz    dz2    dxz  x2-y2    tot
    1  0.000  0.125  0.000  0.374  0.000  0.000  0.000  0.000  0.000  0.498
    2  0.000  0.125  0.000  0.374  0.000  0.000  0.000  0.000  0.000  0.498
tot    0.000  0.249  0.000  0.747  0.000  0.000  0.000  0.000  0.000  0.996
 
band     3 # energy  -40.15218934 # occ.  2.00000000
 
ion      s     py     pz     px    dxy    dyz    dz2    dxz  x2-y2    tot
    1  0.000  0.374  0.000  0.125  0.000  0.000  0.000  0.000  0.000  0.498
    2  0.000  0.374  0.000  0.125  0.000  0.000  0.000  0.000  0.000  0.498
tot    0.000  0.747  0.000  0.249  0.000  0.000  0.000  0.000  0.000  0.996
 
band     4 # energy  -40.10096918 # occ.  2.00000000
 
ion      s     py     pz     px    dxy    dyz    dz2    dxz  x2-y2    tot
    1  0.000  0.125  0.000  0.374  0.000  0.000  0.000  0.000  0.000  0.499
    2  0.000  0.125  0.000  0.374  0.000  0.000  0.000  0.000  0.000  0.499
tot    0.000  0.249  0.000  0.748  0.000  0.000  0.000  0.000  0.000  0.998
 
band     5 # energy  -40.10096830 # occ.  2.00000000
 
ion      s     py     pz     px    dxy    dyz    dz2    dxz  x2-y2    tot
    1  0.000  0.374  0.000  0.125  0.000  0.000  0.000  0.000  0.000  0.499
    2  0.000  0.374  0.000  0.125  0.000  0.000  0.000  0.000  0.000  0.499
tot    0.000  0.748  0.000  0.249  0.000  0.000  0.000  0.000  0.000  0.998
 
band     6 # energy  -39.99088438 # occ.  2.00000000
 
ion      s     py     pz     px    dxy    dyz    dz2    dxz  x2-y2    tot
    1  0.000  0.000  0.498  0.000  0.000  0.000  0.000  0.000  0.000  0.498
    2  0.000  0.000  0.498  0.000  0.000  0.000  0.000  0.000  0.000  0.498
tot    0.000  0.000  0.996  0.000  0.000  0.000  0.000  0.000  0.000  0.996
 
band     7 # energy    2.01560182 # occ.  2.00000000
 
ion      s     py     pz     px    dxy    dyz    dz2    dxz  x2-y2    tot
    1  0.206  0.000  0.000  0.000  0.000  0.000  0.000  0.000  0.000  0.206
    2  0.206  0.000  0.000  0.000  0.000  0.000  0.000  0.000  0.000  0.206
tot    0.411  0.000  0.000  0.000  0.000  0.000  0.001  0.000  0.000  0.412
 
band     8 # energy    4.72794081 # occ.  2.00000000
 
ion      s     py     pz     px    dxy    dyz    dz2    dxz  x2-y2    tot
    1  0.085  0.000  0.000  0.000  0.000  0.000  0.237  0.000  0.000  0.322
    2  0.085  0.000  0.000  0.000  0.000  0.000  0.237  0.000  0.000  0.322
tot    0.171  0.000  0.000  0.000  0.000  0.000  0.474  0.000  0.000  0.645
 
band     9 # energy    8.10972739 # occ.  2.00000000
 
ion      s     py     pz     px    dxy    dyz    dz2    dxz  x2-y2    tot
    1  0.000  0.000  0.000  0.000  0.000  0.000  0.417  0.000  0.000  0.417
    2  0.000  0.000  0.000  0.000  0.000  0.000  0.417  0.000  0.000  0.417
tot    0.000  0.000  0.000  0.000  0.000  0.000  0.834  0.000  0.000  0.834
 
band    10 # energy    8.67019376 # occ.  2.00000000
 
ion      s     py     pz     px    dxy    dyz    dz2    dxz  x2-y2    tot
    1  0.000  0.000  0.000  0.000  0.106  0.000  0.000  0.000  0.319  0.425
    2  0.000  0.000  0.000  0.000  0.106  0.000  0.000  0.000  0.319  0.425
tot    0.000  0.000  0.000  0.000  0.213  0.000  0.000  0.000  0.638  0.851
 
band    11 # energy    8.67019439 # occ.  2.00000000
 
ion      s     py     pz     px    dxy    dyz    dz2    dxz  x2-y2    tot
    1  0.000  0.000  0.000  0.000  0.319  0.000  0.000  0.000  0.106  0.425
    2  0.000  0.000  0.000  0.000  0.319  0.000  0.000  0.000  0.106  0.425
tot    0.000  0.000  0.000  0.000  0.638  0.000  0.000  0.000  0.213  0.851
 
band    12 # energy    9.08554298 # occ.  2.00000000
 
ion      s     py     pz     px    dxy    dyz    dz2    dxz  x2-y2    tot
    1  0.000  0.000  0.000  0.000  0.109  0.000  0.000  0.000  0.326  0.435
    2  0.000  0.000  0.000  0.000  0.109  0.000  0.000  0.000  0.326  0.435
tot    0.000  0.000  0.000  0.000  0.218  0.000  0.000  0.000  0.653  0.871
 
band    13 # energy    9.08554361 # occ.  2.00000000
 
ion      s     py     pz     px    dxy    dyz    dz2    dxz  x2-y2    tot
    1  0.000  0.000  0.000  0.000  0.326  0.000  0.000  0.000  0.109  0.435
    2  0.000  0.000  0.000  0.000  0.326  0.000  0.000  0.000  0.109  0.435
tot    0.000  0.000  0.000  0.000  0.653  0.000  0.000  0.000  0.218  0.871
 
band    14 # energy   10.47559328 # occ.  2.00000000
 
ion      s     py     pz     px    dxy    dyz    dz2    dxz  x2-y2    tot
    1  0.000  0.000  0.000  0.000  0.000  0.112  0.000  0.335  0.000  0.447
    2  0.000  0.000  0.000  0.000  0.000  0.112  0.000  0.335  0.000  0.447
tot    0.000  0.000  0.000  0.000  0.000  0.223  0.000  0.670  0.000  0.893
 
band    15 # energy   10.47559347 # occ.  2.00000000
 
ion      s     py     pz     px    dxy    dyz    dz2    dxz  x2-y2    tot
    1  0.000  0.000  0.000  0.000  0.000  0.335  0.000  0.112  0.000  0.447
    2  0.000  0.000  0.000  0.000  0.000  0.335  0.000  0.112  0.000  0.447
tot    0.000  0.000  0.000  0.000  0.000  0.670  0.000  0.223  0.000  0.893
 
band    16 # energy   11.48427292 # occ.  2.00000000
 
ion      s     py     pz     px    dxy    dyz    dz2    dxz  x2-y2    tot
    1  0.000  0.000  0.093  0.000  0.000  0.000  0.000  0.000  0.000  0.093
    2  0.000  0.000  0.093  0.000  0.000  0.000  0.000  0.000  0.000  0.093
tot    0.000  0.000  0.186  0.000  0.000  0.000  0.000  0.000  0.000  0.186
 
band    17 # energy   12.26112368 # occ.  2.00000000
 
ion      s     py     pz     px    dxy    dyz    dz2    dxz  x2-y2    tot
    1  0.000  0.000  0.000  0.000  0.000  0.117  0.000  0.350  0.000  0.467
    2  0.000  0.000  0.000  0.000  0.000  0.117  0.000  0.350  0.000  0.467
tot    0.000  0.000  0.000  0.000  0.000  0.233  0.000  0.700  0.000  0.934
 
band    18 # energy   12.26112390 # occ.  2.00000000
 
ion      s     py     pz     px    dxy    dyz    dz2    dxz  x2-y2    tot
    1  0.000  0.000  0.000  0.000  0.000  0.350  0.000  0.117  0.000  0.467
    2  0.000  0.000  0.000  0.000  0.000  0.350  0.000  0.117  0.000  0.467
tot    0.000  0.000  0.000  0.000  0.000  0.700  0.000  0.233  0.000  0.934
 
band    19 # energy   17.67213493 # occ.  0.00000000
 
ion      s     py     pz     px    dxy    dyz    dz2    dxz  x2-y2    tot
    1  0.185  0.000  0.000  0.000  0.000  0.000  0.225  0.000  0.000  0.410
    2  0.185  0.000  0.000  0.000  0.000  0.000  0.225  0.000  0.000  0.410
tot    0.370  0.000  0.000  0.000  0.000  0.000  0.451  0.000  0.000  0.821
 
band    20 # energy   27.45323959 # occ.  0.00000000
 
ion      s     py     pz     px    dxy    dyz    dz2    dxz  x2-y2    tot
    1  0.003  0.000  0.000  0.000  0.000  0.000  0.002  0.000  0.000  0.005
    2  0.003  0.000  0.000  0.000  0.000  0.000  0.002  0.000  0.000  0.005
tot    0.006  0.000  0.000  0.000  0.000  0.000  0.004  0.000  0.000  0.011
 
band    21 # energy   28.17096730 # occ.  0.00000000
 
ion      s     py     pz     px    dxy    dyz    dz2    dxz  x2-y2    tot
    1  0.000  0.000  0.019  0.000  0.000  0.000  0.000  0.000  0.000  0.019
    2  0.000  0.000  0.019  0.000  0.000  0.000  0.000  0.000  0.000  0.019
tot    0.000  0.000  0.038  0.000  0.000  0.000  0.000  0.000  0.000  0.038
 
band    22 # energy   29.74843533 # occ.  0.00000000
 
ion      s     py     pz     px    dxy    dyz    dz2    dxz  x2-y2    tot
    1  0.000  0.000  0.000  0.000  0.000  0.000  0.018  0.000  0.000  0.018
    2  0.000  0.000  0.000  0.000  0.000  0.000  0.018  0.000  0.000  0.018
tot    0.000  0.000  0.000  0.000  0.000  0.000  0.036  0.000  0.000  0.036
 
band    23 # energy   34.27540535 # occ.  0.00000000
 
ion      s     py     pz     px    dxy    dyz    dz2    dxz  x2-y2    tot
    1  0.000  0.035  0.000  0.093  0.016  0.000  0.000  0.000  0.006  0.150
    2  0.000  0.035  0.000  0.093  0.016  0.000  0.000  0.000  0.006  0.150
tot    0.000  0.071  0.000  0.186  0.032  0.000  0.000  0.000  0.012  0.301
 
band    24 # energy   34.27540563 # occ.  0.00000000
 
ion      s     py     pz     px    dxy    dyz    dz2    dxz  x2-y2    tot
    1  0.000  0.093  0.000  0.035  0.006  0.000  0.000  0.000  0.016  0.150
    2  0.000  0.093  0.000  0.035  0.006  0.000  0.000  0.000  0.016  0.150
tot    0.000  0.186  0.000  0.071  0.012  0.000  0.000  0.000  0.032  0.301
 

 k-point     2 :    0.10000000-0.00000000 0.00000000     weight = 0.00750000

band     1 # energy  -40.40684567 # occ.  2.00000000
 
ion      s     py     pz     px    dxy    dyz    dz2    dxz  x2-y2    tot
    1  0.000  0.000  0.491  0.000  0.000  0.000  0.000  0.000  0.000  0.491
    2  0.000  0.000  0.491  0.000  0.000  0.000  0.000  0.000  0.000  0.491
tot    0.000  0.000  0.982  0.000  0.000  0.000  0.000  0.000  0.000  0.982
 
band     2 # energy  -40.19908224 # occ.  2.00000000
 
ion      s     py     pz     px    dxy    dyz    dz2    dxz  x2-y2    tot
    1  0.000  0.124  0.000  0.373  0.000  0.000  0.000  0.000  0.000  0.497
    2  0.000  0.124  0.000  0.373  0.000  0.000  0.000  0.000  0.000  0.497
tot    0.000  0.249  0.000  0.746  0.000  0.000  0.000  0.000  0.000  0.995
 
band     3 # energy  -40.16541350 # occ.  2.00000000
 
ion      s     py     pz     px    dxy    dyz    dz2    dxz  x2-y2    tot
    1  0.000  0.373  0.000  0.124  0.000  0.000  0.000  0.000  0.000  0.498
    2  0.000  0.373  0.000  0.124  0.000  0.000  0.000  0.000  0.000  0.498
tot    0.000  0.747  0.000  0.249  0.000  0.000  0.000  0.000  0.000  0.996
 
band     4 # energy  -40.14817065 # occ.  2.00000000
 
ion      s     py     pz     px    dxy    dyz    dz2    dxz  x2-y2    tot
    1  0.000  0.125  0.000  0.374  0.000  0.000  0.000  0.000  0.000  0.498
    2  0.000  0.125  0.000  0.374  0.000  0.000  0.000  0.000  0.000  0.498
tot    0.000  0.249  0.000  0.747  0.000  0.000  0.000  0.000  0.000  0.996
 
band     5 # energy  -40.10977224 # occ.  2.00000000
 
ion      s     py     pz     px    dxy    dyz    dz2    dxz  x2-y2    tot
    1  0.000  0.374  0.000  0.125  0.000  0.000  0.000  0.000  0.000  0.499
    2  0.000  0.374  0.000  0.125  0.000  0.000  0.000  0.000  0.000  0.499
tot    0.000  0.748  0.000  0.249  0.000  0.000  0.000  0.000  0.000  0.997
 
band     6 # energy  -39.99362251 # occ.  2.00000000
 
ion      s     py     pz     px    dxy    dyz    dz2    dxz  x2-y2    tot
    1  0.000  0.000  0.498  0.000  0.000  0.000  0.000  0.000  0.000  0.498
    2  0.000  0.000  0.498  0.000  0.000  0.000  0.000  0.000  0.000  0.498
tot    0.000  0.000  0.996  0.000  0.000  0.000  0.000  0.000  0.000  0.996
 
band     7 # energy    2.40214502 # occ.  2.00000000
 
ion      s     py     pz     px    dxy    dyz    dz2    dxz  x2-y2    tot
    1  0.201  0.001  0.000  0.002  0.000  0.000  0.000  0.000  0.000  0.204
    2  0.201  0.001  0.000  0.002  0.000  0.000  0.000  0.000  0.000  0.204
tot    0.403  0.001  0.000  0.004  0.001  0.000  0.000  0.000  0.000  0.409
 
band     8 # energy    5.08068000 # occ.  2.00000000
 
ion      s     py     pz     px    dxy    dyz    dz2    dxz  x2-y2    tot
    1  0.078  0.001  0.000  0.002  0.002  0.000  0.241  0.000  0.001  0.324
    2  0.078  0.001  0.000  0.002  0.002  0.000  0.241  0.000  0.001  0.324
tot    0.156  0.001  0.000  0.004  0.004  0.000  0.481  0.000  0.001  0.647
 
band     9 # energy    8.03336107 # occ.  2.00000000
 
ion      s     py     pz     px    dxy    dyz    dz2    dxz  x2-y2    tot
    1  0.000  0.000  0.000  0.000  0.117  0.000  0.255  0.000  0.039  0.412
    2  0.000  0.000  0.000  0.000  0.117  0.000  0.255  0.000  0.039  0.412
tot    0.000  0.000  0.000  0.001  0.234  0.000  0.511  0.000  0.078  0.824
 
band    10 # energy    8.67942755 # occ.  2.00000000
 
ion      s     py     pz     px    dxy    dyz    dz2    dxz  x2-y2    tot
    1  0.000  0.000  0.000  0.000  0.212  0.000  0.140  0.000  0.071  0.423
    2  0.000  0.000  0.000  0.000  0.212  0.000  0.140  0.000  0.071  0.423
tot    0.000  0.000  0.000  0.001  0.423  0.000  0.280  0.000  0.141  0.845
 
band    11 # energy    8.91667568 # occ.  2.00000000
 
ion      s     py     pz     px    dxy    dyz    dz2    dxz  x2-y2    tot
    1  0.002  0.000  0.000  0.000  0.301  0.000  0.024  0.000  0.100  0.428
    2  0.002  0.000  0.000  0.000  0.301  0.000  0.024  0.000  0.100  0.428
tot    0.004  0.000  0.000  0.001  0.602  0.000  0.048  0.000  0.201  0.856
 
band    12 # energy    8.97573649 # occ.  2.00000000
 
ion      s     py     pz     px    dxy    dyz    dz2    dxz  x2-y2    tot
    1  0.000  0.000  0.000  0.000  0.107  0.000  0.000  0.000  0.320  0.427
    2  0.000  0.000  0.000  0.000  0.107  0.000  0.000  0.000  0.320  0.427
tot    0.000  0.001  0.000  0.000  0.213  0.000  0.000  0.000  0.639  0.853
 
band    13 # energy    9.37698060 # occ.  2.00000000
 
ion      s     py     pz     px    dxy    dyz    dz2    dxz  x2-y2    tot
    1  0.000  0.000  0.000  0.000  0.109  0.000  0.000  0.000  0.327  0.437
    2  0.000  0.000  0.000  0.000  0.109  0.000  0.000  0.000  0.327  0.437
tot    0.000  0.001  0.000  0.000  0.218  0.000  0.000  0.000  0.654  0.873
 
band    14 # energy    9.78956229 # occ.  2.00000000
 
ion      s     py     pz     px    dxy    dyz    dz2    dxz  x2-y2    tot
    1  0.000  0.000  0.025  0.000  0.000  0.077  0.000  0.230  0.000  0.331
    2  0.000  0.000  0.025  0.000  0.000  0.077  0.000  0.230  0.000  0.331
tot    0.000  0.000  0.050  0.000  0.000  0.153  0.000  0.459  0.000  0.662
 
band    15 # energy   10.28213811 # occ.  2.00000000
 
ion      s     py     pz     px    dxy    dyz    dz2    dxz  x2-y2    tot
    1  0.000  0.000  0.000  0.000  0.000  0.331  0.000  0.110  0.000  0.442
    2  0.000  0.000  0.000  0.000  0.000  0.331  0.000  0.110  0.000  0.442
tot    0.000  0.000  0.000  0.000  0.000  0.663  0.000  0.221  0.000  0.884
 
band    16 # energy   10.42042099 # occ.  2.00000000
 
ion      s     py     pz     px    dxy    dyz    dz2    dxz  x2-y2    tot
    1  0.000  0.000  0.021  0.000  0.000  0.085  0.000  0.256  0.000  0.363
    2  0.000  0.000  0.021  0.000  0.000  0.085  0.000  0.256  0.000  0.363
tot    0.000  0.000  0.041  0.000  0.000  0.171  0.000  0.513  0.000  0.725
 
band    17 # energy   12.33542364 # occ.  1.99999589
 
ion      s     py     pz     px    dxy    dyz    dz2    dxz  x2-y2    tot
    1  0.000  0.000  0.000  0.000  0.000  0.352  0.000  0.117  0.000  0.470
    2  0.000  0.000  0.000  0.000  0.000  0.352  0.000  0.117  0.000  0.470
tot    0.000  0.000  0.000  0.000  0.000  0.705  0.000  0.235  0.000  0.940
 
band    18 # energy   14.06535635 # occ.  0.00000000
 
ion      s     py     pz     px    dxy    dyz    dz2    dxz  x2-y2    tot
    1  0.000  0.000  0.048  0.000  0.000  0.064  0.000  0.193  0.000  0.306
    2  0.000  0.000  0.048  0.000  0.000  0.064  0.000  0.193  0.000  0.306
tot    0.000  0.000  0.097  0.000  0.000  0.129  0.000  0.386  0.000  0.612
 
band    19 # energy   17.62507617 # occ.  0.00000000
 
ion      s     py     pz     px    dxy    dyz    dz2    dxz  x2-y2    tot
    1  0.186  0.000  0.000  0.001  0.002  0.000  0.217  0.000  0.001  0.406
    2  0.186  0.000  0.000  0.001  0.002  0.000  0.217  0.000  0.001  0.406
tot    0.371  0.000  0.000  0.001  0.003  0.000  0.435  0.000  0.001  0.812
 
band    20 # energy   28.01169891 # occ.  0.00000000
 
ion      s     py     pz     px    dxy    dyz    dz2    dxz  x2-y2    tot
    1  0.005  0.001  0.000  0.002  0.017  0.000  0.003  0.000  0.006  0.032
    2  0.005  0.001  0.000  0.002  0.017  0.000  0.003  0.000  0.006  0.032
tot    0.009  0.001  0.000  0.004  0.033  0.000  0.005  0.000  0.011  0.063
 
band    21 # energy   28.73591437 # occ.  0.00000000
 
ion      s     py     pz     px    dxy    dyz    dz2    dxz  x2-y2    tot
    1  0.000  0.000  0.016  0.000  0.000  0.002  0.000  0.006  0.000  0.024
    2  0.000  0.000  0.016  0.000  0.000  0.002  0.000  0.006  0.000  0.024
tot    0.000  0.000  0.033  0.000  0.000  0.004  0.000  0.012  0.000  0.049
 
band    22 # energy   30.25738379 # occ.  0.00000000
 
ion      s     py     pz     px    dxy    dyz    dz2    dxz  x2-y2    tot
    1  0.001  0.002  0.000  0.007  0.015  0.000  0.023  0.000  0.005  0.054
    2  0.001  0.002  0.000  0.007  0.015  0.000  0.023  0.000  0.005  0.054
tot    0.003  0.005  0.000  0.014  0.030  0.000  0.047  0.000  0.010  0.108
 
band    23 # energy   32.48120709 # occ.  0.00000000
 
ion      s     py     pz     px    dxy    dyz    dz2    dxz  x2-y2    tot
    1  0.007  0.026  0.000  0.078  0.014  0.000  0.003  0.000  0.005  0.134
    2  0.007  0.026  0.000  0.078  0.015  0.000  0.003  0.000  0.005  0.134
tot    0.014  0.052  0.000  0.156  0.029  0.000  0.006  0.000  0.010  0.267
 
band    24 # energy   32.61717014 # occ.  0.00000000
 
ion      s     py     pz     px    dxy    dyz    dz2    dxz  x2-y2    tot
    1  0.000  0.000  0.008  0.000  0.000  0.006  0.000  0.018  0.000  0.032
    2  0.000  0.000  0.008  0.000  0.000  0.006  0.000  0.018  0.000  0.032
tot    0.000  0.000  0.016  0.000  0.000  0.012  0.000  0.035  0.000  0.063
 

 k-point     3 :    0.20000000-0.00000000 0.00000000     weight = 0.00750000

band     1 # energy  -40.36426919 # occ.  2.00000000
 
ion      s     py     pz     px    dxy    dyz    dz2    dxz  x2-y2    tot
    1  0.000  0.000  0.492  0.000  0.000  0.000  0.000  0.000  0.000  0.492
    2  0.000  0.000  0.492  0.000  0.000  0.000  0.000  0.000  0.000  0.492
tot    0.000  0.000  0.983  0.000  0.000  0.000  0.000  0.000  0.000  0.983
 
band     2 # energy  -40.32181476 # occ.  2.00000000
 
ion      s     py     pz     px    dxy    dyz    dz2    dxz  x2-y2    tot
    1  0.000  0.124  0.000  0.372  0.000  0.000  0.000  0.000  0.000  0.496
    2  0.000  0.124  0.000  0.372  0.000  0.000  0.000  0.000  0.000  0.496
tot    0.000  0.248  0.000  0.743  0.000  0.000  0.000  0.000  0.000  0.991
 
band     3 # energy  -40.27126290 # occ.  2.00000000
 
ion      s     py     pz     px    dxy    dyz    dz2    dxz  x2-y2    tot
    1  0.000  0.124  0.000  0.372  0.000  0.000  0.000  0.000  0.000  0.496
    2  0.000  0.124  0.000  0.372  0.000  0.000  0.000  0.000  0.000  0.496
tot    0.000  0.248  0.000  0.744  0.000  0.000  0.000  0.000  0.000  0.993
 
band     4 # energy  -40.20089218 # occ.  2.00000000
 
ion      s     py     pz     px    dxy    dyz    dz2    dxz  x2-y2    tot
    1  0.000  0.373  0.000  0.124  0.000  0.000  0.000  0.000  0.000  0.497
    2  0.000  0.373  0.000  0.124  0.000  0.000  0.000  0.000  0.000  0.497
tot    0.000  0.746  0.000  0.249  0.000  0.000  0.000  0.000  0.000  0.995
 
band     5 # energy  -40.13508675 # occ.  2.00000000
 
ion      s     py     pz     px    dxy    dyz    dz2    dxz  x2-y2    tot
    1  0.000  0.374  0.000  0.125  0.000  0.000  0.000  0.000  0.000  0.498
    2  0.000  0.374  0.000  0.125  0.000  0.000  0.000  0.000  0.000  0.498
tot    0.000  0.748  0.000  0.249  0.000  0.000  0.000  0.000  0.000  0.997
 
band     6 # energy  -40.00511646 # occ.  2.00000000
 
ion      s     py     pz     px    dxy    dyz    dz2    dxz  x2-y2    tot
    1  0.000  0.000  0.498  0.000  0.000  0.000  0.000  0.000  0.000  0.498
    2  0.000  0.000  0.498  0.000  0.000  0.000  0.000  0.000  0.000  0.498
tot    0.000  0.000  0.995  0.000  0.000  0.000  0.000  0.000  0.000  0.995
 
band     7 # energy    3.44765633 # occ.  2.00000000
 
ion      s     py     pz     px    dxy    dyz    dz2    dxz  x2-y2    tot
    1  0.185  0.002  0.000  0.007  0.007  0.000  0.001  0.000  0.002  0.204
    2  0.185  0.002  0.000  0.007  0.007  0.000  0.001  0.000  0.002  0.204
tot    0.371  0.005  0.000  0.014  0.014  0.000  0.002  0.000  0.005  0.409
 
band     8 # energy    5.84398845 # occ.  2.00000000
 
ion      s     py     pz     px    dxy    dyz    dz2    dxz  x2-y2    tot
    1  0.052  0.001  0.000  0.004  0.042  0.000  0.223  0.000  0.014  0.336
    2  0.052  0.001  0.000  0.004  0.042  0.000  0.223  0.000  0.014  0.336
tot    0.105  0.003  0.000  0.009  0.083  0.000  0.445  0.000  0.028  0.672
 
band     9 # energy    7.77874740 # occ.  2.00000000
 
ion      s     py     pz     px    dxy    dyz    dz2    dxz  x2-y2    tot
    1  0.003  0.001  0.000  0.004  0.187  0.000  0.129  0.000  0.062  0.386
    2  0.003  0.001  0.000  0.004  0.187  0.000  0.129  0.000  0.062  0.386
tot    0.007  0.003  0.000  0.008  0.373  0.000  0.257  0.000  0.124  0.772
 
band    10 # energy    8.28743746 # occ.  2.00000000
 
ion      s     py     pz     px    dxy    dyz    dz2    dxz  x2-y2    tot
    1  0.000  0.000  0.021  0.000  0.000  0.075  0.000  0.224  0.000  0.319
    2  0.000  0.000  0.021  0.000  0.000  0.075  0.000  0.224  0.000  0.319
tot    0.000  0.000  0.041  0.000  0.000  0.149  0.000  0.448  0.000  0.638
 
band    11 # energy    8.36730264 # occ.  2.00000000
 
ion      s     py     pz     px    dxy    dyz    dz2    dxz  x2-y2    tot
    1  0.006  0.000  0.000  0.001  0.257  0.000  0.059  0.000  0.086  0.409
    2  0.006  0.000  0.000  0.001  0.257  0.000  0.059  0.000  0.086  0.409
tot    0.012  0.001  0.000  0.002  0.514  0.000  0.117  0.000  0.171  0.817
 
band    12 # energy    9.37284929 # occ.  2.00000000
 
ion      s     py     pz     px    dxy    dyz    dz2    dxz  x2-y2    tot
    1  0.004  0.001  0.000  0.002  0.110  0.000  0.270  0.000  0.037  0.423
    2  0.004  0.001  0.000  0.002  0.110  0.000  0.270  0.000  0.037  0.423
tot    0.008  0.001  0.000  0.004  0.220  0.000  0.539  0.000  0.073  0.846
 
band    13 # energy    9.84190960 # occ.  2.00000000
 
ion      s     py     pz     px    dxy    dyz    dz2    dxz  x2-y2    tot
    1  0.000  0.001  0.000  0.000  0.108  0.000  0.000  0.000  0.323  0.432
    2  0.000  0.001  0.000  0.000  0.108  0.000  0.000  0.000  0.323  0.432
tot    0.000  0.002  0.000  0.001  0.215  0.000  0.000  0.000  0.646  0.865
 
band    14 # energy    9.85441612 # occ.  2.00000000
 
ion      s     py     pz     px    dxy    dyz    dz2    dxz  x2-y2    tot
    1  0.000  0.000  0.000  0.000  0.000  0.325  0.000  0.108  0.000  0.433
    2  0.000  0.000  0.000  0.000  0.000  0.325  0.000  0.108  0.000  0.433
tot    0.000  0.000  0.000  0.000  0.000  0.650  0.000  0.217  0.000  0.866
 
band    15 # energy    9.86190628 # occ.  2.00000000
 
ion      s     py     pz     px    dxy    dyz    dz2    dxz  x2-y2    tot
    1  0.000  0.000  0.011  0.000  0.000  0.095  0.000  0.284  0.000  0.390
    2  0.000  0.000  0.011  0.000  0.000  0.095  0.000  0.284  0.000  0.390
tot    0.000  0.000  0.022  0.000  0.000  0.190  0.000  0.569  0.000  0.780
 
band    16 # energy   10.19589905 # occ.  2.00000000
 
ion      s     py     pz     px    dxy    dyz    dz2    dxz  x2-y2    tot
    1  0.000  0.001  0.000  0.000  0.110  0.000  0.000  0.000  0.330  0.442
    2  0.000  0.001  0.000  0.000  0.110  0.000  0.000  0.000  0.330  0.442
tot    0.000  0.002  0.000  0.001  0.220  0.000  0.000  0.000  0.661  0.884
 
band    17 # energy   12.45342540 # occ.  1.79529045
 
ion      s     py     pz     px    dxy    dyz    dz2    dxz  x2-y2    tot
    1  0.000  0.000  0.000  0.000  0.000  0.356  0.000  0.119  0.000  0.474
    2  0.000  0.000  0.000  0.000  0.000  0.356  0.000  0.119  0.000  0.474
tot    0.000  0.000  0.000  0.000  0.000  0.711  0.000  0.237  0.000  0.948
 
band    18 # energy   16.38124342 # occ.  0.00000000
 
ion      s     py     pz     px    dxy    dyz    dz2    dxz  x2-y2    tot
    1  0.000  0.000  0.065  0.000  0.000  0.052  0.000  0.157  0.000  0.274
    2  0.000  0.000  0.065  0.000  0.000  0.052  0.000  0.157  0.000  0.274
tot    0.000  0.000  0.129  0.000  0.000  0.105  0.000  0.314  0.000  0.548
 
band    19 # energy   17.51953121 # occ.  0.00000000
 
ion      s     py     pz     px    dxy    dyz    dz2    dxz  x2-y2    tot
    1  0.188  0.001  0.000  0.003  0.006  0.000  0.188  0.000  0.002  0.389
    2  0.188  0.001  0.000  0.003  0.006  0.000  0.188  0.000  0.002  0.389
tot    0.377  0.002  0.000  0.007  0.011  0.000  0.377  0.000  0.004  0.777
 
band    20 # energy   27.06852639 # occ.  0.00000000
 
ion      s     py     pz     px    dxy    dyz    dz2    dxz  x2-y2    tot
    1  0.025  0.016  0.000  0.048  0.056  0.000  0.025  0.000  0.019  0.190
    2  0.025  0.016  0.000  0.048  0.056  0.000  0.025  0.000  0.019  0.190
tot    0.050  0.032  0.000  0.097  0.112  0.000  0.051  0.000  0.037  0.380
 
band    21 # energy   29.35730561 # occ.  0.00000000
 
ion      s     py     pz     px    dxy    dyz    dz2    dxz  x2-y2    tot
    1  0.000  0.000  0.010  0.000  0.000  0.003  0.000  0.008  0.000  0.020
    2  0.000  0.000  0.010  0.000  0.000  0.003  0.000  0.008  0.000  0.020
tot    0.000  0.000  0.019  0.000  0.000  0.005  0.000  0.016  0.000  0.041
 
band    22 # energy   30.19838173 # occ.  0.00000000
 
ion      s     py     pz     px    dxy    dyz    dz2    dxz  x2-y2    tot
    1  0.000  0.084  0.000  0.028  0.012  0.000  0.000  0.000  0.035  0.158
    2  0.000  0.084  0.000  0.028  0.012  0.000  0.000  0.000  0.035  0.158
tot    0.000  0.167  0.000  0.056  0.023  0.000  0.000  0.000  0.069  0.315
 
band    23 # energy   30.78392367 # occ.  0.00000000
 
ion      s     py     pz     px    dxy    dyz    dz2    dxz  x2-y2    tot
    1  0.005  0.005  0.000  0.015  0.032  0.000  0.019  0.000  0.011  0.087
    2  0.005  0.005  0.000  0.015  0.032  0.000  0.019  0.000  0.011  0.087
tot    0.009  0.010  0.000  0.030  0.065  0.000  0.038  0.000  0.022  0.174
 
band    24 # energy   30.93944971 # occ.  0.00000000
 
ion      s     py     pz     px    dxy    dyz    dz2    dxz  x2-y2    tot
    1  0.000  0.000  0.004  0.000  0.000  0.016  0.000  0.048  0.000  0.068
    2  0.000  0.000  0.004  0.000  0.000  0.016  0.000  0.048  0.000  0.068
tot    0.000  0.000  0.008  0.000  0.000  0.032  0.000  0.095  0.000  0.135
 

 k-point     4 :    0.30000000-0.00000000 0.00000000     weight = 0.00750000

band     1 # energy  -40.47223064 # occ.  2.00000000
 
ion      s     py     pz     px    dxy    dyz    dz2    dxz  x2-y2    tot
    1  0.000  0.123  0.000  0.370  0.000  0.000  0.000  0.000  0.000  0.493
    2  0.000  0.123  0.000  0.370  0.000  0.000  0.000  0.000  0.000  0.493
tot    0.000  0.247  0.000  0.740  0.000  0.000  0.000  0.000  0.000  0.987
 
band     2 # energy  -40.42036187 # occ.  2.00000000
 
ion      s     py     pz     px    dxy    dyz    dz2    dxz  x2-y2    tot
    1  0.000  0.124  0.000  0.371  0.000  0.000  0.000  0.000  0.000  0.494
    2  0.000  0.124  0.000  0.371  0.000  0.000  0.000  0.000  0.000  0.494
tot    0.000  0.247  0.000  0.741  0.000  0.000  0.000  0.000  0.000  0.988
 
band     3 # energy  -40.30425280 # occ.  2.00000000
 
ion      s     py     pz     px    dxy    dyz    dz2    dxz  x2-y2    tot
    1  0.000  0.000  0.493  0.000  0.000  0.000  0.000  0.000  0.000  0.493
    2  0.000  0.000  0.493  0.000  0.000  0.000  0.000  0.000  0.000  0.493
tot    0.000  0.000  0.985  0.000  0.000  0.000  0.000  0.000  0.000  0.985
 
band     4 # energy  -40.24286141 # occ.  2.00000000
 
ion      s     py     pz     px    dxy    dyz    dz2    dxz  x2-y2    tot
    1  0.000  0.373  0.000  0.124  0.000  0.000  0.000  0.000  0.000  0.497
    2  0.000  0.373  0.000  0.124  0.000  0.000  0.000  0.000  0.000  0.497
tot    0.000  0.745  0.000  0.248  0.000  0.000  0.000  0.000  0.000  0.994
 
band     5 # energy  -40.16649706 # occ.  2.00000000
 
ion      s     py     pz     px    dxy    dyz    dz2    dxz  x2-y2    tot
    1  0.000  0.373  0.000  0.124  0.000  0.000  0.000  0.000  0.000  0.498
    2  0.000  0.373  0.000  0.124  0.000  0.000  0.000  0.000  0.000  0.498
tot    0.000  0.747  0.000  0.249  0.000  0.000  0.000  0.000  0.000  0.996
 
band     6 # energy  -40.02628047 # occ.  2.00000000
 
ion      s     py     pz     px    dxy    dyz    dz2    dxz  x2-y2    tot
    1  0.000  0.000  0.497  0.000  0.000  0.000  0.000  0.000  0.000  0.497
    2  0.000  0.000  0.497  0.000  0.000  0.000  0.000  0.000  0.000  0.497
tot    0.000  0.000  0.995  0.000  0.000  0.000  0.000  0.000  0.000  0.995
 
band     7 # energy    4.69575704 # occ.  2.00000000
 
ion      s     py     pz     px    dxy    dyz    dz2    dxz  x2-y2    tot
    1  0.144  0.003  0.000  0.009  0.052  0.000  0.006  0.000  0.017  0.233
    2  0.144  0.003  0.000  0.009  0.052  0.000  0.006  0.000  0.017  0.233
tot    0.288  0.006  0.000  0.018  0.105  0.000  0.013  0.000  0.035  0.465
 
band     8 # energy    5.94193572 # occ.  2.00000000
 
ion      s     py     pz     px    dxy    dyz    dz2    dxz  x2-y2    tot
    1  0.022  0.000  0.000  0.001  0.166  0.000  0.119  0.000  0.055  0.363
    2  0.022  0.000  0.000  0.001  0.166  0.000  0.119  0.000  0.055  0.363
tot    0.043  0.001  0.000  0.002  0.331  0.000  0.238  0.000  0.110  0.726
 
band     9 # energy    7.12361345 # occ.  2.00000000
 
ion      s     py     pz     px    dxy    dyz    dz2    dxz  x2-y2    tot
    1  0.000  0.000  0.012  0.000  0.000  0.079  0.000  0.238  0.000  0.330
    2  0.000  0.000  0.012  0.000  0.000  0.079  0.000  0.238  0.000  0.330
tot    0.000  0.000  0.024  0.000  0.000  0.159  0.000  0.477  0.000  0.660
 
band    10 # energy    8.07576959 # occ.  2.00000000
 
ion      s     py     pz     px    dxy    dyz    dz2    dxz  x2-y2    tot
    1  0.014  0.004  0.000  0.011  0.205  0.000  0.047  0.000  0.068  0.349
    2  0.014  0.004  0.000  0.011  0.205  0.000  0.047  0.000  0.068  0.349
tot    0.028  0.007  0.000  0.021  0.411  0.000  0.093  0.000  0.137  0.698
 
band    11 # energy    8.48066577 # occ.  2.00000000
 
ion      s     py     pz     px    dxy    dyz    dz2    dxz  x2-y2    tot