<?xml version="1.0" encoding="ISO-8859-1"?>
<modeling>
 <generator>
  <i name="program" type="string">vasp </i>
  <i name="version" type="string">6.3.2  </i>
  <i name="subversion" type="string">27Jun22 (build Aug 12 2022 00:53:59) complex                          parallel </i>
  <i name="platform" type="string">tv2STD </i>
  <i name="date" type="string">2024 12 03 </i>
  <i name="time" type="string">01:38:34 </i>
 </generator>
 <incar>
  <i type="string" name="SYSTEM">Pt-hcc</i>
  <i type="int" name="ISTART">     0</i>
  <i type="string" name="PREC">Accurate      normal | accurate</i>
  <i type="string" name="ALGO">Normal     Normal, Fast, Very_Fast</i>
  <i type="logical" name="ADDGRID"> F  </i>
  <i type="int" name="ICHARG">     2</i>
  <i type="int" name="INIWAV">     1</i>
  <i type="int" name="NELM">   100</i>
  <i type="int" name="IBRION">     2</i>
  <i name="EDIFF">      0.00000100</i>
  <i name="EDIFFG">     -0.02000000</i>
  <i type="int" name="NSW">   100</i>
  <i type="int" name="ISIF">     2</i>
  <i type="int" name="ISYM">     1</i>
  <i name="ENCUT">    450.00000000</i>
  <i type="logical" name="LREAL"> F  </i>
  <i type="int" name="ISMEAR">     0</i>
  <i name="SIGMA">      0.05000000</i>
  <i type="int" name="NWRITE">     2</i>
  <i type="logical" name="LWAVE"> T  </i>
  <i type="logical" name="LCHARG"> T  </i>
  <i type="int" name="LORBIT">    11</i>
 </incar>
 <primitive_cell>
  <structure name="primitive_cell" >
   <crystal>
    <varray name="basis" >
     <v>       2.69791268       0.00000000       0.00000000 </v>
     <v>      -1.34895634       2.33646092       0.00000000 </v>
     <v>       0.00000000       0.00000000       4.67407084 </v>
    </varray>
    <i name="volume">     29.46332122 </i>
    <varray name="rec_basis" >
     <v>       0.37065692       0.21399887       0.00000000 </v>
     <v>       0.00000000       0.42799774       0.00000000 </v>
     <v>       0.00000000       0.00000000       0.21394627 </v>
    </varray>
   </crystal>
   <varray name="positions" >
    <v>       0.00000000       0.00000000       0.00000000 </v>
    <v>       0.33333333       0.66666667       0.50000000 </v>
   </varray>
  </structure>
  <varray name="primitive_index" >
   <v type="int" >        1 </v>
   <v type="int" >        2 </v>
  </varray>
 </primitive_cell>
 <kpoints>
  <generation param="Gamma">
   <v type="int" name="divisions">      10       10        8 </v>
   <v name="usershift">      0.00000000       0.00000000       0.00000000 </v>
   <v name="genvec1">      0.10000000       0.00000000       0.00000000 </v>
   <v name="genvec2">      0.00000000       0.10000000       0.00000000 </v>
   <v name="genvec3">      0.00000000       0.00000000       0.12500000 </v>
   <v name="shift">      0.00000000       0.00000000       0.00000000 </v>
  </generation>
  <varray name="kpointlist" >
   <v>       0.00000000       0.00000000       0.00000000 </v>
   <v>       0.10000000      -0.00000000       0.00000000 </v>
   <v>       0.20000000      -0.00000000       0.00000000 </v>
   <v>       0.30000000      -0.00000000       0.00000000 </v>
   <v>       0.40000000      -0.00000000       0.00000000 </v>
   <v>       0.50000000      -0.00000000       0.00000000 </v>
   <v>       0.10000000       0.10000000       0.00000000 </v>
   <v>       0.20000000       0.10000000       0.00000000 </v>
   <v>       0.30000000       0.10000000       0.00000000 </v>
   <v>       0.40000000       0.10000000       0.00000000 </v>
   <v>       0.20000000       0.20000000       0.00000000 </v>
   <v>       0.30000000       0.20000000       0.00000000 </v>
   <v>       0.40000000       0.20000000       0.00000000 </v>
   <v>       0.30000000       0.30000000       0.00000000 </v>
   <v>       0.00000000       0.00000000       0.12500000 </v>
   <v>       0.10000000      -0.00000000       0.12500000 </v>
   <v>       0.20000000      -0.00000000       0.12500000 </v>
   <v>       0.30000000      -0.00000000       0.12500000 </v>
   <v>       0.40000000      -0.00000000       0.12500000 </v>
   <v>       0.50000000      -0.00000000       0.12500000 </v>
   <v>       0.10000000       0.10000000       0.12500000 </v>
   <v>       0.20000000       0.10000000       0.12500000 </v>
   <v>       0.30000000       0.10000000       0.12500000 </v>
   <v>       0.40000000       0.10000000       0.12500000 </v>
   <v>       0.20000000       0.20000000       0.12500000 </v>
   <v>       0.30000000       0.20000000       0.12500000 </v>
   <v>       0.40000000       0.20000000       0.12500000 </v>
   <v>       0.30000000       0.30000000       0.12500000 </v>
   <v>       0.00000000       0.00000000       0.25000000 </v>
   <v>       0.10000000      -0.00000000       0.25000000 </v>
   <v>       0.20000000      -0.00000000       0.25000000 </v>
   <v>       0.30000000      -0.00000000       0.25000000 </v>
   <v>       0.40000000      -0.00000000       0.25000000 </v>
   <v>       0.50000000      -0.00000000       0.25000000 </v>
   <v>       0.10000000       0.10000000       0.25000000 </v>
   <v>       0.20000000       0.10000000       0.25000000 </v>
   <v>       0.30000000       0.10000000       0.25000000 </v>
   <v>       0.40000000       0.10000000       0.25000000 </v>
   <v>       0.20000000       0.20000000       0.25000000 </v>
   <v>       0.30000000       0.20000000       0.25000000 </v>
   <v>       0.40000000       0.20000000       0.25000000 </v>
   <v>       0.30000000       0.30000000       0.25000000 </v>
   <v>       0.00000000       0.00000000       0.37500000 </v>
   <v>       0.10000000      -0.00000000       0.37500000 </v>
   <v>       0.20000000      -0.00000000       0.37500000 </v>
   <v>       0.30000000      -0.00000000       0.37500000 </v>
   <v>       0.40000000      -0.00000000       0.37500000 </v>
   <v>       0.50000000      -0.00000000       0.37500000 </v>
   <v>       0.10000000       0.10000000       0.37500000 </v>
   <v>       0.20000000       0.10000000       0.37500000 </v>
   <v>       0.30000000       0.10000000       0.37500000 </v>
   <v>       0.40000000       0.10000000       0.37500000 </v>
   <v>       0.20000000       0.20000000       0.37500000 </v>
   <v>       0.30000000       0.20000000       0.37500000 </v>
   <v>       0.40000000       0.20000000       0.37500000 </v>
   <v>       0.30000000       0.30000000       0.37500000 </v>
   <v>       0.00000000       0.00000000       0.50000000 </v>
   <v>       0.10000000      -0.00000000       0.50000000 </v>
   <v>       0.20000000      -0.00000000       0.50000000 </v>
   <v>       0.30000000      -0.00000000       0.50000000 </v>
   <v>       0.40000000      -0.00000000       0.50000000 </v>
   <v>       0.50000000      -0.00000000       0.50000000 </v>
   <v>       0.10000000       0.10000000       0.50000000 </v>
   <v>       0.20000000       0.10000000       0.50000000 </v>
   <v>       0.30000000       0.10000000       0.50000000 </v>
   <v>       0.40000000       0.10000000       0.50000000 </v>
   <v>       0.20000000       0.20000000       0.50000000 </v>
   <v>       0.30000000       0.20000000       0.50000000 </v>
   <v>       0.40000000       0.20000000       0.50000000 </v>
   <v>       0.30000000       0.30000000       0.50000000 </v>
  </varray>
  <varray name="weights" >
   <v>       0.00125000 </v>
   <v>       0.00750000 </v>
   <v>       0.00750000 </v>
   <v>       0.00750000 </v>
   <v>       0.00750000 </v>
   <v>       0.00375000 </v>
   <v>       0.00750000 </v>
   <v>       0.01500000 </v>
   <v>       0.01500000 </v>
   <v>       0.01500000 </v>
   <v>       0.00750000 </v>
   <v>       0.01500000 </v>
   <v>       0.00750000 </v>
   <v>       0.00750000 </v>
   <v>       0.00250000 </v>
   <v>       0.01500000 </v>
   <v>       0.01500000 </v>
   <v>       0.01500000 </v>
   <v>       0.01500000 </v>
   <v>       0.00750000 </v>
   <v>       0.01500000 </v>
   <v>       0.03000000 </v>
   <v>       0.03000000 </v>
   <v>       0.03000000 </v>
   <v>       0.01500000 </v>
   <v>       0.03000000 </v>
   <v>       0.01500000 </v>
   <v>       0.01500000 </v>
   <v>       0.00250000 </v>
   <v>       0.01500000 </v>
   <v>       0.01500000 </v>
   <v>       0.01500000 </v>
   <v>       0.01500000 </v>
   <v>       0.00750000 </v>
   <v>       0.01500000 </v>
   <v>       0.03000000 </v>
   <v>       0.03000000 </v>
   <v>       0.03000000 </v>
   <v>       0.01500000 </v>
   <v>       0.03000000 </v>
   <v>       0.01500000 </v>
   <v>       0.01500000 </v>
   <v>       0.00250000 </v>
   <v>       0.01500000 </v>
   <v>       0.01500000 </v>
   <v>       0.01500000 </v>
   <v>       0.01500000 </v>
   <v>       0.00750000 </v>
   <v>       0.01500000 </v>
   <v>       0.03000000 </v>
   <v>       0.03000000 </v>
   <v>       0.03000000 </v>
   <v>       0.01500000 </v>
   <v>       0.03000000 </v>
   <v>       0.01500000 </v>
   <v>       0.01500000 </v>
   <v>       0.00125000 </v>
   <v>       0.00750000 </v>
   <v>       0.00750000 </v>
   <v>       0.00750000 </v>
   <v>       0.00750000 </v>
   <v>       0.00375000 </v>
   <v>       0.00750000 </v>
   <v>       0.01500000 </v>
   <v>       0.01500000 </v>
   <v>       0.01500000 </v>
   <v>       0.00750000 </v>
   <v>       0.01500000 </v>
   <v>       0.00750000 </v>
   <v>       0.00750000 </v>
  </varray>
 </kpoints>
 <parameters>
  <separator name="general" >
   <i type="string" name="SYSTEM">Pt-hcc</i>
   <i type="logical" name="LCOMPAT"> F  </i>
  </separator>
  <separator name="electronic" >
   <i type="string" name="PREC">accura</i>
   <i name="ENMAX">    450.00000000</i>
   <i name="ENAUG">    527.01400000</i>
   <i name="EDIFF">      0.00000100</i>
   <i type="int" name="IALGO">    38</i>
   <i type="int" name="IWAVPR">    11</i>
   <i type="int" name="NBANDS">    24</i>
   <i type="int" name="NBANDSLOW">    -1</i>
   <i type="int" name="NBANDSHIGH">    -1</i>
   <i name="NELECT">     32.00000000</i>
   <i type="int" name="TURBO">     0</i>
   <i type="int" name="IRESTART">     0</i>
   <i type="int" name="NREBOOT">     0</i>
   <i type="int" name="NMIN">     0</i>
   <i name="EREF">      0.00000000</i>
   <separator name="electronic smearing" >
    <i type="int" name="ISMEAR">     0</i>
    <i name="SIGMA">      0.05000000</i>
    <i name="KSPACING">      0.50000000</i>
    <i type="logical" name="KGAMMA"> T  </i>
    <i type="logical" name="KBLOWUP"> T  </i>
   </separator>
   <separator name="electronic projectors" >
    <i type="logical" name="LREAL"> F  </i>
    <v name="ROPT">      0.00000000</v>
    <i type="int" name="LMAXPAW">  -100</i>
    <i type="int" name="LMAXMIX">     2</i>
    <i type="logical" name="NLSPLINE"> F  </i>
   </separator>
   <separator name="electronic startup" >
    <i type="int" name="ISTART">     0</i>
    <i type="int" name="ICHARG">     2</i>
    <i type="int" name="INIWAV">     1</i>
   </separator>
   <separator name="electronic spin" >
    <i type="int" name="ISPIN">     1</i>
    <i type="logical" name="LNONCOLLINEAR"> F  </i>
    <v name="MAGMOM">      1.00000000      1.00000000</v>
    <i name="NUPDOWN">     -1.00000000</i>
    <i type="logical" name="LSORBIT"> F  </i>
    <v name="SAXIS">      0.00000000      0.00000000      1.00000000</v>
    <i type="logical" name="LSPIRAL"> F  </i>
    <v name="QSPIRAL">      0.00000000      0.00000000      0.00000000</v>
    <i type="logical" name="LZEROZ"> F  </i>
   </separator>
   <separator name="electronic exchange-correlation" >
    <i type="logical" name="LASPH"> F  </i>
    <i type="logical" name="LMETAGGA"> F  </i>
   </separator>
   <separator name="electronic convergence" >
    <i type="int" name="NELM">   100</i>
    <i type="int" name="NELMDL">    -5</i>
    <i type="int" name="NELMIN">     2</i>
    <i name="ENINI">    450.00000000</i>
    <separator name="electronic convergence detail" >
     <i type="logical" name="LDIAG"> T  </i>
     <i type="logical" name="LSUBROT"> F  </i>
     <i name="WEIMIN">      0.00100000</i>
     <i name="EBREAK">      0.00000001</i>
     <i name="DEPER">      0.30000000</i>
     <i type="int" name="NRMM">     4</i>
     <i name="TIME">      0.40000000</i>
    </separator>
   </separator>
   <separator name="electronic mixer" >
    <i name="AMIX">      0.40000000</i>
    <i name="BMIX">      1.00000000</i>
    <i name="AMIN">      0.10000000</i>
    <i name="AMIX_MAG">      1.60000000</i>
    <i name="BMIX_MAG">      1.00000000</i>
    <separator name="electronic mixer details" >
     <i type="int" name="IMIX">     4</i>
     <i type="logical" name="MIXFIRST"> F  </i>
     <i type="int" name="MAXMIX">   -45</i>
     <i name="WC">    100.00000000</i>
     <i type="int" name="INIMIX">     1</i>
     <i type="int" name="MIXPRE">     1</i>
     <i type="int" name="MREMOVE">     5</i>
    </separator>
   </separator>
   <separator name="electronic dipolcorrection" >
    <i type="logical" name="LDIPOL"> F  </i>
    <i type="logical" name="LMONO"> F  </i>
    <i type="int" name="IDIPOL">     0</i>
    <i name="EPSILON">      1.00000000</i>
    <v name="DIPOL">   -100.00000000   -100.00000000   -100.00000000</v>
    <i name="EFIELD">      0.00000000</i>
   </separator>
  </separator>
  <separator name="grids" >
   <i type="int" name="NGX">    20</i>
   <i type="int" name="NGY">    20</i>
   <i type="int" name="NGZ">    32</i>
   <i type="int" name="NGXF">    40</i>
   <i type="int" name="NGYF">    40</i>
   <i type="int" name="NGZF">    64</i>
   <i type="logical" name="ADDGRID"> F  </i>
  </separator>
  <separator name="ionic" >
   <i type="int" name="NSW">   100</i>
   <i type="int" name="IBRION">     2</i>
   <i type="int" name="MDALGO">     0</i>
   <i type="int" name="ISIF">     2</i>
   <i name="PSTRESS">      0.00000000</i>
   <i name="EDIFFG">     -0.02000000</i>
   <i type="int" name="NFREE">     1</i>
   <i name="POTIM">      0.50000000</i>
   <i name="SMASS">     -3.00000000</i>
   <i name="SCALEE">      1.00000000</i>
  </separator>
  <separator name="ionic md" >
   <i name="TEBEG">      0.00010000</i>
   <i name="TEEND">      0.00010000</i>
   <i type="int" name="NBLOCK">     1</i>
   <i type="int" name="KBLOCK">   100</i>
   <i type="int" name="NPACO">   256</i>
   <i name="APACO">     10.00000000</i>
  </separator>
  <separator name="symmetry" >
   <i type="int" name="ISYM">     1</i>
   <i name="SYMPREC">      0.00001000</i>
  </separator>
  <separator name="dos" >
   <i type="int" name="LORBIT">    11</i>
   <v name="RWIGS">     -1.00000000</v>
   <i type="int" name="NEDOS">   301</i>
   <i name="EMIN">     10.00000000</i>
   <i name="EMAX">    -10.00000000</i>
   <i name="EFERMI">      0.00000000</i>
  </separator>
  <separator name="writing" >
   <i type="int" name="NWRITE">     2</i>
   <i type="logical" name="LWAVE"> T  </i>
   <i type="logical" name="LDOWNSAMPLE"> F  </i>
   <i type="logical" name="LCHARG"> T  </i>
   <i type="logical" name="LPARD"> F  </i>
   <i type="logical" name="LVTOT"> F  </i>
   <i type="logical" name="LVHAR"> F  </i>
   <i type="logical" name="LELF"> F  </i>
   <i type="logical" name="LOPTICS"> F  </i>
   <v name="STM">      0.00000000      0.00000000      0.00000000      0.00000000      0.00000000      0.00000000      0.00000000</v>
  </separator>
  <separator name="performance" >
   <i type="int" name="NPAR">    24</i>
   <i type="int" name="NSIM">     4</i>
   <i type="int" name="NBLK">    -1</i>
   <i type="logical" name="LPLANE"> T  </i>
   <i type="logical" name="LSCALAPACK"> T  </i>
   <i type="logical" name="LSCAAWARE"> F  </i>
   <i type="logical" name="LSCALU"> F  </i>
   <i type="logical" name="LASYNC"> F  </i>
   <i type="logical" name="LORBITALREAL"> F  </i>
  </separator>
  <separator name="miscellaneous" >
   <i type="int" name="IDIOT">     3</i>
   <i type="int" name="PHON_NSTRUCT">    -1</i>
   <i type="logical" name="LMUSIC"> F  </i>
   <v name="POMASS">    195.08000000</v>
   <v name="DARWINR">      0.00000000</v>
   <v name="DARWINV">      1.00000000</v>
   <i type="logical" name="LCORR"> T  </i>
  </separator>
  <i type="logical" name="GGA_COMPAT"> T  </i>
  <i type="logical" name="LBERRY"> F  </i>
  <i type="int" name="ICORELEVEL">     0</i>
  <i type="logical" name="LDAU"> F  </i>
  <i type="int" name="I_CONSTRAINED_M">     0</i>
  <separator name="electronic exchange-correlation" >
   <i type="string" name="GGA">--</i>
   <i type="int" name="VOSKOWN">     0</i>
   <i type="logical" name="LHFCALC"> F  </i>
   <i type="string" name="PRECFOCK"></i>
   <i type="logical" name="LSYMGRAD"> F  </i>
   <i type="logical" name="LHFONE"> F  </i>
   <i type="logical" name="LRHFCALC"> F  </i>
   <i type="logical" name="LTHOMAS"> F  </i>
   <i type="logical" name="LMODELHF"> F  </i>
   <i type="logical" name="LFOCKACE"> F  </i>
   <i name="ENCUT4O">     -1.00000000</i>
   <i type="int" name="EXXOEP">     0</i>
   <i type="int" name="FOURORBIT">     0</i>
   <i name="AEXX">      0.00000000</i>
   <i name="HFALPHA">      0.00000000</i>
   <i name="MCALPHA">      0.00000000</i>
   <i name="ALDAX">      1.00000000</i>
   <i name="AGGAX">      1.00000000</i>
   <i name="ALDAC">      1.00000000</i>
   <i name="AGGAC">      1.00000000</i>
   <i type="int" name="NKREDX">     1</i>
   <i type="int" name="NKREDY">     1</i>
   <i type="int" name="NKREDZ">     1</i>
   <i type="logical" name="SHIFTRED"> F  </i>
   <i type="logical" name="ODDONLY"> F  </i>
   <i type="logical" name="EVENONLY"> F  </i>
   <i type="int" name="LMAXFOCK">     0</i>
   <i type="int" name="NMAXFOCKAE">     0</i>
   <i type="logical" name="LFOCKAEDFT"> F  </i>
   <i name="HFSCREEN">      0.00000000</i>
   <i name="HFSCREENC">      0.00000000</i>
   <i type="int" name="NBANDSGWLOW">     0</i>
  </separator>
  <separator name="vdW DFT" >
   <i type="logical" name="LUSE_VDW"> F  </i>
   <i name="Zab_VDW">     -0.84910000</i>
   <i name="PARAM1">      0.12340000</i>
   <i name="PARAM2">      1.00000000</i>
   <i name="PARAM3">      0.00000000</i>
  </separator>
  <separator name="model GW" >
   <i type="int" name="MODEL_GW">     0</i>
   <i name="MODEL_EPS0">      8.83899637</i>
   <i name="MODEL_ALPHA">      1.00000000</i>
  </separator>
  <separator name="linear response parameters" >
   <i type="logical" name="LEPSILON"> F  </i>
   <i type="logical" name="LRPA"> F  </i>
   <i type="logical" name="LNABLA"> F  </i>
   <i type="logical" name="LVEL"> F  </i>
   <i name="CSHIFT">      0.10000000</i>
   <i name="OMEGAMAX">     -1.00000000</i>
   <i name="DEG_THRESHOLD">      0.00200000</i>
   <i name="RTIME">     -0.10000000</i>
   <i name="WPLASMAI">      0.00000000</i>
   <v name="DFIELD">      0.00000000      0.00000000      0.00000000</v>
   <v name="WPLASMA">      0.00000000      0.00000000      0.00000000      0.00000000      0.00000000      0.00000000      0.00000000      0.00000000      0.00000000</v>
  </separator>
  <separator name="orbital magnetization" >
   <i type="logical" name="NUCIND"> F  </i>
   <v name="MAGPOS">      0.00000000      0.00000000      0.00000000</v>
   <i type="logical" name="LNICSALL"> T  </i>
   <i type="logical" name="ORBITALMAG"> F  </i>
   <i type="logical" name="LMAGBLOCH"> F  </i>
   <i type="logical" name="LCHIMAG"> F  </i>
   <i type="logical" name="LGAUGE"> T  </i>
   <i type="int" name="MAGATOM">     0</i>
   <v name="MAGDIPOL">      0.00000000      0.00000000      0.00000000</v>
   <v name="AVECCONST">      0.00000000      0.00000000      0.00000000</v>
  </separator>
  <separator name="response functions" >
   <i type="logical" name="LFINITE_TEMPERATURE"> F  </i>
   <i type="logical" name="LADDER"> F  </i>
   <i type="logical" name="LRPAFORCE"> F  </i>
   <i type="logical" name="LFXC"> F  </i>
   <i type="logical" name="LHARTREE"> T  </i>
   <i type="int" name="IBSE">     0</i>
   <v type="int" name="KPOINT">    -1     0     0     0</v>
   <i type="logical" name="LTCTC"> F  </i>
   <i type="logical" name="LTCTE"> F  </i>
   <i type="logical" name="LTETE"> F  </i>
   <i type="logical" name="LTRIPLET"> F  </i>
   <i type="logical" name="LFXCEPS"> F  </i>
   <i type="logical" name="LFXHEG"> F  </i>
   <i type="int" name="NATURALO">     2</i>
   <i type="logical" name="LHOLEGF"> F  </i>
   <i type="logical" name="L2ORDER"> F  </i>
   <i type="logical" name="LDMP1"> F  </i>
   <i type="logical" name="LMP2LT"> F  </i>
   <i type="logical" name="LSMP2LT"> F  </i>
   <i type="logical" name="LGWLF"> F  </i>
   <i name="ENCUTGW">     -2.00000000</i>
   <i name="ENCUTGWSOFT">     -2.00000000</i>
   <i name="ENCUTLF">     -1.00000000</i>
   <i type="logical" name="LESF_SPLINES"> F  </i>
   <i type="int" name="LMAXMP2">    -1</i>
   <i name="SCISSOR">      0.00000000</i>
   <i type="int" name="NOMEGA">     0</i>
   <i type="int" name="NOMEGAR">     0</i>
   <i type="int" name="NBANDSGW">    -1</i>
   <i type="int" name="NBANDSO">    -1</i>
   <i type="int" name="NBANDSV">    -1</i>
   <i type="int" name="NELMGW">     1</i>
   <i type="int" name="NELMHF">     1</i>
   <i type="int" name="DIM">     3</i>
   <i type="int" name="IESPILON">     4</i>
   <i type="int" name="ANTIRES">     0</i>
   <i name="OMEGAMAX">    -30.00000000</i>
   <i name="OMEGAMIN">    -30.00000000</i>
   <i name="OMEGATL">   -200.00000000</i>
   <i type="int" name="OMEGAGRID">     0</i>
   <i name="CSHIFT">     -0.10000000</i>
   <i type="logical" name="LSELFENERGY"> F  </i>
   <i type="logical" name="LSPECTRAL"> F  </i>
   <i type="logical" name="LSPECTRALGW"> F  </i>
   <i type="logical" name="LSINGLES"> F  </i>
   <i type="logical" name="LFERMIGW"> F  </i>
   <i type="logical" name="ODDONLYGW"> F  </i>
   <i type="logical" name="EVENONLYGW"> F  </i>
   <i type="int" name="NKREDLFX">     1</i>
   <i type="int" name="NKREDLFY">     1</i>
   <i type="int" name="NKREDLFZ">     1</i>
   <i type="int" name="MAXMEM">  2800</i>
   <i type="int" name="TELESCOPE">     0</i>
   <i type="int" name="NTAUPAR">    -1</i>
   <i type="int" name="NOMEGAPAR">    -1</i>
   <i name="DAMP_NEWTON">      0.80000001</i>
   <i name="LAMBDA">      1.00000000</i>
  </separator>
  <separator name="External order field" >
   <i name="OFIELD_KAPPA">      0.00000000</i>
   <v name="OFIELD_K">      0.00000000      0.00000000      0.00000000</v>
   <i name="OFIELD_Q6_NEAR">      0.00000000</i>
   <i name="OFIELD_Q6_FAR">      0.00000000</i>
   <i name="OFIELD_A">      0.00000000</i>
  </separator>
  <separator name="optional k-points parameters" >
   <i type="int" name="KPOINTS_OPT_MODE">     1</i>
   <i type="logical" name="LKPOINTS_OPT"> F  </i>
  </separator>
 </parameters>
 <atominfo>
  <atoms>       2 </atoms>
  <types>       1 </types>
  <array name="atoms" >
   <dimension dim="1">ion</dimension>
   <field type="string">element</field>
   <field type="int">atomtype</field>
   <set>
    <rc><c>Pt</c><c>   1</c></rc>
    <rc><c>Pt</c><c>   1</c></rc>
   </set>
  </array>
  <array name="atomtypes" >
   <dimension dim="1">type</dimension>
   <field type="int">atomspertype</field>
   <field type="string">element</field>
   <field>mass</field>
   <field>valence</field>
   <field type="string">pseudopotential</field>
   <set>
    <rc><c>   2</c><c>Pt</c><c>    195.08000000</c><c>     16.00000000</c><c>  PAW_PBE Pt_pv 12Dec2005               </c></rc>
   </set>
  </array>
 </atominfo>
 <structure name="initialpos" >
  <crystal>
   <varray name="basis" >
    <v>       2.69791268       0.00000000       0.00000000 </v>
    <v>      -1.34895634       2.33646092       0.00000000 </v>
    <v>       0.00000000       0.00000000       4.67407084 </v>
   </varray>
   <i name="volume">     29.46332122 </i>
   <varray name="rec_basis" >
    <v>       0.37065692       0.21399887       0.00000000 </v>
    <v>       0.00000000       0.42799774       0.00000000 </v>
    <v>       0.00000000       0.00000000       0.21394627 </v>
   </varray>
  </crystal>
  <varray name="positions" >
   <v>       0.00000000       0.00000000       0.00000000 </v>
   <v>       0.33333333       0.66666667       0.50000000 </v>
  </varray>
 </structure>
 <calculation>
  <scstep>
   <time name="dav">    0.31    0.31</time>
   <time name="total">    0.31    0.31</time>
   <energy>
    <i name="alphaZ">    325.73633395 </i>
    <i name="ewald">  -4340.94808220 </i>
    <i name="hartreedc">   -773.20060793 </i>
    <i name="XCdc">    128.04226455 </i>
    <i name="pawpsdc">   4131.50523274 </i>
    <i name="pawaedc">  -4061.67189606 </i>
    <i name="eentropy">     -0.00116784 </i>
    <i name="bandstr">   -122.98311481 </i>
    <i name="atom">   4856.42966544 </i>
    <i name="e_fr_energy">    142.90862786 </i>
    <i name="e_wo_entrp">    142.90979570 </i>
    <i name="e_0_energy">    142.90921178 </i>
   </energy>
  </scstep>
  <scstep>
   <time name="dav">    0.32    0.32</time>
   <time name="total">    0.32    0.32</time>
   <energy>
    <i name="e_fr_energy">    -11.36144906 </i>
    <i name="e_wo_entrp">    -11.35821802 </i>
    <i name="e_0_energy">    -11.35983354 </i>
   </energy>
  </scstep>
  <scstep>
   <time name="dav">    0.52    0.52</time>
   <time name="total">    0.52    0.52</time>
   <energy>
    <i name="e_fr_energy">    -12.59801354 </i>
    <i name="e_wo_entrp">    -12.59425607 </i>
    <i name="e_0_energy">    -12.59613480 </i>
   </energy>
  </scstep>
  <scstep>
   <time name="dav">    0.52    0.52</time>
   <time name="total">    0.52    0.52</time>
   <energy>
    <i name="e_fr_energy">    -12.60097620 </i>
    <i name="e_wo_entrp">    -12.59720521 </i>
    <i name="e_0_energy">    -12.59909070 </i>
   </energy>
  </scstep>
  <scstep>
   <time name="dav">    0.58    0.58</time>
   <time name="total">    0.60    0.60</time>
   <energy>
    <i name="e_fr_energy">    -12.60097700 </i>
    <i name="e_wo_entrp">    -12.59720601 </i>
    <i name="e_0_energy">    -12.59909150 </i>
   </energy>
  </scstep>
  <scstep>
   <time name="dav">    0.32    0.32</time>
   <time name="total">    0.35    0.35</time>
   <energy>
    <i name="e_fr_energy">    -11.96170912 </i>
    <i name="e_wo_entrp">    -11.95773486 </i>
    <i name="e_0_energy">    -11.95972199 </i>
   </energy>
  </scstep>
  <scstep>
   <time name="dav">    0.46    0.46</time>
   <time name="total">    0.49    0.49</time>
   <energy>
    <i name="e_fr_energy">    -11.92115022 </i>
    <i name="e_wo_entrp">    -11.91698524 </i>
    <i name="e_0_energy">    -11.91906773 </i>
   </energy>
  </scstep>
  <scstep>
   <time name="dav">    0.34    0.34</time>
   <time name="total">    0.36    0.36</time>
   <energy>
    <i name="e_fr_energy">    -11.91842699 </i>
    <i name="e_wo_entrp">    -11.91424379 </i>
    <i name="e_0_energy">    -11.91633539 </i>
   </energy>
  </scstep>
  <scstep>
   <time name="dav">    0.46    0.47</time>
   <time name="total">    0.49    0.49</time>
   <energy>
    <i name="e_fr_energy">    -11.91823875 </i>
    <i name="e_wo_entrp">    -11.91407347 </i>
    <i name="e_0_energy">    -11.91615611 </i>
   </energy>
  </scstep>
  <scstep>
   <time name="dav">    0.43    0.44</time>
   <time name="total">    0.46    0.46</time>
   <energy>
    <i name="e_fr_energy">    -11.91825040 </i>
    <i name="e_wo_entrp">    -11.91408852 </i>
    <i name="e_0_energy">    -11.91616946 </i>
   </energy>
  </scstep>
  <scstep>
   <time name="dav">    0.34    0.34</time>
   <time name="total">    0.35    0.35</time>
   <energy>
    <i name="alphaZ">    325.73633395 </i>
    <i name="ewald">  -4340.94808220 </i>
    <i name="hartreedc">   -735.46568882 </i>
    <i name="XCdc">    126.37062654 </i>
    <i name="pawpsdc">   4840.99216217 </i>
    <i name="pawaedc">  -4776.75868731 </i>
    <i name="eentropy">     -0.00416251 </i>
    <i name="bandstr">   -308.27041706 </i>
    <i name="atom">   4856.42966544 </i>
    <i name="e_fr_energy">    -11.91824979 </i>
    <i name="e_wo_entrp">    -11.91408728 </i>
    <i name="e_0_energy">    -11.91616853 </i>
   </energy>
  </scstep>
  <structure>
   <crystal>
    <varray name="basis" >
     <v>       2.69791268       0.00000000       0.00000000 </v>
     <v>      -1.34895634       2.33646092       0.00000000 </v>
     <v>       0.00000000       0.00000000       4.67407084 </v>
    </varray>
    <i name="volume">     29.46332122 </i>
    <varray name="rec_basis" >
     <v>       0.37065692       0.21399887       0.00000000 </v>
     <v>       0.00000000       0.42799774       0.00000000 </v>
     <v>       0.00000000       0.00000000       0.21394627 </v>
    </varray>
   </crystal>
   <varray name="positions" >
    <v>       0.00000000       0.00000000       0.00000000 </v>
    <v>       0.33333333       0.66666667       0.50000000 </v>
   </varray>
  </structure>
  <varray name="forces" >
   <v>      -0.00000000       0.00000000       0.00000000 </v>
   <v>       0.00000000       0.00000000       0.00000000 </v>
  </varray>
  <varray name="stress" >
   <v>     188.28162202       0.00000000       0.00000000 </v>
   <v>       0.00000000     188.28162202       0.00000000 </v>
   <v>      -0.00000000      -0.00000000     162.98498154 </v>
  </varray>
  <energy>
   <i name="e_fr_energy">    -11.91824979 </i>
   <i name="e_wo_entrp">    -11.91408728 </i>
   <i name="e_0_energy">    -11.91616853 </i>
  </energy>
  <time name="totalsc">    5.11    5.27</time>
  <eigenvalues>
   <array>
    <dimension dim="1">band</dimension>
    <dimension dim="2">kpoint</dimension>
    <dimension dim="3">spin</dimension>
    <field>eigene</field>
    <field>occ</field>
    <set>
     <set comment="spin 1">
      <set comment="kpoint 1">
       <r>  -40.4228    1.0000 </r>
       <r>  -40.1522    1.0000 </r>
       <r>  -40.1522    1.0000 </r>
       <r>  -40.1010    1.0000 </r>
       <r>  -40.1010    1.0000 </r>
       <r>  -39.9909    1.0000 </r>
       <r>    2.0156    1.0000 </r>
       <r>    4.7279    1.0000 </r>
       <r>    8.1097    1.0000 </r>
       <r>    8.6702    1.0000 </r>
       <r>    8.6702    1.0000 </r>
       <r>    9.0855    1.0000 </r>
       <r>    9.0855    1.0000 </r>
       <r>   10.4756    1.0000 </r>
       <r>   10.4756    1.0000 </r>
       <r>   11.4843    1.0000 </r>
       <r>   12.2611    1.0000 </r>
       <r>   12.2611    1.0000 </r>
       <r>   17.6721    0.0000 </r>
       <r>   27.4532    0.0000 </r>
       <r>   28.1710    0.0000 </r>
       <r>   29.7484    0.0000 </r>
       <r>   34.2754    0.0000 </r>
       <r>   34.2754    0.0000 </r>
      </set>
      <set comment="kpoint 2">
       <r>  -40.4068    1.0000 </r>
       <r>  -40.1991    1.0000 </r>
       <r>  -40.1654    1.0000 </r>
       <r>  -40.1482    1.0000 </r>
       <r>  -40.1098    1.0000 </r>
       <r>  -39.9936    1.0000 </r>
       <r>    2.4021    1.0000 </r>
       <r>    5.0807    1.0000 </r>
       <r>    8.0334    1.0000 </r>
       <r>    8.6794    1.0000 </r>
       <r>    8.9167    1.0000 </r>
       <r>    8.9757    1.0000 </r>
       <r>    9.3770    1.0000 </r>
       <r>    9.7896    1.0000 </r>
       <r>   10.2821    1.0000 </r>
       <r>   10.4204    1.0000 </r>
       <r>   12.3354    1.0000 </r>
       <r>   14.0654    0.0000 </r>
       <r>   17.6251    0.0000 </r>
       <r>   28.0117    0.0000 </r>
       <r>   28.7359    0.0000 </r>
       <r>   30.2574    0.0000 </r>
       <r>   32.4812    0.0000 </r>
       <r>   32.6172    0.0000 </r>
      </set>
      <set comment="kpoint 3">
       <r>  -40.3643    1.0000 </r>
       <r>  -40.3218    1.0000 </r>
       <r>  -40.2713    1.0000 </r>
       <r>  -40.2009    1.0000 </r>
       <r>  -40.1351    1.0000 </r>
       <r>  -40.0051    1.0000 </r>
       <r>    3.4477    1.0000 </r>
       <r>    5.8440    1.0000 </r>
       <r>    7.7787    1.0000 </r>
       <r>    8.2874    1.0000 </r>
       <r>    8.3673    1.0000 </r>
       <r>    9.3728    1.0000 </r>
       <r>    9.8419    1.0000 </r>
       <r>    9.8544    1.0000 </r>
       <r>    9.8619    1.0000 </r>
       <r>   10.1959    1.0000 </r>
       <r>   12.4534    0.8976 </r>
       <r>   16.3812    0.0000 </r>
       <r>   17.5195    0.0000 </r>
       <r>   27.0685    0.0000 </r>
       <r>   29.3573    0.0000 </r>
       <r>   30.1984    0.0000 </r>
       <r>   30.7839    0.0000 </r>
       <r>   30.9394    0.0000 </r>
      </set>
      <set comment="kpoint 4">
       <r>  -40.4722    1.0000 </r>
       <r>  -40.4204    1.0000 </r>
       <r>  -40.3043    1.0000 </r>
       <r>  -40.2429    1.0000 </r>
       <r>  -40.1665    1.0000 </r>
       <r>  -40.0263    1.0000 </r>
       <r>    4.6958    1.0000 </r>
       <r>    5.9419    1.0000 </r>
       <r>    7.1236    1.0000 </r>
       <r>    8.0758    1.0000 </r>
       <r>    8.4807    1.0000 </r>
       <r>    9.2966    1.0000 </r>
       <r>    9.4169    1.0000 </r>
       <r>   10.6520    1.0000 </r>
       <r>   11.0948    1.0000 </r>
       <r>   11.3633    1.0000 </r>
       <r>   12.5179    0.2892 </r>
       <r>   17.5828    0.0000 </r>
       <r>   18.7138    0.0000 </r>
       <r>   23.3450    0.0000 </r>
       <r>   27.6827    0.0000 </r>
       <r>   27.8121    0.0000 </r>
       <r>   30.2487    0.0000 </r>
       <r>   30.9529    0.0000 </r>
      </set>
      <set comment="kpoint 5">
       <r>  -40.5929    1.0000 </r>
       <r>  -40.5380    1.0000 </r>
       <r>  -40.2761    1.0000 </r>
       <r>  -40.2436    1.0000 </r>
       <r>  -40.1925    1.0000 </r>
       <r>  -40.0551    1.0000 </r>
       <r>    5.3279    1.0000 </r>
       <r>    5.5991    1.0000 </r>
       <r>    6.3997    1.0000 </r>
       <r>    8.6526    1.0000 </r>
       <r>    8.8857    1.0000 </r>
       <r>    9.1069    1.0000 </r>
       <r>    9.3587    1.0000 </r>
       <r>   12.3185    1.0000 </r>
       <r>   12.5221    0.2502 </r>
       <r>   12.5330    0.1632 </r>
       <r>   12.7122    0.0000 </r>
       <r>   18.3074    0.0000 </r>
       <r>   19.6297    0.0000 </r>
       <r>   20.7421    0.0000 </r>
       <r>   25.6258    0.0000 </r>
       <r>   25.6467    0.0000 </r>
       <r>   26.5382    0.0000 </r>
       <r>   29.7062    0.0000 </r>
      </set>
      <set comment="kpoint 6">
       <r>  -40.6397    1.0000 </r>
       <r>  -40.5817    1.0000 </r>
       <r>  -40.2887    1.0000 </r>
       <r>  -40.2138    1.0000 </r>
       <r>  -40.2026    1.0000 </r>
       <r>  -40.0736    1.0000 </r>
       <r>    5.3597    1.0000 </r>
       <r>    5.5014    1.0000 </r>
       <r>    6.1541    1.0000 </r>
       <r>    8.7368    1.0000 </r>
       <r>    8.9960    1.0000 </r>
       <r>    9.2339    1.0000 </r>
       <r>    9.5592    1.0000 </r>
       <r>   12.5325    0.1666 </r>
       <r>   12.8390    0.0000 </r>
       <r>   13.0698    0.0000 </r>
       <r>   14.9097    0.0000 </r>
       <r>   16.4944    0.0000 </r>
       <r>   20.1362    0.0000 </r>
       <r>   21.6911    0.0000 </r>
       <r>   22.6613    0.0000 </r>
       <r>   24.7697    0.0000 </r>
       <r>   25.9813    0.0000 </r>
       <r>   29.0875    0.0000 </r>
      </set>
      <set comment="kpoint 7">
       <r>  -40.3780    1.0000 </r>
       <r>  -40.2759    1.0000 </r>
       <r>  -40.2429    1.0000 </r>
       <r>  -40.1823    1.0000 </r>
       <r>  -40.1340    1.0000 </r>
       <r>  -40.0012    1.0000 </r>
       <r>    3.1280    1.0000 </r>
       <r>    5.6936    1.0000 </r>
       <r>    7.7303    1.0000 </r>
       <r>    8.5870    1.0000 </r>
       <r>    8.7302    1.0000 </r>
       <r>    8.9238    1.0000 </r>
       <r>    9.6224    1.0000 </r>
       <r>    9.6228    1.0000 </r>
       <r>   10.0294    1.0000 </r>
       <r>   10.3443    1.0000 </r>
       <r>   12.3619    0.9999 </r>
       <r>   15.7746    0.0000 </r>
       <r>   17.5508    0.0000 </r>
       <r>   28.2671    0.0000 </r>
       <r>   29.2097    0.0000 </r>
       <r>   29.6941    0.0000 </r>
       <r>   30.7874    0.0000 </r>
       <r>   31.7698    0.0000 </r>
      </set>
      <set comment="kpoint 8">
       <r>  -40.4021    1.0000 </r>
       <r>  -40.3690    1.0000 </r>
       <r>  -40.3262    1.0000 </r>
       <r>  -40.2310    1.0000 </r>
       <r>  -40.1716    1.0000 </r>
       <r>  -40.0176    1.0000 </r>
       <r>    4.3600    1.0000 </r>
       <r>    6.3276    1.0000 </r>
       <r>    7.5377    1.0000 </r>
       <r>    7.5771    1.0000 </r>
       <r>    8.2911    1.0000 </r>
       <r>    9.0689    1.0000 </r>
       <r>    9.6049    1.0000 </r>
       <r>    9.9362    1.0000 </r>
       <r>   10.7980    1.0000 </r>
       <r>   11.2573    1.0000 </r>
       <r>   12.3659    0.9999 </r>
       <r>   17.5526    0.0000 </r>
       <r>   17.9907    0.0000 </r>
       <r>   25.2683    0.0000 </r>
       <r>   27.1404    0.0000 </r>
       <r>   28.8605    0.0000 </r>
       <r>   30.9447    0.0000 </r>
       <r>   31.9651    0.0000 </r>
      </set>
      <set comment="kpoint 9">
       <r>  -40.5327    1.0000 </r>
       <r>  -40.4870    1.0000 </r>
       <r>  -40.2817    1.0000 </r>
       <r>  -40.2647    1.0000 </r>
       <r>  -40.2077    1.0000 </r>
       <r>  -40.0441    1.0000 </r>
       <r>    5.4336    1.0000 </r>
       <r>    6.0440    1.0000 </r>
       <r>    6.7209    1.0000 </r>
       <r>    8.0953    1.0000 </r>
       <r>    8.7412    1.0000 </r>
       <r>    8.7854    1.0000 </r>
       <r>    9.3901    1.0000 </r>
       <r>   10.8288    1.0000 </r>
       <r>   12.0129    1.0000 </r>
       <r>   12.3530    1.0000 </r>
       <r>   12.8400    0.0000 </r>
       <r>   18.1093    0.0000 </r>
       <r>   20.2225    0.0000 </r>
       <r>   21.3418    0.0000 </r>
       <r>   24.9207    0.0000 </r>
       <r>   27.4347    0.0000 </r>
       <r>   28.3779    0.0000 </r>
       <r>   30.1379    0.0000 </r>
      </set>
      <set comment="kpoint 10">
       <r>  -40.6140    1.0000 </r>
       <r>  -40.5579    1.0000 </r>
       <r>  -40.3122    1.0000 </r>
       <r>  -40.2304    1.0000 </r>
       <r>  -40.2142    1.0000 </r>
       <r>  -40.0731    1.0000 </r>
       <r>    5.6789    1.0000 </r>
       <r>    5.8002    1.0000 </r>
       <r>    6.2736    1.0000 </r>
       <r>    8.6830    1.0000 </r>
       <r>    8.9433    1.0000 </r>
       <r>    8.9574    1.0000 </r>
       <r>    9.3262    1.0000 </r>
       <r>   12.2130    1.0000 </r>
       <r>   12.3345    1.0000 </r>
       <r>   12.6445    0.0000 </r>
       <r>   14.6739    0.0000 </r>
       <r>   17.7942    0.0000 </r>
       <r>   19.8206    0.0000 </r>
       <r>   21.9235    0.0000 </r>
       <r>   22.7183    0.0000 </r>
       <r>   25.1550    0.0000 </r>
       <r>   26.5020    0.0000 </r>
       <r>   29.0117    0.0000 </r>
      </set>
      <set comment="kpoint 11">
       <r>  -40.4767    1.0000 </r>
       <r>  -40.4740    1.0000 </r>
       <r>  -40.2879    1.0000 </r>
       <r>  -40.2718    1.0000 </r>
       <r>  -40.2361    1.0000 </r>
       <r>  -40.0404    1.0000 </r>
       <r>    5.6277    1.0000 </r>
       <r>    6.9446    1.0000 </r>
       <r>    6.9767    1.0000 </r>
       <r>    7.0387    1.0000 </r>
       <r>    8.5262    1.0000 </r>
       <r>    8.5348    1.0000 </r>
       <r>    9.6039    1.0000 </r>
       <r>   10.0052    1.0000 </r>
       <r>   11.9936    1.0000 </r>
       <r>   12.1622    1.0000 </r>
       <r>   12.9292    0.0000 </r>
       <r>   18.1093    0.0000 </r>
       <r>   20.1175    0.0000 </r>
       <r>   22.7897    0.0000 </r>
       <r>   23.6780    0.0000 </r>
       <r>   28.2347    0.0000 </r>
       <r>   29.9757    0.0000 </r>
       <r>   30.2793    0.0000 </r>
      </set>
      <set comment="kpoint 12">
       <r>  -40.5549    1.0000 </r>
       <r>  -40.5169    1.0000 </r>
       <r>  -40.3541    1.0000 </r>
       <r>  -40.2913    1.0000 </r>
       <r>  -40.2145    1.0000 </r>
       <r>  -40.0724    1.0000 </r>
       <r>    6.4105    1.0000 </r>
       <r>    6.5132    1.0000 </r>
       <r>    6.5939    1.0000 </r>
       <r>    7.8656    1.0000 </r>
       <r>    8.3676    1.0000 </r>
       <r>    9.0615    1.0000 </r>
       <r>    9.1358    1.0000 </r>
       <r>   10.8892    1.0000 </r>
       <r>   12.0067    1.0000 </r>
       <r>   12.4914    0.5774 </r>
       <r>   14.7552    0.0000 </r>
       <r>   19.1197    0.0000 </r>
       <r>   20.0337    0.0000 </r>
       <r>   21.5993    0.0000 </r>
       <r>   22.2942    0.0000 </r>
       <r>   26.9052    0.0000 </r>
       <r>   27.5829    0.0000 </r>
       <r>   28.8205    0.0000 </r>
      </set>
      <set comment="kpoint 13">
       <r>  -40.5841    1.0000 </r>
       <r>  -40.5278    1.0000 </r>
       <r>  -40.3860    1.0000 </r>
       <r>  -40.3122    1.0000 </r>
       <r>  -40.1823    1.0000 </r>
       <r>  -40.0956    1.0000 </r>
       <r>    6.3601    1.0000 </r>
       <r>    6.4239    1.0000 </r>
       <r>    6.5242    1.0000 </r>
       <r>    8.4885    1.0000 </r>
       <r>    8.5212    1.0000 </r>
       <r>    8.6435    1.0000 </r>
       <r>    9.4290    1.0000 </r>
       <r>   11.7421    1.0000 </r>
       <r>   11.9496    1.0000 </r>
       <r>   12.2775    1.0000 </r>
       <r>   16.3764    0.0000 </r>
       <r>   16.9926    0.0000 </r>
       <r>   20.2647    0.0000 </r>
       <r>   22.0205    0.0000 </r>
       <r>   23.5242    0.0000 </r>
       <r>   24.7161    0.0000 </r>
       <r>   27.0236    0.0000 </r>
       <r>   28.1287    0.0000 </r>
      </set>
      <set comment="kpoint 14">
       <r>  -40.5373    1.0000 </r>
       <r>  -40.4945    1.0000 </r>
       <r>  -40.4342    1.0000 </r>
       <r>  -40.3799    1.0000 </r>
       <r>  -40.1634    1.0000 </r>
       <r>  -40.1097    1.0000 </r>
       <r>    6.4582    1.0000 </r>
       <r>    6.9846    1.0000 </r>
       <r>    7.2548    1.0000 </r>
       <r>    7.7359    1.0000 </r>
       <r>    8.3164    1.0000 </r>
       <r>    8.6162    1.0000 </r>
       <r>    9.5319    1.0000 </r>
       <r>   11.2937    1.0000 </r>
       <r>   11.7620    1.0000 </r>
       <r>   12.0959    1.0000 </r>
       <r>   16.4300    0.0000 </r>
       <r>   17.6848    0.0000 </r>
       <r>   19.1035    0.0000 </r>
       <r>   22.9639    0.0000 </r>
       <r>   24.5279    0.0000 </r>
       <r>   25.8474    0.0000 </r>
       <r>   26.7596    0.0000 </r>
       <r>   27.0291    0.0000 </r>
      </set>
      <set comment="kpoint 15">
       <r>  -40.4058    1.0000 </r>
       <r>  -40.1499    1.0000 </r>
       <r>  -40.1499    1.0000 </r>
       <r>  -40.1028    1.0000 </r>
       <r>  -40.1028    1.0000 </r>
       <r>  -40.0069    1.0000 </r>
       <r>    2.1594    1.0000 </r>
       <r>    4.7140    1.0000 </r>
       <r>    8.0719    1.0000 </r>
       <r>    8.6484    1.0000 </r>
       <r>    8.6484    1.0000 </r>
       <r>    9.0416    1.0000 </r>
       <r>    9.0416    1.0000 </r>
       <r>   10.5870    1.0000 </r>
       <r>   10.5870    1.0000 </r>
       <r>   10.8663    1.0000 </r>
       <r>   12.2327    1.0000 </r>
       <r>   12.2327    1.0000 </r>
       <r>   18.5392    0.0000 </r>
       <r>   26.9995    0.0000 </r>
       <r>   28.7430    0.0000 </r>
       <r>   29.4405    0.0000 </r>
       <r>   33.4762    0.0000 </r>
       <r>   33.4762    0.0000 </r>
      </set>
      <set comment="kpoint 16">
       <r>  -40.3926    1.0000 </r>
       <r>  -40.1963    1.0000 </r>
       <r>  -40.1633    1.0000 </r>
       <r>  -40.1514    1.0000 </r>
       <r>  -40.1119    1.0000 </r>
       <r>  -40.0085    1.0000 </r>
       <r>    2.5429    1.0000 </r>
       <r>    5.0732    1.0000 </r>
       <r>    8.0366    1.0000 </r>
       <r>    8.5809    1.0000 </r>
       <r>    8.7967    1.0000 </r>
       <r>    8.9434    1.0000 </r>
       <r>    9.3278    1.0000 </r>
       <r>    9.7317    1.0000 </r>
       <r>   10.4135    1.0000 </r>
       <r>   10.4396    1.0000 </r>
       <r>   12.2935    1.0000 </r>
       <r>   13.5442    0.0000 </r>
       <r>   18.6092    0.0000 </r>
       <r>   27.5929    0.0000 </r>
       <r>   29.2442    0.0000 </r>
       <r>   29.9522    0.0000 </r>
       <r>   31.7338    0.0000 </r>
       <r>   32.5643    0.0000 </r>
      </set>
      <set comment="kpoint 17">
       <r>  -40.3644    1.0000 </r>
       <r>  -40.3070    1.0000 </r>
       <r>  -40.2748    1.0000 </r>
       <r>  -40.1981    1.0000 </r>
       <r>  -40.1375    1.0000 </r>
       <r>  -40.0165    1.0000 </r>
       <r>    3.5703    1.0000 </r>
       <r>    5.8606    1.0000 </r>
       <r>    7.8131    1.0000 </r>
       <r>    8.0203    1.0000 </r>
       <r>    8.3618    1.0000 </r>
       <r>    9.2388    1.0000 </r>
       <r>    9.6560    1.0000 </r>
       <r>   10.0469    1.0000 </r>
       <r>   10.1084    1.0000 </r>
       <r>   10.2444    1.0000 </r>
       <r>   12.3859    0.9993 </r>
       <r>   15.2122    0.0000 </r>
       <r>   18.9624    0.0000 </r>
       <r>   27.1543    0.0000 </r>
       <r>   29.1847    0.0000 </r>
       <r>   30.2599    0.0000 </r>
       <r>   30.3545    0.0000 </r>
       <r>   31.4376    0.0000 </r>
      </set>
      <set comment="kpoint 18">
       <r>  -40.4761    1.0000 </r>
       <r>  -40.4258    1.0000 </r>
       <r>  -40.2876    1.0000 </r>
       <r>  -40.2400    1.0000 </r>
       <r>  -40.1694    1.0000 </r>
       <r>  -40.0338    1.0000 </r>
       <r>    4.7451    1.0000 </r>
       <r>    5.9762    1.0000 </r>
       <r>    7.1112    1.0000 </r>
       <r>    7.8853    1.0000 </r>
       <r>    8.5080    1.0000 </r>
       <r>    9.4231    1.0000 </r>
       <r>    9.4859    1.0000 </r>
       <r>   10.7110    1.0000 </r>
       <r>   11.1187    1.0000 </r>
       <r>   11.3079    1.0000 </r>
       <r>   12.4383    0.9550 </r>
       <r>   16.3992    0.0000 </r>
       <r>   19.8964    0.0000 </r>
       <r>   23.6400    0.0000 </r>
       <r>   27.7403    0.0000 </r>
       <r>   27.9429    0.0000 </r>
       <r>   29.6484    0.0000 </r>
       <r>   31.4855    0.0000 </r>
      </set>
      <set comment="kpoint 19">
       <r>  -40.5951    1.0000 </r>
       <r>  -40.5435    1.0000 </r>
       <r>  -40.2731    1.0000 </r>
       <r>  -40.2328    1.0000 </r>
       <r>  -40.1955    1.0000 </r>
       <r>  -40.0591    1.0000 </r>
       <r>    5.2504    1.0000 </r>
       <r>    5.5999    1.0000 </r>
       <r>    6.5850    1.0000 </r>
       <r>    7.9399    1.0000 </r>
       <r>    9.1441    1.0000 </r>
       <r>    9.2014    1.0000 </r>
       <r>    9.9518    1.0000 </r>
       <r>   12.2306    1.0000 </r>
       <r>   12.3354    1.0000 </r>
       <r>   12.6161    0.0004 </r>
       <r>   12.6398    0.0000 </r>
       <r>   17.3987    0.0000 </r>
       <r>   19.6667    0.0000 </r>
       <r>   21.6014    0.0000 </r>
       <r>   25.3357    0.0000 </r>
       <r>   25.9305    0.0000 </r>
       <r>   26.9142    0.0000 </r>
       <r>   29.9072    0.0000 </r>
      </set>
      <set comment="kpoint 20">
       <r>  -40.6409    1.0000 </r>
       <r>  -40.5870    1.0000 </r>
       <r>  -40.2853    1.0000 </r>
       <r>  -40.2060    1.0000 </r>
       <r>  -40.2047    1.0000 </r>
       <r>  -40.0751    1.0000 </r>
       <r>    5.3116    1.0000 </r>
       <r>    5.3941    1.0000 </r>
       <r>    6.4172    1.0000 </r>
       <r>    8.0051    1.0000 </r>
       <r>    9.0964    1.0000 </r>
       <r>    9.3105    1.0000 </r>
       <r>   10.4345    1.0000 </r>
       <r>   12.3276    1.0000 </r>
       <r>   12.8620    0.0000 </r>
       <r>   13.0625    0.0000 </r>
       <r>   14.6337    0.0000 </r>
       <r>   16.3606    0.0000 </r>
       <r>   20.0204    0.0000 </r>
       <r>   20.8485    0.0000 </r>
       <r>   23.7615    0.0000 </r>
       <r>   25.0911    0.0000 </r>
       <r>   26.1247    0.0000 </r>
       <r>   29.3627    0.0000 </r>
      </set>
      <set comment="kpoint 21">
       <r>  -40.3691    1.0000 </r>
       <r>  -40.2689    1.0000 </r>
       <r>  -40.2450    1.0000 </r>
       <r>  -40.1817    1.0000 </r>
       <r>  -40.1358    1.0000 </r>
       <r>  -40.0133    1.0000 </r>
       <r>    3.2591    1.0000 </r>
       <r>    5.7023    1.0000 </r>
       <r>    7.7656    1.0000 </r>
       <r>    8.2603    1.0000 </r>
       <r>    8.6675    1.0000 </r>
       <r>    8.9108    1.0000 </r>
       <r>    9.5445    1.0000 </r>
       <r>    9.7872    1.0000 </r>
       <r>   10.1195    1.0000 </r>
       <r>   10.4293    1.0000 </r>
       <r>   12.3052    1.0000 </r>
       <r>   14.8257    0.0000 </r>
       <r>   18.8274    0.0000 </r>
       <r>   28.1627    0.0000 </r>
       <r>   29.2547    0.0000 </r>
       <r>   29.7167    0.0000 </r>
       <r>   30.3368    0.0000 </r>
       <r>   32.0186    0.0000 </r>
      </set>
      <set comment="kpoint 22">
       <r>  -40.4097    1.0000 </r>
       <r>  -40.3734    1.0000 </r>
       <r>  -40.3045    1.0000 </r>
       <r>  -40.2296    1.0000 </r>
       <r>  -40.1742    1.0000 </r>
       <r>  -40.0263    1.0000 </r>
       <r>    4.4532    1.0000 </r>
       <r>    6.3690    1.0000 </r>
       <r>    7.3885    1.0000 </r>
       <r>    7.6116    1.0000 </r>
       <r>    8.2484    1.0000 </r>
       <r>    8.9692    1.0000 </r>
       <r>    9.7608    1.0000 </r>
       <r>    9.9267    1.0000 </r>
       <r>   10.9219    1.0000 </r>
       <r>   11.1977    1.0000 </r>
       <r>   12.3084    1.0000 </r>
       <r>   16.1172    0.0000 </r>
       <r>   19.5745    0.0000 </r>
       <r>   25.4578    0.0000 </r>
       <r>   27.2742    0.0000 </r>
       <r>   28.8630    0.0000 </r>
       <r>   30.4585    0.0000 </r>
       <r>   32.4833    0.0000 </r>
      </set>
      <set comment="kpoint 23">
       <r>  -40.5352    1.0000 </r>
       <r>  -40.4919    1.0000 </r>
       <r>  -40.2809    1.0000 </r>
       <r>  -40.2502    1.0000 </r>
       <r>  -40.2104    1.0000 </r>
       <r>  -40.0487    1.0000 </r>
       <r>    5.4018    1.0000 </r>
       <r>    6.0834    1.0000 </r>
       <r>    6.8061    1.0000 </r>
       <r>    7.7774    1.0000 </r>
       <r>    8.7316    1.0000 </r>
       <r>    9.1441    1.0000 </r>
       <r>    9.4079    1.0000 </r>
       <r>   10.8459    1.0000 </r>
       <r>   12.0663    1.0000 </r>
       <r>   12.1336    1.0000 </r>
       <r>   12.9122    0.0000 </r>
       <r>   17.2503    0.0000 </r>
       <r>   20.4980    0.0000 </r>
       <r>   22.1327    0.0000 </r>
       <r>   25.0702    0.0000 </r>
       <r>   27.2321    0.0000 </r>
       <r>   28.3775    0.0000 </r>
       <r>   30.3852    0.0000 </r>
      </set>
      <set comment="kpoint 24">
       <r>  -40.6153    1.0000 </r>
       <r>  -40.5632    1.0000 </r>
       <r>  -40.3104    1.0000 </r>
       <r>  -40.2343    1.0000 </r>
       <r>  -40.2035    1.0000 </r>
       <r>  -40.0743    1.0000 </r>
       <r>    5.5598    1.0000 </r>
       <r>    5.7479    1.0000 </r>
       <r>    6.5783    1.0000 </r>
       <r>    7.9424    1.0000 </r>
       <r>    8.8068    1.0000 </r>
       <r>    9.4467    1.0000 </r>
       <r>    9.8714    1.0000 </r>
       <r>   12.0902    1.0000 </r>
       <r>   12.2193    1.0000 </r>
       <r>   12.6936    0.0000 </r>
       <r>   14.6167    0.0000 </r>
       <r>   17.5497    0.0000 </r>
       <r>   19.5132    0.0000 </r>
       <r>   21.8620    0.0000 </r>
       <r>   23.1902    0.0000 </r>
       <r>   25.4232    0.0000 </r>
       <r>   26.7150    0.0000 </r>
       <r>   29.1397    0.0000 </r>
      </set>
      <set comment="kpoint 25">
       <r>  -40.4795    1.0000 </r>
       <r>  -40.4785    1.0000 </r>
       <r>  -40.2883    1.0000 </r>
       <r>  -40.2614    1.0000 </r>
       <r>  -40.2349    1.0000 </r>
       <r>  -40.0453    1.0000 </r>
       <r>    5.6561    1.0000 </r>
       <r>    6.7731    1.0000 </r>
       <r>    7.0577    1.0000 </r>
       <r>    7.1585    1.0000 </r>
       <r>    8.5159    1.0000 </r>
       <r>    8.5427    1.0000 </r>
       <r>    9.4718    1.0000 </r>
       <r>   10.1705    1.0000 </r>
       <r>   11.9163    1.0000 </r>
       <r>   12.1198    1.0000 </r>
       <r>   13.0134    0.0000 </r>
       <r>   17.2739    0.0000 </r>
       <r>   20.7371    0.0000 </r>
       <r>   23.2819    0.0000 </r>
       <r>   23.8582    0.0000 </r>
       <r>   28.1565    0.0000 </r>
       <r>   29.1207    0.0000 </r>
       <r>   30.9775    0.0000 </r>
      </set>
      <set comment="kpoint 26">
       <r>  -40.5563    1.0000 </r>
       <r>  -40.5217    1.0000 </r>
       <r>  -40.3546    1.0000 </r>
       <r>  -40.2959    1.0000 </r>
       <r>  -40.2027    1.0000 </r>
       <r>  -40.0732    1.0000 </r>
       <r>    6.1998    1.0000 </r>
       <r>    6.6036    1.0000 </r>
       <r>    6.7948    1.0000 </r>
       <r>    7.6291    1.0000 </r>
       <r>    8.5341    1.0000 </r>
       <r>    8.9518    1.0000 </r>
       <r>    9.2841    1.0000 </r>
       <r>   10.9562    1.0000 </r>
       <r>   11.7741    1.0000 </r>
       <r>   12.6100    0.0008 </r>
       <r>   14.8031    0.0000 </r>
       <r>   19.1714    0.0000 </r>
       <r>   19.3121    0.0000 </r>
       <r>   21.7013    0.0000 </r>
       <r>   23.1282    0.0000 </r>
       <r>   26.3987    0.0000 </r>
       <r>   27.6120    0.0000 </r>
       <r>   29.0071    0.0000 </r>
      </set>
      <set comment="kpoint 27">
       <r>  -40.5844    1.0000 </r>
       <r>  -40.5329    1.0000 </r>
       <r>  -40.3860    1.0000 </r>
       <r>  -40.3165    1.0000 </r>
       <r>  -40.1731    1.0000 </r>
       <r>  -40.0935    1.0000 </r>
       <r>    6.1153    1.0000 </r>
       <r>    6.4750    1.0000 </r>
       <r>    6.8949    1.0000 </r>
       <r>    7.8698    1.0000 </r>
       <r>    8.3713    1.0000 </r>
       <r>    9.1624    1.0000 </r>
       <r>    9.6103    1.0000 </r>
       <r>   11.7084    1.0000 </r>
       <r>   11.7710    1.0000 </r>
       <r>   12.3643    0.9999 </r>
       <r>   16.4538    0.0000 </r>
       <r>   17.0242    0.0000 </r>
       <r>   20.4066    0.0000 </r>
       <r>   21.7089    0.0000 </r>
       <r>   22.6861    0.0000 </r>
       <r>   25.7925    0.0000 </r>
       <r>   27.2502    0.0000 </r>
       <r>   27.5432    0.0000 </r>
      </set>
      <set comment="kpoint 28">
       <r>  -40.5359    1.0000 </r>
       <r>  -40.4996    1.0000 </r>
       <r>  -40.4371    1.0000 </r>
       <r>  -40.3846    1.0000 </r>
       <r>  -40.1558    1.0000 </r>
       <r>  -40.1065    1.0000 </r>
       <r>    6.5011    1.0000 </r>
       <r>    6.9583    1.0000 </r>
       <r>    7.2843    1.0000 </r>
       <r>    7.5998    1.0000 </r>
       <r>    8.4667    1.0000 </r>
       <r>    8.5096    1.0000 </r>
       <r>    9.5408    1.0000 </r>
       <r>   11.3964    1.0000 </r>
       <r>   11.5190    1.0000 </r>
       <r>   12.2035    1.0000 </r>
       <r>   16.5329    0.0000 </r>
       <r>   17.8345    0.0000 </r>
       <r>   19.3870    0.0000 </r>
       <r>   22.0628    0.0000 </r>
       <r>   24.7919    0.0000 </r>
       <r>   24.8291    0.0000 </r>
       <r>   26.7879    0.0000 </r>
       <r>   28.0643    0.0000 </r>
      </set>
      <set comment="kpoint 29">
       <r>  -40.3607    1.0000 </r>
       <r>  -40.1442    1.0000 </r>
       <r>  -40.1442    1.0000 </r>
       <r>  -40.1077    1.0000 </r>
       <r>  -40.1077    1.0000 </r>
       <r>  -40.0547    1.0000 </r>
       <r>    2.5715    1.0000 </r>
       <r>    4.6325    1.0000 </r>
       <r>    7.9846    1.0000 </r>
       <r>    8.6139    1.0000 </r>
       <r>    8.6139    1.0000 </r>
       <r>    8.9294    1.0000 </r>
       <r>    8.9294    1.0000 </r>
       <r>    9.6753    1.0000 </r>
       <r>   10.8752    1.0000 </r>
       <r>   10.8752    1.0000 </r>
       <r>   12.1299    1.0000 </r>
       <r>   12.1299    1.0000 </r>
       <r>   20.4909    0.0000 </r>
       <r>   26.5234    0.0000 </r>
       <r>   28.7822    0.0000 </r>
       <r>   29.2206    0.0000 </r>
       <r>   32.8526    0.0000 </r>
       <r>   32.8526    0.0000 </r>
      </set>
      <set comment="kpoint 30">
       <r>  -40.3516    1.0000 </r>
       <r>  -40.1879    1.0000 </r>
       <r>  -40.1612    1.0000 </r>
       <r>  -40.1572    1.0000 </r>
       <r>  -40.1180    1.0000 </r>
       <r>  -40.0497    1.0000 </r>
       <r>    2.9474    1.0000 </r>
       <r>    5.0075    1.0000 </r>
       <r>    8.0173    1.0000 </r>
       <r>    8.4096    1.0000 </r>
       <r>    8.4904    1.0000 </r>
       <r>    8.8931    1.0000 </r>
       <r>    9.2080    1.0000 </r>
       <r>    9.3128    1.0000 </r>
       <r>   10.7387    1.0000 </r>
       <r>   10.7395    1.0000 </r>
       <r>   12.1569    1.0000 </r>
       <r>   12.8079    0.0000 </r>
       <r>   20.6301    0.0000 </r>
       <r>   27.1089    0.0000 </r>
       <r>   29.2886    0.0000 </r>
       <r>   29.6684    0.0000 </r>
       <r>   31.4476    0.0000 </r>
       <r>   32.4058    0.0000 </r>
      </set>
      <set comment="kpoint 31">
       <r>  -40.3594    1.0000 </r>
       <r>  -40.2911    1.0000 </r>
       <r>  -40.2650    1.0000 </r>
       <r>  -40.1909    1.0000 </r>
       <r>  -40.1445    1.0000 </r>
       <r>  -40.0491    1.0000 </r>
       <r>    3.9247    1.0000 </r>
       <r>    5.8538    1.0000 </r>
       <r>    7.6039    1.0000 </r>
       <r>    7.9365    1.0000 </r>
       <r>    8.1077    1.0000 </r>
       <r>    9.0212    1.0000 </r>
       <r>    9.5647    1.0000 </r>
       <r>    9.9694    1.0000 </r>
       <r>   10.5819    1.0000 </r>
       <r>   10.6035    1.0000 </r>
       <r>   12.1859    1.0000 </r>
       <r>   13.9150    0.0000 </r>
       <r>   21.0375    0.0000 </r>
       <r>   27.3986    0.0000 </r>
       <r>   28.7862    0.0000 </r>
       <r>   29.6362    0.0000 </r>
       <r>   30.8310    0.0000 </r>
       <r>   31.6954    0.0000 </r>
      </set>
      <set comment="kpoint 32">
       <r>  -40.4814    1.0000 </r>
       <r>  -40.4393    1.0000 </r>
       <r>  -40.2457    1.0000 </r>
       <r>  -40.2317    1.0000 </r>
       <r>  -40.1777    1.0000 </r>
       <r>  -40.0564    1.0000 </r>
       <r>    4.8993    1.0000 </r>
       <r>    6.0226    1.0000 </r>
       <r>    7.0008    1.0000 </r>
       <r>    7.5946    1.0000 </r>
       <r>    8.6421    1.0000 </r>
       <r>    9.5362    1.0000 </r>
       <r>    9.6853    1.0000 </r>
       <r>   10.9658    1.0000 </r>
       <r>   11.0365    1.0000 </r>
       <r>   11.2989    1.0000 </r>
       <r>   12.2312    1.0000 </r>
       <r>   14.8884    0.0000 </r>
       <r>   21.4101    0.0000 </r>
       <r>   24.4855    0.0000 </r>
       <r>   27.1232    0.0000 </r>
       <r>   28.6887    0.0000 </r>
       <r>   29.4504    0.0000 </r>
       <r>   30.8229    0.0000 </r>
      </set>
      <set comment="kpoint 33">
       <r>  -40.5980    1.0000 </r>
       <r>  -40.5568    1.0000 </r>
       <r>  -40.2638    1.0000 </r>
       <r>  -40.2047    1.0000 </r>
       <r>  -40.2024    1.0000 </r>
       <r>  -40.0713    1.0000 </r>
       <r>    5.1485    1.0000 </r>
       <r>    5.6396    1.0000 </r>
       <r>    6.8243    1.0000 </r>
       <r>    7.2545    1.0000 </r>
       <r>    9.4438    1.0000 </r>
       <r>    9.4786    1.0000 </r>
       <r>   10.8851    1.0000 </r>
       <r>   11.7373    1.0000 </r>
       <r>   12.3420    1.0000 </r>
       <r>   12.3794    0.9996 </r>
       <r>   12.6442    0.0000 </r>
       <r>   15.8584    0.0000 </r>
       <r>   20.0173    0.0000 </r>
       <r>   22.4312    0.0000 </r>
       <r>   25.2116    0.0000 </r>
       <r>   26.7784    0.0000 </r>
       <r>   27.5654    0.0000 </r>
       <r>   30.2253    0.0000 </r>
      </set>
      <set comment="kpoint 34">
       <r>  -40.6432    1.0000 </r>
       <r>  -40.6012    1.0000 </r>
       <r>  -40.2760    1.0000 </r>
       <r>  -40.2155    1.0000 </r>
       <r>  -40.1802    1.0000 </r>
       <r>  -40.0820    1.0000 </r>
       <r>    5.1178    1.0000 </r>
       <r>    5.4619    1.0000 </r>
       <r>    6.7313    1.0000 </r>
       <r>    7.2006    1.0000 </r>
       <r>    9.3908    1.0000 </r>
       <r>    9.6524    1.0000 </r>
       <r>   11.6822    1.0000 </r>
       <r>   11.8166    1.0000 </r>
       <r>   12.8954    0.0000 </r>
       <r>   13.0415    0.0000 </r>
       <r>   13.8567    0.0000 </r>
       <r>   15.9360    0.0000 </r>
       <r>   19.7680    0.0000 </r>
       <r>   20.0552    0.0000 </r>
       <r>   25.2293    0.0000 </r>
       <r>   25.9726    0.0000 </r>
       <r>   26.4894    0.0000 </r>
       <r>   30.0932    0.0000 </r>
      </set>
      <set comment="kpoint 35">
       <r>  -40.3456    1.0000 </r>
       <r>  -40.2527    1.0000 </r>
       <r>  -40.2475    1.0000 </r>
       <r>  -40.1793    1.0000 </r>
       <r>  -40.1424    1.0000 </r>
       <r>  -40.0480    1.0000 </r>
       <r>    3.6382    1.0000 </r>
       <r>    5.6743    1.0000 </r>
       <r>    7.8191    1.0000 </r>
       <r>    7.8743    1.0000 </r>
       <r>    8.2473    1.0000 </r>
       <r>    8.9031    1.0000 </r>
       <r>    9.4246    1.0000 </r>
       <r>    9.7518    1.0000 </r>
       <r>   10.5924    1.0000 </r>
       <r>   10.6768    1.0000 </r>
       <r>   12.1306    1.0000 </r>
       <r>   13.6576    0.0000 </r>
       <r>   20.9198    0.0000 </r>
       <r>   27.8863    0.0000 </r>
       <r>   29.4474    0.0000 </r>
       <r>   29.7310    0.0000 </r>
       <r>   29.7929    0.0000 </r>
       <r>   31.5926    0.0000 </r>
      </set>
      <set comment="kpoint 36">
       <r>  -40.4187    1.0000 </r>
       <r>  -40.3833    1.0000 </r>
       <r>  -40.2593    1.0000 </r>
       <r>  -40.2245    1.0000 </r>
       <r>  -40.1809    1.0000 </r>
       <r>  -40.0519    1.0000 </r>
       <r>    4.7241    1.0000 </r>
       <r>    6.4319    1.0000 </r>
       <r>    7.0771    1.0000 </r>
       <r>    7.7082    1.0000 </r>
       <r>    8.0682    1.0000 </r>
       <r>    8.8221    1.0000 </r>
       <r>    9.7188    1.0000 </r>
       <r>   10.3554    1.0000 </r>
       <r>   11.0771    1.0000 </r>
       <r>   11.1705    1.0000 </r>
       <r>   12.1493    1.0000 </r>
       <r>   14.6601    0.0000 </r>
       <r>   21.4602    0.0000 </r>
       <r>   26.0073    0.0000 </r>
       <r>   27.5150    0.0000 </r>
       <r>   28.8003    0.0000 </r>
       <r>   29.9230    0.0000 </r>
       <r>   30.8346    0.0000 </r>
      </set>
      <set comment="kpoint 37">
       <r>  -40.5395    1.0000 </r>
       <r>  -40.5046    1.0000 </r>
       <r>  -40.2752    1.0000 </r>
       <r>  -40.2268    1.0000 </r>
       <r>  -40.2077    1.0000 </r>
       <r>  -40.0638    1.0000 </r>
       <r>    5.3859    1.0000 </r>
       <r>    6.1477    1.0000 </r>
       <r>    6.8438    1.0000 </r>
       <r>    7.4691    1.0000 </r>
       <r>    8.7765    1.0000 </r>
       <r>    9.4597    1.0000 </r>
       <r>    9.6377    1.0000 </r>
       <r>   10.9694    1.0000 </r>
       <r>   11.6047    1.0000 </r>
       <r>   12.3143    1.0000 </r>
       <r>   12.9483    0.0000 </r>
       <r>   15.7618    0.0000 </r>
       <r>   21.0929    0.0000 </r>
       <r>   23.5590    0.0000 </r>
       <r>   25.2136    0.0000 </r>
       <r>   27.0121    0.0000 </r>
       <r>   28.6295    0.0000 </r>
       <r>   30.0966    0.0000 </r>
      </set>
      <set comment="kpoint 38">
       <r>  -40.6176    1.0000 </r>
       <r>  -40.5771    1.0000 </r>
       <r>  -40.3040    1.0000 </r>
       <r>  -40.2448    1.0000 </r>
       <r>  -40.1773    1.0000 </r>
       <r>  -40.0800    1.0000 </r>
       <r>    5.3763    1.0000 </r>
       <r>    5.8204    1.0000 </r>
       <r>    6.9321    1.0000 </r>
       <r>    7.2285    1.0000 </r>
       <r>    8.8068    1.0000 </r>
       <r>    9.9402    1.0000 </r>
       <r>   10.6212    1.0000 </r>
       <r>   11.5663    1.0000 </r>
       <r>   12.1610    1.0000 </r>
       <r>   12.8129    0.0000 </r>
       <r>   14.4772    0.0000 </r>
       <r>   16.7642    0.0000 </r>
       <r>   19.3574    0.0000 </r>
       <r>   21.4206    0.0000 </r>
       <r>   24.2904    0.0000 </r>
       <r>   26.1317    0.0000 </r>
       <r>   27.2185    0.0000 </r>
       <r>   29.0858    0.0000 </r>
      </set>
      <set comment="kpoint 39">
       <r>  -40.4897    1.0000 </r>
       <r>  -40.4833    1.0000 </r>
       <r>  -40.2873    1.0000 </r>
       <r>  -40.2560    1.0000 </r>
       <r>  -40.2109    1.0000 </r>
       <r>  -40.0606    1.0000 </r>
       <r>    5.7454    1.0000 </r>
       <r>    6.5793    1.0000 </r>
       <r>    7.1410    1.0000 </r>
       <r>    7.3532    1.0000 </r>
       <r>    8.4314    1.0000 </r>
       <r>    8.4896    1.0000 </r>
       <r>    9.3227    1.0000 </r>
       <r>   10.6518    1.0000 </r>
       <r>   11.4241    1.0000 </r>
       <r>   12.3772    0.9997 </r>
       <r>   13.1062    0.0000 </r>
       <r>   15.8375    0.0000 </r>
       <r>   21.7770    0.0000 </r>
       <r>   24.3147    0.0000 </r>
       <r>   24.4542    0.0000 </r>
       <r>   27.9279    0.0000 </r>
       <r>   28.0480    0.0000 </r>
       <r>   30.5839    0.0000 </r>
      </set>
      <set comment="kpoint 40">
       <r>  -40.5586    1.0000 </r>
       <r>  -40.5333    1.0000 </r>
       <r>  -40.3534    1.0000 </r>
       <r>  -40.3073    1.0000 </r>
       <r>  -40.1740    1.0000 </r>
       <r>  -40.0775    1.0000 </r>
       <r>    6.0449    1.0000 </r>
       <r>    6.7551    1.0000 </r>
       <r>    6.7825    1.0000 </r>
       <r>    7.6337    1.0000 </r>
       <r>    8.3677    1.0000 </r>
       <r>    9.0318    1.0000 </r>
       <r>    9.5154    1.0000 </r>
       <r>   11.0771    1.0000 </r>
       <r>   11.3786    1.0000 </r>
       <r>   12.8329    0.0000 </r>
       <r>   14.9172    0.0000 </r>
       <r>   17.7639    0.0000 </r>
       <r>   19.7977    0.0000 </r>
       <r>   22.1876    0.0000 </r>
       <r>   23.9174    0.0000 </r>
       <r>   26.0383    0.0000 </r>
       <r>   27.2078    0.0000 </r>
       <r>   29.3937    0.0000 </r>
      </set>
      <set comment="kpoint 41">
       <r>  -40.5850    1.0000 </r>
       <r>  -40.5465    1.0000 </r>
       <r>  -40.3838    1.0000 </r>
       <r>  -40.3284    1.0000 </r>
       <r>  -40.1509    1.0000 </r>
       <r>  -40.0911    1.0000 </r>
       <r>    5.9539    1.0000 </r>
       <r>    6.6030    1.0000 </r>
       <r>    7.2312    1.0000 </r>
       <r>    7.4235    1.0000 </r>
       <r>    8.0848    1.0000 </r>
       <r>    9.5101    1.0000 </r>
       <r>    9.9638    1.0000 </r>
       <r>   11.1445    1.0000 </r>
       <r>   11.8793    1.0000 </r>
       <r>   12.5363    0.1412 </r>
       <r>   16.6824    0.0000 </r>
       <r>   17.1181    0.0000 </r>
       <r>   20.2888    0.0000 </r>
       <r>   20.9638    0.0000 </r>
       <r>   22.3785    0.0000 </r>
       <r>   26.5677    0.0000 </r>
       <r>   27.2189    0.0000 </r>
       <r>   27.8732    0.0000 </r>
      </set>
      <set comment="kpoint 42">
       <r>  -40.5330    1.0000 </r>
       <r>  -40.5114    1.0000 </r>
       <r>  -40.4416    1.0000 </r>
       <r>  -40.3962    1.0000 </r>
       <r>  -40.1371    1.0000 </r>
       <r>  -40.1000    1.0000 </r>
       <r>    6.5838    1.0000 </r>
       <r>    6.8566    1.0000 </r>
       <r>    7.3913    1.0000 </r>
       <r>    7.4835    1.0000 </r>
       <r>    8.3099    1.0000 </r>
       <r>    8.6312    1.0000 </r>
       <r>    9.5625    1.0000 </r>
       <r>   10.9237    1.0000 </r>
       <r>   11.6986    1.0000 </r>
       <r>   12.4078    0.9948 </r>
       <r>   16.8363    0.0000 </r>
       <r>   18.2966    0.0000 </r>
       <r>   20.1017    0.0000 </r>
       <r>   20.6741    0.0000 </r>
       <r>   23.3615    0.0000 </r>
       <r>   24.3349    0.0000 </r>
       <r>   27.7489    0.0000 </r>
       <r>   29.3569    0.0000 </r>
      </set>
      <set comment="kpoint 43">
       <r>  -40.2913    1.0000 </r>
       <r>  -40.1363    1.0000 </r>
       <r>  -40.1363    1.0000 </r>
       <r>  -40.1259    1.0000 </r>
       <r>  -40.1163    1.0000 </r>
       <r>  -40.1163    1.0000 </r>
       <r>    3.1845    1.0000 </r>
       <r>    4.3748    1.0000 </r>
       <r>    7.9364    1.0000 </r>
       <r>    8.6157    1.0000 </r>
       <r>    8.6157    1.0000 </r>
       <r>    8.6513    1.0000 </r>
       <r>    8.7925    1.0000 </r>
       <r>    8.7925    1.0000 </r>
       <r>   11.2486    1.0000 </r>
       <r>   11.2486    1.0000 </r>
       <r>   11.9269    1.0000 </r>
       <r>   11.9269    1.0000 </r>
       <r>   22.7987    0.0000 </r>
       <r>   26.0843    0.0000 </r>
       <r>   28.1785    0.0000 </r>
       <r>   28.6894    0.0000 </r>
       <r>   32.7620    0.0000 </r>
       <r>   32.7620    0.0000 </r>
      </set>
      <set comment="kpoint 44">
       <r>  -40.2910    1.0000 </r>
       <r>  -40.1823    1.0000 </r>
       <r>  -40.1729    1.0000 </r>
       <r>  -40.1482    1.0000 </r>
       <r>  -40.1270    1.0000 </r>
       <r>  -40.1055    1.0000 </r>
       <r>    3.5541    1.0000 </r>
       <r>    4.7572    1.0000 </r>
       <r>    7.9092    1.0000 </r>
       <r>    8.0862    1.0000 </r>
       <r>    8.4020    1.0000 </r>
       <r>    8.8600    1.0000 </r>
       <r>    8.8879    1.0000 </r>
       <r>    9.0669    1.0000 </r>
       <r>   11.1492    1.0000 </r>
       <r>   11.2102    1.0000 </r>
       <r>   11.9104    1.0000 </r>
       <r>   12.2346    1.0000 </r>
       <r>   22.9451    0.0000 </r>
       <r>   26.5481    0.0000 </r>
       <r>   28.7088    0.0000 </r>
       <r>   29.1044    0.0000 </r>
       <r>   31.4854    0.0000 </r>
       <r>   32.5207    0.0000 </r>
      </set>
      <set comment="kpoint 45">
       <r>  -40.3458    1.0000 </r>
       <r>  -40.3071    1.0000 </r>
       <r>  -40.2146    1.0000 </r>
       <r>  -40.1802    1.0000 </r>
       <r>  -40.1552    1.0000 </r>
       <r>  -40.0978    1.0000 </r>
       <r>    4.4658    1.0000 </r>
       <r>    5.6317    1.0000 </r>
       <r>    7.3607    1.0000 </r>
       <r>    7.7551    1.0000 </r>
       <r>    8.1362    1.0000 </r>
       <r>    8.7295    1.0000 </r>
       <r>    9.5741    1.0000 </r>
       <r>    9.8144    1.0000 </r>
       <r>   11.0142    1.0000 </r>
       <r>   11.2375    1.0000 </r>
       <r>   11.8664    1.0000 </r>
       <r>   12.8610    0.0000 </r>
       <r>   23.2421    0.0000 </r>
       <r>   27.2503    0.0000 </r>
       <r>   28.2279    0.0000 </r>
       <r>   29.0716    0.0000 </r>
       <r>   30.7762    0.0000 </r>
       <r>   31.6284    0.0000 </r>
      </set>
      <set comment="kpoint 46">
       <r>  -40.4809    1.0000 </r>
       <r>  -40.4562    1.0000 </r>
       <r>  -40.2194    1.0000 </r>
       <r>  -40.1934    1.0000 </r>
       <r>  -40.1900    1.0000 </r>
       <r>  -40.0929    1.0000 </r>
       <r>    5.1652    1.0000 </r>
       <r>    5.8803    1.0000 </r>
       <r>    6.9433    1.0000 </r>
       <r>    7.3634    1.0000 </r>
       <r>    8.9021    1.0000 </r>
       <r>    9.4460    1.0000 </r>
       <r>    9.9913    1.0000 </r>
       <r>   10.7355    1.0000 </r>
       <r>   11.4642    1.0000 </r>
       <r>   11.5189    1.0000 </r>
       <r>   11.9638    1.0000 </r>
       <r>   13.5211    0.0000 </r>
       <r>   22.8717    0.0000 </r>
       <r>   25.3958    0.0000 </r>
       <r>   26.2683    0.0000 </r>
       <r>   28.6957    0.0000 </r>
       <r>   29.8294    0.0000 </r>
       <r>   30.8475    0.0000 </r>
      </set>
      <set comment="kpoint 47">
       <r>  -40.5971    1.0000 </r>
       <r>  -40.5742    1.0000 </r>
       <r>  -40.2504    1.0000 </r>
       <r>  -40.2186    1.0000 </r>
       <r>  -40.1637    1.0000 </r>
       <r>  -40.0936    1.0000 </r>
       <r>    5.1807    1.0000 </r>
       <r>    5.5814    1.0000 </r>
       <r>    6.7810    1.0000 </r>
       <r>    6.9655    1.0000 </r>
       <r>    9.9188    1.0000 </r>
       <r>   10.0641    1.0000 </r>
       <r>   11.1203    1.0000 </r>
       <r>   11.4453    1.0000 </r>
       <r>   12.2433    1.0000 </r>
       <r>   12.4453    0.9330 </r>
       <r>   12.5949    0.0031 </r>
       <r>   14.3865    0.0000 </r>
       <r>   20.6233    0.0000 </r>
       <r>   22.1615    0.0000 </r>
       <r>   25.9833    0.0000 </r>
       <r>   27.7457    0.0000 </r>
       <r>   28.0095    0.0000 </r>
       <r>   30.7719    0.0000 </r>
      </set>
      <set comment="kpoint 48">
       <r>  -40.6419    1.0000 </r>
       <r>  -40.6185    1.0000 </r>
       <r>  -40.2623    1.0000 </r>
       <r>  -40.2297    1.0000 </r>
       <r>  -40.1493    1.0000 </r>
       <r>  -40.0969    1.0000 </r>
       <r>    5.1018    1.0000 </r>
       <r>    5.4383    1.0000 </r>
       <r>    6.7464    1.0000 </r>
       <r>    6.7928    1.0000 </r>
       <r>    9.8600    1.0000 </r>
       <r>   10.4074    1.0000 </r>
       <r>   11.1516    1.0000 </r>
       <r>   12.6135    0.0006 </r>
       <r>   12.9318    0.0000 </r>
       <r>   13.0098    0.0000 </r>
       <r>   13.0816    0.0000 </r>
       <r>   15.1971    0.0000 </r>
       <r>   19.5552    0.0000 </r>
       <r>   19.6333    0.0000 </r>
       <r>   26.4086    0.0000 </r>
       <r>   26.8789    0.0000 </r>
       <r>   27.2237    0.0000 </r>
       <r>   29.9650    0.0000 </r>
      </set>
      <set comment="kpoint 49">
       <r>  -40.3164    1.0000 </r>
       <r>  -40.2675    1.0000 </r>
       <r>  -40.2102    1.0000 </r>
       <r>  -40.1734    1.0000 </r>
       <r>  -40.1513    1.0000 </r>
       <r>  -40.0985    1.0000 </r>
       <r>    4.2157    1.0000 </r>
       <r>    5.4347    1.0000 </r>
       <r>    7.5240    1.0000 </r>
       <r>    7.8497    1.0000 </r>
       <r>    8.0643    1.0000 </r>
       <r>    8.6457    1.0000 </r>
       <r>    9.4176    1.0000 </r>
       <r>    9.6193    1.0000 </r>
       <r>   11.0467    1.0000 </r>
       <r>   11.2229    1.0000 </r>
       <r>   11.8411    1.0000 </r>
       <r>   12.7187    0.0000 </r>
       <r>   23.1957    0.0000 </r>
       <r>   27.1871    0.0000 </r>
       <r>   29.2783    0.0000 </r>
       <r>   29.4400    0.0000 </r>
       <r>   29.8438    0.0000 </r>
       <r>   30.5595    0.0000 </r>
      </set>
      <set comment="kpoint 50">
       <r>  -40.4187    1.0000 </r>
       <r>  -40.3966    1.0000 </r>
       <r>  -40.2207    1.0000 </r>
       <r>  -40.2077    1.0000 </r>
       <r>  -40.1842    1.0000 </r>
       <r>  -40.0917    1.0000 </r>
       <r>    5.1448    1.0000 </r>
       <r>    6.1840    1.0000 </r>
       <r>    7.0451    1.0000 </r>
       <r>    7.6445    1.0000 </r>
       <r>    8.0104    1.0000 </r>
       <r>    8.5633    1.0000 </r>
       <r>    9.8804    1.0000 </r>
       <r>   10.4657    1.0000 </r>
       <r>   11.3840    1.0000 </r>
       <r>   11.4545    1.0000 </r>
       <r>   11.9236    1.0000 </r>
       <r>   13.3831    0.0000 </r>
       <r>   23.4088    0.0000 </r>
       <r>   26.7741    0.0000 </r>
       <r>   27.0643    0.0000 </r>
       <r>   28.8772    0.0000 </r>
       <r>   29.0522    0.0000 </r>
       <r>   29.7912    0.0000 </r>
      </set>
      <set comment="kpoint 51">
       <r>  -40.5399    1.0000 </r>
       <r>  -40.5201    1.0000 </r>
       <r>  -40.2644    1.0000 </r>
       <r>  -40.2361    1.0000 </r>
       <r>  -40.1681    1.0000 </r>
       <r>  -40.0897    1.0000 </r>
       <r>    5.4836    1.0000 </r>
       <r>    6.0169    1.0000 </r>
       <r>    6.8569    1.0000 </r>
       <r>    7.3136    1.0000 </r>
       <r>    9.0167    1.0000 </r>
       <r>    9.4855    1.0000 </r>
       <r>    9.9608    1.0000 </r>
       <r>   10.8254    1.0000 </r>
       <r>   11.6802    1.0000 </r>
       <r>   12.5365    0.1400 </r>
       <r>   12.9131    0.0000 </r>
       <r>   14.3104    0.0000 </r>
       <r>   21.9698    0.0000 </r>
       <r>   23.9588    0.0000 </r>
       <r>   25.7355    0.0000 </r>
       <r>   27.5394    0.0000 </r>
       <r>   28.5868    0.0000 </r>
       <r>   28.9627    0.0000 </r>
      </set>
      <set comment="kpoint 52">
       <r>  -40.6162    1.0000 </r>
       <r>  -40.5941    1.0000 </r>
       <r>  -40.2919    1.0000 </r>
       <r>  -40.2595    1.0000 </r>
       <r>  -40.1449    1.0000 </r>
       <r>  -40.0930    1.0000 </r>
       <r>    5.3727    1.0000 </r>
       <r>    5.7789    1.0000 </r>
       <r>    6.8167    1.0000 </r>
       <r>    7.0408    1.0000 </r>
       <r>    9.1835    1.0000 </r>
       <r>   10.4767    1.0000 </r>
       <r>   10.6610    1.0000 </r>
       <r>   11.2809    1.0000 </r>
       <r>   12.1895    1.0000 </r>
       <r>   12.8047    0.0000 </r>
       <r>   14.4943    0.0000 </r>
       <r>   15.7902    0.0000 </r>
       <r>   19.6134    0.0000 </r>
       <r>   20.7684    0.0000 </r>
       <r>   25.6225    0.0000 </r>
       <r>   26.9283    0.0000 </r>
       <r>   27.6233    0.0000 </r>
       <r>   28.2923    0.0000 </r>
      </set>
      <set comment="kpoint 53">
       <r>  -40.4965    1.0000 </r>
       <r>  -40.4903    1.0000 </r>
       <r>  -40.2830    1.0000 </r>
       <r>  -40.2642    1.0000 </r>
       <r>  -40.1679    1.0000 </r>
       <r>  -40.0870    1.0000 </r>
       <r>    5.9008    1.0000 </r>
       <r>    6.3550    1.0000 </r>
       <r>    7.3114    1.0000 </r>
       <r>    7.5101    1.0000 </r>
       <r>    8.2577    1.0000 </r>
       <r>    8.2651    1.0000 </r>
       <r>    9.5330    1.0000 </r>
       <r>   10.6133    1.0000 </r>
       <r>   11.6682    1.0000 </r>
       <r>   12.5912    0.0043 </r>
       <r>   13.1394    0.0000 </r>
       <r>   14.4063    0.0000 </r>
       <r>   23.0042    0.0000 </r>
       <r>   24.7263    0.0000 </r>
       <r>   25.7359    0.0000 </r>
       <r>   26.9451    0.0000 </r>
       <r>   27.6539    0.0000 </r>
       <r>   29.1851    0.0000 </r>
      </set>
      <set comment="kpoint 54">
       <r>  -40.5593    1.0000 </r>
       <r>  -40.5457    1.0000 </r>
       <r>  -40.3473    1.0000 </r>
       <r>  -40.3217    1.0000 </r>
       <r>  -40.1401    1.0000 </r>
       <r>  -40.0890    1.0000 </r>
       <r>    6.0338    1.0000 </r>
       <r>    6.4472    1.0000 </r>
       <r>    7.0397    1.0000 </r>
       <r>    7.6877    1.0000 </r>
       <r>    8.3858    1.0000 </r>
       <r>    9.0254    1.0000 </r>
       <r>    9.7106    1.0000 </r>
       <r>   10.4791    1.0000 </r>
       <r>   11.9147    1.0000 </r>
       <r>   12.8929    0.0000 </r>
       <r>   15.1176    0.0000 </r>
       <r>   16.4651    0.0000 </r>
       <r>   20.5908    0.0000 </r>
       <r>   22.2942    0.0000 </r>
       <r>   24.1997    0.0000 </r>
       <r>   25.8190    0.0000 </r>
       <r>   27.3771    0.0000 </r>
       <r>   29.1486    0.0000 </r>
      </set>
      <set comment="kpoint 55">
       <r>  -40.5830    1.0000 </r>
       <r>  -40.5625    1.0000 </r>
       <r>  -40.3755    1.0000 </r>
       <r>  -40.3445    1.0000 </r>
       <r>  -40.1255    1.0000 </r>
       <r>  -40.0936    1.0000 </r>
       <r>    5.9664    1.0000 </r>
       <r>    6.5100    1.0000 </r>
       <r>    7.0174    1.0000 </r>
       <r>    7.6029    1.0000 </r>
       <r>    8.2033    1.0000 </r>
       <r>    9.4338    1.0000 </r>
       <r>   10.2692    1.0000 </r>
       <r>   10.6448    1.0000 </r>
       <r>   12.1081    1.0000 </r>
       <r>   12.5871    0.0060 </r>
       <r>   17.0347    0.0000 </r>
       <r>   17.2516    0.0000 </r>
       <r>   19.7137    0.0000 </r>
       <r>   20.1227    0.0000 </r>
       <r>   23.1875    0.0000 </r>
       <r>   25.5033    0.0000 </r>
       <r>   28.3001    0.0000 </r>
       <r>   28.4608    0.0000 </r>
      </set>
      <set comment="kpoint 56">
       <r>  -40.5313    1.0000 </r>
       <r>  -40.5227    1.0000 </r>
       <r>  -40.4394    1.0000 </r>
       <r>  -40.4121    1.0000 </r>
       <r>  -40.1161    1.0000 </r>
       <r>  -40.0964    1.0000 </r>
       <r>    6.6290    1.0000 </r>
       <r>    6.7277    1.0000 </r>
       <r>    7.5012    1.0000 </r>
       <r>    7.5414    1.0000 </r>
       <r>    8.2361    1.0000 </r>
       <r>    8.6202    1.0000 </r>
       <r>    9.6308    1.0000 </r>
[...]
       </set>
       <set comment="band 12">
        <r>  0.0000  0.0000  0.0000  0.0000  0.0000  0.0444  0.0000  0.0414  0.0000 </r>
        <r>  0.0214  0.0152  0.0000  0.0057  0.1104  0.0000  0.4221  0.0000  0.0817 </r>
       </set>
       <set comment="band 13">
        <r>  0.0045  0.0012  0.0000  0.0005  0.0675  0.0000  0.0010  0.0000  0.0499 </r>
        <r>  0.0000  0.0000  0.0003  0.0000  0.0000  0.2082  0.0000  0.5121  0.0000 </r>
       </set>
       <set comment="band 14">
        <r>  0.0000  0.0000  0.0003  0.0000  0.0000  0.2082  0.0000  0.5121  0.0000 </r>
        <r>  0.0045  0.0012  0.0000  0.0005  0.0675  0.0000  0.0010  0.0000  0.0499 </r>
       </set>
       <set comment="band 15">
        <r>  0.0068  0.0002  0.0000  0.0001  0.1628  0.0000  0.3548  0.0000  0.0587 </r>
        <r>  0.0000  0.0000  0.0029  0.0000  0.0000  0.2012  0.0000  0.1447  0.0000 </r>
       </set>
       <set comment="band 16">
        <r>  0.0000  0.0000  0.0029  0.0000  0.0000  0.2012  0.0000  0.1447  0.0000 </r>
        <r>  0.0068  0.0002  0.0000  0.0001  0.1628  0.0000  0.3548  0.0000  0.0587 </r>
       </set>
       <set comment="band 17">
        <r>  0.0878  0.0258  0.0000  0.0088  0.3220  0.0000  0.0052  0.0000  0.1151 </r>
        <r>  0.0000  0.0000  0.0129  0.0000  0.0000  0.1213  0.0000  0.0450  0.0000 </r>
       </set>
       <set comment="band 18">
        <r>  0.0000  0.0000  0.0129  0.0000  0.0000  0.1213  0.0000  0.0450  0.0000 </r>
        <r>  0.0878  0.0258  0.0000  0.0088  0.3220  0.0000  0.0052  0.0000  0.1151 </r>
       </set>
       <set comment="band 19">
        <r>  0.2687  0.0517  0.0000  0.0182  0.0112  0.0000  0.0081  0.0000  0.0043 </r>
        <r>  0.0000  0.0000  0.0373  0.0000  0.0000  0.0218  0.0000  0.0516  0.0000 </r>
       </set>
       <set comment="band 20">
        <r>  0.0000  0.0000  0.0373  0.0000  0.0000  0.0218  0.0000  0.0516  0.0000 </r>
        <r>  0.2687  0.0517  0.0000  0.0182  0.0112  0.0000  0.0081  0.0000  0.0043 </r>
       </set>
       <set comment="band 21">
        <r>  0.0008  0.0478  0.0000  0.0693  0.0334  0.0000  0.0521  0.0000  0.0999 </r>
        <r>  0.0000  0.0000  0.0886  0.0000  0.0000  0.0090  0.0000  0.0183  0.0000 </r>
       </set>
       <set comment="band 22">
        <r>  0.0000  0.0000  0.0886  0.0000  0.0000  0.0090  0.0000  0.0183  0.0000 </r>
        <r>  0.0008  0.0478  0.0000  0.0693  0.0334  0.0000  0.0521  0.0000  0.0999 </r>
       </set>
       <set comment="band 23">
        <r>  0.0001  0.0504  0.0000  0.0377  0.0186  0.0000  0.0554  0.0000  0.0549 </r>
        <r>  0.0000  0.0000  0.0320  0.0000  0.0000  0.0749  0.0000  0.0295  0.0000 </r>
       </set>
       <set comment="band 24">
        <r>  0.0000  0.0000  0.0320  0.0000  0.0000  0.0749  0.0000  0.0295  0.0000 </r>
        <r>  0.0001  0.0504  0.0000  0.0377  0.0186  0.0000  0.0554  0.0000  0.0549 </r>
       </set>
      </set>
      <set comment="kpoint 68">
       <set comment="band 1">
        <r>  0.0000  0.0000  0.0527  0.0000  0.0000  0.0000  0.0000  0.0000  0.0000 </r>
        <r>  0.0000  0.4806  0.0000  0.4503  0.0000  0.0000  0.0000  0.0000  0.0000 </r>
       </set>
       <set comment="band 2">
        <r>  0.0000  0.4806  0.0000  0.4503  0.0000  0.0000  0.0000  0.0000  0.0000 </r>
        <r>  0.0000  0.0000  0.0527  0.0000  0.0000  0.0000  0.0000  0.0000  0.0000 </r>
       </set>
       <set comment="band 3">
        <r>  0.0000  0.0000  0.0396  0.0000  0.0000  0.0000  0.0000  0.0000  0.0000 </r>
        <r>  0.0000  0.4599  0.0000  0.4911  0.0000  0.0000  0.0000  0.0000  0.0001 </r>
       </set>
       <set comment="band 4">
        <r>  0.0000  0.4599  0.0000  0.4911  0.0000  0.0000  0.0000  0.0000  0.0001 </r>
        <r>  0.0000  0.0000  0.0396  0.0000  0.0000  0.0000  0.0000  0.0000  0.0000 </r>
       </set>
       <set comment="band 5">
        <r>  0.0000  0.0474  0.0000  0.0467  0.0000  0.0000  0.0000  0.0000  0.0000 </r>
        <r>  0.0000  0.0000  0.8987  0.0000  0.0000  0.0000  0.0000  0.0000  0.0000 </r>
       </set>
       <set comment="band 6">
        <r>  0.0000  0.0000  0.8987  0.0000  0.0000  0.0000  0.0000  0.0000  0.0000 </r>
        <r>  0.0000  0.0474  0.0000  0.0467  0.0000  0.0000  0.0000  0.0000  0.0000 </r>
       </set>
       <set comment="band 7">
        <r>  0.0673  0.0063  0.0000  0.0022  0.0916  0.0000  0.0596  0.0000  0.0388 </r>
        <r>  0.0000  0.0000  0.0027  0.0000  0.0000  0.1981  0.0000  0.1820  0.0000 </r>
       </set>
       <set comment="band 8">
        <r>  0.0000  0.0000  0.0027  0.0000  0.0000  0.1981  0.0000  0.1820  0.0000 </r>
        <r>  0.0673  0.0063  0.0000  0.0022  0.0916  0.0000  0.0596  0.0000  0.0388 </r>
       </set>
       <set comment="band 9">
        <r>  0.0086  0.0083  0.0000  0.0053  0.2712  0.0000  0.1283  0.0000  0.2129 </r>
        <r>  0.0000  0.0000  0.0031  0.0000  0.0000  0.0691  0.0000  0.0325  0.0000 </r>
       </set>
       <set comment="band 10">
        <r>  0.0000  0.0000  0.0031  0.0000  0.0000  0.0691  0.0000  0.0325  0.0000 </r>
        <r>  0.0086  0.0083  0.0000  0.0053  0.2712  0.0000  0.1283  0.0000  0.2129 </r>
       </set>
       <set comment="band 11">
        <r>  0.0172  0.0125  0.0000  0.0226  0.0589  0.0000  0.1405  0.0000  0.1654 </r>
        <r>  0.0000  0.0000  0.0049  0.0000  0.0000  0.0999  0.0000  0.1586  0.0000 </r>
       </set>
       <set comment="band 12">
        <r>  0.0000  0.0000  0.0049  0.0000  0.0000  0.0999  0.0000  0.1586  0.0000 </r>
        <r>  0.0172  0.0125  0.0000  0.0226  0.0589  0.0000  0.1405  0.0000  0.1654 </r>
       </set>
       <set comment="band 13">
        <r>  0.0155  0.0020  0.0000  0.0052  0.0760  0.0000  0.0384  0.0000  0.2168 </r>
        <r>  0.0000  0.0000  0.0005  0.0000  0.0000  0.2123  0.0000  0.2619  0.0000 </r>
       </set>
       <set comment="band 14">
        <r>  0.0000  0.0000  0.0005  0.0000  0.0000  0.2123  0.0000  0.2619  0.0000 </r>
        <r>  0.0155  0.0020  0.0000  0.0052  0.0760  0.0000  0.0384  0.0000  0.2168 </r>
       </set>
       <set comment="band 15">
        <r>  0.0041  0.0020  0.0000  0.0006  0.0881  0.0000  0.4842  0.0000  0.0372 </r>
        <r>  0.0000  0.0000  0.0026  0.0000  0.0000  0.1801  0.0000  0.1289  0.0000 </r>
       </set>
       <set comment="band 16">
        <r>  0.0000  0.0000  0.0026  0.0000  0.0000  0.1801  0.0000  0.1289  0.0000 </r>
        <r>  0.0041  0.0020  0.0000  0.0006  0.0881  0.0000  0.4842  0.0000  0.0372 </r>
       </set>
       <set comment="band 17">
        <r>  0.0000  0.0000  0.0211  0.0000  0.0000  0.0599  0.0000  0.0209  0.0000 </r>
        <r>  0.0964  0.0356  0.0000  0.0249  0.2747  0.0000  0.0068  0.0000  0.1313 </r>
       </set>
       <set comment="band 18">
        <r>  0.0964  0.0356  0.0000  0.0249  0.2747  0.0000  0.0068  0.0000  0.1313 </r>
        <r>  0.0000  0.0000  0.0211  0.0000  0.0000  0.0599  0.0000  0.0209  0.0000 </r>
       </set>
       <set comment="band 19">
        <r>  0.3133  0.0259  0.0000  0.0416  0.0194  0.0000  0.0251  0.0000  0.0284 </r>
        <r>  0.0000  0.0000  0.0148  0.0000  0.0000  0.0153  0.0000  0.0903  0.0000 </r>
       </set>
       <set comment="band 20">
        <r>  0.0000  0.0000  0.0148  0.0000  0.0000  0.0153  0.0000  0.0903  0.0000 </r>
        <r>  0.3133  0.0259  0.0000  0.0416  0.0194  0.0000  0.0251  0.0000  0.0284 </r>
       </set>
       <set comment="band 21">
        <r>  0.0237  0.0799  0.0000  0.0563  0.0514  0.0000  0.0071  0.0000  0.1104 </r>
        <r>  0.0000  0.0000  0.0491  0.0000  0.0000  0.0471  0.0000  0.0154  0.0000 </r>
       </set>
       <set comment="band 22">
        <r>  0.0000  0.0000  0.0491  0.0000  0.0000  0.0471  0.0000  0.0154  0.0000 </r>
        <r>  0.0237  0.0799  0.0000  0.0563  0.0514  0.0000  0.0071  0.0000  0.1104 </r>
       </set>
       <set comment="band 23">
        <r>  0.0052  0.0356  0.0000  0.0279  0.0122  0.0000  0.0226  0.0000  0.0186 </r>
        <r>  0.0000  0.0000  0.0845  0.0000  0.0000  0.0453  0.0000  0.0284  0.0000 </r>
       </set>
       <set comment="band 24">
        <r>  0.0000  0.0000  0.0845  0.0000  0.0000  0.0453  0.0000  0.0284  0.0000 </r>
        <r>  0.0052  0.0356  0.0000  0.0279  0.0122  0.0000  0.0226  0.0000  0.0186 </r>
       </set>
      </set>
      <set comment="kpoint 69">
       <set comment="band 1">
        <r>  0.0000  0.0000  0.0489  0.0000  0.0000  0.0000  0.0000  0.0000  0.0000 </r>
        <r>  0.0000  0.2351  0.0000  0.6991  0.0000  0.0000  0.0000  0.0000  0.0001 </r>
       </set>
       <set comment="band 2">
        <r>  0.0000  0.2351  0.0000  0.6991  0.0000  0.0000  0.0000  0.0000  0.0001 </r>
        <r>  0.0000  0.0000  0.0489  0.0000  0.0000  0.0000  0.0000  0.0000  0.0000 </r>
       </set>
       <set comment="band 3">
        <r>  0.0000  0.0000  0.0368  0.0000  0.0000  0.0000  0.0000  0.0000  0.0000 </r>
        <r>  0.0000  0.7097  0.0000  0.2432  0.0001  0.0000  0.0000  0.0000  0.0000 </r>
       </set>
       <set comment="band 4">
        <r>  0.0000  0.7097  0.0000  0.2432  0.0001  0.0000  0.0000  0.0000  0.0000 </r>
        <r>  0.0000  0.0000  0.0368  0.0000  0.0000  0.0000  0.0000  0.0000  0.0000 </r>
       </set>
       <set comment="band 5">
        <r>  0.0000  0.0441  0.0000  0.0434  0.0000  0.0000  0.0000  0.0000  0.0000 </r>
        <r>  0.0000  0.0000  0.9055  0.0000  0.0000  0.0000  0.0000  0.0000  0.0000 </r>
       </set>
       <set comment="band 6">
        <r>  0.0000  0.0000  0.9055  0.0000  0.0000  0.0000  0.0000  0.0000  0.0000 </r>
        <r>  0.0000  0.0441  0.0000  0.0434  0.0000  0.0000  0.0000  0.0000  0.0000 </r>
       </set>
       <set comment="band 7">
        <r>  0.0595  0.0055  0.0000  0.0029  0.1305  0.0000  0.0512  0.0000  0.0449 </r>
        <r>  0.0000  0.0000  0.0009  0.0000  0.0000  0.0940  0.0000  0.2729  0.0000 </r>
       </set>
       <set comment="band 8">
        <r>  0.0000  0.0000  0.0009  0.0000  0.0000  0.0940  0.0000  0.2729  0.0000 </r>
        <r>  0.0595  0.0055  0.0000  0.0029  0.1305  0.0000  0.0512  0.0000  0.0449 </r>
       </set>
       <set comment="band 9">
        <r>  0.0001  0.0090  0.0000  0.0033  0.3033  0.0000  0.1835  0.0000  0.1023 </r>
        <r>  0.0000  0.0000  0.0009  0.0000  0.0000  0.0704  0.0000  0.0782  0.0000 </r>
       </set>
       <set comment="band 10">
        <r>  0.0000  0.0000  0.0009  0.0000  0.0000  0.0704  0.0000  0.0782  0.0000 </r>
        <r>  0.0001  0.0090  0.0000  0.0033  0.3033  0.0000  0.1835  0.0000  0.1023 </r>
       </set>
       <set comment="band 11">
        <r>  0.0115  0.0065  0.0000  0.0194  0.0598  0.0000  0.0183  0.0000  0.0908 </r>
        <r>  0.0000  0.0000  0.0055  0.0000  0.0000  0.3330  0.0000  0.1527  0.0000 </r>
       </set>
       <set comment="band 12">
        <r>  0.0000  0.0000  0.0055  0.0000  0.0000  0.3330  0.0000  0.1527  0.0000 </r>
        <r>  0.0115  0.0065  0.0000  0.0194  0.0598  0.0000  0.0183  0.0000  0.0908 </r>
       </set>
       <set comment="band 13">
        <r>  0.0004  0.0070  0.0000  0.0203  0.1400  0.0000  0.0073  0.0000  0.3872 </r>
        <r>  0.0000  0.0000  0.0027  0.0000  0.0000  0.1518  0.0000  0.0758  0.0000 </r>
       </set>
       <set comment="band 14">
        <r>  0.0000  0.0000  0.0027  0.0000  0.0000  0.1518  0.0000  0.0758  0.0000 </r>
        <r>  0.0004  0.0070  0.0000  0.0203  0.1400  0.0000  0.0073  0.0000  0.3872 </r>
       </set>
       <set comment="band 15">
        <r>  0.0000  0.0007  0.0000  0.0003  0.0321  0.0000  0.5983  0.0000  0.0258 </r>
        <r>  0.0000  0.0000  0.0009  0.0000  0.0000  0.1207  0.0000  0.1559  0.0000 </r>
       </set>
       <set comment="band 16">
        <r>  0.0000  0.0000  0.0009  0.0000  0.0000  0.1207  0.0000  0.1559  0.0000 </r>
        <r>  0.0000  0.0007  0.0000  0.0003  0.0321  0.0000  0.5983  0.0000  0.0258 </r>
       </set>
       <set comment="band 17">
        <r>  0.0000  0.0000  0.0384  0.0000  0.0000  0.0234  0.0000  0.0127  0.0000 </r>
        <r>  0.0287  0.0268  0.0000  0.0765  0.0967  0.0000  0.0154  0.0000  0.2187 </r>
       </set>
       <set comment="band 18">
        <r>  0.0287  0.0268  0.0000  0.0765  0.0967  0.0000  0.0154  0.0000  0.2187 </r>
        <r>  0.0000  0.0000  0.0384  0.0000  0.0000  0.0234  0.0000  0.0127  0.0000 </r>
       </set>
       <set comment="band 19">
        <r>  0.4096  0.0056  0.0000  0.0151  0.0708  0.0000  0.0206  0.0000  0.0403 </r>
        <r>  0.0000  0.0000  0.0003  0.0000  0.0000  0.0475  0.0000  0.1042  0.0000 </r>
       </set>
       <set comment="band 20">
        <r>  0.0000  0.0000  0.0003  0.0000  0.0000  0.0475  0.0000  0.1042  0.0000 </r>
        <r>  0.4096  0.0056  0.0000  0.0151  0.0708  0.0000  0.0206  0.0000  0.0403 </r>
       </set>
       <set comment="band 21">
        <r>  0.0371  0.1057  0.0000  0.0408  0.0999  0.0000  0.0011  0.0000  0.0366 </r>
        <r>  0.0000  0.0000  0.0347  0.0000  0.0000  0.0548  0.0000  0.0222  0.0000 </r>
       </set>
       <set comment="band 22">
        <r>  0.0000  0.0000  0.0347  0.0000  0.0000  0.0548  0.0000  0.0222  0.0000 </r>
        <r>  0.0371  0.1057  0.0000  0.0408  0.0999  0.0000  0.0011  0.0000  0.0366 </r>
       </set>
       <set comment="band 23">
        <r>  0.0000  0.0000  0.0939  0.0000  0.0000  0.0263  0.0000  0.0310  0.0000 </r>
        <r>  0.0068  0.0179  0.0000  0.0438  0.0177  0.0000  0.0068  0.0000  0.0175 </r>
       </set>
       <set comment="band 24">
        <r>  0.0068  0.0179  0.0000  0.0438  0.0177  0.0000  0.0068  0.0000  0.0175 </r>
        <r>  0.0000  0.0000  0.0939  0.0000  0.0000  0.0263  0.0000  0.0310  0.0000 </r>
       </set>
      </set>
      <set comment="kpoint 70">
       <set comment="band 1">
        <r>  0.0000  0.0000  0.0580  0.0000  0.0000  0.0000  0.0000  0.0000  0.0000 </r>
        <r>  0.0000  0.6831  0.0000  0.2433  0.0001  0.0000  0.0000  0.0000  0.0000 </r>
       </set>
       <set comment="band 2">
        <r>  0.0000  0.6831  0.0000  0.2433  0.0001  0.0000  0.0000  0.0000  0.0000 </r>
        <r>  0.0000  0.0000  0.0580  0.0000  0.0000  0.0000  0.0000  0.0000  0.0000 </r>
       </set>
       <set comment="band 3">
        <r>  0.0000  0.0000  0.0287  0.0000  0.0000  0.0000  0.0000  0.0000  0.0000 </r>
        <r>  0.0000  0.2593  0.0000  0.6998  0.0000  0.0000  0.0000  0.0000  0.0001 </r>
       </set>
       <set comment="band 4">
        <r>  0.0000  0.2593  0.0000  0.6998  0.0000  0.0000  0.0000  0.0000  0.0001 </r>
        <r>  0.0000  0.0000  0.0287  0.0000  0.0000  0.0000  0.0000  0.0000  0.0000 </r>
       </set>
       <set comment="band 5">
        <r>  0.0000  0.0439  0.0000  0.0446  0.0000  0.0000  0.0000  0.0000  0.0000 </r>
        <r>  0.0000  0.0000  0.9046  0.0000  0.0000  0.0000  0.0000  0.0000  0.0000 </r>
       </set>
       <set comment="band 6">
        <r>  0.0000  0.0000  0.9046  0.0000  0.0000  0.0000  0.0000  0.0000  0.0000 </r>
        <r>  0.0000  0.0439  0.0000  0.0446  0.0000  0.0000  0.0000  0.0000  0.0000 </r>
       </set>
       <set comment="band 7">
        <r>  0.0484  0.0024  0.0000  0.0025  0.0156  0.0000  0.1480  0.0000  0.0213 </r>
        <r>  0.0000  0.0000  0.0003  0.0000  0.0000  0.3193  0.0000  0.1377  0.0000 </r>
       </set>
       <set comment="band 8">
        <r>  0.0000  0.0000  0.0003  0.0000  0.0000  0.3193  0.0000  0.1377  0.0000 </r>
        <r>  0.0484  0.0024  0.0000  0.0025  0.0156  0.0000  0.1480  0.0000  0.0213 </r>
       </set>
       <set comment="band 9">
        <r>  0.0050  0.0083  0.0000  0.0170  0.0892  0.0000  0.0494  0.0000  0.2393 </r>
        <r>  0.0000  0.0000  0.0008  0.0000  0.0000  0.0755  0.0000  0.2014  0.0000 </r>
       </set>
       <set comment="band 10">
        <r>  0.0000  0.0000  0.0008  0.0000  0.0000  0.0755  0.0000  0.2014  0.0000 </r>
        <r>  0.0050  0.0083  0.0000  0.0170  0.0892  0.0000  0.0494  0.0000  0.2393 </r>
       </set>
       <set comment="band 11">
        <r>  0.0023  0.0240  0.0000  0.0128  0.2592  0.0000  0.0282  0.0000  0.2400 </r>
        <r>  0.0000  0.0000  0.0069  0.0000  0.0000  0.0397  0.0000  0.0732  0.0000 </r>
       </set>
       <set comment="band 12">
        <r>  0.0000  0.0000  0.0069  0.0000  0.0000  0.0397  0.0000  0.0732  0.0000 </r>
        <r>  0.0023  0.0240  0.0000  0.0128  0.2592  0.0000  0.0282  0.0000  0.2400 </r>
       </set>
       <set comment="band 13">
        <r>  0.0058  0.0061  0.0000  0.0024  0.2657  0.0000  0.0136  0.0000  0.1672 </r>
        <r>  0.0000  0.0000  0.0003  0.0000  0.0000  0.1537  0.0000  0.2159  0.0000 </r>
       </set>
       <set comment="band 14">
        <r>  0.0000  0.0000  0.0003  0.0000  0.0000  0.1537  0.0000  0.2159  0.0000 </r>
        <r>  0.0058  0.0061  0.0000  0.0024  0.2657  0.0000  0.0136  0.0000  0.1672 </r>
       </set>
       <set comment="band 15">
        <r>  0.0009  0.0008  0.0000  0.0003  0.0217  0.0000  0.6336  0.0000  0.0084 </r>
        <r>  0.0000  0.0000  0.0005  0.0000  0.0000  0.1470  0.0000  0.1214  0.0000 </r>
       </set>
       <set comment="band 16">
        <r>  0.0000  0.0000  0.0005  0.0000  0.0000  0.1470  0.0000  0.1214  0.0000 </r>
        <r>  0.0009  0.0008  0.0000  0.0003  0.0217  0.0000  0.6336  0.0000  0.0084 </r>
       </set>
       <set comment="band 17">
        <r>  0.0000  0.0000  0.0367  0.0000  0.0000  0.0487  0.0000  0.0176  0.0000 </r>
        <r>  0.1367  0.0504  0.0000  0.0203  0.1991  0.0000  0.0071  0.0000  0.0814 </r>
       </set>
       <set comment="band 18">
        <r>  0.1367  0.0504  0.0000  0.0203  0.1991  0.0000  0.0071  0.0000  0.0814 </r>
        <r>  0.0000  0.0000  0.0367  0.0000  0.0000  0.0487  0.0000  0.0176  0.0000 </r>
       </set>
       <set comment="band 19">
        <r>  0.3540  0.0329  0.0000  0.0146  0.0204  0.0000  0.0141  0.0000  0.0158 </r>
        <r>  0.0000  0.0000  0.0172  0.0000  0.0000  0.0519  0.0000  0.0735  0.0000 </r>
       </set>
       <set comment="band 20">
        <r>  0.0000  0.0000  0.0172  0.0000  0.0000  0.0519  0.0000  0.0735  0.0000 </r>
        <r>  0.3540  0.0329  0.0000  0.0146  0.0204  0.0000  0.0141  0.0000  0.0158 </r>
       </set>
       <set comment="band 21">
        <r>  0.0005  0.0499  0.0000  0.0961  0.0738  0.0000  0.0014  0.0000  0.1679 </r>
        <r>  0.0000  0.0000  0.0197  0.0000  0.0000  0.0451  0.0000  0.0499  0.0000 </r>
       </set>
       <set comment="band 22">
        <r>  0.0000  0.0000  0.0197  0.0000  0.0000  0.0451  0.0000  0.0499  0.0000 </r>
        <r>  0.0005  0.0499  0.0000  0.0961  0.0738  0.0000  0.0014  0.0000  0.1679 </r>
       </set>
       <set comment="band 23">
        <r>  0.0000  0.0000  0.1205  0.0000  0.0000  0.0258  0.0000  0.0203  0.0000 </r>
        <r>  0.0019  0.0516  0.0000  0.0241  0.0252  0.0000  0.0033  0.0000  0.0198 </r>
       </set>
       <set comment="band 24">
        <r>  0.0019  0.0516  0.0000  0.0241  0.0252  0.0000  0.0033  0.0000  0.0198 </r>
        <r>  0.0000  0.0000  0.1205  0.0000  0.0000  0.0258  0.0000  0.0203  0.0000 </r>
       </set>
      </set>
     </set>
    </set>
   </array>
  </projected>
 </calculation>
 <structure name="finalpos" >
  <crystal>
   <varray name="basis" >
    <v>       2.69791268       0.00000000       0.00000000 </v>
    <v>      -1.34895634       2.33646092       0.00000000 </v>
    <v>       0.00000000       0.00000000       4.67407084 </v>
   </varray>
   <i name="volume">     29.46332122 </i>
   <varray name="rec_basis" >
    <v>       0.37065692       0.21399887       0.00000000 </v>
    <v>       0.00000000       0.42799774       0.00000000 </v>
    <v>       0.00000000       0.00000000       0.21394627 </v>
   </varray>
  </crystal>
  <varray name="positions" >
   <v>       0.00000000       0.00000000       0.00000000 </v>
   <v>       0.33333333       0.66666667       0.50000000 </v>
  </varray>
 </structure>
</modeling>
