Pt-hcc                                  
           1
     2.697913    0.000000    0.000000
    -1.348956    2.336461    0.000000
     0.000000    0.000000    4.674071
   Pt
     2
Direct configuration=     1
   0.00000000  0.00000000  0.00000000
   0.33333333  0.66666667  0.50000000
