   1   1   1   0
  0.1081089E+02  0.2481945E-09  0.2481945E-09  0.2481945E-09  0.5000000E-15
  1.000000000000000E-004
  CAR 
 Co-fcc                                  
     53.55032085     -0.93466006  301     10.39956170      1.00000000
     -0.935  0.0000E+00  0.0000E+00  0.0000E+00  0.0000E+00
     -0.753  0.0000E+00  0.0000E+00  0.0000E+00  0.0000E+00
     -0.571  0.0000E+00  0.0000E+00  0.0000E+00  0.0000E+00
     -0.390  0.0000E+00  0.0000E+00  0.0000E+00  0.0000E+00
     -0.208  0.0000E+00  0.0000E+00  0.0000E+00  0.0000E+00
     -0.027  0.0000E+00  0.0000E+00  0.0000E+00  0.0000E+00
      0.155  0.0000E+00  0.0000E+00  0.0000E+00  0.0000E+00
      0.337  0.0000E+00  0.0000E+00  0.0000E+00  0.0000E+00
      0.518  0.0000E+00  0.0000E+00  0.0000E+00  0.0000E+00
      0.700  0.0000E+00  0.0000E+00  0.0000E+00  0.0000E+00
      0.882  0.0000E+00  0.0000E+00  0.0000E+00  0.0000E+00
      1.063  0.0000E+00  0.0000E+00  0.0000E+00  0.0000E+00
      1.245  0.0000E+00  0.0000E+00  0.0000E+00  0.0000E+00
      1.426  0.1161E-06  0.1138E-06  0.2108E-07  0.2067E-07
      1.608  0.2083E-03  0.2082E-03  0.3786E-04  0.3784E-04
      1.790  0.6644E-05  0.6728E-05  0.3906E-04  0.3906E-04
      1.971  0.4670E-03  0.4504E-03  0.1239E-03  0.1209E-03
      2.153  0.1783E-03  0.1948E-03  0.1563E-03  0.1563E-03
      2.334  0.2474E-03  0.1977E-03  0.2012E-03  0.1922E-03
      2.516  0.3978E-03  0.4475E-03  0.2734E-03  0.2734E-03
      2.698  0.1825E-03  0.9461E-04  0.3066E-03  0.2906E-03
      2.879  0.6778E-03  0.7657E-03  0.4297E-03  0.4297E-03
      3.061  0.2215E-03  0.6447E-04  0.4699E-03  0.4414E-03
      3.243  0.1069E-02  0.1226E-02  0.6641E-03  0.6640E-03
      3.424  0.3207E-03  0.5835E-04  0.7223E-03  0.6746E-03
      3.606  0.3246E-03  0.5872E-03  0.7813E-03  0.7812E-03
      3.787  0.8489E-03  0.1269E-03  0.9354E-03  0.8043E-03
      3.969  0.4722E-03  0.1164E-02  0.1021E-02  0.1016E-02
      4.151  0.1859E-02  0.7740E-03  0.1359E-02  0.1156E-02
      4.332  0.2965E-03  0.1162E-02  0.1413E-02  0.1367E-02
      4.514  0.5999E-03  0.5622E-03  0.1522E-02  0.1469E-02
      4.695  0.1039E-02  0.2071E-03  0.1710E-02  0.1507E-02
      4.877  0.2210E-02  0.1342E-02  0.2112E-02  0.1751E-02
      5.059  0.1576E-02  0.1667E-02  0.2398E-02  0.2053E-02
      5.240  0.2995E-02  0.3202E-03  0.2942E-02  0.2112E-02
      5.422  0.4600E-02  0.1794E-02  0.3777E-02  0.2437E-02
      5.604  0.7528E-02  0.7616E-03  0.5145E-02  0.2576E-02
      5.785  0.5076E-02  0.1386E-02  0.6066E-02  0.2827E-02
      5.967  0.9168E-02  0.3140E-02  0.7731E-02  0.3398E-02
      6.148  0.8866E-02  0.1614E-02  0.9342E-02  0.3691E-02
      6.330  0.9330E-02  0.4106E-02  0.1104E-01  0.4437E-02
      6.512  0.8020E-02  0.4132E-02  0.1249E-01  0.5187E-02
      6.693  0.8390E-02  0.3997E-02  0.1402E-01  0.5913E-02
      6.875  0.8850E-02  0.5097E-02  0.1562E-01  0.6839E-02
      7.056  0.7175E-02  0.4456E-02  0.1693E-01  0.7648E-02
      7.238  0.9322E-02  0.7933E-02  0.1862E-01  0.9089E-02
      7.420  0.1202E-01  0.5302E-02  0.2080E-01  0.1005E-01
      7.601  0.1180E-01  0.1018E-01  0.2295E-01  0.1190E-01
      7.783  0.1374E-01  0.5414E-02  0.2544E-01  0.1288E-01
      7.965  0.1751E-01  0.8068E-02  0.2862E-01  0.1435E-01
      8.146  0.1372E-01  0.7101E-02  0.3111E-01  0.1564E-01
      8.328  0.9094E-02  0.5686E-02  0.3276E-01  0.1667E-01
      8.509  0.9890E-02  0.9871E-02  0.3456E-01  0.1846E-01
      8.691  0.1341E-01  0.1007E-01  0.3700E-01  0.2029E-01
      8.873  0.1270E-01  0.8167E-02  0.3930E-01  0.2178E-01
      9.054  0.1186E-01  0.1121E-01  0.4146E-01  0.2381E-01
      9.236  0.9407E-02  0.8972E-02  0.4316E-01  0.2544E-01
      9.417  0.1299E-01  0.1244E-01  0.4552E-01  0.2770E-01
      9.599  0.1197E-01  0.1237E-01  0.4770E-01  0.2995E-01
      9.781  0.1873E-01  0.1000E-01  0.5110E-01  0.3176E-01
      9.962  0.8489E-02  0.7128E-02  0.5264E-01  0.3306E-01
     10.144  0.1141E-02  0.7864E-02  0.5285E-01  0.3449E-01
     10.326  0.4076E-04  0.8797E-02  0.5286E-01  0.3608E-01
     10.507  0.8494E-03  0.1136E-01  0.5301E-01  0.3815E-01
     10.689  0.3397E-02  0.8379E-02  0.5363E-01  0.3967E-01
     10.870  0.1807E-02  0.1335E-01  0.5396E-01  0.4209E-01
     11.052  0.3702E-03  0.6198E-02  0.5402E-01  0.4322E-01
     11.234  0.1382E-02  0.1307E-01  0.5427E-01  0.4559E-01
     11.415  0.1282E-02  0.1167E-01  0.5451E-01  0.4771E-01
     11.597  0.2489E-02  0.2085E-01  0.5496E-01  0.5150E-01
     11.779  0.1003E-03  0.7420E-02  0.5498E-01  0.5285E-01
     11.960  0.1384E-02  0.3594E-03  0.5523E-01  0.5291E-01
     12.142  0.1749E-02  0.3750E-02  0.5555E-01  0.5359E-01
     12.323  0.2809E-04  0.3050E-02  0.5555E-01  0.5415E-01
     12.505  0.1957E-02  0.1775E-02  0.5591E-01  0.5447E-01
     12.687  0.9666E-03  0.1746E-03  0.5608E-01  0.5450E-01
     12.868  0.1570E-02  0.1385E-02  0.5637E-01  0.5475E-01
     13.050  0.3441E-02  0.2197E-02  0.5699E-01  0.5515E-01
     13.231  0.4255E-03  0.2176E-02  0.5707E-01  0.5555E-01
     13.413  0.5652E-10  0.2365E-02  0.5707E-01  0.5598E-01
     13.595  0.4360E-03  0.6955E-03  0.5715E-01  0.5610E-01
     13.776  0.8545E-03  0.1458E-02  0.5730E-01  0.5637E-01
     13.958  0.6685E-03  0.1551E-02  0.5743E-01  0.5665E-01
     14.140  0.3202E-02  0.2306E-02  0.5801E-01  0.5707E-01
     14.321  0.8339E-03  0.6770E-05  0.5816E-01  0.5707E-01
     14.503  0.1102E-02  0.1181E-02  0.5836E-01  0.5728E-01
     14.684  0.1013E-05  0.1402E-02  0.5836E-01  0.5754E-01
     14.866  0.7270E-03  0.2295E-02  0.5849E-01  0.5796E-01
     15.048  0.2499E-02  0.2841E-03  0.5895E-01  0.5801E-01
     15.229  0.6163E-06  0.1719E-02  0.5895E-01  0.5832E-01
     15.411  0.1933E-03  0.6465E-03  0.5898E-01  0.5844E-01
     15.592  0.1097E-02  0.2240E-03  0.5918E-01  0.5848E-01
     15.774  0.1283E-05  0.2500E-02  0.5918E-01  0.5893E-01
     15.956  0.6537E-03  0.1054E-03  0.5930E-01  0.5895E-01
     16.137  0.1279E-02  0.1257E-02  0.5953E-01  0.5918E-01
     16.319  0.1025E-02  0.9344E-06  0.5972E-01  0.5918E-01
     16.501  0.2677E-03  0.2505E-04  0.5977E-01  0.5918E-01
     16.682  0.4047E-04  0.1743E-02  0.5977E-01  0.5950E-01
     16.864  0.1198E-02  0.1709E-03  0.5999E-01  0.5953E-01
     17.045  0.2167E-02  0.1274E-02  0.6038E-01  0.5976E-01
     17.227  0.1678E-02  0.1360E-04  0.6069E-01  0.5977E-01
     17.409  0.7847E-03  0.1205E-10  0.6083E-01  0.5977E-01
     17.590  0.2101E-02  0.4050E-03  0.6121E-01  0.5984E-01
     17.772  0.1425E-02  0.2299E-02  0.6147E-01  0.6026E-01
     17.953  0.1202E-02  0.1619E-02  0.6169E-01  0.6055E-01
     18.135  0.1235E-02  0.2122E-02  0.6191E-01  0.6094E-01
     18.317  0.2546E-02  0.1320E-02  0.6238E-01  0.6118E-01
     18.498  0.3280E-04  0.2375E-02  0.6238E-01  0.6161E-01
     18.680  0.7479E-04  0.4840E-03  0.6240E-01  0.6170E-01
     18.862  0.2776E-02  0.2509E-02  0.6290E-01  0.6215E-01
     19.043  0.1689E-02  0.1278E-02  0.6321E-01  0.6238E-01
     19.225  0.6216E-03  0.4533E-05  0.6332E-01  0.6238E-01
     19.406  0.2206E-02  0.2674E-02  0.6372E-01  0.6287E-01
     19.588  0.3755E-03  0.1344E-02  0.6379E-01  0.6311E-01
     19.770  0.1403E-03  0.7353E-03  0.6381E-01  0.6325E-01
     19.951  0.1282E-02  0.1612E-02  0.6405E-01  0.6354E-01
     20.133  0.1157E-02  0.1374E-02  0.6426E-01  0.6379E-01
     20.314  0.8207E-03  0.4646E-04  0.6441E-01  0.6380E-01
     20.496  0.2639E-02  0.1549E-02  0.6489E-01  0.6408E-01
     20.678  0.1704E-02  0.9718E-03  0.6520E-01  0.6426E-01
     20.859  0.1254E-02  0.9807E-03  0.6542E-01  0.6443E-01
     21.041  0.8557E-03  0.1619E-02  0.6558E-01  0.6473E-01
     21.223  0.3540E-02  0.1088E-02  0.6622E-01  0.6493E-01
     21.404  0.2687E-02  0.2641E-02  0.6671E-01  0.6540E-01
     21.586  0.1012E-02  0.1669E-02  0.6689E-01  0.6571E-01
     21.767  0.1287E-02  0.2225E-02  0.6713E-01  0.6611E-01
     21.949  0.1617E-02  0.2880E-02  0.6742E-01  0.6663E-01
     22.131  0.1226E-02  0.1604E-02  0.6764E-01  0.6693E-01
     22.312  0.2824E-03  0.1287E-02  0.6769E-01  0.6716E-01
     22.494  0.1516E-02  0.1591E-02  0.6797E-01  0.6745E-01
     22.675  0.3167E-02  0.1143E-02  0.6855E-01  0.6766E-01
     22.857  0.3554E-02  0.2210E-03  0.6919E-01  0.6770E-01
     23.039  0.7031E-03  0.3484E-02  0.6932E-01  0.6833E-01
     23.220  0.7745E-03  0.2994E-02  0.6946E-01  0.6887E-01
     23.402  0.4807E-02  0.1914E-02  0.7033E-01  0.6922E-01
     23.584  0.1551E-02  0.1156E-02  0.7061E-01  0.6943E-01
     23.765  0.7023E-03  0.1509E-02  0.7074E-01  0.6970E-01
     23.947  0.2040E-02  0.4469E-02  0.7111E-01  0.7052E-01
     24.128  0.1191E-02  0.6381E-03  0.7133E-01  0.7063E-01
     24.310  0.7210E-03  0.2577E-02  0.7146E-01  0.7110E-01
     24.492  0.3159E-02  0.1254E-02  0.7203E-01  0.7133E-01
     24.673  0.3860E-02  0.3413E-03  0.7273E-01  0.7139E-01
     24.855  0.1313E-02  0.2694E-02  0.7297E-01  0.7188E-01
     25.037  0.1398E-02  0.4681E-02  0.7323E-01  0.7273E-01
     25.218  0.2635E-02  0.7694E-03  0.7370E-01  0.7287E-01
     25.400  0.1751E-02  0.3693E-02  0.7402E-01  0.7354E-01
     25.581  0.1640E-02  0.7754E-03  0.7432E-01  0.7368E-01
     25.763  0.2227E-02  0.2109E-02  0.7473E-01  0.7406E-01
     25.945  0.1157E-02  0.2721E-02  0.7494E-01  0.7456E-01
     26.126  0.3054E-02  0.9291E-03  0.7549E-01  0.7473E-01
     26.308  0.3056E-02  0.1353E-02  0.7605E-01  0.7497E-01
     26.489  0.1775E-02  0.3934E-02  0.7637E-01  0.7569E-01
     26.671  0.1648E-02  0.2658E-02  0.7667E-01  0.7617E-01
     26.853  0.2867E-02  0.1104E-02  0.7719E-01  0.7637E-01
     27.034  0.3065E-02  0.2047E-02  0.7774E-01  0.7674E-01
     27.216  0.1447E-02  0.3056E-02  0.7801E-01  0.7730E-01
     27.398  0.8984E-03  0.2653E-02  0.7817E-01  0.7778E-01
     27.579  0.3825E-02  0.1270E-02  0.7886E-01  0.7801E-01
     27.761  0.8388E-03  0.3340E-02  0.7902E-01  0.7862E-01
     27.942  0.2185E-02  0.1801E-02  0.7941E-01  0.7894E-01
     28.124  0.8509E-04  0.1726E-02  0.7943E-01  0.7926E-01
     28.306  0.3979E-02  0.8671E-03  0.8015E-01  0.7941E-01
     28.487  0.3521E-03  0.1572E-02  0.8022E-01  0.7970E-01
     28.669  0.1615E-02  0.2514E-02  0.8051E-01  0.8016E-01
     28.850  0.2377E-02  0.1750E-02  0.8094E-01  0.8047E-01
     29.032  0.1263E-02  0.1416E-02  0.8117E-01  0.8073E-01
     29.214  0.3177E-02  0.1917E-02  0.8175E-01  0.8108E-01
     29.395  0.1760E-02  0.2503E-02  0.8207E-01  0.8153E-01
     29.577  0.1653E-02  0.2660E-02  0.8237E-01  0.8202E-01
     29.759  0.7313E-03  0.1491E-02  0.8250E-01  0.8229E-01
     29.940  0.1209E-02  0.1165E-02  0.8272E-01  0.8250E-01
     30.122  0.1612E-02  0.1945E-03  0.8301E-01  0.8253E-01
     30.303  0.2277E-02  0.2354E-02  0.8343E-01  0.8296E-01
     30.485  0.2226E-02  0.3105E-02  0.8383E-01  0.8353E-01
     30.667  0.2054E-02  0.1447E-02  0.8420E-01  0.8379E-01
     30.848  0.1356E-02  0.2102E-02  0.8445E-01  0.8417E-01
     31.030  0.8190E-03  0.5903E-03  0.8460E-01  0.8428E-01
     31.211  0.2518E-02  0.1180E-02  0.8506E-01  0.8449E-01
     31.393  0.7471E-03  0.3259E-02  0.8519E-01  0.8508E-01
     31.575  0.2600E-02  0.1261E-02  0.8566E-01  0.8531E-01
     31.756  0.1788E-02  0.2047E-02  0.8599E-01  0.8569E-01
     31.938  0.1904E-02  0.2684E-02  0.8633E-01  0.8617E-01
     32.120  0.3485E-02  0.1532E-02  0.8697E-01  0.8645E-01
     32.301  0.1522E-02  0.2451E-02  0.8724E-01  0.8690E-01
     32.483  0.3024E-02  0.1819E-02  0.8779E-01  0.8723E-01
     32.664  0.1998E-02  0.2018E-02  0.8816E-01  0.8759E-01
     32.846  0.1693E-02  0.2186E-02  0.8846E-01  0.8799E-01
     33.028  0.8136E-03  0.2307E-02  0.8861E-01  0.8841E-01
     33.209  0.2867E-02  0.2898E-02  0.8913E-01  0.8894E-01
     33.391  0.5841E-02  0.2376E-02  0.9019E-01  0.8937E-01
     33.572  0.1445E-02  0.4166E-02  0.9045E-01  0.9012E-01
     33.754  0.2327E-02  0.1566E-02  0.9088E-01  0.9041E-01
     33.936  0.1710E-02  0.2120E-02  0.9119E-01  0.9079E-01
     34.117  0.2376E-02  0.2393E-02  0.9162E-01  0.9123E-01
     34.299  0.3492E-02  0.2785E-02  0.9225E-01  0.9173E-01
     34.481  0.1123E-02  0.2346E-02  0.9246E-01  0.9216E-01
     34.662  0.4282E-02  0.2924E-02  0.9324E-01  0.9269E-01
     34.844  0.9299E-03  0.3508E-02  0.9340E-01  0.9333E-01
     35.025  0.3316E-02  0.9129E-03  0.9401E-01  0.9349E-01
     35.207  0.1234E-02  0.2269E-02  0.9423E-01  0.9391E-01
     35.389  0.2546E-02  0.1295E-02  0.9469E-01  0.9414E-01
     35.570  0.3850E-02  0.2958E-02  0.9539E-01  0.9468E-01
     35.752  0.3540E-02  0.4090E-02  0.9604E-01  0.9542E-01
     35.934  0.1403E-02  0.2975E-02  0.9629E-01  0.9596E-01
     36.115  0.2432E-02  0.1388E-02  0.9673E-01  0.9621E-01
     36.297  0.2011E-02  0.2187E-02  0.9710E-01  0.9661E-01
     36.478  0.2281E-02  0.3413E-02  0.9751E-01  0.9723E-01
     36.660  0.4218E-02  0.2731E-02  0.9828E-01  0.9773E-01
     36.842  0.1478E-02  0.2767E-02  0.9855E-01  0.9823E-01
     37.023  0.6196E-03  0.1586E-02  0.9866E-01  0.9852E-01
     37.205  0.1211E-02  0.6367E-03  0.9888E-01  0.9863E-01
     37.386  0.1846E-02  0.2645E-03  0.9921E-01  0.9868E-01
     37.568  0.1360E-02  0.2824E-02  0.9946E-01  0.9919E-01
     37.750  0.3646E-02  0.2322E-02  0.1001E+00  0.9962E-01
     37.931  0.6158E-03  0.2119E-02  0.1002E+00  0.1000E+00
     38.113  0.9281E-06  0.4548E-03  0.1002E+00  0.1001E+00
     38.295  0.8703E-03  0.8358E-03  0.1004E+00  0.1002E+00
     38.476  0.1074E-02  0.4380E-04  0.1006E+00  0.1002E+00
     38.658  0.4526E-02  0.2945E-02  0.1014E+00  0.1008E+00
     38.839  0.1521E-02  0.2365E-02  0.1017E+00  0.1012E+00
     39.021  0.1005E-02  0.1509E-02  0.1019E+00  0.1015E+00
     39.203  0.6561E-03  0.1985E-02  0.1020E+00  0.1018E+00
     39.384  0.1257E-02  0.8740E-03  0.1022E+00  0.1020E+00
     39.566  0.2782E-02  0.4984E-03  0.1027E+00  0.1021E+00
     39.747  0.2091E-02  0.3109E-02  0.1031E+00  0.1027E+00
     39.929  0.1052E-02  0.1855E-02  0.1033E+00  0.1030E+00
     40.111  0.8161E-02  0.2641E-02  0.1048E+00  0.1035E+00
     40.292  0.3762E-02  0.2842E-02  0.1055E+00  0.1040E+00
     40.474  0.3711E-02  0.8138E-02  0.1061E+00  0.1055E+00
     40.656  0.1389E-02  0.4773E-02  0.1064E+00  0.1063E+00
     40.837  0.2445E-02  0.1127E-02  0.1068E+00  0.1065E+00
     41.019  0.2946E-02  0.1642E-02  0.1074E+00  0.1068E+00
     41.200  0.1541E-02  0.1161E-02  0.1076E+00  0.1070E+00
     41.382  0.1345E-02  0.2456E-02  0.1079E+00  0.1075E+00
     41.564  0.2542E-02  0.1763E-02  0.1083E+00  0.1078E+00
     41.745  0.3312E-02  0.2387E-02  0.1089E+00  0.1082E+00
     41.927  0.1899E-02  0.4734E-02  0.1093E+00  0.1091E+00
     42.108  0.2547E-02  0.2211E-02  0.1098E+00  0.1095E+00
     42.290  0.1272E-03  0.1419E-02  0.1098E+00  0.1098E+00
     42.472  0.3134E-02  0.1071E-04  0.1103E+00  0.1098E+00
     42.653  0.4950E-02  0.3396E-02  0.1112E+00  0.1104E+00
     42.835  0.1899E-02  0.2014E-02  0.1116E+00  0.1107E+00
     43.017  0.1120E-02  0.5272E-02  0.1118E+00  0.1117E+00
     43.198  0.2702E-05  0.4941E-03  0.1118E+00  0.1118E+00
     43.380  0.3371E-02  0.1156E-02  0.1124E+00  0.1120E+00
     43.561  0.7549E-03  0.1452E-02  0.1125E+00  0.1123E+00
     43.743  0.2395E-02  0.1456E-02  0.1130E+00  0.1125E+00
     43.925  0.3210E-02  0.3883E-02  0.1136E+00  0.1132E+00
     44.106  0.2961E-02  0.1799E-02  0.1141E+00  0.1136E+00
     44.288  0.2248E-03  0.8452E-03  0.1141E+00  0.1137E+00
     44.469  0.1331E-02  0.2801E-02  0.1144E+00  0.1142E+00
     44.651  0.1909E-02  0.9227E-03  0.1147E+00  0.1144E+00
     44.833  0.1261E-02  0.5242E-03  0.1150E+00  0.1145E+00
     45.014  0.2786E-04  0.1020E-02  0.1150E+00  0.1147E+00
     45.196  0.2119E-02  0.9963E-03  0.1154E+00  0.1149E+00
     45.378  0.2928E-02  0.2564E-02  0.1159E+00  0.1153E+00
     45.559  0.2277E-02  0.1866E-02  0.1163E+00  0.1157E+00
     45.741  0.1681E-02  0.1450E-02  0.1166E+00  0.1159E+00
     45.922  0.1228E-02  0.1783E-02  0.1168E+00  0.1163E+00
     46.104  0.6418E-04  0.1577E-02  0.1168E+00  0.1165E+00
     46.286  0.1309E-02  0.1750E-02  0.1171E+00  0.1169E+00
     46.467  0.2437E-02  0.1532E-02  0.1175E+00  0.1171E+00
     46.649  0.3236E-02  0.1481E-02  0.1181E+00  0.1174E+00
     46.831  0.4039E-03  0.1397E-02  0.1182E+00  0.1177E+00
     47.012  0.3276E-02  0.7712E-05  0.1188E+00  0.1177E+00
     47.194  0.3369E-03  0.1868E-02  0.1188E+00  0.1180E+00
     47.375  0.3894E-02  0.1350E-02  0.1195E+00  0.1182E+00
     47.557  0.2510E-02  0.8718E-03  0.1200E+00  0.1184E+00
     47.739  0.1877E-04  0.1069E-02  0.1200E+00  0.1186E+00
     47.920  0.0000E+00  0.3572E-08  0.1200E+00  0.1186E+00
     48.102  0.0000E+00  0.8367E-04  0.1200E+00  0.1186E+00
     48.283  0.0000E+00  0.1207E-02  0.1200E+00  0.1188E+00
     48.465  0.0000E+00  0.1890E-06  0.1200E+00  0.1188E+00
     48.647  0.0000E+00  0.0000E+00  0.1200E+00  0.1188E+00
     48.828  0.0000E+00  0.1124E-08  0.1200E+00  0.1188E+00
     49.010  0.0000E+00  0.4509E-03  0.1200E+00  0.1189E+00
     49.192  0.0000E+00  0.1103E-02  0.1200E+00  0.1191E+00
     49.373  0.0000E+00  0.1027E-02  0.1200E+00  0.1193E+00
     49.555  0.0000E+00  0.1027E-07  0.1200E+00  0.1193E+00
     49.736  0.0000E+00  0.0000E+00  0.1200E+00  0.1193E+00
     49.918  0.0000E+00  0.4871E-15  0.1200E+00  0.1193E+00
     50.100  0.0000E+00  0.1703E-04  0.1200E+00  0.1193E+00
     50.281  0.0000E+00  0.6278E-03  0.1200E+00  0.1194E+00
     50.463  0.0000E+00  0.1061E-02  0.1200E+00  0.1196E+00
     50.644  0.0000E+00  0.2304E-03  0.1200E+00  0.1196E+00
     50.826  0.0000E+00  0.4038E-03  0.1200E+00  0.1197E+00
     51.008  0.0000E+00  0.8248E-03  0.1200E+00  0.1199E+00
     51.189  0.0000E+00  0.7068E-03  0.1200E+00  0.1200E+00
     51.371  0.0000E+00  0.3483E-06  0.1200E+00  0.1200E+00
     51.553  0.0000E+00  0.0000E+00  0.1200E+00  0.1200E+00
     51.734  0.0000E+00  0.0000E+00  0.1200E+00  0.1200E+00
     51.916  0.0000E+00  0.0000E+00  0.1200E+00  0.1200E+00
     52.097  0.0000E+00  0.0000E+00  0.1200E+00  0.1200E+00
     52.279  0.0000E+00  0.0000E+00  0.1200E+00  0.1200E+00
     52.461  0.0000E+00  0.0000E+00  0.1200E+00  0.1200E+00
     52.642  0.0000E+00  0.0000E+00  0.1200E+00  0.1200E+00
     52.824  0.0000E+00  0.0000E+00  0.1200E+00  0.1200E+00
     53.005  0.0000E+00  0.0000E+00  0.1200E+00  0.1200E+00
     53.187  0.0000E+00  0.0000E+00  0.1200E+00  0.1200E+00
     53.369  0.0000E+00  0.0000E+00  0.1200E+00  0.1200E+00
     53.550  0.0000E+00  0.0000E+00  0.1200E+00  0.1200E+00
     53.55032085     -0.93466006  301     10.39956170      1.00000000
     -0.935  0.0000E+00  0.0000E+00  0.0000E+00  0.0000E+00  0.0000E+00  0.0000E+00  0.0000E+00  0.0000E+00  0.0000E+00  0.0000E+00  0.0000E+00  0.0000E+00  0.0000E+00  0.0000E+00  0.0000E+00  0.0000E+00  0.0000E+00  0.0000E+00
     -0.753  0.0000E+00  0.0000E+00  0.0000E+00  0.0000E+00  0.0000E+00  0.0000E+00  0.0000E+00  0.0000E+00  0.0000E+00  0.0000E+00  0.0000E+00  0.0000E+00  0.0000E+00  0.0000E+00  0.0000E+00  0.0000E+00  0.0000E+00  0.0000E+00
     -0.571  0.0000E+00  0.0000E+00  0.0000E+00  0.0000E+00  0.0000E+00  0.0000E+00  0.0000E+00  0.0000E+00  0.0000E+00  0.0000E+00  0.0000E+00  0.0000E+00  0.0000E+00  0.0000E+00  0.0000E+00  0.0000E+00  0.0000E+00  0.0000E+00
     -0.390  0.0000E+00  0.0000E+00  0.0000E+00  0.0000E+00  0.0000E+00  0.0000E+00  0.0000E+00  0.0000E+00  0.0000E+00  0.0000E+00  0.0000E+00  0.0000E+00  0.0000E+00  0.0000E+00  0.0000E+00  0.0000E+00  0.0000E+00  0.0000E+00
     -0.208  0.0000E+00  0.0000E+00  0.0000E+00  0.0000E+00  0.0000E+00  0.0000E+00  0.0000E+00  0.0000E+00  0.0000E+00  0.0000E+00  0.0000E+00  0.0000E+00  0.0000E+00  0.0000E+00  0.0000E+00  0.0000E+00  0.0000E+00  0.0000E+00
     -0.027  0.0000E+00  0.0000E+00  0.0000E+00  0.0000E+00  0.0000E+00  0.0000E+00  0.0000E+00  0.0000E+00  0.0000E+00  0.0000E+00  0.0000E+00  0.0000E+00  0.0000E+00  0.0000E+00  0.0000E+00  0.0000E+00  0.0000E+00  0.0000E+00
      0.155  0.0000E+00  0.0000E+00  0.0000E+00  0.0000E+00  0.0000E+00  0.0000E+00  0.0000E+00  0.0000E+00  0.0000E+00  0.0000E+00  0.0000E+00  0.0000E+00  0.0000E+00  0.0000E+00  0.0000E+00  0.0000E+00  0.0000E+00  0.0000E+00
      0.337  0.0000E+00  0.0000E+00  0.0000E+00  0.0000E+00  0.0000E+00  0.0000E+00  0.0000E+00  0.0000E+00  0.0000E+00  0.0000E+00  0.0000E+00  0.0000E+00  0.0000E+00  0.0000E+00  0.0000E+00  0.0000E+00  0.0000E+00  0.0000E+00
      0.518  0.0000E+00  0.0000E+00  0.0000E+00  0.0000E+00  0.0000E+00  0.0000E+00  0.0000E+00  0.0000E+00  0.0000E+00  0.0000E+00  0.0000E+00  0.0000E+00  0.0000E+00  0.0000E+00  0.0000E+00  0.0000E+00  0.0000E+00  0.0000E+00
      0.700  0.0000E+00  0.0000E+00  0.0000E+00  0.0000E+00  0.0000E+00  0.0000E+00  0.0000E+00  0.0000E+00  0.0000E+00  0.0000E+00  0.0000E+00  0.0000E+00  0.0000E+00  0.0000E+00  0.0000E+00  0.0000E+00  0.0000E+00  0.0000E+00
      0.882  0.0000E+00  0.0000E+00  0.0000E+00  0.0000E+00  0.0000E+00  0.0000E+00  0.0000E+00  0.0000E+00  0.0000E+00  0.0000E+00  0.0000E+00  0.0000E+00  0.0000E+00  0.0000E+00  0.0000E+00  0.0000E+00  0.0000E+00  0.0000E+00
      1.063  0.0000E+00  0.0000E+00  0.0000E+00  0.0000E+00  0.0000E+00  0.0000E+00  0.0000E+00  0.0000E+00  0.0000E+00  0.0000E+00  0.0000E+00  0.0000E+00  0.0000E+00  0.0000E+00  0.0000E+00  0.0000E+00  0.0000E+00  0.0000E+00
      1.245  0.0000E+00  0.0000E+00  0.0000E+00  0.0000E+00  0.0000E+00  0.0000E+00  0.0000E+00  0.0000E+00  0.0000E+00  0.0000E+00  0.0000E+00  0.0000E+00  0.0000E+00  0.0000E+00  0.0000E+00  0.0000E+00  0.0000E+00  0.0000E+00
      1.426  0.8336E-05  0.8170E-05  0.4128E-07  0.4067E-07  0.4128E-07  0.4067E-07  0.4128E-07  0.4067E-07  0.6476E-09  0.4744E-09  0.6476E-09  0.4744E-09  0.1563E-28  0.6786E-27  0.6476E-09  0.4744E-09  0.1563E-28  0.6786E-27
      1.608  0.1496E-01  0.1495E-01  0.7407E-04  0.7440E-04  0.7407E-04  0.7440E-04  0.7407E-04  0.7440E-04  0.1162E-05  0.8678E-06  0.1162E-05  0.8678E-06  0.2804E-25  0.1242E-23  0.1162E-05  0.8678E-06  0.2804E-25  0.1242E-23
      1.790  0.4771E-03  0.4829E-03  0.2364E-05  0.2405E-05  0.2364E-05  0.2405E-05  0.2364E-05  0.2405E-05  0.3712E-07  0.2807E-07  0.3712E-07  0.2807E-07  0.8828E-10  0.4590E-10  0.3712E-07  0.2807E-07  0.8828E-10  0.4590E-10
      1.971  0.3220E-01  0.3104E-01  0.5928E-03  0.5754E-03  0.5928E-03  0.5754E-03  0.5928E-03  0.5754E-03  0.1723E-04  0.1215E-04  0.1723E-04  0.1215E-04  0.2304E-04  0.1655E-04  0.1723E-04  0.1215E-04  0.2304E-04  0.1655E-04
      2.153  0.1229E-01  0.1343E-01  0.2263E-03  0.2489E-03  0.2263E-03  0.2489E-03  0.2263E-03  0.2489E-03  0.6577E-05  0.5256E-05  0.6577E-05  0.5256E-05  0.8794E-05  0.7159E-05  0.6577E-05  0.5256E-05  0.8794E-05  0.7159E-05
      2.334  0.1636E-01  0.1307E-01  0.5204E-03  0.4207E-03  0.5204E-03  0.4207E-03  0.5204E-03  0.4207E-03  0.5087E-04  0.2897E-04  0.5087E-04  0.2897E-04  0.1147E-04  0.6853E-05  0.5087E-04  0.2897E-04  0.1147E-04  0.6853E-05
      2.516  0.2630E-01  0.2959E-01  0.8366E-03  0.9524E-03  0.8366E-03  0.9524E-03  0.8366E-03  0.9524E-03  0.8178E-04  0.6558E-04  0.8178E-04  0.6558E-04  0.1843E-04  0.1551E-04  0.8178E-04  0.6558E-04  0.1843E-04  0.1551E-04
      2.698  0.1151E-01  0.5978E-02  0.5283E-03  0.2784E-03  0.5283E-03  0.2784E-03  0.5283E-03  0.2784E-03  0.4897E-04  0.1705E-04  0.4897E-04  0.1705E-04  0.6810E-04  0.2499E-04  0.4897E-04  0.1705E-04  0.6810E-04  0.2499E-04
      2.879  0.4272E-01  0.4837E-01  0.1970E-02  0.2258E-02  0.1970E-02  0.2258E-02  0.1970E-02  0.2258E-02  0.1522E-03  0.1209E-03  0.1522E-03  0.1209E-03  0.2845E-03  0.2212E-03  0.1522E-03  0.1209E-03  0.2845E-03  0.2212E-03
      3.061  0.1332E-01  0.3893E-02  0.8000E-03  0.2380E-03  0.8000E-03  0.2380E-03  0.8000E-03  0.2380E-03  0.1293E-03  0.2576E-04  0.1293E-03  0.2576E-04  0.9041E-04  0.1838E-04  0.1293E-03  0.2576E-04  0.9041E-04  0.1838E-04
      3.243  0.6427E-01  0.7403E-01  0.3861E-02  0.4525E-02  0.3861E-02  0.4525E-02  0.3861E-02  0.4525E-02  0.6240E-03  0.4901E-03  0.6240E-03  0.4901E-03  0.4363E-03  0.3495E-03  0.6240E-03  0.4901E-03  0.4363E-03  0.3495E-03
      3.424  0.1826E-01  0.3364E-02  0.1281E-02  0.2452E-03  0.1281E-02  0.2452E-03  0.1281E-02  0.2452E-03  0.5092E-03  0.5890E-04  0.5092E-03  0.5890E-04  0.7742E-04  0.9797E-05  0.5092E-03  0.5890E-04  0.7742E-04  0.9797E-05
      3.606  0.1848E-01  0.3384E-01  0.1297E-02  0.2469E-02  0.1297E-02  0.2469E-02  0.1297E-02  0.2469E-02  0.5155E-03  0.5946E-03  0.5155E-03  0.5946E-03  0.7838E-04  0.9822E-04  0.5155E-03  0.5946E-03  0.7838E-04  0.9822E-04
      3.787  0.4527E-01  0.6893E-02  0.4078E-02  0.6361E-03  0.4078E-02  0.6361E-03  0.4078E-02  0.6361E-03  0.7290E-03  0.6897E-04  0.7290E-03  0.6897E-04  0.1639E-02  0.1614E-03  0.7290E-03  0.6897E-04  0.1639E-02  0.1614E-03
      3.969  0.2519E-01  0.6331E-01  0.2255E-02  0.5829E-02  0.2255E-02  0.5829E-02  0.2255E-02  0.5829E-02  0.6219E-03  0.7428E-03  0.6219E-03  0.7428E-03  0.6401E-03  0.1296E-02  0.6219E-03  0.7428E-03  0.6401E-03  0.1296E-02
      4.151  0.9292E-01  0.4000E-01  0.9341E-02  0.4101E-02  0.9341E-02  0.4101E-02  0.9341E-02  0.4101E-02  0.3917E-02  0.1278E-02  0.3917E-02  0.1278E-02  0.3361E-02  0.6415E-03  0.3917E-02  0.1278E-02  0.3361E-02  0.6415E-03
      4.332  0.1392E-01  0.5983E-01  0.1533E-02  0.6366E-02  0.1533E-02  0.6366E-02  0.1533E-02  0.6366E-02  0.8981E-03  0.1285E-02  0.8981E-03  0.1285E-02  0.6229E-03  0.1558E-02  0.8981E-03  0.1285E-02  0.6229E-03  0.1558E-02
      4.514  0.2691E-01  0.2736E-01  0.2813E-02  0.3232E-02  0.2813E-02  0.3232E-02  0.2813E-02  0.3232E-02  0.3073E-02  0.1132E-02  0.3073E-02  0.1132E-02  0.7936E-03  0.7253E-03  0.3073E-02  0.1132E-02  0.7936E-03  0.7253E-03
      4.695  0.4520E-01  0.9744E-02  0.6088E-02  0.1096E-02  0.6088E-02  0.1096E-02  0.6088E-02  0.1096E-02  0.3813E-02  0.8032E-03  0.3813E-02  0.8032E-03  0.2110E-02  0.1079E-03  0.3813E-02  0.8032E-03  0.2110E-02  0.1079E-03
      4.877  0.8508E-01  0.6163E-01  0.1092E-01  0.8564E-02  0.1092E-01  0.8564E-02  0.1092E-01  0.8564E-02  0.1173E-01  0.3336E-02  0.1173E-01  0.3336E-02  0.9736E-02  0.1506E-02  0.1173E-01  0.3336E-02  0.9736E-02  0.1506E-02
      5.059  0.5087E-01  0.7030E-01  0.7010E-02  0.1000E-01  0.7010E-02  0.1000E-01  0.7010E-02  0.1000E-01  0.1066E-01  0.5295E-02  0.1066E-01  0.5295E-02  0.1106E-01  0.5045E-02  0.1066E-01  0.5295E-02  0.1106E-01  0.5045E-02
      5.240  0.6211E-01  0.1347E-01  0.7452E-02  0.1919E-02  0.7452E-02  0.1919E-02  0.7452E-02  0.1919E-02  0.2546E-01  0.1073E-02  0.2546E-01  0.1073E-02  0.4545E-01  0.9197E-03  0.2546E-01  0.1073E-02  0.4545E-01  0.9197E-03
      5.422  0.8118E-01  0.6778E-01  0.9993E-02  0.1093E-01  0.9993E-02  0.1093E-01  0.9993E-02  0.1093E-01  0.4882E-01  0.6439E-02  0.4882E-01  0.6439E-02  0.6767E-01  0.8689E-02  0.4882E-01  0.6439E-02  0.6767E-01  0.8689E-02
      5.604  0.1226E+00  0.2748E-01  0.2003E-01  0.4782E-02  0.2003E-01  0.4782E-02  0.2003E-01  0.4782E-02  0.6204E-01  0.3431E-02  0.6204E-01  0.3431E-02  0.1355E+00  0.3258E-02  0.6204E-01  0.3431E-02  0.1355E+00  0.3258E-02
      5.785  0.5171E-01  0.4874E-01  0.8301E-02  0.8492E-02  0.8301E-02  0.8492E-02  0.8301E-02  0.8492E-02  0.6529E-01  0.1025E-01  0.6529E-01  0.1025E-01  0.8720E-01  0.1679E-02  0.6529E-01  0.1025E-01  0.8720E-01  0.1679E-02
      5.967  0.6444E-01  0.9362E-01  0.1602E-01  0.1742E-01  0.1602E-01  0.1742E-01  0.1602E-01  0.1742E-01  0.1225E+00  0.2035E-01  0.1225E+00  0.2035E-01  0.1667E+00  0.2067E-01  0.1225E+00  0.2035E-01  0.1667E+00  0.2067E-01
      6.148  0.4991E-01  0.4353E-01  0.1510E-01  0.6782E-02  0.1510E-01  0.6782E-02  0.1510E-01  0.6782E-02  0.1667E+00  0.1844E-01  0.1667E+00  0.1844E-01  0.1018E+00  0.6389E-02  0.1667E+00  0.1844E-01  0.1018E+00  0.6389E-02
      6.330  0.2121E-01  0.7478E-01  0.1512E-01  0.1020E-01  0.1512E-01  0.1020E-01  0.1512E-01  0.1020E-01  0.1655E+00  0.3931E-01  0.1655E+00  0.3931E-01  0.1425E+00  0.6056E-01  0.1655E+00  0.3931E-01  0.1425E+00  0.6056E-01
      6.512  0.1899E-01  0.7906E-01  0.1672E-01  0.1612E-01  0.1672E-01  0.1612E-01  0.1672E-01  0.1612E-01  0.1769E+00  0.4145E-01  0.1769E+00  0.4145E-01  0.6641E-01  0.4579E-01  0.1769E+00  0.4145E-01  0.6641E-01  0.4579E-01
      6.693  0.6553E-02  0.5290E-01  0.1888E-01  0.1360E-01  0.1888E-01  0.1360E-01  0.1888E-01  0.1360E-01  0.1574E+00  0.1811E-01  0.1574E+00  0.1811E-01  0.1152E+00  0.9192E-01  0.1574E+00  0.1811E-01  0.1152E+00  0.9192E-01
      6.875  0.3331E-02  0.7032E-01  0.1710E-01  0.1434E-01  0.1710E-01  0.1434E-01  0.1710E-01  0.1434E-01  0.1613E+00  0.6375E-01  0.1613E+00  0.6375E-01  0.1374E+00  0.6564E-01  0.1613E+00  0.6375E-01  0.1374E+00  0.6564E-01
      7.056  0.3504E-02  0.3356E-01  0.1271E-01  0.1181E-01  0.1271E-01  0.1181E-01  0.1271E-01  0.1181E-01  0.1474E+00  0.3951E-01  0.1474E+00  0.3951E-01  0.8987E-01  0.9763E-01  0.1474E+00  0.3951E-01  0.8987E-01  0.9763E-01
      7.238  0.8401E-02  0.5354E-01  0.1560E-01  0.1981E-01  0.1560E-01  0.1981E-01  0.1560E-01  0.1981E-01  0.1807E+00  0.1306E+00  0.1807E+00  0.1306E+00  0.1347E+00  0.9654E-01  0.1807E+00  0.1306E+00  0.1347E+00  0.9654E-01
      7.420  0.9040E-02  0.8108E-02  0.2574E-01  0.1094E-01  0.2574E-01  0.1094E-01  0.2574E-01  0.1094E-01  0.2625E+00  0.8503E-01  0.2625E+00  0.8503E-01  0.1229E+00  0.8802E-01  0.2625E+00  0.8503E-01  0.1229E+00  0.8802E-01
      7.601  0.2039E-01  0.2208E-01  0.2252E-01  0.2595E-01  0.2252E-01  0.2595E-01  0.2252E-01  0.2595E-01  0.2425E+00  0.2053E+00  0.2425E+00  0.2053E+00  0.1448E+00  0.9921E-01  0.2425E+00  0.2053E+00  0.1448E+00  0.9921E-01
      7.783  0.1446E-01  0.3391E-02  0.2354E-01  0.1530E-01  0.2354E-01  0.1530E-01  0.2354E-01  0.1530E-01  0.2557E+00  0.1093E+00  0.2557E+00  0.1093E+00  0.2222E+00  0.5486E-01  0.2557E+00  0.1093E+00  0.2222E+00  0.5486E-01
      7.965  0.1975E-01  0.4640E-02  0.2377E-01  0.1881E-01  0.2377E-01  0.1881E-01  0.2377E-01  0.1881E-01  0.3586E+00  0.1710E+00  0.3586E+00  0.1710E+00  0.2492E+00  0.7919E-01  0.3586E+00  0.1710E+00  0.2492E+00  0.7919E-01
      8.146  0.1163E-01  0.1278E-02  0.1778E-01  0.2294E-01  0.1778E-01  0.2294E-01  0.1778E-01  0.2294E-01  0.2672E+00  0.1201E+00  0.2672E+00  0.1201E+00  0.2218E+00  0.1025E+00  0.2672E+00  0.1201E+00  0.2218E+00  0.1025E+00