    1    1  100    2
  0.1081089E+02  0.2481945E-09  0.2481945E-09  0.2481945E-09  0.5000000E-15
  1.000000000000000E-004
  CAR 
 Co-fcc                                  
      9     60     12
 
  0.6250000E-01  0.6250000E-01  0.6250000E-01  0.3906250E-02
      1          1.541930        1.542127   1.000000   1.000000
      2          7.663463        9.210864   1.000000   1.000000
      3          7.745168        9.309008   1.000000   1.000000
      4          7.745168        9.309008   1.000000   1.000000
      5          8.779236       10.662715   1.000000   0.000000
      6          8.779236       10.662715   1.000000   0.000000
      7         33.160924       32.923339   0.000000   0.000000
      8         36.133181       36.228596   0.000000   0.000000
      9         37.625841       37.797939   0.000000   0.000000
     10         37.625841       37.797939   0.000000   0.000000
     11         41.542812       41.785018   0.000000   0.000000
     12         41.542812       41.785018   0.000000   0.000000
 
  0.1875000E+00  0.6250000E-01  0.6250000E-01  0.1171875E-01
      1          2.344917        2.352332   1.000000   1.000000
      2          7.448964        8.935313   1.000000   1.000000
      3          7.904544        9.486416   1.000000   1.000000
      4          7.909657        9.494679   1.000000   1.000000
      5          8.622904       10.473463   1.000000   0.018298
      6          8.869510       10.740910   1.000000   0.000000
      7         30.355615       30.541022   0.000000   0.000000
      8         32.996886       33.066028   0.000000   0.000000
      9         36.518994       36.558244   0.000000   0.000000
     10         38.647199       38.821050   0.000000   0.000000
     11         40.411648       40.383587   0.000000   0.000000
     12         41.666947       41.875719   0.000000   0.000000
 
  0.3125000E+00  0.6250000E-01  0.6250000E-01  0.1171875E-01
      1          4.028341        4.137238   1.000000   1.000000
      2          7.336927        8.611160   1.000000   1.000000
      3          7.849234        9.470519   1.000000   1.000000
      4          7.924043        9.573697   1.000000   1.000000
      5          8.837519       10.631761   1.000000   0.000000
      6          9.274961       11.095305   1.000000   0.000000
      7         24.260087       24.698127   0.000000   0.000000
      8         31.898197       31.954728   0.000000   0.000000
      9         35.466809       35.520954   0.000000   0.000000
     10         38.218292       38.531992   0.000000   0.000000
     11         39.399156       39.639666   0.000000   0.000000
     12         40.395093       40.448902   0.000000   0.000000
 
  0.4375000E+00  0.6250000E-01  0.6250000E-01  0.1171875E-01
      1          5.160963        5.824869   1.000000   1.000000
      2          7.617188        9.051366   1.000000   1.000000
      3          7.716617        9.270982   1.000000   1.000000
      4          8.408139        9.368118   1.000000   1.000000
      5          9.396188       11.222001   1.000000   0.000000
      6         10.070151       11.699016   1.000000   0.000000
      7         18.897027       19.613866   0.000000   0.000000
      8         31.397498       31.333890   0.000000   0.000000
      9         34.229089       34.371612   0.000000   0.000000
     10         36.063085       36.378394   0.000000   0.000000
     11         38.546615       38.811810   0.000000   0.000000
     12         40.123560       40.312171   0.000000   0.000000
 
 -0.4375000E+00  0.6250000E-01  0.6250000E-01  0.1171875E-01
      1          5.284257        6.180170   1.000000   1.000000
      2          7.520659        9.107891   1.000000   1.000000
      3          7.663020        9.306678   1.000000   1.000000
      4          8.984958        9.735683   1.000000   1.000000
      5          9.680388       11.542347   1.000000   0.000000
      6         10.864030       11.975016   0.000000   0.000000
      7         16.736331       17.696344   0.000000   0.000000
      8         31.498675       31.311640   0.000000   0.000000
      9         34.199480       34.503751   0.000000   0.000000
     10         34.371834       34.635905   0.000000   0.000000
     11         39.373526       39.611355   0.000000   0.000000
     12         39.404169       39.625817   0.000000   0.000000
 
 -0.3125000E+00  0.6250000E-01  0.6250000E-01  0.1171875E-01
      1          4.947008        5.391737   1.000000   1.000000
      2          7.654848        8.747088   1.000000   1.000000
      3          7.806529        9.308425   1.000000   1.000000
      4          7.877012        9.452499   1.000000   1.000000
      5          9.472491       11.219172   1.000000   0.000000
      6          9.532618       11.326802   1.000000   0.000000
      7         20.521663       21.127365   0.000000   0.000000
      8         32.223831       32.030009   0.000000   0.000000
      9         33.662359       33.990344   0.000000   0.000000
     10         36.089991       36.420791   0.000000   0.000000
     11         39.221735       39.393157   0.000000   0.000000
     12         41.093464       41.290091   0.000000   0.000000
 
 -0.1875000E+00  0.6250000E-01  0.6250000E-01  0.1171875E-01
      1          3.424412        3.471552   1.000000   1.000000
      2          7.288796        8.666680   1.000000   1.000000
      3          7.913615        9.540798   1.000000   1.000000
      4          7.972666        9.593550   1.000000   1.000000
      5          8.766514       10.547273   1.000000   0.000015
      6          9.029009       10.886610   1.000000   0.000000
      7         26.272216       26.636911   0.000000   0.000000
      8         33.303553       33.159092   0.000000   0.000000
      9         34.213396       34.542293   0.000000   0.000000
     10         38.738450       38.872051   0.000000   0.000000
     11         39.031116       39.244630   0.000000   0.000000
     12         43.346453       43.433727   0.000000   0.000000
 
 -0.6250000E-01  0.6250000E-01  0.6250000E-01  0.1171875E-01
      1          1.950207        1.952864   1.000000   1.000000
      2          7.519231        9.037165   1.000000   1.000000
      3          7.855823        9.427998   1.000000   1.000000
      4          7.860182        9.433278   1.000000   1.000000
      5          8.642815       10.498806   1.000000   0.002500
      6          8.846401       10.735283   1.000000   0.000000
      7         32.139716       32.132163   0.000000   0.000000
      8         34.572092       34.571060   0.000000   0.000000
      9         35.606984       35.880985   0.000000   0.000000
     10         37.470681       37.544202   0.000000   0.000000
     11         41.479275       41.655496   0.000000   0.000000
     12         43.310423       43.398908   0.000000   0.000000
 
  0.1875000E+00  0.1875000E+00  0.6250000E-01  0.1171875E-01
      1          2.728300        2.742680   1.000000   1.000000
      2          7.240599        8.708110   1.000000   1.000000
      3          8.052765        9.653865   1.000000   1.000000
      4          8.083524        9.676503   1.000000   1.000000
      5          8.457098       10.239377   1.000000   0.999997
      6          8.971240       10.869541   1.000000   0.000000
      7         30.663550       30.856321   0.000000   0.000000
      8         33.145970       33.122727   0.000000   0.000000
      9         33.308029       33.622389   0.000000   0.000000
     10         35.533137       35.589200   0.000000   0.000000
     11         41.158502       41.805031   0.000000   0.000000
     12         43.820956       43.919446   0.000000   0.000000
 
  0.3125000E+00  0.1875000E+00  0.6250000E-01  0.2343750E-01
      1          4.086852        4.171624   1.000000   1.000000
      2          6.936738        8.320757   1.000000   1.000000
      3          7.834980        9.462999   1.000000   1.000000
      4          8.344222        9.989808   1.000000   1.000000
      5          8.728445       10.422076   1.000000   0.262128
      6          9.354505       11.193582   1.000000   0.000000
      7         26.822353       27.170869   0.000000   0.000000
      8         29.431548       29.676050   0.000000   0.000000
      9         33.208915       33.333423   0.000000   0.000000
     10         35.212725       35.355160   0.000000   0.000000
     11         40.027169       40.552098   0.000000   0.000000
     12         43.591240       43.632950   0.000000   0.000000
 
  0.4375000E+00  0.1875000E+00  0.6250000E-01  0.2343750E-01
      1          5.458942        5.969152   1.000000   1.000000
      2          7.058990        8.225844   1.000000   1.000000
      3          7.525950        9.033360   1.000000   1.000000
      4          8.185776        9.862856   1.000000   1.000000
      5          9.440006       11.228533   1.000000   0.000000
      6         10.558928       12.053348   0.000003   0.000000
      7         21.029644       21.577322   0.000000   0.000000
      8         28.818079       29.033993   0.000000   0.000000
      9         30.816145       31.077959   0.000000   0.000000
     10         34.859083       35.051394   0.000000   0.000000
     11         41.568943       41.687976   0.000000   0.000000
     12         44.050220       44.316572   0.000000   0.000000
 
 -0.4375000E+00  0.1875000E+00  0.6250000E-01  0.2343750E-01
      1          5.760705        6.727019   1.000000   1.000000
      2          7.093658        8.415057   1.000000   1.000000
      3          7.968966        9.139302   1.000000   1.000000
      4          8.035138        9.701737   1.000000   1.000000
      5          9.643191       11.487173   1.000000   0.000000
      6         12.727308       13.615541   0.000000   0.000000
      7         16.926185       17.798604   0.000000   0.000000
      8         28.224608       28.429188   0.000000   0.000000
      9         30.101268       30.425198   0.000000   0.000000
     10         34.649147       34.752752   0.000000   0.000000
     11         40.707644       40.909284   0.000000   0.000000
     12         44.368959       44.464332   0.000000   0.000000
 
 -0.3125000E+00  0.1875000E+00  0.6250000E-01  0.2343750E-01
      1          5.694279        6.409376   1.000000   1.000000
      2          7.242976        8.463987   1.000000   1.000000
      3          7.596915        8.919929   1.000000   1.000000
      4          8.073374        9.754540   1.000000   1.000000
      5          9.320484       11.106196   1.000000   0.000000
      6         11.411733       12.747163   0.000000   0.000000
      7         19.364863       20.013985   0.000000   0.000000
      8         27.413161       27.690412   0.000000   0.000000
      9         31.664014       31.886500   0.000000   0.000000
     10         35.753627       35.867786   0.000000   0.000000
     11         40.074280       40.264585   0.000000   0.000000
     12         43.756446       43.865781   0.000000   0.000000
 
 -0.1875000E+00  0.1875000E+00  0.6250000E-01  0.2343750E-01
      1          4.669686        4.810952   1.000000   1.000000
      2          7.011869        8.350103   1.000000   1.000000
      3          7.659294        9.252587   1.000000   1.000000
      4          8.276751        9.969409   1.000000   1.000000
      5          8.659872       10.379053   1.000000   0.719072
      6          9.858437       11.608284   1.000000   0.000000
      7         24.824505       25.242254   0.000000   0.000000
      8         27.564074       27.858388   0.000000   0.000000
      9         34.195772       34.316377   0.000000   0.000000
     10         37.704992       37.798450   0.000000   0.000000
     11         39.539899       39.656566   0.000000   0.000000
     12         42.580444       42.885187   0.000000   0.000000
 
 -0.6250000E-01  0.1875000E+00  0.6250000E-01  0.2343750E-01
      1          3.094410        3.119086   1.000000   1.000000
      2          7.238497        8.677381   1.000000   1.000000
      3          7.949622        9.558167   1.000000   1.000000
      4          8.086412        9.694296   1.000000   1.000000
      5          8.535742       10.326830   1.000000   0.980165
      6          9.060355       10.922573   1.000000   0.000000
      7         28.520768       28.808718   0.000000   0.000000
      8         31.164214       31.333164   0.000000   0.000000
      9         35.593190       35.649414   0.000000   0.000000
     10         37.388850       37.421361   0.000000   0.000000
     11         40.929627       41.193366   0.000000   0.000000
     12         42.344293       42.576971   0.000000   0.000000
 
  0.3125000E+00  0.3125000E+00  0.6250000E-01  0.1171875E-01
      1          4.758283        5.020253   1.000000   1.000000
      2          6.515893        7.864132   1.000000   1.000000
      3          8.159890        9.601082   1.000000   1.000000
      4          8.773990       10.452725   1.000000   0.066332
      5          9.111696       10.707027   1.000000   0.000000
      6          9.326517       11.241307   1.000000   0.000000
      7         27.409370       27.709593   0.000000   0.000000
      8         29.100785       29.388458   0.000000   0.000000
      9         29.167302       29.396843   0.000000   0.000000
     10         31.994255       32.221542   0.000000   0.000000
     11         36.596710       37.104003   0.000000   0.000000
     12         47.308963       48.992339   0.000000   0.000000
 
  0.4375000E+00  0.3125000E+00  0.6250000E-01  0.2343750E-01
      1          5.490964        6.200104   1.000000   1.000000
      2          6.308056        7.595097   1.000000   1.000000
      3          8.101389        9.384920   1.000000   1.000000
      4          9.019908       10.768092   1.000000   0.000000
      5          9.488163       11.287885   1.000000   0.000000
      6         10.818907       12.159327   0.000000   0.000000
      7         23.996107       24.368911   0.000000   0.000000
      8         25.947720       26.301729   0.000000   0.000000
      9         26.934470       27.267989   0.000000   0.000000
     10         33.239221       33.461599   0.000000   0.000000
     11         37.738177       38.126310   0.000000   0.000000
     12         46.902445       47.551982   0.000000   0.000000
 
 -0.4375000E+00  0.3125000E+00  0.6250000E-01  0.2343750E-01
      1          5.978510        7.104382   1.000000   1.000000
      2          6.443459        7.624728   1.000000   1.000000
      3          7.798089        9.043467   1.000000   1.000000
      4          8.736767       10.512404   1.000000   0.000707
      5          9.707841       11.535416   1.000000   0.000000
      6         13.993200       14.836641   0.000000   0.000000
      7         18.893255       19.449715   0.000000   0.000000
      8         23.766062       24.236925   0.000000   0.000000
      9         27.120034       27.425384   0.000000   0.000000
     10         33.682185       33.878434   0.000000   0.000000
     11         42.636694       42.914332   0.000000   0.000000
     12         45.445924       45.778104   0.000000   0.000000
 
 -0.3125000E+00  0.3125000E+00  0.6250000E-01  0.2343750E-01
      1          6.460149        7.466739   1.000000   1.000000
      2          6.615317        7.892796   1.000000   1.000000
      3          7.341167        8.583706   1.000000   1.000000
      4          8.536552       10.321900   1.000000   0.985975
      5          9.389947       11.146036   1.000000   0.000000
      6         14.308642       15.191866   0.000000   0.000000
      7         18.735580       19.336595   0.000000   0.000000
      8         22.450581       22.946781   0.000000   0.000000
      9         28.847863       29.159358   0.000000   0.000000
     10         34.554335       34.696297   0.000000   0.000000
     11         43.302757       43.359501   0.000000   0.000000
     12         46.859933       48.155401   0.000000   0.000000
 
 -0.1875000E+00  0.3125000E+00  0.6250000E-01  0.2343750E-01
      1          5.988415        6.506922   1.000000   1.000000
      2          7.028261        8.259545   1.000000   1.000000
      3          7.183477        8.679640   1.000000   1.000000
      4          8.358384       10.101272   1.000000   1.000000
      5          9.012267       10.731387   1.000000   0.000000
      6         11.508435       12.910888   0.000000   0.000000
      7         21.562541       22.088715   0.000000   0.000000
      8         24.571650       24.956886   0.000000   0.000000
      9         31.423919       31.665755   0.000000   0.000000
     10         36.310376       36.438801   0.000000   0.000000
     11         40.547006       40.602640   0.000000   0.000000
     12         45.202684       45.342699   0.000000   0.000000
 
 -0.6250000E-01  0.3125000E+00  0.6250000E-01  0.2343750E-01
      1          4.775978        5.024918   1.000000   1.000000
      2          7.293253        8.470701   1.000000   1.000000
      3          7.674927        9.291884   1.000000   1.000000
      4          7.990280        9.650214   1.000000   1.000000
      5          9.071047       10.823668   1.000000   0.000000
      6          9.725912       11.480171   1.000000   0.000000
      7         22.514275       23.016807   0.000000   0.000000
      8         30.310849       30.470525   0.000000   0.000000
      9         33.858026       33.945666   0.000000   0.000000
     10         36.499088       36.771977   0.000000   0.000000
     11         40.171922       40.325868   0.000000   0.000000
     12         41.716473       41.861550   0.000000   0.000000
 
  0.4375000E+00  0.4375000E+00  0.6250000E-01  0.1171875E-01
      1          5.268307        6.268138   1.000000   1.000000
      2          5.939202        7.203039   1.000000   1.000000
      3          9.364733       10.721525   1.000000   0.000000
      4          9.407888       11.278722   1.000000   0.000000
      5          9.731348       11.584125   1.000000   0.000000
      6         11.476536       12.248110   0.000000   0.000000
      7         22.683870       23.270573   0.000000   0.000000
      8         25.073676       25.325581   0.000000   0.000000
      9         26.250464       26.444683   0.000000   0.000000
     10         31.129004       31.470346   0.000000   0.000000
     11         35.163434       35.583838   0.000000   0.000000
     12         47.401783       50.967320   0.000000   0.000000
 
 -0.4375000E+00  0.4375000E+00  0.6250000E-01  0.2343750E-01
      1          5.415786        6.555523   1.000000   1.000000
      2          5.964062        7.203591   1.000000   1.000000
      3          8.944886       10.290991   1.000000   0.998933
      4          9.355507       11.267295   1.000000   0.000000
      5          9.871988       11.677837   1.000000   0.000000
      6         14.022558       14.533338   0.000000   0.000000
      7         20.538511       21.291442   0.000000   0.000000
      8         22.645829       22.968822   0.000000   0.000000
      9         25.105387       25.343059   0.000000   0.000000
     10         32.601117       32.877253   0.000000   0.000000
     11         37.066969       37.447451   0.000000   0.000000
     12         47.393736       50.430280   0.000000   0.000000
 
 -0.3125000E+00  0.4375000E+00  0.6250000E-01  0.2343750E-01
      1          5.928185        7.154829   1.000000   1.000000
      2          6.349030        7.518780   1.000000   1.000000
      3          7.972787        9.218144   1.000000   1.000000
      4          8.916377       10.756479   1.000000   0.000000
      5          9.696502       11.485973   1.000000   0.000000
      6         16.033706       16.642307   0.000000   0.000000
      7         18.237283       18.783675   0.000000   0.000000
      8         21.283372       21.908093   0.000000   0.000000
      9         26.643901       26.941527   0.000000   0.000000
     10         33.518638       33.731303   0.000000   0.000000
     11         42.611820       42.957822   0.000000   0.000000
     12         46.585964       46.737744   0.000000   0.000000
 
 -0.1875000E+00  0.4375000E+00  0.6250000E-01  0.2343750E-01
      1          6.135146        7.168557   1.000000   1.000000
      2          6.789838        8.036452   1.000000   1.000000
      3          7.643884        8.870514   1.000000   1.000000
      4          8.292941       10.021424   1.000000   1.000000
      5          9.543502       11.354321   1.000000   0.000000
      6         13.973920       14.790765   0.000000   0.000000
      7         17.176202       17.968399   0.000000   0.000000
      8         25.206183       25.578356   0.000000   0.000000
      9         29.217155       29.521509   0.000000   0.000000
     10         34.566184       34.685289   0.000000   0.000000
     11         42.044735       42.185545   0.000000   0.000000
     12         46.476005       46.602060   0.000000   0.000000
 
 -0.6250000E-01  0.4375000E+00  0.6250000E-01  0.2343750E-01
      1          5.429255        6.272580   1.000000   1.000000
      2          7.407290        8.850577   1.000000   1.000000
      3          7.803978        9.279361   1.000000   1.000000
      4          8.315121        9.468580   1.000000   1.000000
      5          9.586392       11.422999   1.000000   0.000000
      6         11.179854       12.384815   0.000000   0.000000
      7         17.663519       18.480298   0.000000   0.000000
      8         30.188930       30.238471   0.000000   0.000000
      9         32.351411       32.617838   0.000000   0.000000
     10         34.943680       35.112663   0.000000   0.000000
     11         39.635759       39.874788   0.000000   0.000000
     12         41.798069       41.947868   0.000000   0.000000
 
 -0.4375000E+00 -0.4375000E+00  0.6250000E-01  0.1171875E-01
      1          5.203993        6.317952   1.000000   1.000000
      2          5.808823        7.054701   1.000000   1.000000
      3          9.526575       11.207410   1.000000   0.000000
      4          9.653699       11.479376   1.000000   0.000000
      5          9.884514       11.696029   1.000000   0.000000
      6         13.014648       13.314863   0.000000   0.000000
      7         20.451701       21.247778   0.000000   0.000000
      8         24.478745       24.693567   0.000000   0.000000
      9         25.614977       25.775944   0.000000   0.000000
     10         30.991136       31.358413   0.000000   0.000000
     11         34.984679       35.403187   0.000000   0.000000
     12         47.489993       51.073731   0.000000   0.000000
 
 -0.3125000E+00 -0.4375000E+00  0.6250000E-01  0.2343750E-01
      1          5.493877        6.523564   1.000000   1.000000
      2          6.083032        7.338818   1.000000   1.000000
      3          8.605131        9.876657   1.000000   1.000000
      4          9.278285       11.114689   1.000000   0.000000
      5          9.720995       11.538543   1.000000   0.000000
      6         12.411589       13.293479   0.000000   0.000000
      7         22.669393       23.143439   0.000000   0.000000
      8         23.373677       23.801793   0.000000   0.000000
      9         25.673023       25.937210   0.000000   0.000000
     10         32.802784       33.059413   0.000000   0.000000
     11         37.264150       37.642747   0.000000   0.000000
     12         47.279816       49.220556   0.000000   0.000000
 
 -0.1875000E+00 -0.4375000E+00  0.6250000E-01  0.2343750E-01
      1          5.874884        6.729565   1.000000   1.000000
      2          6.703120        7.901504   1.000000   1.000000
      3          7.592287        8.922096   1.000000   1.000000
      4          8.460342       10.175431   1.000000   1.000000
      5          9.647732       11.486893   1.000000   0.000000
      6         12.029389       13.169390   0.000000   0.000000
      7         19.813239       20.378265   0.000000   0.000000
      8         26.810006       27.115108   0.000000   0.000000
      9         28.180936       28.517396   0.000000   0.000000
     10         34.074188       34.251944   0.000000   0.000000
     11         42.431082       42.584229   0.000000   0.000000
     12         44.538903       44.985861   0.000000   0.000000
 
 -0.3125000E+00 -0.3125000E+00  0.6250000E-01  0.1171875E-01
      1          5.240272        5.922072   1.000000   1.000000
      2          6.185123        7.483941   1.000000   1.000000
      3          8.772193        9.946861   1.000000   1.000000
      4          9.142590       10.900607   1.000000   0.000000
      5          9.524987       11.340202   1.000000   0.000000
      6          9.965083       11.427115   1.000000   0.000000
      7         25.589661       25.947830   0.000000   0.000000
      8         26.326249       26.664005   0.000000   0.000000
      9         27.448910       27.691951   0.000000   0.000000
     10         31.432719       31.724100   0.000000   0.000000
     11         35.628077       36.068699   0.000000   0.000000
     12         47.335555       50.814736   0.000000   0.000000
 
 -0.1875000E+00 -0.3125000E+00  0.6250000E-01  0.2343750E-01
      1          5.037014        5.323777   1.000000   1.000000
      2          6.608470        7.939203   1.000000   1.000000
      3          7.771701        9.273648   1.000000   1.000000
      4          8.669523       10.357781   1.000000   0.881346
      5          9.143758       10.845242   1.000000   0.000000
      6          9.830222       11.541017   1.000000   0.000000
      7         25.301099       25.676523   0.000000   0.000000
      8         27.805893       28.084625   0.000000   0.000000
      9         29.886020       30.158650   0.000000   0.000000
     10         33.984875       34.168418   0.000000   0.000000
     11         38.618346       39.049482   0.000000   0.000000
     12         45.542752       45.688034   0.000000   0.000000
 
 -0.1875000E+00 -0.1875000E+00  0.6250000E-01  0.1171875E-01
      1          3.764377        3.829694   1.000000   1.000000
      2          6.886258        8.293467   1.000000   1.000000
      3          8.058563        9.707118   1.000000   1.000000
      4          8.399661       10.026355   1.000000   1.000000
      5          8.610833       10.249476   1.000000   0.999989
      6          9.137741       11.046690   1.000000   0.000000
      7         29.031881       29.314755   0.000000   0.000000
      8         31.092001       31.406661   0.000000   0.000000
      9         31.729554       31.767919   0.000000   0.000000
     10         33.279107       33.431522   0.000000   0.000000
     11         38.399653       39.016708   0.000000   0.000000
     12         46.308507       46.287649   0.000000   0.000000
 
  0.1875000E+00  0.1875000E+00  0.1875000E+00  0.3906250E-02
      1          2.719433        2.736615   1.000000   1.000000
      2          7.420812        8.860672   1.000000   1.000000
      3          7.912327        9.512373   1.000000   1.000000
      4          7.912327        9.512373   1.000000   1.000000
      5          8.781937       10.631906   1.000000   0.000000
      6          8.781937       10.631906   1.000000   0.000000
      7         28.235500       28.524875   0.000000   0.000000
      8         34.275580       34.042981   0.000000   0.000000
      9         36.553817       36.847883   0.000000   0.000000
     10         36.553817       36.847883   0.000000   0.000000
     11         41.975609       41.878726   0.000000   0.000000
     12         42.438327       42.539807   0.000000   0.000000
 
  0.3125000E+00  0.1875000E+00  0.1875000E+00  0.1171875E-01
      1          3.780838        3.836838   1.000000   1.000000
      2          7.173050        8.563606   1.000000   1.000000
      3          7.858087        9.456649   1.000000   1.000000
      4          8.147416        9.793496   1.000000   1.000000
      5          8.492520       10.276751   1.000000   0.999743
      6          9.378929       11.193529   1.000000   0.000000
      7         26.559490       26.919779   0.000000   0.000000
      8         29.254191       29.491958   0.000000   0.000000
      9         36.861535       36.817315   0.000000   0.000000
     10         38.818519       38.771309   0.000000   0.000000
     11         38.977609       39.150838   0.000000   0.000000
     12         40.969234       41.328042   0.000000   0.000000
 
  0.4375000E+00  0.1875000E+00  0.1875000E+00  0.1171875E-01
      1          5.370456        5.645878   1.000000   1.000000
      2          7.061661        8.341014   1.000000   1.000000
      3          7.484886        9.024936   1.000000   1.000000
      4          8.206494        9.949787   1.000000   1.000000
      5          8.742079       10.448959   1.000000   0.081184
      6         10.536684       12.168625   0.000053   0.000000
      7         23.071445       23.552424   0.000000   0.000000
      8         25.924443       26.268108   0.000000   0.000000
      9         34.904080       34.895638   0.000000   0.000000
     10         35.494975       35.821021   0.000000   0.000000
     11         40.773910       40.710602   0.000000   0.000000
     12         42.566420       42.792894   0.000000   0.000000
 
 -0.4375000E+00  0.1875000E+00  0.1875000E+00  0.1171875E-01
      1          5.908967        6.806209   1.000000   1.000000
      2          7.086359        8.395281   1.000000   1.000000
      3          7.741083        8.915385   1.000000   1.000000
      4          8.089720        9.797487   1.000000   1.000000
      5          9.383194       11.181761   1.000000   0.000000
      6         12.553592       13.624704   0.000000   0.000000
      7         18.042456       18.782769   0.000000   0.000000
      8         26.166049       26.493768   0.000000   0.000000
      9         32.397752       32.723209   0.000000   0.000000
     10         33.273898       33.322368   0.000000   0.000000