Co-fcc                                  
   1.00000000000000     
     0.000000    1.773547    1.773547
     1.773547    0.000000    1.773547
     1.773547    1.773547    0.000000
   Co
     1
Direct
  0.000000  0.000000  0.000000
 
   32   32   32
  105.86      103.46      96.614      86.229      73.574      59.989      46.668      34.547      24.279      16.239    
  10.524      6.9483      5.0665      4.2480      3.8393      3.5964      3.5163      3.5964      3.8393      4.2480    
  5.0665      6.9483      10.524      16.239      24.279      34.547      46.668      59.989      73.574      86.229    
  96.614      103.46      103.46      98.843      90.237      78.750      65.691      52.326      39.714      28.640    
  19.614      12.870      8.3613      5.7675      4.5386      4.0043      3.6830      3.5239      3.5239      3.6830    
  4.0043      4.5386      5.7675      8.3613      12.870      19.614      28.640      39.714      52.326      65.691    
  78.750      90.237      98.843      103.46      96.614      90.237      80.555      68.738      56.030      43.555    
  32.204      22.606      15.125      9.8495      6.5889      4.9002      4.1669      3.7771      3.5454      3.4693    
  3.5454      3.7771      4.1669      4.9002      6.5889      9.8495      15.125      22.606      32.204      43.555    
  56.030      68.738      80.555      90.237      96.614      98.843      86.229      78.750      68.738      57.320    
  45.604      34.539      24.847      17.002      11.215      7.4262      5.3096      4.3324      3.8704      3.5766    
  3.4326      3.4326      3.5766      3.8704      4.3324      5.3096      7.4262      11.215      17.002      24.847    
  34.539      45.604      57.320      68.738      78.750      86.229      90.237      90.237      73.574      65.691    
  56.030      45.604      35.353      26.047      18.245      12.261      8.1513      5.7096      4.5015      3.9544    
  3.6119      3.4115      3.3463      3.4115      3.6119      3.9544      4.5015      5.7096      8.1513      12.261    
  18.245      26.047      35.353      45.604      56.030      65.691      73.574      78.750      80.555      78.750    
  59.989      52.326      43.555      34.539      26.047      18.680      12.827      8.6435      6.0294      4.6542    
  4.0223      3.6454      3.4019      3.2845      3.2845      3.4019      3.6454      4.0223      4.6542      6.0294    
  8.6435      12.827      18.680      26.047      34.539      43.555      52.326      59.989      65.691      68.738    
  68.738      65.691      46.668      39.714      32.204      24.847      18.245      12.827      8.8178      6.2073    
  4.7617      4.0711      3.6723      3.3991      3.2433      3.1931      3.2433      3.3991      3.6723      4.0711    
  4.7617      6.2073      8.8178      12.827      18.245      24.847      32.204      39.714      46.668      52.326    
  56.030      57.320      56.030      52.326      34.547      28.640      22.606      17.002      12.261      8.6435    
  6.2073      4.8005      4.0973      3.6896      3.3994      3.2180      3.1323      3.1323      3.2180      3.3994    
  3.6896      4.0973      4.8005      6.2073      8.6435      12.261      17.002      22.606      28.640      34.547    
  39.714      43.555      45.604      45.604      43.555      39.714      24.279      19.614      15.125      11.215    
  8.1513      6.0294      4.7617      4.0973      3.6955      3.4002      3.2047      3.0960      3.0615      3.0960    
  3.2047      3.4002      3.6955      4.0973      4.7617      6.0294      8.1513      11.215      15.125      19.614    
  24.279      28.640      32.204      34.539      35.353      34.539      32.204      28.640      16.239      12.870    
  9.8495      7.4262      5.7096      4.6542      4.0711      3.6896      3.4002      3.2006      3.0793      3.0230    
  3.0230      3.0793      3.2006      3.4002      3.6896      4.0711      4.6542      5.7096      7.4262      9.8495    
  12.870      16.239      19.614      22.606      24.847      26.047      26.047      24.847      22.606      19.614    
  10.524      8.3613      6.5889      5.3096      4.5015      4.0223      3.6723      3.3994      3.2047      3.0793    
  3.0108      2.9892      3.0108      3.0793      3.2047      3.3994      3.6723      4.0223      4.5015      5.3096    
  6.5889      8.3613      10.524      12.870      15.125      17.002      18.245      18.680      18.245      17.002    
  15.125      12.870      6.9483      5.7675      4.9002      4.3324      3.9544      3.6454      3.3991      3.2180    
  3.0960      3.0230      2.9892      2.9892      3.0230      3.0960      3.2180      3.3991      3.6454      3.9544    
  4.3324      4.9002      5.7675      6.9483      8.3613      9.8495      11.215      12.261      12.827      12.827    
  12.261      11.215      9.8495      8.3613      5.0665      4.5386      4.1669      3.8704      3.6119      3.4019    
  3.2433      3.1323      3.0615      3.0230      3.0108      3.0230      3.0615      3.1323      3.2433      3.4019    
  3.6119      3.8704      4.1669      4.5386      5.0665      5.7675      6.5889      7.4262      8.1513      8.6435    
  8.8178      8.6435      8.1513      7.4262      6.5889      5.7675      4.2480      4.0043      3.7771      3.5766    
  3.4115      3.2845      3.1931      3.1323      3.0960      3.0793      3.0793      3.0960      3.1323      3.1931    
  3.2845      3.4115      3.5766      3.7771      4.0043      4.2480      4.5386      4.9002      5.3096      5.7096    
  6.0294      6.2073      6.2073      6.0294      5.7096      5.3096      4.9002      4.5386      3.8393      3.6830    
  3.5454      3.4326      3.3463      3.2845      3.2433      3.2180      3.2047      3.2006      3.2047      3.2180    
  3.2433      3.2845      3.3463      3.4326      3.5454      3.6830      3.8393      4.0043      4.1669      4.3324    
  4.5015      4.6542      4.7617      4.8005      4.7617      4.6542      4.5015      4.3324      4.1669      4.0043    
  3.5964      3.5239      3.4693      3.4326      3.4115      3.4019      3.3991      3.3994      3.4002      3.4002    
  3.3994      3.3991      3.4019      3.4115      3.4326      3.4693      3.5239      3.5964      3.6830      3.7771    
  3.8704      3.9544      4.0223      4.0711      4.0973      4.0973      4.0711      4.0223      3.9544      3.8704    
  3.7771      3.6830      3.5163      3.5239      3.5454      3.5766      3.6119      3.6454      3.6723      3.6896    
  3.6955      3.6896      3.6723      3.6454      3.6119      3.5766      3.5454      3.5239      3.5163      3.5239    
  3.5454      3.5766      3.6119      3.6454      3.6723      3.6896      3.6955      3.6896      3.6723      3.6454    
  3.6119      3.5766      3.5454      3.5239      3.5964      3.6830      3.7771      3.8704      3.9544      4.0223    
  4.0711      4.0973      4.0973      4.0711      4.0223      3.9544      3.8704      3.7771      3.6830      3.5964    
  3.5239      3.4693      3.4326      3.4115      3.4019      3.3991      3.3994      3.4002      3.4002      3.3994    
  3.3991      3.4019      3.4115      3.4326      3.4693      3.5239      3.8393      4.0043      4.1669      4.3324    
  4.5015      4.6542      4.7617      4.8005      4.7617      4.6542      4.5015      4.3324      4.1669      4.0043    
  3.8393      3.6830      3.5454      3.4326      3.3463      3.2845      3.2433      3.2180      3.2047      3.2006    
  3.2047      3.2180      3.2433      3.2845      3.3463      3.4326      3.5454      3.6830      4.2480      4.5386    
  4.9002      5.3096      5.7096      6.0294      6.2073      6.2073      6.0294      5.7096      5.3096      4.9002    
  4.5386      4.2480      4.0043      3.7771      3.5766      3.4115      3.2845      3.1931      3.1323      3.0960    
  3.0793      3.0793      3.0960      3.1323      3.1931      3.2845      3.4115      3.5766      3.7771      4.0043    
  5.0665      5.7675      6.5889      7.4262      8.1513      8.6435      8.8178      8.6435      8.1513      7.4262    
  6.5889      5.7675      5.0665      4.5386      4.1669      3.8704      3.6119      3.4019      3.2433      3.1323    
  3.0615      3.0230      3.0108      3.0230      3.0615      3.1323      3.2433      3.4019      3.6119      3.8704    
  4.1669      4.5386      6.9483      8.3613      9.8495      11.215      12.261      12.827      12.827      12.261    
  11.215      9.8495      8.3613      6.9483      5.7675      4.9002      4.3324      3.9544      3.6454      3.3991    
  3.2180      3.0960      3.0230      2.9892      2.9892      3.0230      3.0960      3.2180      3.3991      3.6454    
  3.9544      4.3324      4.9002      5.7675      10.524      12.870      15.125      17.002      18.245      18.680    
  18.245      17.002      15.125      12.870      10.524      8.3613      6.5889      5.3096      4.5015      4.0223    
  3.6723      3.3994      3.2047      3.0793      3.0108      2.9892      3.0108      3.0793      3.2047      3.3994    
  3.6723      4.0223      4.5015      5.3096      6.5889      8.3613      16.239      19.614      22.606      24.847    
  26.047      26.047      24.847      22.606      19.614      16.239      12.870      9.8495      7.4262      5.7096    
  4.6542      4.0711      3.6896      3.4002      3.2006      3.0793      3.0230      3.0230      3.0793      3.2006    
  3.4002      3.6896      4.0711      4.6542      5.7096      7.4262      9.8495      12.870      24.279      28.640    
  32.204      34.539      35.353      34.539      32.204      28.640      24.279      19.614      15.125      11.215    
  8.1513      6.0294      4.7617      4.0973      3.6955      3.4002      3.2047      3.0960      3.0615      3.0960    
  3.2047      3.4002      3.6955      4.0973      4.7617      6.0294      8.1513      11.215      15.125      19.614    
  34.547      39.714      43.555      45.604      45.604      43.555      39.714      34.547      28.640      22.606    
  17.002      12.261      8.6435      6.2073      4.8005      4.0973      3.6896      3.3994      3.2180      3.1323    
  3.1323      3.2180      3.3994      3.6896      4.0973      4.8005      6.2073      8.6435      12.261      17.002    
  22.606      28.640      46.668      52.326      56.030      57.320      56.030      52.326      46.668      39.714    
  32.204      24.847      18.245      12.827      8.8178      6.2073      4.7617      4.0711      3.6723      3.3991    
  3.2433      3.1931      3.2433      3.3991      3.6723      4.0711      4.7617      6.2073      8.8178      12.827    
  18.245      24.847      32.204      39.714      59.989      65.691      68.738      68.738      65.691      59.989    
  52.326      43.555      34.539      26.047      18.680      12.827      8.6435      6.0294      4.6542      4.0223    
  3.6454      3.4019      3.2845      3.2845      3.4019      3.6454      4.0223      4.6542      6.0294      8.6435    
  12.827      18.680      26.047      34.539      43.555      52.326      73.574      78.750      80.555      78.750    
  73.574      65.691      56.030      45.604      35.353      26.047      18.245      12.261      8.1513      5.7096    
  4.5015      3.9544      3.6119      3.4115      3.3463      3.4115      3.6119      3.9544      4.5015      5.7096    
  8.1513      12.261      18.245      26.047      35.353      45.604      56.030      65.691      86.229      90.237    
  90.237      86.229      78.750      68.738      57.320      45.604      34.539      24.847      17.002      11.215    
  7.4262      5.3096      4.3324      3.8704      3.5766      3.4326      3.4326      3.5766      3.8704      4.3324    
  5.3096      7.4262      11.215      17.002      24.847      34.539      45.604      57.320      68.738      78.750    
  96.614      98.843      96.614      90.237      80.555      68.738      56.030      43.555      32.204      22.606    
  15.125      9.8495      6.5889      4.9002      4.1669      3.7771      3.5454      3.4693      3.5454      3.7771    
  4.1669      4.9002      6.5889      9.8495      15.125      22.606      32.204      43.555      56.030      68.738    
  80.555      90.237      103.46      103.46      98.843      90.237      78.750      65.691      52.326      39.714    
  28.640      19.614      12.870      8.3613      5.7675      4.5386      4.0043      3.6830      3.5239      3.5239    
  3.6830      4.0043      4.5386      5.7675      8.3613      12.870      19.614      28.640      39.714      52.326    
  65.691      78.750      90.237      98.843      103.46      98.843      90.237      78.750      65.691      52.326    
  39.714      28.640      19.614      12.870      8.3613      5.7675      4.5386      4.0043      3.6830      3.5239    
  3.5239      3.6830      4.0043      4.5386      5.7675      8.3613      12.870      19.614      28.640      39.714    
  52.326      65.691      78.750      90.237      98.843      103.46      98.843      92.321      82.423      70.345    
  57.358      44.608      33.002      23.179      15.508      10.082      6.7144      4.9609      4.1996      3.8032    
  3.5676      3.4900      3.5676      3.8032      4.1996      4.9609      6.7144      10.082      15.508      23.179    
  33.002      44.608      57.358      70.345      82.423      92.321      98.843      101.12      90.237      82.423    
  71.968      60.047      47.816      36.255      26.111      17.874      11.767      7.7395      5.4667      4.4092    
  3.9250      3.6215      3.4722      3.4722      3.6214      3.9250      4.4092      5.4667      7.7395      11.767    
  17.874      26.111      36.255      47.816      60.047      71.968      82.423      90.237      94.426      94.426    
  78.750      70.345      60.047      48.933      37.993      28.040      19.658      13.187      8.6996      5.9960    
  4.6388      4.0382      3.6794      3.4683      3.3993      3.4683      3.6794      4.0382      4.6388      5.9960    
  8.6996      13.187      19.658      28.040      37.993      48.933      60.047      70.345      78.750      84.270    
  86.196      84.270      65.691      57.358      47.816      37.993      28.713      20.618      14.135      9.4448    
  6.4641      4.8647      4.1360      3.7347      3.4741      3.3479      3.3479      3.4741      3.7347      4.1360    
  4.8647      6.4641      9.4448      14.135      20.618      28.713      37.993      47.816      57.358      65.691    
  71.891      75.205      75.205      71.891      52.326      44.608      36.255      28.040      20.618      14.468    
  9.8519      6.7864      5.0479      4.2165      3.7811      3.4847      3.3145      3.2595      3.3145      3.4847    
  3.7811      4.2165      5.0479      6.7864      9.8519      14.468      20.618      28.040      36.255      44.608    
  52.326      58.600      62.705      64.134      62.705      58.600      39.714      33.002      26.111      19.658    
  14.135      9.8519      6.9013      5.1510      4.2713      3.8141      3.4956      3.2946      3.1990      3.1990    
  3.2946      3.4956      3.8141      4.2713      5.1510      6.9013      9.8519      14.135      19.658      26.111    
  33.002      39.714      45.566      49.909      52.224      52.224      49.909      45.566      28.640      23.179    
  17.874      13.187      9.4448      6.7864      5.1510      4.2909      3.8312      3.5033      3.2839      3.1611    
  3.1219      3.1611      3.2839      3.5033      3.8312      4.2909      5.1510      6.7864      9.4448      13.187    
  17.874      23.179      28.640      33.712      37.838      40.536      41.475      40.536      37.838      33.712    
  19.614      15.508      11.767      8.6996      6.4641      5.0479      4.2713      3.8312      3.5061      3.2795    
  3.1408      3.0760      3.0760      3.1408      3.2795      3.5061      3.8312      4.2713      5.0479      6.4641    
  8.6996      11.767      15.508      19.614      23.679      27.255      29.919      31.342      31.342      29.919    
  27.255      23.679      12.870      10.082      7.7395      5.9960      4.8647      4.2165      3.8141      3.5033    
  3.2795      3.1344      3.0549      3.0298      3.0549      3.1344      3.2795      3.5033      3.8141      4.2165    
  4.8647      5.9960      7.7395      10.082      12.870      15.837      18.653      20.973      22.501      23.034    
  22.501      20.973      18.653      15.837      8.3613      6.7144      5.4667      4.6388      4.1360      3.7811    
  3.4956      3.2839      3.1408      3.0549      3.0152      3.0152      3.0549      3.1408      3.2839      3.4956    
  3.7811      4.1360      4.6388      5.4667      6.7144      8.3613      10.278      12.254      14.040      15.393    
  16.121      16.121      15.393      14.040      12.254      10.278      5.7675      4.9609      4.4092      4.0382    
  3.7347      3.4847      3.2946      3.1611      3.0760      3.0298      3.0152      3.0298      3.0760      3.1611    
  3.2946      3.4847      3.7347      4.0382      4.4092      4.9609      5.7675      6.8144      8.0067      9.1938    
  10.204      10.883      11.122      10.883      10.204      9.1938      8.0067      6.8144      4.5386      4.1996    
  3.9250      3.6794      3.4741      3.3145      3.1990      3.1219      3.0760      3.0549      3.0549      3.0760    
  3.1219      3.1990      3.3145      3.4741      3.6794      3.9250      4.1996      4.5386      5.0013      5.5868    
  6.2373      6.8588      7.3473      7.6162      7.6162      7.3473      6.8588      6.2373      5.5868      5.0013    
  4.0043      3.8032      3.6215      3.4683      3.3479      3.2595      3.1990      3.1611      3.1408      3.1344    
  3.1408      3.1611      3.1990      3.2595      3.3479      3.4683      3.6215      3.8032      4.0043      4.2137    
  4.4512      4.7305      5.0276      5.2956      5.4827      5.5499      5.4827      5.2956      5.0276      4.7305    
  4.4512      4.2137      3.6830      3.5676      3.4722      3.3993      3.3479      3.3145      3.2946      3.2839    
  3.2795      3.2795      3.2839      3.2946      3.3145      3.3479      3.3993      3.4722      3.5676      3.6830    
  3.8122      3.9457      4.0729      4.1913      4.3014      4.3898      4.4397      4.4397      4.3898      4.3014    
  4.1913      4.0729      3.9457      3.8122      3.5239      3.4900      3.4722      3.4683      3.4741      3.4847    
  3.4956      3.5033      3.5061      3.5033      3.4956      3.4847      3.4741      3.4683      3.4722      3.4900    
  3.5239      3.5734      3.6345      3.7012      3.7662      3.8228      3.8659      3.8926      3.9016      3.8926    
  3.8659      3.8228      3.7662      3.7012      3.6345      3.5734      3.5239      3.5676      3.6214      3.6794    
  3.7347      3.7811      3.8141      3.8312      3.8312      3.8141      3.7811      3.7347      3.6794      3.6215    
  3.5676      3.5239      3.4947      3.4810      3.4812      3.4912      3.5061      3.5213      3.5332      3.5396    
  3.5396      3.5332      3.5213      3.5061      3.4912      3.4812      3.4810      3.4947      3.6830      3.8032    
  3.9250      4.0382      4.1360      4.2165      4.2713      4.2909      4.2713      4.2165      4.1360      4.0382    
  3.9250      3.8032      3.6830      3.5734      3.4810      3.4090      3.3572      3.3226      3.3014      3.2894    
  3.2836      3.2818      3.2836      3.2894      3.3014      3.3226      3.3572      3.4090      3.4810      3.5734    
  4.0043      4.1996      4.4092      4.6388      4.8647      5.0479      5.1510      5.1510      5.0479      4.8647    
  4.6388      4.4092      4.1996      4.0043      3.8122      3.6345      3.4812      3.3572      3.2631      3.1961    
  3.1518      3.1254      3.1132      3.1132      3.1254      3.1518      3.1961      3.2631      3.3572      3.4812    
  3.6345      3.8122      4.5386      4.9609      5.4667      5.9960      6.4641      6.7864      6.9013      6.7864    
  6.4641      5.9960      5.4667      4.9609      4.5386      4.2137      3.9457      3.7012      3.4912      3.3226    
  3.1961      3.1077      3.0511      3.0201      3.0103      3.0201      3.0511      3.1077      3.1961      3.3226    
  3.4912      3.7012      3.9457      4.2137      5.7675      6.7144      7.7395      8.6996      9.4448      9.8519    
  9.8519      9.4448      8.6996      7.7395      6.7144      5.7675      5.0013      4.4512      4.0729      3.7662    
  3.5061      3.3014      3.1518      3.0511      2.9906      2.9626      2.9626      2.9906      3.0511      3.1518    
  3.3014      3.5061      3.7662      4.0729      4.4512      5.0013      8.3613      10.082      11.767      13.187    
  14.135      14.468      14.135      13.187      11.767      10.082      8.3613      6.8144      5.5868      4.7305    
  4.1913      3.8228      3.5213      3.2894      3.1254      3.0201      2.9626      2.9445      2.9626      3.0201    
  3.1254      3.2894      3.5213      3.8228      4.1913      4.7305      5.5868      6.8144      12.870      15.508    
  17.874      19.658      20.618      20.618      19.658      17.874      15.508      12.870      10.278      8.0067    
  6.2373      5.0276      4.3014      3.8659      3.5332      3.2836      3.1132      3.0103      2.9626      2.9626    
  3.0103      3.1132      3.2836      3.5332      3.8659      4.3014      5.0276      6.2373      8.0067      10.278    
  19.614      23.179      26.111      28.040      28.713      28.040      26.111      23.179      19.614      15.837    
  12.254      9.1938      6.8588      5.2956      4.3898      3.8926      3.5396      3.2818      3.1132      3.0201    
  2.9906      3.0201      3.1132      3.2818      3.5396      3.8926      4.3898      5.2956      6.8588      9.1938    
  12.254      15.837      28.640      33.002      36.255      37.993      37.993      36.255      33.002      28.640    
  23.679      18.653      14.040      10.204      7.3473      5.4827      4.4397      3.9016      3.5396      3.2836    
  3.1254      3.0511      3.0511      3.1254      3.2836      3.5396      3.9016      4.4397      5.4827      7.3473    
  10.204      14.040      18.653      23.679      39.714      44.608      47.816      48.933      47.816      44.608    
  39.714      33.712      27.255      20.973      15.393      10.883      7.6162      5.5499      4.4397      3.8926    
  3.5332      3.2894      3.1518      3.1077      3.1518      3.2894      3.5332      3.8926      4.4397      5.5499    
  7.6162      10.883      15.393      20.973      27.255      33.712      52.326      57.358      60.047      60.047    
  57.358      52.326      45.566      37.838      29.919      22.501      16.121      11.122      7.6162      5.4827    
  4.3898      3.8659      3.5213      3.3014      3.1961      3.1961      3.3014      3.5213      3.8659      4.3898    
  5.4827      7.6162      11.122      16.121      22.501      29.919      37.838      45.566      65.691      70.345    
  71.968      70.345      65.691      58.600      49.909      40.536      31.342      23.034      16.121      10.883    
  7.3473      5.2956      4.3014      3.8228      3.5061      3.3226      3.2631      3.3226      3.5061      3.8228    
  4.3014      5.2956      7.3473      10.883      16.121      23.034      31.342      40.536      49.909      58.600    
  78.750      82.423      82.423      78.750      71.891      62.705      52.224      41.475      31.342      22.501    
  15.393      10.204      6.8588      5.0276      4.1913      3.7662      3.4912      3.3572      3.3572      3.4912    
  3.7662      4.1913      5.0276      6.8588      10.204      15.393      22.501      31.342      41.475      52.224    
  62.705      71.891      90.237      92.321      90.237      84.270      75.205      64.134      52.224      40.536    
  29.919      20.973      14.040      9.1938      6.2373      4.7305      4.0729      3.7012      3.4812      3.4090    
  3.4812      3.7012      4.0729      4.7305      6.2373      9.1938      14.040      20.973      29.919      40.536    
  52.224      64.134      75.205      84.270      98.843      98.843      94.426      86.196      75.205      62.705    
  49.909      37.838      27.255      18.653      12.254      8.0067      5.5868      4.4512      3.9457      3.6345    
  3.4810      3.4810      3.6345      3.9457      4.4512      5.5868      8.0067      12.254      18.653      27.255    
  37.838      49.909      62.705      75.205      86.196      94.426      103.46      101.12      94.426      84.270    
  71.891      58.600      45.566      33.712      23.679      15.837      10.278      6.8144      5.0013      4.2137    
  3.8122      3.5734      3.4947      3.5734      3.8122      4.2137      5.0013      6.8144      10.278      15.837    
  23.679      33.712      45.566      58.600      71.891      84.270      94.426      101.12      96.614      90.237    
  80.555      68.738      56.030      43.555      32.204      22.606      15.125      9.8495      6.5889      4.9002    
  4.1669      3.7771      3.5454      3.4693      3.5454      3.7771      4.1669      4.9002      6.5889      9.8495    
  15.125      22.606      32.204      43.555      56.030      68.738      80.555      90.237      96.614      98.843    
  90.237      82.423      71.968      60.047      47.816      36.255      26.111      17.874      11.767      7.7395    
  5.4667      4.4092      3.9250      3.6215      3.4722      3.4722      3.6214      3.9250      4.4092      5.4667    
  7.7395      11.767      17.874      26.111      36.255      47.816      60.047      71.968      82.423      90.237    
  94.426      94.426      80.555      71.968      61.448      50.094      38.915      28.737      20.155      13.514    
  8.8943      6.0984      4.6878      4.0670      3.7027      3.4878      3.4176      3.4878      3.7027      4.0670    
  4.6878      6.0984      8.8943      13.514      20.155      28.737      38.915      50.094      61.448      71.968    
  80.555      86.196      88.165      86.196      68.738      60.047      50.094      39.843      30.144      21.664    
  14.846      9.8841      6.7052      4.9819      4.1968      3.7814      3.5120      3.3811      3.3811      3.5120    
  3.7814      4.1968      4.9819      6.7052      9.8841      14.846      21.664      30.144      39.843      50.094    
  60.047      68.738      75.205      78.663      78.663      75.205      56.030      47.816      38.915      30.144    
  22.192      15.566      10.552      7.1844      5.2469      4.3138      3.8503      3.5393      3.3597      3.3016    
  3.3597      3.5393      3.8503      4.3138      5.2469      7.1844      10.552      15.566      22.192      30.144    
  38.915      47.816      56.030      62.705      67.072      68.593      67.072      62.705      43.555      36.255    
  28.737      21.664      15.566      10.788      7.4490      5.4320      4.4062      3.9032      3.5645      3.3492    
  3.2464      3.2464      3.3492      3.5645      3.9032      4.4062      5.4320      7.4490      10.788      15.566    
  21.664      28.737      36.255      43.555      49.909      54.620      57.131      57.131      54.620      49.909    
  32.204      26.111      20.155      14.846      10.552      7.4490      5.4985      4.4580      3.9363      3.5835    
  3.3452      3.2111      3.1681      3.2111      3.3452      3.5835      3.9363      4.4580      5.4985      7.4490    
  10.552      14.846      20.155      26.111      32.204      37.838      42.411      45.397      46.436      45.397    
  42.411      37.838      22.606      17.874      13.514      9.8841      7.1844      5.4320      4.4580      3.9476    
  3.5936      3.3443      3.1907      3.1187      3.1187      3.1907      3.3443      3.5936      3.9476      4.4580    
  5.4320      7.1844      9.8841      13.514      17.874      22.606      27.255      31.322      34.342      35.952    
  35.952      34.342      31.322      27.255      15.125      11.767      8.8943      6.7052      5.2469      4.4062    
  3.9363      3.5936      3.3442      3.1815      3.0920      3.0637      3.0920      3.1815      3.3442      3.5936    
  3.9363      4.4062      5.2469      6.7052      8.8943      11.767      15.125      18.653      21.967      24.681    
  26.460      27.080      26.460      24.681      21.967      18.653      9.8495      7.7395      6.0984      4.9819    
  4.3138      3.9032      3.5835      3.3443      3.1815      3.0836      3.0384      3.0384      3.0836      3.1815    
  3.3443      3.5835      3.9032      4.3138      4.9819      6.0984      7.7395      9.8495      12.254      14.694    
  16.875      18.514      19.394      19.394      18.514      16.875      14.694      12.254      6.5889      5.4667    
  4.6878      4.1968      3.8503      3.5645      3.3452      3.1907      3.0920      3.0384      3.0215      3.0384    
  3.0920      3.1907      3.3452      3.5645      3.8503      4.1968      4.6878      5.4667      6.5889      8.0067    
  9.5833      11.125      12.420      13.283      13.586      13.283      12.420      11.125      9.5833      8.0067    
  4.9002      4.4092      4.0670      3.7814      3.5393      3.3492      3.2111      3.1187      3.0637      3.0384    
  3.0384      3.0637      3.1187      3.2111      3.3492      3.5393      3.7814      4.0670      4.4092      4.9002    
  5.5868      6.4388      7.3628      8.2280      8.8987      9.2648      9.2648      8.8987      8.2280      7.3628    
  6.4388      5.5868      4.1669      3.9250      3.7027      3.5120      3.3597      3.2464      3.1681      3.1187    
  3.0920      3.0836      3.0920      3.1187      3.1681      3.2464      3.3597      3.5120      3.7027      3.9250    