Co-fcc                                  
   1.00000000000000     
     0.000000    1.773547    1.773547
     1.773547    0.000000    1.773547
     1.773547    1.773547    0.000000
   Co
     1
Direct
  0.000000  0.000000  0.000000
 
   32   32   32
 0.10585912401E+03 0.10346364882E+03 0.96613997283E+02 0.86228618904E+02 0.73573920047E+02
 0.59988885406E+02 0.46667708510E+02 0.34547072667E+02 0.24279384688E+02 0.16239260976E+02
 0.10523906848E+02 0.69482850426E+01 0.50664626847E+01 0.42480093902E+01 0.38392553446E+01
 0.35963962125E+01 0.35162752981E+01 0.35963962125E+01 0.38392553446E+01 0.42480093902E+01
 0.50664626847E+01 0.69482850426E+01 0.10523906848E+02 0.16239260976E+02 0.24279384688E+02
 0.34547072667E+02 0.46667708510E+02 0.59988885406E+02 0.73573920047E+02 0.86228618904E+02
 0.96613997283E+02 0.10346364882E+03 0.10346364882E+03 0.98842695381E+02 0.90236767676E+02
 0.78749542324E+02 0.65690769125E+02 0.52326114657E+02 0.39713837403E+02 0.28640282010E+02
 0.19614058622E+02 0.12869600407E+02 0.83612564802E+01 0.57674618240E+01 0.45386055252E+01
 0.40042760291E+01 0.36829942393E+01 0.35239477134E+01 0.35239475310E+01 0.36829938301E+01
 0.40042757143E+01 0.45386055693E+01 0.57674622369E+01 0.83612569823E+01 0.12869600625E+02
 0.19614058378E+02 0.28640281548E+02 0.39713837359E+02 0.52326115762E+02 0.65690771783E+02
 0.78749546269E+02 0.90236771969E+02 0.98842698718E+02 0.10346365008E+03 0.96613997283E+02
 0.90236767676E+02 0.80555060677E+02 0.68737811434E+02 0.56030120202E+02 0.43554562819E+02
 0.32203580250E+02 0.22606435333E+02 0.15125454335E+02 0.98495389893E+01 0.65888847057E+01
 0.49002252705E+01 0.41669376957E+01 0.37771272324E+01 0.35454489086E+01 0.34692657327E+01
 0.35454483896E+01 0.37771266102E+01 0.41669375029E+01 0.49002257577E+01 0.65888856269E+01
 0.98495397284E+01 0.15125454336E+02 0.22606434562E+02 0.32203579397E+02 0.43554563042E+02
 0.56030122528E+02 0.68737816097E+02 0.80555066794E+02 0.90236773474E+02 0.96614000814E+02
 0.98842698718E+02 0.86228618904E+02 0.78749542324E+02 0.68737811434E+02 0.57319943048E+02
 0.45604176298E+02 0.34539203786E+02 0.24847331121E+02 0.17002020041E+02 0.11215323554E+02
 0.74262315421E+01 0.53096424313E+01 0.43323582531E+01 0.38704037587E+01 0.35766450135E+01
 0.34326322399E+01 0.34326319631E+01 0.35766444152E+01 0.38704033685E+01 0.43323585126E+01
 0.53096433438E+01 0.74262326076E+01 0.11215324057E+02 0.17002019544E+02 0.24847329841E+02
 0.34539202615E+02 0.45604176394E+02 0.57319945184E+02 0.68737815481E+02 0.78749547152E+02
 0.86228622824E+02 0.90236773474E+02 0.90236771969E+02 0.73573920047E+02 0.65690769125E+02
 0.56030120202E+02 0.45604176298E+02 0.35352698076E+02 0.26047361357E+02 0.18244739763E+02
 0.12260718668E+02 0.81513087605E+01 0.57095605364E+01 0.45015306893E+01 0.39543795889E+01
 0.36118820781E+01 0.34115425573E+01 0.33462510487E+01 0.34115422892E+01 0.36118817973E+01
 0.39543796221E+01 0.45015311877E+01 0.57095613247E+01 0.81513093917E+01 0.12260718666E+02
 0.18244738916E+02 0.26047359887E+02 0.35352696561E+02 0.45604175395E+02 0.56030120289E+02
 0.65690770084E+02 0.73573921326E+02 0.78749547152E+02 0.80555066794E+02 0.78749546269E+02
 0.59988885406E+02 0.52326114657E+02 0.43554562819E+02 0.34539203786E+02 0.26047361357E+02
 0.18679581581E+02 0.12827308259E+02 0.86435404317E+01 0.60294470419E+01 0.46541819610E+01
 0.40222751229E+01 0.36453701014E+01 0.34018523270E+01 0.32844604683E+01 0.32844604979E+01
 0.34018524043E+01 0.36453702053E+01 0.40222752310E+01 0.46541820623E+01 0.60294471159E+01
 0.86435404245E+01 0.12827308053E+02 0.18679581003E+02 0.26047360235E+02 0.34539202026E+02
 0.43554560504E+02 0.52326112079E+02 0.59988883018E+02 0.65690770084E+02 0.68737815481E+02
 0.68737816097E+02 0.65690771783E+02 0.46667708510E+02 0.39713837403E+02 0.32203580250E+02
 0.24847331121E+02 0.18244739763E+02 0.12827308259E+02 0.88178219521E+01 0.62073168866E+01
 0.47617027718E+01 0.40710766123E+01 0.36723440344E+01 0.33990703573E+01 0.32432666316E+01
 0.31931137726E+01 0.32432669852E+01 0.33990707809E+01 0.36723441620E+01 0.40710762587E+01
 0.47617020856E+01 0.62073162676E+01 0.88178217797E+01 0.12827308586E+02 0.18244740172E+02
 0.24847330891E+02 0.32203578723E+02 0.39713834419E+02 0.46667704617E+02 0.52326112079E+02
 0.56030120289E+02 0.57319945184E+02 0.56030122528E+02 0.52326115762E+02 0.34547072667E+02
 0.28640282010E+02 0.22606435333E+02 0.17002020041E+02 0.12260718668E+02 0.86435404317E+01
 0.62073168866E+01 0.48005395043E+01 0.40973016376E+01 0.36896236040E+01 0.33993797439E+01
 0.32180333980E+01 0.31323038091E+01 0.31323041043E+01 0.32180340529E+01 0.33993802148E+01
 0.36896234222E+01 0.40973007516E+01 0.48005383792E+01 0.62073162485E+01 0.86435408175E+01
 0.12260720043E+02 0.17002021720E+02 0.22606436309E+02 0.28640281497E+02 0.34547070572E+02
 0.39713834419E+02 0.43554560504E+02 0.45604175395E+02 0.45604176394E+02 0.43554563042E+02
 0.39713837359E+02 0.24279384688E+02 0.19614058622E+02 0.15125454335E+02 0.11215323554E+02
 0.81513087605E+01 0.60294470419E+01 0.47617027718E+01 0.40973016376E+01 0.36955475294E+01
 0.34001737896E+01 0.32047003642E+01 0.30960429936E+01 0.30615047954E+01 0.30960435439E+01
 0.32047010675E+01 0.34001741123E+01 0.36955471669E+01 0.40973007508E+01 0.47617019461E+01
 0.60294469826E+01 0.81513098767E+01 0.11215325716E+02 0.15125456885E+02 0.19614060718E+02
 0.24279385737E+02 0.28640281497E+02 0.32203578723E+02 0.34539202026E+02 0.35352696561E+02
 0.34539202615E+02 0.32203579397E+02 0.28640281548E+02 0.16239260976E+02 0.12869600407E+02
 0.98495389893E+01 0.74262315421E+01 0.57095605364E+01 0.46541819610E+01 0.40710766123E+01
 0.36896236040E+01 0.34001737896E+01 0.32005688015E+01 0.30793201796E+01 0.30229503094E+01
 0.30229505360E+01 0.30793207290E+01 0.32005693708E+01 0.34001740724E+01 0.36896234886E+01
 0.40710762638E+01 0.46541817612E+01 0.57095609171E+01 0.74262327603E+01 0.98495410308E+01
 0.12869602982E+02 0.16239263640E+02 0.19614060718E+02 0.22606436309E+02 0.24847330891E+02
 0.26047360235E+02 0.26047359887E+02 0.24847329841E+02 0.22606434562E+02 0.19614058378E+02
 0.10523906848E+02 0.83612564802E+01 0.65888847057E+01 0.53096424313E+01 0.45015306893E+01
 0.40222751229E+01 0.36723440344E+01 0.33993797439E+01 0.32047003642E+01 0.30793201796E+01
 0.30108084206E+01 0.29892158478E+01 0.30108085850E+01 0.30793204858E+01 0.32047007557E+01
 0.33993801335E+01 0.36723443205E+01 0.40222752583E+01 0.45015307124E+01 0.53096425315E+01
 0.65888851472E+01 0.83612575231E+01 0.10523908614E+02 0.12869602982E+02 0.15125456885E+02
 0.17002021720E+02 0.18244740172E+02 0.18679581003E+02 0.18244738916E+02 0.17002019544E+02
 0.15125454336E+02 0.12869600625E+02 0.69482850426E+01 0.57674618240E+01 0.49002252705E+01
 0.43323582531E+01 0.39543795889E+01 0.36453701014E+01 0.33990703573E+01 0.32180333980E+01
 0.30960429936E+01 0.30229503094E+01 0.29892158478E+01 0.29892157668E+01 0.30229501477E+01
 0.30960429345E+01 0.32180335817E+01 0.33990707606E+01 0.36453705020E+01 0.39543797089E+01
 0.43323579119E+01 0.49002245644E+01 0.57674611206E+01 0.69482847967E+01 0.83612575231E+01
 0.98495410308E+01 0.11215325716E+02 0.12260720043E+02 0.12827308586E+02 0.12827308053E+02
 0.12260718666E+02 0.11215324057E+02 0.98495397284E+01 0.83612569823E+01 0.50664626847E+01
 0.45386055252E+01 0.41669376957E+01 0.38704037587E+01 0.36118820781E+01 0.34018523270E+01
 0.32432666316E+01 0.31323038091E+01 0.30615047954E+01 0.30229505360E+01 0.30108085850E+01
 0.30229501477E+01 0.30615042473E+01 0.31323034160E+01 0.32432665782E+01 0.34018525531E+01
 0.36118822737E+01 0.38704035624E+01 0.41669369018E+01 0.45386042122E+01 0.50664612399E+01
 0.57674611206E+01 0.65888851472E+01 0.74262327603E+01 0.81513098767E+01 0.86435408175E+01
 0.88178217797E+01 0.86435404245E+01 0.81513093917E+01 0.74262326076E+01 0.65888856269E+01
 0.57674622369E+01 0.42480093902E+01 0.40042760291E+01 0.37771272324E+01 0.35766450135E+01
 0.34115425573E+01 0.32844604683E+01 0.31931137726E+01 0.31323041043E+01 0.30960435439E+01
 0.30793207290E+01 0.30793204858E+01 0.30960429345E+01 0.31323034160E+01 0.31931133019E+01
 0.32844603442E+01 0.34115426781E+01 0.35766450944E+01 0.37771269608E+01 0.40042752644E+01
 0.42480081990E+01 0.45386042122E+01 0.49002245644E+01 0.53096425315E+01 0.57095609171E+01
 0.60294469826E+01 0.62073162485E+01 0.62073162676E+01 0.60294471159E+01 0.57095613247E+01
 0.53096433438E+01 0.49002257577E+01 0.45386055693E+01 0.38392553446E+01 0.36829942393E+01
 0.35454489086E+01 0.34326322399E+01 0.33462510487E+01 0.32844604979E+01 0.32432669852E+01
 0.32180340529E+01 0.32047010675E+01 0.32005693708E+01 0.32047007557E+01 0.32180335817E+01
 0.32432665782E+01 0.32844603442E+01 0.33462511968E+01 0.34326325867E+01 0.35454492562E+01
 0.36829943776E+01 0.38392551686E+01 0.40042752644E+01 0.41669369018E+01 0.43323579119E+01
 0.45015307124E+01 0.46541817612E+01 0.47617019461E+01 0.48005383792E+01 0.47617020856E+01
 0.46541820623E+01 0.45015311877E+01 0.43323585126E+01 0.41669375029E+01 0.40042757143E+01
 0.35963962125E+01 0.35239477134E+01 0.34692657327E+01 0.34326319631E+01 0.34115422892E+01
 0.34018524043E+01 0.33990707809E+01 0.33993802148E+01 0.34001741123E+01 0.34001740724E+01
 0.33993801335E+01 0.33990707606E+01 0.34018525531E+01 0.34115426781E+01 0.34326325867E+01
 0.34692665077E+01 0.35239485233E+01 0.35963969354E+01 0.36829943776E+01 0.37771269608E+01
 0.38704035624E+01 0.39543797089E+01 0.40222752583E+01 0.40710762638E+01 0.40973007508E+01
 0.40973007516E+01 0.40710762587E+01 0.40222752310E+01 0.39543796221E+01 0.38704033685E+01
 0.37771266102E+01 0.36829938301E+01 0.35162752981E+01 0.35239475310E+01 0.35454483896E+01
 0.35766444152E+01 0.36118817973E+01 0.36453702053E+01 0.36723441620E+01 0.36896234222E+01
 0.36955471669E+01 0.36896234886E+01 0.36723443205E+01 0.36453705020E+01 0.36118822737E+01
 0.35766450944E+01 0.35454492562E+01 0.35239485233E+01 0.35162763335E+01 0.35239485233E+01
 0.35454492562E+01 0.35766450944E+01 0.36118822737E+01 0.36453705020E+01 0.36723443205E+01
 0.36896234886E+01 0.36955471669E+01 0.36896234222E+01 0.36723441620E+01 0.36453702053E+01
 0.36118817973E+01 0.35766444152E+01 0.35454483896E+01 0.35239475310E+01 0.35963962125E+01
 0.36829938301E+01 0.37771266102E+01 0.38704033685E+01 0.39543796221E+01 0.40222752310E+01
 0.40710762587E+01 0.40973007516E+01 0.40973007508E+01 0.40710762638E+01 0.40222752583E+01
 0.39543797089E+01 0.38704035624E+01 0.37771269608E+01 0.36829943776E+01 0.35963969354E+01
 0.35239485233E+01 0.34692665077E+01 0.34326325867E+01 0.34115426781E+01 0.34018525531E+01
 0.33990707606E+01 0.33993801335E+01 0.34001740724E+01 0.34001741123E+01 0.33993802148E+01
 0.33990707809E+01 0.34018524043E+01 0.34115422892E+01 0.34326319631E+01 0.34692657327E+01
 0.35239477134E+01 0.38392553446E+01 0.40042757143E+01 0.41669375029E+01 0.43323585126E+01
 0.45015311877E+01 0.46541820623E+01 0.47617020856E+01 0.48005383792E+01 0.47617019461E+01
 0.46541817612E+01 0.45015307124E+01 0.43323579119E+01 0.41669369018E+01 0.40042752644E+01
 0.38392551686E+01 0.36829943776E+01 0.35454492562E+01 0.34326325867E+01 0.33462511968E+01
 0.32844603442E+01 0.32432665782E+01 0.32180335817E+01 0.32047007557E+01 0.32005693708E+01
 0.32047010675E+01 0.32180340529E+01 0.32432669852E+01 0.32844604979E+01 0.33462510487E+01
 0.34326322399E+01 0.35454489086E+01 0.36829942393E+01 0.42480093902E+01 0.45386055693E+01
 0.49002257577E+01 0.53096433438E+01 0.57095613247E+01 0.60294471159E+01 0.62073162676E+01
 0.62073162485E+01 0.60294469826E+01 0.57095609171E+01 0.53096425315E+01 0.49002245644E+01
 0.45386042122E+01 0.42480081990E+01 0.40042752644E+01 0.37771269608E+01 0.35766450944E+01
 0.34115426781E+01 0.32844603442E+01 0.31931133019E+01 0.31323034160E+01 0.30960429345E+01
 0.30793204858E+01 0.30793207290E+01 0.30960435439E+01 0.31323041043E+01 0.31931137726E+01
 0.32844604683E+01 0.34115425573E+01 0.35766450135E+01 0.37771272324E+01 0.40042760291E+01
 0.50664626847E+01 0.57674622369E+01 0.65888856269E+01 0.74262326076E+01 0.81513093917E+01
 0.86435404245E+01 0.88178217797E+01 0.86435408175E+01 0.81513098767E+01 0.74262327603E+01
 0.65888851472E+01 0.57674611206E+01 0.50664612399E+01 0.45386042122E+01 0.41669369018E+01
 0.38704035624E+01 0.36118822737E+01 0.34018525531E+01 0.32432665782E+01 0.31323034160E+01
 0.30615042473E+01 0.30229501477E+01 0.30108085850E+01 0.30229505360E+01 0.30615047954E+01
 0.31323038091E+01 0.32432666316E+01 0.34018523270E+01 0.36118820781E+01 0.38704037587E+01
 0.41669376957E+01 0.45386055252E+01 0.69482850426E+01 0.83612569823E+01 0.98495397284E+01
 0.11215324057E+02 0.12260718666E+02 0.12827308053E+02 0.12827308586E+02 0.12260720043E+02
 0.11215325716E+02 0.98495410308E+01 0.83612575231E+01 0.69482847967E+01 0.57674611206E+01
 0.49002245644E+01 0.43323579119E+01 0.39543797089E+01 0.36453705020E+01 0.33990707606E+01
 0.32180335817E+01 0.30960429345E+01 0.30229501477E+01 0.29892157668E+01 0.29892158478E+01
 0.30229503094E+01 0.30960429936E+01 0.32180333980E+01 0.33990703573E+01 0.36453701014E+01
 0.39543795889E+01 0.43323582531E+01 0.49002252705E+01 0.57674618240E+01 0.10523906848E+02
 0.12869600625E+02 0.15125454336E+02 0.17002019544E+02 0.18244738916E+02 0.18679581003E+02
 0.18244740172E+02 0.17002021720E+02 0.15125456885E+02 0.12869602982E+02 0.10523908614E+02
 0.83612575231E+01 0.65888851472E+01 0.53096425315E+01 0.45015307124E+01 0.40222752583E+01
 0.36723443205E+01 0.33993801335E+01 0.32047007557E+01 0.30793204858E+01 0.30108085850E+01
 0.29892158478E+01 0.30108084206E+01 0.30793201796E+01 0.32047003642E+01 0.33993797439E+01
 0.36723440344E+01 0.40222751229E+01 0.45015306893E+01 0.53096424313E+01 0.65888847057E+01
 0.83612564802E+01 0.16239260976E+02 0.19614058378E+02 0.22606434562E+02 0.24847329841E+02
 0.26047359887E+02 0.26047360235E+02 0.24847330891E+02 0.22606436309E+02 0.19614060718E+02
 0.16239263640E+02 0.12869602982E+02 0.98495410308E+01 0.74262327603E+01 0.57095609171E+01
 0.46541817612E+01 0.40710762638E+01 0.36896234886E+01 0.34001740724E+01 0.32005693708E+01
 0.30793207290E+01 0.30229505360E+01 0.30229503094E+01 0.30793201796E+01 0.32005688015E+01
 0.34001737896E+01 0.36896236040E+01 0.40710766123E+01 0.46541819610E+01 0.57095605364E+01
 0.74262315421E+01 0.98495389893E+01 0.12869600407E+02 0.24279384688E+02 0.28640281548E+02
 0.32203579397E+02 0.34539202615E+02 0.35352696561E+02 0.34539202026E+02 0.32203578723E+02
 0.28640281497E+02 0.24279385737E+02 0.19614060718E+02 0.15125456885E+02 0.11215325716E+02
 0.81513098767E+01 0.60294469826E+01 0.47617019461E+01 0.40973007508E+01 0.36955471669E+01
 0.34001741123E+01 0.32047010675E+01 0.30960435439E+01 0.30615047954E+01 0.30960429936E+01
 0.32047003642E+01 0.34001737896E+01 0.36955475294E+01 0.40973016376E+01 0.47617027718E+01
 0.60294470419E+01 0.81513087605E+01 0.11215323554E+02 0.15125454335E+02 0.19614058622E+02
 0.34547072667E+02 0.39713837359E+02 0.43554563042E+02 0.45604176394E+02 0.45604175395E+02
 0.43554560504E+02 0.39713834419E+02 0.34547070572E+02 0.28640281497E+02 0.22606436309E+02
 0.17002021720E+02 0.12260720043E+02 0.86435408175E+01 0.62073162485E+01 0.48005383792E+01
 0.40973007516E+01 0.36896234222E+01 0.33993802148E+01 0.32180340529E+01 0.31323041043E+01
 0.31323038091E+01 0.32180333980E+01 0.33993797439E+01 0.36896236040E+01 0.40973016376E+01
 0.48005395043E+01 0.62073168866E+01 0.86435404317E+01 0.12260718668E+02 0.17002020041E+02
 0.22606435333E+02 0.28640282010E+02 0.46667708510E+02 0.52326115762E+02 0.56030122528E+02
 0.57319945184E+02 0.56030120289E+02 0.52326112079E+02 0.46667704617E+02 0.39713834419E+02
 0.32203578723E+02 0.24847330891E+02 0.18244740172E+02 0.12827308586E+02 0.88178217797E+01
 0.62073162676E+01 0.47617020856E+01 0.40710762587E+01 0.36723441620E+01 0.33990707809E+01
 0.32432669852E+01 0.31931137726E+01 0.32432666316E+01 0.33990703573E+01 0.36723440344E+01
 0.40710766123E+01 0.47617027718E+01 0.62073168866E+01 0.88178219521E+01 0.12827308259E+02
 0.18244739763E+02 0.24847331121E+02 0.32203580250E+02 0.39713837403E+02 0.59988885406E+02
 0.65690771783E+02 0.68737816097E+02 0.68737815481E+02 0.65690770084E+02 0.59988883018E+02
 0.52326112079E+02 0.43554560504E+02 0.34539202026E+02 0.26047360235E+02 0.18679581003E+02
 0.12827308053E+02 0.86435404245E+01 0.60294471159E+01 0.46541820623E+01 0.40222752310E+01
 0.36453702053E+01 0.34018524043E+01 0.32844604979E+01 0.32844604683E+01 0.34018523270E+01
 0.36453701014E+01 0.40222751229E+01 0.46541819610E+01 0.60294470419E+01 0.86435404317E+01
 0.12827308259E+02 0.18679581581E+02 0.26047361357E+02 0.34539203786E+02 0.43554562819E+02
 0.52326114657E+02 0.73573920047E+02 0.78749546269E+02 0.80555066794E+02 0.78749547152E+02
 0.73573921326E+02 0.65690770084E+02 0.56030120289E+02 0.45604175395E+02 0.35352696561E+02
 0.26047359887E+02 0.18244738916E+02 0.12260718666E+02 0.81513093917E+01 0.57095613247E+01
 0.45015311877E+01 0.39543796221E+01 0.36118817973E+01 0.34115422892E+01 0.33462510487E+01
 0.34115425573E+01 0.36118820781E+01 0.39543795889E+01 0.45015306893E+01 0.57095605364E+01
 0.81513087605E+01 0.12260718668E+02 0.18244739763E+02 0.26047361357E+02 0.35352698076E+02
 0.45604176298E+02 0.56030120202E+02 0.65690769125E+02 0.86228618904E+02 0.90236771969E+02
 0.90236773474E+02 0.86228622824E+02 0.78749547152E+02 0.68737815481E+02 0.57319945184E+02
 0.45604176394E+02 0.34539202615E+02 0.24847329841E+02 0.17002019544E+02 0.11215324057E+02
 0.74262326076E+01 0.53096433438E+01 0.43323585126E+01 0.38704033685E+01 0.35766444152E+01
 0.34326319631E+01 0.34326322399E+01 0.35766450135E+01 0.38704037587E+01 0.43323582531E+01
 0.53096424313E+01 0.74262315421E+01 0.11215323554E+02 0.17002020041E+02 0.24847331121E+02
 0.34539203786E+02 0.45604176298E+02 0.57319943048E+02 0.68737811434E+02 0.78749542324E+02
 0.96613997283E+02 0.98842698718E+02 0.96614000814E+02 0.90236773474E+02 0.80555066794E+02
 0.68737816097E+02 0.56030122528E+02 0.43554563042E+02 0.32203579397E+02 0.22606434562E+02
 0.15125454336E+02 0.98495397284E+01 0.65888856269E+01 0.49002257577E+01 0.41669375029E+01
 0.37771266102E+01 0.35454483896E+01 0.34692657327E+01 0.35454489086E+01 0.37771272324E+01
 0.41669376957E+01 0.49002252705E+01 0.65888847057E+01 0.98495389893E+01 0.15125454335E+02
 0.22606435333E+02 0.32203580250E+02 0.43554562819E+02 0.56030120202E+02 0.68737811434E+02
 0.80555060677E+02 0.90236767676E+02 0.10346364882E+03 0.10346365008E+03 0.98842698718E+02
 0.90236771969E+02 0.78749546269E+02 0.65690771783E+02 0.52326115762E+02 0.39713837359E+02
 0.28640281548E+02 0.19614058378E+02 0.12869600625E+02 0.83612569823E+01 0.57674622369E+01
 0.45386055693E+01 0.40042757143E+01 0.36829938301E+01 0.35239475310E+01 0.35239477134E+01
 0.36829942393E+01 0.40042760291E+01 0.45386055252E+01 0.57674618240E+01 0.83612564802E+01
 0.12869600407E+02 0.19614058622E+02 0.28640282010E+02 0.39713837403E+02 0.52326114657E+02
 0.65690769125E+02 0.78749542324E+02 0.90236767676E+02 0.98842695381E+02 0.10346364882E+03
 0.98842695381E+02 0.90236767676E+02 0.78749542324E+02 0.65690769125E+02 0.52326114657E+02
 0.39713837403E+02 0.28640282010E+02 0.19614058622E+02 0.12869600407E+02 0.83612564802E+01
 0.57674618240E+01 0.45386055252E+01 0.40042760291E+01 0.36829942393E+01 0.35239477134E+01
 0.35239475310E+01 0.36829938301E+01 0.40042757143E+01 0.45386055693E+01 0.57674622369E+01
 0.83612569823E+01 0.12869600625E+02 0.19614058378E+02 0.28640281548E+02 0.39713837359E+02
 0.52326115762E+02 0.65690771783E+02 0.78749546269E+02 0.90236771969E+02 0.98842698718E+02
 0.10346365008E+03 0.98842695381E+02 0.92321352301E+02 0.82423092721E+02 0.70344608510E+02
 0.57358259668E+02 0.44608391409E+02 0.33002384849E+02 0.23179157839E+02 0.15507717748E+02
 0.10081854260E+02 0.67143584630E+01 0.49609486679E+01 0.41996166106E+01 0.38032431763E+01
 0.35675673383E+01 0.34899887199E+01 0.35675666926E+01 0.38032423717E+01 0.41996162739E+01
 0.49609491039E+01 0.67143594016E+01 0.10081855005E+02 0.15507717677E+02 0.23179156935E+02
 0.33002383934E+02 0.44608391830E+02 0.57358262608E+02 0.70344614208E+02 0.82423100103E+02
 0.92321359259E+02 0.98842699607E+02 0.10112205431E+03 0.90236767676E+02 0.82423092721E+02
 0.71967648498E+02 0.60047431197E+02 0.47815637105E+02 0.36254887489E+02 0.26110892989E+02
 0.17873581004E+02 0.11767366148E+02 0.77394777984E+01 0.54666953196E+01 0.44092470779E+01
 0.39249869392E+01 0.36214502481E+01 0.34721873894E+01 0.34721869259E+01 0.36214491999E+01
 0.39249860940E+01 0.44092471102E+01 0.54666962852E+01 0.77394790389E+01 0.11767366700E+02
 0.17873580296E+02 0.26110891378E+02 0.36254886280E+02 0.47815637936E+02 0.60047435112E+02
 0.71967655199E+02 0.82423100439E+02 0.90236773835E+02 0.94425534766E+02 0.94425532417E+02
 0.78749542324E+02 0.70344608510E+02 0.60047431197E+02 0.48932900599E+02 0.37993308747E+02
 0.28039878770E+02 0.19658452618E+02 0.13187496419E+02 0.86996371957E+01 0.59959962706E+01
 0.46387878489E+01 0.40382432775E+01 0.36794327067E+01 0.34683129087E+01 0.33993158242E+01
 0.34683120743E+01 0.36794316359E+01 0.40382427604E+01 0.46387883158E+01 0.59959974579E+01
 0.86996382659E+01 0.13187496479E+02 0.19658451351E+02 0.28039876756E+02 0.37993307271E+02
 0.48932900976E+02 0.60047433996E+02 0.70344613115E+02 0.78749547098E+02 0.84269802549E+02
 0.86196008887E+02 0.84269799525E+02 0.65690769125E+02 0.57358259668E+02 0.47815637105E+02
 0.37993308747E+02 0.28712926056E+02 0.20618249479E+02 0.14135492759E+02 0.94447966615E+01
 0.64641073486E+01 0.48646518175E+01 0.41360322857E+01 0.37346735355E+01 0.34741406990E+01
 0.33478968841E+01 0.33478965407E+01 0.34741398877E+01 0.37346727776E+01 0.41360320732E+01
 0.48646522936E+01 0.64641081878E+01 0.94447972419E+01 0.14135492514E+02 0.20618248247E+02
 0.28712924191E+02 0.37993306954E+02 0.47815636062E+02 0.57358259649E+02 0.65690769875E+02
 0.71891292591E+02 0.75205396817E+02 0.75205396437E+02 0.71891291711E+02 0.52326114657E+02
 0.44608391409E+02 0.36254887489E+02 0.28039878770E+02 0.20618249479E+02 0.14468482526E+02
 0.98518913724E+01 0.67863788182E+01 0.50479457020E+01 0.42164858753E+01 0.37810583295E+01
 0.34847235599E+01 0.33144672307E+01 0.32594565157E+01 0.33144669463E+01 0.34847230900E+01
 0.37810578408E+01 0.42164855442E+01 0.50479456480E+01 0.67863790356E+01 0.98518917053E+01
 0.14468482685E+02 0.20618249131E+02 0.28039877657E+02 0.36254885553E+02 0.44608388857E+02
 0.52326111951E+02 0.58599695761E+02 0.62704895623E+02 0.64134298642E+02 0.62704896926E+02
 0.58599698037E+02 0.39713837403E+02 0.33002384849E+02 0.26110892989E+02 0.19658452618E+02
 0.14135492759E+02 0.98518913724E+01 0.69012747663E+01 0.51509598735E+01 0.42713208622E+01
 0.38141160237E+01 0.34955648509E+01 0.32945587189E+01 0.31989896282E+01 0.31989896898E+01
 0.32945587921E+01 0.34955646953E+01 0.38141154908E+01 0.42713200739E+01 0.51509592298E+01
 0.69012747243E+01 0.98518921378E+01 0.14135494055E+02 0.19658453720E+02 0.26110893048E+02
 0.33002383331E+02 0.39713834452E+02 0.45566074853E+02 0.49908853732E+02 0.52224490742E+02
 0.52224491837E+02 0.49908856588E+02 0.45566078381E+02 0.28640282010E+02 0.23179157839E+02
 0.17873581004E+02 0.13187496419E+02 0.94447966615E+01 0.67863788182E+01 0.51509598735E+01
 0.42909434822E+01 0.38312113425E+01 0.35033471578E+01 0.32839405507E+01 0.31611172307E+01
 0.31219395369E+01 0.31611176180E+01 0.32839409506E+01 0.35033470977E+01 0.38312106296E+01
 0.42909424159E+01 0.51509591526E+01 0.67863791448E+01 0.94447982960E+01 0.13187498936E+02
 0.17873583424E+02 0.23179159118E+02 0.28640281587E+02 0.33711631245E+02 0.37838142651E+02
 0.40536407662E+02 0.41475184318E+02 0.40536409246E+02 0.37838144987E+02 0.33711633115E+02
 0.19614058622E+02 0.15507717748E+02 0.11767366148E+02 0.86996371957E+01 0.64641073486E+01
 0.50479457020E+01 0.42713208622E+01 0.38312113425E+01 0.35061465622E+01 0.32794578012E+01
 0.31407655461E+01 0.30760204907E+01 0.30760207729E+01 0.31407661803E+01 0.32794583022E+01
 0.35061464978E+01 0.38312106695E+01 0.42713200123E+01 0.50479453993E+01 0.64641082025E+01
 0.86996393382E+01 0.11767369125E+02 0.15507720699E+02 0.19614060725E+02 0.23679206040E+02
 0.27255002871E+02 0.29919074910E+02 0.31341664235E+02 0.31341664506E+02 0.29919075449E+02
 0.27255003022E+02 0.23679205171E+02 0.12869600407E+02 0.10081854260E+02 0.77394777984E+01
 0.59959962706E+01 0.48646518175E+01 0.42164858753E+01 0.38141160237E+01 0.35033471578E+01
 0.32794578012E+01 0.31344011750E+01 0.30548797391E+01 0.30297817464E+01 0.30548801635E+01
 0.31344017648E+01 0.32794582009E+01 0.35033471339E+01 0.38141156329E+01 0.42164854595E+01
 0.48646518462E+01 0.59959971110E+01 0.77394795058E+01 0.10081856578E+02 0.12869602866E+02
 0.15837107158E+02 0.18652538153E+02 0.20972907041E+02 0.22500658614E+02 0.23033758631E+02
 0.22500658217E+02 0.20972906134E+02 0.18652536615E+02 0.15837105021E+02 0.83612564802E+01
 0.67143584630E+01 0.54666953196E+01 0.46387878489E+01 0.41360322857E+01 0.37810583295E+01
 0.34955648509E+01 0.32839405507E+01 0.31407655461E+01 0.30548797391E+01 0.30152466305E+01
 0.30152467176E+01 0.30548799632E+01 0.31407657958E+01 0.32839407080E+01 0.34955648309E+01
 0.37810581396E+01 0.41360320263E+01 0.46387876783E+01 0.54666954227E+01 0.67143589522E+01
 0.83612573749E+01 0.10277986080E+02 0.12254124790E+02 0.14039804915E+02 0.15392528842E+02
 0.16121355492E+02 0.16121355194E+02 0.15392528011E+02 0.14039803718E+02 0.12254123463E+02
 0.10277984872E+02 0.57674618240E+01 0.49609486679E+01 0.44092470779E+01 0.40382432775E+01
 0.37346735355E+01 0.34847235599E+01 0.32945587189E+01 0.31611172307E+01 0.30760204907E+01
 0.30297817464E+01 0.30152467176E+01 0.30297815918E+01 0.30760202552E+01 0.31611170089E+01
 0.32945585561E+01 0.34847234160E+01 0.37346732879E+01 0.40382428241E+01 0.44092463724E+01
 0.49609478190E+01 0.57674610327E+01 0.68143604517E+01 0.80066544614E+01 0.91937669400E+01
 0.10204311981E+02 0.10882880419E+02 0.11121864007E+02 0.10882880181E+02 0.10204311660E+02
 0.91937667702E+01 0.80066546227E+01 0.68143609850E+01 0.45386055252E+01 0.41996166106E+01
 0.39249869392E+01 0.36794327067E+01 0.34741406990E+01 0.33144672307E+01 0.31989896282E+01
 0.31219395369E+01 0.30760207729E+01 0.30548801635E+01 0.30548799632E+01 0.30760202552E+01
 0.31219389046E+01 0.31989890897E+01 0.33144668741E+01 0.34741404569E+01 0.36794323714E+01
 0.39249863141E+01 0.41996155993E+01 0.45386041899E+01 0.50013019154E+01 0.55867793135E+01
 0.62373090796E+01 0.68587522881E+01 0.73473270862E+01 0.76161687768E+01 0.76161688488E+01
 0.73473273500E+01 0.68587528506E+01 0.62373100123E+01 0.55867805800E+01 0.50013033428E+01
 0.40042760291E+01 0.38032431763E+01 0.36214502481E+01 0.34683129087E+01 0.33478968841E+01
 0.32594565157E+01 0.31989896898E+01 0.31611176180E+01 0.31407661803E+01 0.31344017648E+01
 0.31407657958E+01 0.31611170089E+01 0.31989890897E+01 0.32594561137E+01 0.33478967200E+01
 0.34683128716E+01 0.36214501214E+01 0.38032427602E+01 0.40042752596E+01 0.42137160363E+01
 0.44512269199E+01 0.47304641845E+01 0.50276189497E+01 0.52955938901E+01 0.54826824241E+01
 0.55498525650E+01 0.54826826801E+01 0.52955944314E+01 0.50276197888E+01 0.47304652705E+01
 0.44512281005E+01 0.42137170976E+01 0.36829942393E+01 0.35675673383E+01 0.34721873894E+01
 0.33993158242E+01 0.33478965407E+01 0.33144669463E+01 0.32945587921E+01 0.32839409506E+01
 0.32794583022E+01 0.32794582009E+01 0.32839407080E+01 0.32945585561E+01 0.33144668741E+01
 0.33478967200E+01 0.33993162146E+01 0.34721878533E+01 0.35675677031E+01 0.36829943635E+01
 0.38121580169E+01 0.39456528064E+01 0.40728518775E+01 0.41913307509E+01 0.43013510963E+01
 0.43898229894E+01 0.44396955938E+01 0.44396956385E+01 0.43898231330E+01 0.43013513578E+01
 0.41913311201E+01 0.40728522837E+01 0.39456531423E+01 0.38121581635E+01 0.35239477134E+01
 0.34899887199E+01 0.34721869259E+01 0.34683120743E+01 0.34741398877E+01 0.34847230900E+01
 0.34955646953E+01 0.35033470977E+01 0.35061464978E+01 0.35033471339E+01 0.34955648309E+01
 0.34847234160E+01 0.34741404569E+01 0.34683128716E+01 0.34721878533E+01 0.34899896378E+01
 0.35239485035E+01 0.35733879273E+01 0.36345391660E+01 0.37012196050E+01 0.37661966326E+01
 0.38227586029E+01 0.38658880406E+01 0.38926215004E+01 0.39016468172E+01 0.38926214169E+01
 0.38658879002E+01 0.38227584357E+01 0.37661964409E+01 0.37012193505E+01 0.36345387707E+01
 0.35733873332E+01 0.35239475310E+01 0.35675666926E+01 0.36214491999E+01 0.36794316359E+01
 0.37346727776E+01 0.37810578408E+01 0.38141154908E+01 0.38312106296E+01 0.38312106695E+01
 0.38141156329E+01 0.37810581396E+01 0.37346732879E+01 0.36794323714E+01 0.36214501214E+01
 0.35675677031E+01 0.35239485035E+01 0.34947005649E+01 0.34810274592E+01 0.34811826160E+01
 0.34912044246E+01 0.35061422018E+01 0.35213178821E+01 0.35331863500E+01 0.35395951505E+01
 0.35395951228E+01 0.35331862696E+01 0.35213177447E+01 0.35061419905E+01 0.34912041061E+01
 0.34811821441E+01 0.34810268044E+01 0.34946997286E+01 0.36829938301E+01 0.38032423717E+01
 0.39249860940E+01 0.40382427604E+01 0.41360320732E+01 0.42164855442E+01 0.42713200739E+01
 0.42909424159E+01 0.42713200123E+01 0.42164854595E+01 0.41360320263E+01 0.40382428241E+01
 0.39249863141E+01 0.38032427602E+01 0.36829943635E+01 0.35733879273E+01 0.34810274592E+01
 0.34090474199E+01 0.33571785572E+01 0.33226326724E+01 0.33013897154E+01 0.32894246775E+01
 0.32835515362E+01 0.32818109040E+01 0.32835516874E+01 0.32894249095E+01 0.33013899177E+01
 0.33226327331E+01 0.33571784016E+01 0.34090470472E+01 0.34810269247E+01 0.35733873332E+01
 0.40042757143E+01 0.41996162739E+01 0.44092471102E+01 0.46387883158E+01 0.48646522936E+01
 0.50479456480E+01 0.51509592298E+01 0.51509591526E+01 0.50479453993E+01 0.48646518462E+01
 0.46387876783E+01 0.44092463724E+01 0.41996155993E+01 0.40042752596E+01 0.38121580169E+01
 0.36345391660E+01 0.34811826160E+01 0.33571785572E+01 0.32630873048E+01 0.31961216302E+01
 0.31517744067E+01 0.31253576467E+01 0.31131595906E+01 0.31131597859E+01 0.31253581430E+01
 0.31517749863E+01 0.31961220518E+01 0.32630874287E+01 0.33571784096E+01 0.34811823581E+01