   1   1   1   0
  0.1115727E+02  0.2508174E-09  0.2508174E-09  0.2508174E-09  0.5000000E-15
  1.000000000000000E-004
  CAR 
 Co-fcc                                  
     53.10635887     -1.20550813  301      9.94953933      1.00000000
     -1.206  0.0000E+00  0.0000E+00  0.0000E+00  0.0000E+00
     -1.024  0.0000E+00  0.0000E+00  0.0000E+00  0.0000E+00
     -0.843  0.0000E+00  0.0000E+00  0.0000E+00  0.0000E+00
     -0.662  0.0000E+00  0.0000E+00  0.0000E+00  0.0000E+00
     -0.481  0.0000E+00  0.0000E+00  0.0000E+00  0.0000E+00
     -0.300  0.0000E+00  0.0000E+00  0.0000E+00  0.0000E+00
     -0.119  0.0000E+00  0.0000E+00  0.0000E+00  0.0000E+00
      0.062  0.0000E+00  0.0000E+00  0.0000E+00  0.0000E+00
      0.243  0.0000E+00  0.0000E+00  0.0000E+00  0.0000E+00
      0.424  0.0000E+00  0.0000E+00  0.0000E+00  0.0000E+00
      0.605  0.0000E+00  0.0000E+00  0.0000E+00  0.0000E+00
      0.786  0.0000E+00  0.0000E+00  0.0000E+00  0.0000E+00
      0.967  0.0000E+00  0.0000E+00  0.0000E+00  0.0000E+00
      1.148  0.3981E-07  0.1208E-06  0.7207E-08  0.2187E-07
      1.329  0.2029E-03  0.2089E-03  0.3674E-04  0.3784E-04
      1.510  0.1283E-04  0.6758E-05  0.3906E-04  0.3906E-04
      1.691  0.4545E-03  0.5040E-03  0.1213E-03  0.1303E-03
      1.872  0.1928E-03  0.1433E-03  0.1563E-03  0.1563E-03
      2.053  0.2886E-03  0.3163E-03  0.2085E-03  0.2135E-03
      2.234  0.3587E-03  0.3310E-03  0.2734E-03  0.2734E-03
      2.415  0.2837E-03  0.2523E-03  0.3248E-03  0.3191E-03
      2.596  0.5794E-03  0.6108E-03  0.4297E-03  0.4297E-03
      2.777  0.4447E-03  0.2853E-03  0.5102E-03  0.4813E-03
      2.958  0.8499E-03  0.1009E-02  0.6641E-03  0.6641E-03
      3.139  0.4818E-03  0.2404E-03  0.7513E-03  0.7076E-03
      3.320  0.1656E-03  0.4069E-03  0.7813E-03  0.7812E-03
      3.502  0.1149E-02  0.5821E-03  0.9893E-03  0.8866E-03
      3.683  0.2895E-03  0.7126E-03  0.1042E-02  0.1016E-02
      3.864  0.1794E-02  0.1592E-02  0.1366E-02  0.1304E-02
      4.045  0.4943E-03  0.3529E-03  0.1456E-02  0.1368E-02
      4.226  0.3722E-03  0.6404E-03  0.1523E-02  0.1484E-02
      4.407  0.1514E-02  0.2563E-03  0.1797E-02  0.1530E-02
      4.588  0.1799E-02  0.1263E-02  0.2123E-02  0.1759E-02
      4.769  0.1815E-02  0.1919E-02  0.2452E-02  0.2106E-02
      4.950  0.3347E-02  0.2466E-03  0.3058E-02  0.2151E-02
      5.131  0.5473E-02  0.1701E-02  0.4049E-02  0.2459E-02
      5.312  0.6484E-02  0.1126E-02  0.5222E-02  0.2663E-02
      5.493  0.5701E-02  0.1397E-02  0.6255E-02  0.2916E-02
      5.674  0.1022E-01  0.3311E-02  0.8105E-02  0.3515E-02
      5.855  0.8166E-02  0.1398E-02  0.9584E-02  0.3768E-02
      6.036  0.1107E-01  0.3834E-02  0.1159E-01  0.4462E-02
      6.217  0.7415E-02  0.4570E-02  0.1293E-01  0.5289E-02
      6.398  0.9609E-02  0.4747E-02  0.1467E-01  0.6149E-02
      6.579  0.7559E-02  0.3856E-02  0.1604E-01  0.6847E-02
      6.760  0.9395E-02  0.5111E-02  0.1774E-01  0.7772E-02
      6.941  0.1076E-01  0.7700E-02  0.1969E-01  0.9166E-02
      7.122  0.1268E-01  0.6588E-02  0.2198E-01  0.1036E-01
      7.303  0.1405E-01  0.9924E-02  0.2453E-01  0.1216E-01
      7.484  0.1714E-01  0.5569E-02  0.2763E-01  0.1316E-01
      7.665  0.1525E-01  0.8246E-02  0.3039E-01  0.1466E-01
      7.846  0.9655E-02  0.6400E-02  0.3214E-01  0.1582E-01
      8.028  0.1178E-01  0.8011E-02  0.3427E-01  0.1727E-01
      8.209  0.1333E-01  0.1037E-01  0.3669E-01  0.1914E-01
      8.390  0.1400E-01  0.9908E-02  0.3922E-01  0.2094E-01
      8.571  0.1187E-01  0.1013E-01  0.4137E-01  0.2277E-01
      8.752  0.1006E-01  0.1051E-01  0.4319E-01  0.2467E-01
      8.933  0.1370E-01  0.1180E-01  0.4567E-01  0.2681E-01
      9.114  0.1298E-01  0.1295E-01  0.4802E-01  0.2915E-01
      9.295  0.1811E-01  0.1093E-01  0.5130E-01  0.3113E-01
      9.476  0.7677E-02  0.8470E-02  0.5269E-01  0.3267E-01
      9.657  0.9056E-03  0.8486E-02  0.5285E-01  0.3420E-01
      9.838  0.2151E-03  0.6977E-02  0.5289E-01  0.3546E-01
     10.019  0.1702E-02  0.1235E-01  0.5320E-01  0.3770E-01
     10.200  0.2572E-02  0.9913E-02  0.5366E-01  0.3950E-01
     10.381  0.1729E-02  0.1263E-01  0.5398E-01  0.4178E-01
     10.562  0.2629E-03  0.7509E-02  0.5402E-01  0.4314E-01
     10.743  0.1827E-02  0.1307E-01  0.5436E-01  0.4551E-01
     10.924  0.1918E-02  0.1268E-01  0.5470E-01  0.4780E-01
     11.105  0.1427E-02  0.2116E-01  0.5496E-01  0.5164E-01
     11.286  0.9869E-03  0.6713E-02  0.5514E-01  0.5285E-01
     11.467  0.1459E-02  0.8186E-03  0.5540E-01  0.5300E-01
     11.648  0.7906E-03  0.4618E-02  0.5555E-01  0.5383E-01
     11.829  0.7155E-03  0.2026E-02  0.5568E-01  0.5420E-01
     12.010  0.1746E-02  0.1597E-02  0.5599E-01  0.5449E-01
     12.191  0.1670E-02  0.6073E-03  0.5629E-01  0.5460E-01
     12.372  0.1426E-02  0.1767E-02  0.5655E-01  0.5492E-01
     12.553  0.2842E-02  0.2192E-02  0.5707E-01  0.5532E-01
     12.735  0.1603E-04  0.2202E-02  0.5707E-01  0.5572E-01
     12.916  0.5270E-05  0.1651E-02  0.5707E-01  0.5601E-01
     13.097  0.1281E-02  0.1785E-02  0.5730E-01  0.5634E-01
     13.278  0.1159E-04  0.6346E-03  0.5731E-01  0.5645E-01
     13.459  0.3356E-02  0.2873E-02  0.5791E-01  0.5697E-01
     13.640  0.6319E-03  0.5374E-03  0.5803E-01  0.5707E-01
     13.821  0.1667E-02  0.8577E-04  0.5833E-01  0.5709E-01
     14.002  0.1674E-03  0.2450E-02  0.5836E-01  0.5753E-01
     14.183  0.1290E-03  0.7975E-03  0.5838E-01  0.5767E-01
     14.364  0.2992E-02  0.1845E-02  0.5892E-01  0.5801E-01
     14.545  0.1152E-03  0.6269E-03  0.5895E-01  0.5812E-01
     14.726  0.3094E-05  0.1366E-02  0.5895E-01  0.5837E-01
     14.907  0.1278E-02  0.5962E-03  0.5918E-01  0.5848E-01
     15.088  0.1392E-04  0.1911E-02  0.5918E-01  0.5882E-01
     15.269  0.5256E-03  0.6784E-03  0.5927E-01  0.5895E-01
     15.450  0.1336E-02  0.1243E-02  0.5952E-01  0.5917E-01
     15.631  0.5864E-03  0.5069E-04  0.5962E-01  0.5918E-01
     15.812  0.7890E-03  0.1625E-05  0.5977E-01  0.5918E-01
     15.993  0.3103E-03  0.1346E-02  0.5982E-01  0.5942E-01
     16.174  0.1359E-02  0.5948E-03  0.6007E-01  0.5953E-01
     16.355  0.1352E-02  0.1212E-02  0.6031E-01  0.5975E-01
     16.536  0.2227E-02  0.8209E-04  0.6072E-01  0.5977E-01
     16.717  0.6820E-03  0.1040E-11  0.6084E-01  0.5977E-01
     16.898  0.2360E-02  0.2793E-03  0.6127E-01  0.5982E-01
     17.079  0.1166E-02  0.3228E-02  0.6148E-01  0.6040E-01
     17.261  0.1424E-02  0.1475E-02  0.6174E-01  0.6067E-01
     17.442  0.1030E-02  0.1675E-02  0.6192E-01  0.6097E-01
     17.623  0.2525E-02  0.1259E-02  0.6238E-01  0.6120E-01
     17.804  0.2063E-04  0.2630E-02  0.6238E-01  0.6167E-01
     17.985  0.2244E-03  0.4564E-03  0.6242E-01  0.6176E-01
     18.166  0.3350E-02  0.2532E-02  0.6303E-01  0.6222E-01
     18.347  0.1213E-02  0.9212E-03  0.6325E-01  0.6238E-01
     18.528  0.4015E-03  0.3347E-04  0.6332E-01  0.6239E-01
     18.709  0.2514E-02  0.3109E-02  0.6378E-01  0.6295E-01
     18.890  0.6577E-04  0.1310E-02  0.6379E-01  0.6319E-01
     19.071  0.7085E-03  0.6864E-03  0.6392E-01  0.6331E-01
     19.252  0.8895E-03  0.2000E-02  0.6408E-01  0.6368E-01
     19.433  0.9913E-03  0.6292E-03  0.6426E-01  0.6379E-01
     19.614  0.1551E-02  0.5863E-03  0.6454E-01  0.6390E-01
     19.795  0.3330E-02  0.1211E-02  0.6514E-01  0.6411E-01
     19.976  0.3735E-03  0.7927E-03  0.6521E-01  0.6426E-01
     20.157  0.1220E-02  0.1917E-02  0.6543E-01  0.6461E-01
     20.338  0.1987E-02  0.9596E-03  0.6579E-01  0.6478E-01
     20.519  0.3683E-02  0.2414E-02  0.6646E-01  0.6522E-01
     20.700  0.1455E-02  0.1187E-02  0.6672E-01  0.6543E-01
     20.881  0.1388E-02  0.2664E-02  0.6697E-01  0.6591E-01
     21.062  0.1733E-02  0.2082E-02  0.6728E-01  0.6629E-01
     21.243  0.8256E-03  0.2426E-02  0.6743E-01  0.6673E-01
     21.424  0.1286E-02  0.1519E-02  0.6767E-01  0.6700E-01
     21.605  0.2816E-03  0.1739E-02  0.6772E-01  0.6732E-01
     21.787  0.2442E-02  0.1689E-02  0.6816E-01  0.6762E-01
     21.968  0.4594E-02  0.3129E-03  0.6899E-01  0.6768E-01
     22.149  0.1262E-02  0.1234E-02  0.6922E-01  0.6790E-01
     22.330  0.1250E-02  0.2940E-02  0.6945E-01  0.6844E-01
     22.511  0.1844E-02  0.4263E-02  0.6978E-01  0.6921E-01
     22.692  0.3609E-02  0.5999E-03  0.7043E-01  0.6932E-01
     22.873  0.1070E-02  0.7660E-03  0.7063E-01  0.6946E-01
     23.054  0.2202E-02  0.5105E-02  0.7103E-01  0.7038E-01
     23.235  0.1444E-02  0.1349E-02  0.7129E-01  0.7062E-01
     23.416  0.3709E-03  0.1895E-02  0.7135E-01  0.7097E-01
     23.597  0.1626E-02  0.1793E-02  0.7165E-01  0.7129E-01
     23.778  0.5646E-02  0.2016E-03  0.7267E-01  0.7133E-01
     23.959  0.4989E-03  0.2196E-02  0.7276E-01  0.7173E-01
     24.140  0.2380E-02  0.4812E-02  0.7319E-01  0.7260E-01
     24.321  0.1728E-02  0.7699E-03  0.7351E-01  0.7274E-01
     24.502  0.2560E-02  0.3268E-02  0.7397E-01  0.7333E-01
     24.683  0.1259E-02  0.1295E-02  0.7420E-01  0.7356E-01
     24.864  0.2525E-02  0.2234E-02  0.7465E-01  0.7397E-01
     25.045  0.4992E-03  0.2076E-02  0.7474E-01  0.7434E-01
     25.226  0.3235E-02  0.2113E-02  0.7533E-01  0.7473E-01
     25.407  0.2208E-02  0.2742E-03  0.7573E-01  0.7478E-01
     25.588  0.3251E-02  0.3676E-02  0.7632E-01  0.7544E-01
     25.769  0.1243E-02  0.2682E-02  0.7654E-01  0.7593E-01
     25.950  0.1491E-02  0.2248E-02  0.7681E-01  0.7633E-01
     26.131  0.4966E-02  0.2041E-02  0.7771E-01  0.7670E-01
     26.313  0.1577E-02  0.2462E-02  0.7800E-01  0.7715E-01
     26.494  0.1090E-03  0.3210E-02  0.7802E-01  0.7773E-01
     26.675  0.3750E-02  0.1536E-02  0.7870E-01  0.7801E-01
     26.856  0.1495E-02  0.2372E-02  0.7897E-01  0.7844E-01
     27.037  0.2452E-02  0.2643E-02  0.7941E-01  0.7892E-01
     27.218  0.1199E-03  0.1161E-02  0.7943E-01  0.7913E-01
     27.399  0.3244E-02  0.1591E-02  0.8002E-01  0.7941E-01
     27.580  0.8047E-03  0.9149E-03  0.8017E-01  0.7958E-01
     27.761  0.1888E-02  0.3184E-02  0.8051E-01  0.8016E-01
     27.942  0.1414E-02  0.1326E-02  0.8076E-01  0.8040E-01
     28.123  0.1999E-02  0.1074E-02  0.8113E-01  0.8059E-01
     28.304  0.2569E-02  0.2706E-02  0.8159E-01  0.8108E-01
     28.485  0.2462E-02  0.1753E-02  0.8204E-01  0.8140E-01
     28.666  0.1774E-02  0.3408E-02  0.8236E-01  0.8201E-01
     28.847  0.7447E-03  0.1311E-02  0.8249E-01  0.8225E-01
     29.028  0.1189E-02  0.1360E-02  0.8271E-01  0.8250E-01
     29.209  0.1956E-02  0.1896E-03  0.8306E-01  0.8253E-01
     29.390  0.1122E-02  0.1412E-02  0.8326E-01  0.8279E-01
     29.571  0.2801E-02  0.3167E-02  0.8377E-01  0.8336E-01
     29.752  0.2136E-02  0.2348E-02  0.8416E-01  0.8379E-01
     29.933  0.1688E-02  0.1996E-02  0.8446E-01  0.8415E-01
     30.114  0.8171E-03  0.8951E-03  0.8461E-01  0.8431E-01
     30.295  0.2187E-02  0.1005E-02  0.8501E-01  0.8449E-01
     30.476  0.8409E-03  0.2227E-02  0.8516E-01  0.8490E-01
     30.657  0.2146E-02  0.2335E-02  0.8555E-01  0.8532E-01
     30.838  0.1956E-02  0.1805E-02  0.8590E-01  0.8564E-01
     31.020  0.2168E-02  0.2055E-02  0.8630E-01  0.8602E-01
     31.201  0.3574E-02  0.1760E-02  0.8694E-01  0.8634E-01
     31.382  0.1400E-02  0.3938E-02  0.8720E-01  0.8705E-01
     31.563  0.3386E-02  0.1005E-02  0.8781E-01  0.8723E-01
     31.744  0.1942E-02  0.2941E-02  0.8816E-01  0.8776E-01
     31.925  0.1797E-02  0.1504E-02  0.8849E-01  0.8804E-01
     32.106  0.6216E-03  0.2101E-02  0.8860E-01  0.8842E-01
     32.287  0.2444E-02  0.2125E-02  0.8904E-01  0.8880E-01
     32.468  0.5751E-02  0.3761E-02  0.9008E-01  0.8948E-01
     32.649  0.2419E-02  0.3975E-02  0.9052E-01  0.9020E-01
     32.830  0.2294E-02  0.1449E-02  0.9094E-01  0.9046E-01
     33.011  0.1493E-02  0.2927E-02  0.9121E-01  0.9099E-01
     33.192  0.3068E-02  0.1350E-02  0.9176E-01  0.9124E-01
     33.373  0.2996E-02  0.3326E-02  0.9230E-01  0.9184E-01
     33.554  0.7818E-03  0.2701E-02  0.9244E-01  0.9233E-01
     33.735  0.4557E-02  0.3202E-02  0.9327E-01  0.9291E-01
     33.916  0.2162E-02  0.2323E-02  0.9366E-01  0.9333E-01
     34.097  0.2634E-02  0.2128E-02  0.9414E-01  0.9371E-01
     34.278  0.1035E-02  0.1551E-02  0.9433E-01  0.9399E-01
     34.459  0.3180E-02  0.1995E-02  0.9490E-01  0.9436E-01
     34.640  0.3964E-02  0.2877E-02  0.9562E-01  0.9488E-01
     34.821  0.3519E-02  0.4194E-02  0.9626E-01  0.9564E-01
     35.002  0.8676E-03  0.2728E-02  0.9641E-01  0.9613E-01
     35.183  0.2021E-02  0.1349E-02  0.9678E-01  0.9637E-01
     35.364  0.2652E-02  0.3111E-02  0.9726E-01  0.9694E-01
     35.546  0.4445E-02  0.1971E-02  0.9806E-01  0.9729E-01
     35.727  0.1259E-02  0.3897E-02  0.9829E-01  0.9800E-01
     35.908  0.1799E-02  0.2761E-02  0.9862E-01  0.9850E-01
     36.089  0.1624E-02  0.7366E-03  0.9891E-01  0.9863E-01
     36.270  0.1052E-02  0.4172E-03  0.9910E-01  0.9871E-01
     36.451  0.8543E-03  0.1712E-02  0.9926E-01  0.9902E-01
     36.632  0.3041E-02  0.2375E-02  0.9981E-01  0.9945E-01
     36.813  0.2358E-02  0.2433E-02  0.1002E+00  0.9989E-01
     36.994  0.3141E-05  0.1759E-02  0.1002E+00  0.1002E+00
     37.175  0.1173E-02  0.1505E-03  0.1004E+00  0.1002E+00
     37.356  0.5719E-03  0.3867E-05  0.1006E+00  0.1002E+00
     37.537  0.3594E-02  0.1055E-02  0.1012E+00  0.1004E+00
     37.718  0.2166E-02  0.2971E-02  0.1016E+00  0.1010E+00
     37.899  0.6293E-03  0.4061E-02  0.1017E+00  0.1017E+00
     38.080  0.1330E-02  0.1889E-03  0.1019E+00  0.1017E+00
     38.261  0.7295E-03  0.1214E-02  0.1021E+00  0.1020E+00
     38.442  0.2579E-02  0.6456E-03  0.1025E+00  0.1021E+00
     38.623  0.3079E-02  0.2830E-02  0.1031E+00  0.1026E+00
     38.804  0.1159E-02  0.1853E-02  0.1033E+00  0.1029E+00
     38.985  0.6929E-02  0.1760E-02  0.1046E+00  0.1032E+00
     39.166  0.3913E-02  0.3250E-02  0.1053E+00  0.1038E+00
     39.347  0.3613E-02  0.8370E-02  0.1059E+00  0.1053E+00
     39.528  0.1714E-02  0.4244E-02  0.1062E+00  0.1061E+00
     39.709  0.2084E-02  0.1679E-02  0.1066E+00  0.1064E+00
     39.890  0.4865E-02  0.2304E-02  0.1075E+00  0.1068E+00
     40.072  0.8352E-03  0.9136E-03  0.1077E+00  0.1070E+00
     40.253  0.6311E-03  0.2955E-02  0.1078E+00  0.1075E+00
     40.434  0.2586E-02  0.1370E-02  0.1082E+00  0.1078E+00
     40.615  0.2776E-02  0.2756E-02  0.1087E+00  0.1083E+00
     40.796  0.2864E-02  0.3763E-02  0.1093E+00  0.1090E+00
     40.977  0.2233E-02  0.2478E-02  0.1097E+00  0.1094E+00
     41.158  0.7059E-03  0.1927E-02  0.1098E+00  0.1098E+00
     41.339  0.2771E-02  0.7425E-04  0.1103E+00  0.1098E+00
     41.520  0.4986E-02  0.3250E-02  0.1112E+00  0.1104E+00
     41.701  0.1918E-02  0.2845E-02  0.1115E+00  0.1109E+00
     41.882  0.1337E-02  0.4384E-02  0.1118E+00  0.1117E+00
     42.063  0.9551E-04  0.7222E-03  0.1118E+00  0.1118E+00
     42.244  0.2232E-02  0.1692E-03  0.1122E+00  0.1118E+00
     42.425  0.1652E-02  0.2398E-02  0.1125E+00  0.1123E+00
     42.606  0.2519E-02  0.2191E-02  0.1130E+00  0.1127E+00
     42.787  0.2736E-02  0.2839E-02  0.1135E+00  0.1132E+00
     42.968  0.3374E-02  0.2174E-02  0.1141E+00  0.1136E+00
     43.149  0.4324E-03  0.1391E-02  0.1141E+00  0.1138E+00
     43.330  0.1245E-02  0.2126E-02  0.1144E+00  0.1142E+00
     43.511  0.2080E-02  0.1010E-02  0.1147E+00  0.1144E+00
     43.692  0.1205E-02  0.5975E-03  0.1150E+00  0.1145E+00
     43.873  0.1965E-06  0.1281E-02  0.1150E+00  0.1147E+00
     44.054  0.1174E-02  0.1752E-02  0.1152E+00  0.1150E+00
     44.235  0.3743E-02  0.1617E-02  0.1159E+00  0.1153E+00
     44.416  0.1509E-02  0.1809E-02  0.1161E+00  0.1157E+00
     44.597  0.2632E-02  0.1411E-02  0.1166E+00  0.1159E+00
     44.779  0.1266E-02  0.2577E-02  0.1168E+00  0.1164E+00
     44.960  0.3343E-04  0.1352E-02  0.1168E+00  0.1166E+00
     45.141  0.7927E-05  0.1197E-02  0.1168E+00  0.1168E+00
     45.322  0.2517E-02  0.1261E-02  0.1173E+00  0.1171E+00
     45.503  0.2361E-02  0.1757E-02  0.1177E+00  0.1174E+00
     45.684  0.9460E-03  0.1430E-02  0.1179E+00  0.1177E+00
     45.865  0.1476E-02  0.3966E-03  0.1182E+00  0.1177E+00
     46.046  0.6982E-03  0.1574E-02  0.1183E+00  0.1180E+00
     46.227  0.1566E-02  0.1288E-02  0.1186E+00  0.1182E+00
     46.408  0.1414E-02  0.1014E-02  0.1188E+00  0.1184E+00
     46.589  0.1727E-04  0.9306E-03  0.1188E+00  0.1186E+00
     46.770  0.5135E-03  0.4136E-09  0.1189E+00  0.1186E+00
     46.951  0.4238E-02  0.6608E-04  0.1197E+00  0.1186E+00
     47.132  0.1721E-02  0.1228E-02  0.1200E+00  0.1188E+00
     47.313  0.5623E-06  0.3177E-06  0.1200E+00  0.1188E+00
     47.494  0.0000E+00  0.0000E+00  0.1200E+00  0.1188E+00
     47.675  0.0000E+00  0.2407E-10  0.1200E+00  0.1188E+00
     47.856  0.0000E+00  0.2848E-03  0.1200E+00  0.1189E+00
     48.037  0.0000E+00  0.1234E-02  0.1200E+00  0.1191E+00
     48.218  0.0000E+00  0.1071E-02  0.1200E+00  0.1193E+00
     48.399  0.0000E+00  0.1897E-07  0.1200E+00  0.1193E+00
     48.580  0.0000E+00  0.0000E+00  0.1200E+00  0.1193E+00
     48.761  0.0000E+00  0.3075E-14  0.1200E+00  0.1193E+00
     48.942  0.0000E+00  0.2926E-04  0.1200E+00  0.1193E+00
     49.123  0.0000E+00  0.6179E-03  0.1200E+00  0.1194E+00
     49.305  0.0000E+00  0.8955E-03  0.1200E+00  0.1196E+00
     49.486  0.0000E+00  0.3993E-03  0.1200E+00  0.1196E+00
     49.667  0.0000E+00  0.1230E-10  0.1200E+00  0.1196E+00
     49.848  0.0000E+00  0.0000E+00  0.1200E+00  0.1196E+00
     50.029  0.0000E+00  0.8895E-12  0.1200E+00  0.1196E+00
     50.210  0.0000E+00  0.1324E-03  0.1200E+00  0.1197E+00
     50.391  0.0000E+00  0.5149E-03  0.1200E+00  0.1198E+00
     50.572  0.0000E+00  0.5220E-03  0.1200E+00  0.1199E+00
     50.753  0.0000E+00  0.7723E-03  0.1200E+00  0.1200E+00
     50.934  0.0000E+00  0.3624E-06  0.1200E+00  0.1200E+00
     51.115  0.0000E+00  0.0000E+00  0.1200E+00  0.1200E+00
     51.296  0.0000E+00  0.0000E+00  0.1200E+00  0.1200E+00
     51.477  0.0000E+00  0.0000E+00  0.1200E+00  0.1200E+00
     51.658  0.0000E+00  0.0000E+00  0.1200E+00  0.1200E+00
     51.839  0.0000E+00  0.0000E+00  0.1200E+00  0.1200E+00
     52.020  0.0000E+00  0.0000E+00  0.1200E+00  0.1200E+00
     52.201  0.0000E+00  0.0000E+00  0.1200E+00  0.1200E+00
     52.382  0.0000E+00  0.0000E+00  0.1200E+00  0.1200E+00
     52.563  0.0000E+00  0.0000E+00  0.1200E+00  0.1200E+00
     52.744  0.0000E+00  0.0000E+00  0.1200E+00  0.1200E+00
     52.925  0.0000E+00  0.0000E+00  0.1200E+00  0.1200E+00
     53.106  0.0000E+00  0.0000E+00  0.1200E+00  0.1200E+00
     53.10635887     -1.20550813  301      9.94953933      1.00000000
     -1.206  0.0000E+00  0.0000E+00  0.0000E+00  0.0000E+00  0.0000E+00  0.0000E+00  0.0000E+00  0.0000E+00  0.0000E+00  0.0000E+00  0.0000E+00  0.0000E+00  0.0000E+00  0.0000E+00  0.0000E+00  0.0000E+00  0.0000E+00  0.0000E+00
     -1.024  0.0000E+00  0.0000E+00  0.0000E+00  0.0000E+00  0.0000E+00  0.0000E+00  0.0000E+00  0.0000E+00  0.0000E+00  0.0000E+00  0.0000E+00  0.0000E+00  0.0000E+00  0.0000E+00  0.0000E+00  0.0000E+00  0.0000E+00  0.0000E+00
     -0.843  0.0000E+00  0.0000E+00  0.0000E+00  0.0000E+00  0.0000E+00  0.0000E+00  0.0000E+00  0.0000E+00  0.0000E+00  0.0000E+00  0.0000E+00  0.0000E+00  0.0000E+00  0.0000E+00  0.0000E+00  0.0000E+00  0.0000E+00  0.0000E+00
     -0.662  0.0000E+00  0.0000E+00  0.0000E+00  0.0000E+00  0.0000E+00  0.0000E+00  0.0000E+00  0.0000E+00  0.0000E+00  0.0000E+00  0.0000E+00  0.0000E+00  0.0000E+00  0.0000E+00  0.0000E+00  0.0000E+00  0.0000E+00  0.0000E+00
     -0.481  0.0000E+00  0.0000E+00  0.0000E+00  0.0000E+00  0.0000E+00  0.0000E+00  0.0000E+00  0.0000E+00  0.0000E+00  0.0000E+00  0.0000E+00  0.0000E+00  0.0000E+00  0.0000E+00  0.0000E+00  0.0000E+00  0.0000E+00  0.0000E+00
     -0.300  0.0000E+00  0.0000E+00  0.0000E+00  0.0000E+00  0.0000E+00  0.0000E+00  0.0000E+00  0.0000E+00  0.0000E+00  0.0000E+00  0.0000E+00  0.0000E+00  0.0000E+00  0.0000E+00  0.0000E+00  0.0000E+00  0.0000E+00  0.0000E+00
     -0.119  0.0000E+00  0.0000E+00  0.0000E+00  0.0000E+00  0.0000E+00  0.0000E+00  0.0000E+00  0.0000E+00  0.0000E+00  0.0000E+00  0.0000E+00  0.0000E+00  0.0000E+00  0.0000E+00  0.0000E+00  0.0000E+00  0.0000E+00  0.0000E+00
      0.062  0.0000E+00  0.0000E+00  0.0000E+00  0.0000E+00  0.0000E+00  0.0000E+00  0.0000E+00  0.0000E+00  0.0000E+00  0.0000E+00  0.0000E+00  0.0000E+00  0.0000E+00  0.0000E+00  0.0000E+00  0.0000E+00  0.0000E+00  0.0000E+00
      0.243  0.0000E+00  0.0000E+00  0.0000E+00  0.0000E+00  0.0000E+00  0.0000E+00  0.0000E+00  0.0000E+00  0.0000E+00  0.0000E+00  0.0000E+00  0.0000E+00  0.0000E+00  0.0000E+00  0.0000E+00  0.0000E+00  0.0000E+00  0.0000E+00
      0.424  0.0000E+00  0.0000E+00  0.0000E+00  0.0000E+00  0.0000E+00  0.0000E+00  0.0000E+00  0.0000E+00  0.0000E+00  0.0000E+00  0.0000E+00  0.0000E+00  0.0000E+00  0.0000E+00  0.0000E+00  0.0000E+00  0.0000E+00  0.0000E+00
      0.605  0.0000E+00  0.0000E+00  0.0000E+00  0.0000E+00  0.0000E+00  0.0000E+00  0.0000E+00  0.0000E+00  0.0000E+00  0.0000E+00  0.0000E+00  0.0000E+00  0.0000E+00  0.0000E+00  0.0000E+00  0.0000E+00  0.0000E+00  0.0000E+00
      0.786  0.0000E+00  0.0000E+00  0.0000E+00  0.0000E+00  0.0000E+00  0.0000E+00  0.0000E+00  0.0000E+00  0.0000E+00  0.0000E+00  0.0000E+00  0.0000E+00  0.0000E+00  0.0000E+00  0.0000E+00  0.0000E+00  0.0000E+00  0.0000E+00
      0.967  0.0000E+00  0.0000E+00  0.0000E+00  0.0000E+00  0.0000E+00  0.0000E+00  0.0000E+00  0.0000E+00  0.0000E+00  0.0000E+00  0.0000E+00  0.0000E+00  0.0000E+00  0.0000E+00  0.0000E+00  0.0000E+00  0.0000E+00  0.0000E+00
      1.148  0.2755E-05  0.8345E-05  0.1335E-07  0.4068E-07  0.1335E-07  0.4068E-07  0.1335E-07  0.4068E-07  0.2114E-09  0.4720E-09  0.2114E-09  0.4720E-09  0.9152E-24  0.1056E-22  0.2114E-09  0.4720E-09  0.9152E-24  0.1056E-22
      1.329  0.1404E-01  0.1443E-01  0.6802E-04  0.7033E-04  0.6802E-04  0.7033E-04  0.6802E-04  0.7033E-04  0.1077E-05  0.8160E-06  0.1077E-05  0.8160E-06  0.4664E-20  0.1825E-19  0.1077E-05  0.8160E-06  0.4664E-20  0.1825E-19
      1.510  0.8880E-03  0.4668E-03  0.4303E-05  0.2279E-05  0.4303E-05  0.2279E-05  0.4303E-05  0.2279E-05  0.6817E-07  0.2649E-07  0.6817E-07  0.2649E-07  0.6746E-10  0.1498E-09  0.6817E-07  0.2649E-07  0.6746E-10  0.1498E-09
      1.691  0.3022E-01  0.3346E-01  0.5444E-03  0.6074E-03  0.5444E-03  0.6074E-03  0.5444E-03  0.6074E-03  0.1599E-04  0.1277E-04  0.1599E-04  0.1277E-04  0.2139E-04  0.1737E-04  0.1599E-04  0.1277E-04  0.2139E-04  0.1737E-04
      1.872  0.1283E-01  0.9512E-02  0.2310E-03  0.1727E-03  0.2310E-03  0.1727E-03  0.2310E-03  0.1727E-03  0.6786E-05  0.3631E-05  0.6786E-05  0.3631E-05  0.9077E-05  0.4939E-05  0.6786E-05  0.3631E-05  0.9077E-05  0.4939E-05
      2.053  0.1842E-01  0.2016E-01  0.5733E-03  0.6356E-03  0.5733E-03  0.6356E-03  0.5733E-03  0.6356E-03  0.5671E-04  0.4358E-04  0.5671E-04  0.4358E-04  0.1284E-04  0.1035E-04  0.5671E-04  0.4358E-04  0.1284E-04  0.1035E-04
      2.234  0.2289E-01  0.2110E-01  0.7126E-03  0.6652E-03  0.7126E-03  0.6652E-03  0.7126E-03  0.6652E-03  0.7049E-04  0.4561E-04  0.7049E-04  0.4561E-04  0.1596E-04  0.1083E-04  0.7049E-04  0.4561E-04  0.1596E-04  0.1083E-04
      2.415  0.1728E-01  0.1538E-01  0.7770E-03  0.7022E-03  0.7770E-03  0.7022E-03  0.7770E-03  0.7022E-03  0.7042E-04  0.4100E-04  0.7042E-04  0.4100E-04  0.1037E-03  0.6446E-04  0.7042E-04  0.4100E-04  0.1037E-03  0.6446E-04
      2.596  0.3529E-01  0.3723E-01  0.1593E-02  0.1703E-02  0.1593E-02  0.1703E-02  0.1593E-02  0.1703E-02  0.1225E-03  0.8910E-04  0.1225E-03  0.8910E-04  0.2346E-03  0.1673E-03  0.1225E-03  0.8910E-04  0.2346E-03  0.1673E-03
      2.777  0.2586E-01  0.1664E-01  0.1520E-02  0.9963E-03  0.1520E-02  0.9963E-03  0.1520E-02  0.9963E-03  0.2498E-03  0.1078E-03  0.2498E-03  0.1078E-03  0.1744E-03  0.7664E-04  0.2498E-03  0.1078E-03  0.1744E-03  0.7664E-04
      2.958  0.4942E-01  0.5887E-01  0.2905E-02  0.3525E-02  0.2905E-02  0.3525E-02  0.2905E-02  0.3525E-02  0.4774E-03  0.3814E-03  0.4774E-03  0.3814E-03  0.3334E-03  0.2711E-03  0.4774E-03  0.3814E-03  0.3334E-03  0.2711E-03
      3.139  0.2656E-01  0.1339E-01  0.1827E-02  0.9590E-03  0.1827E-02  0.9590E-03  0.1827E-02  0.9590E-03  0.7334E-03  0.2288E-03  0.7334E-03  0.2288E-03  0.1122E-03  0.3795E-04  0.7334E-03  0.2288E-03  0.1122E-03  0.3795E-04
      3.320  0.9128E-02  0.2267E-01  0.6279E-03  0.1623E-02  0.6279E-03  0.1623E-02  0.6279E-03  0.1623E-02  0.2519E-03  0.3873E-03  0.2519E-03  0.3873E-03  0.3876E-04  0.6424E-04  0.2519E-03  0.3873E-03  0.3876E-04  0.6424E-04
      3.502  0.5945E-01  0.3064E-01  0.5232E-02  0.2767E-02  0.5232E-02  0.2767E-02  0.5232E-02  0.2767E-02  0.1027E-02  0.3297E-03  0.1027E-02  0.3297E-03  0.2008E-02  0.6480E-03  0.1027E-02  0.3297E-03  0.2008E-02  0.6480E-03
      3.683  0.1456E-01  0.3754E-01  0.1288E-02  0.3385E-02  0.1288E-02  0.3385E-02  0.1288E-02  0.3385E-02  0.6864E-03  0.4435E-03  0.6864E-03  0.4435E-03  0.2380E-03  0.7274E-03  0.6864E-03  0.4435E-03  0.2380E-03  0.7274E-03
      3.864  0.8704E-01  0.7960E-01  0.8626E-02  0.8141E-02  0.8626E-02  0.8141E-02  0.8626E-02  0.8141E-02  0.3447E-02  0.2114E-02  0.3447E-02  0.2114E-02  0.3317E-02  0.1590E-02  0.3447E-02  0.2114E-02  0.3317E-02  0.1590E-02
      4.045  0.2229E-01  0.1759E-01  0.2424E-02  0.1854E-02  0.2424E-02  0.1854E-02  0.2424E-02  0.1854E-02  0.1604E-02  0.3229E-03  0.1604E-02  0.3229E-03  0.9650E-03  0.4923E-03  0.1604E-02  0.3229E-03  0.9650E-03  0.4923E-03
      4.226  0.1586E-01  0.3025E-01  0.1561E-02  0.3508E-02  0.1561E-02  0.3508E-02  0.1561E-02  0.3508E-02  0.2278E-02  0.1219E-02  0.2278E-02  0.1219E-02  0.3096E-03  0.7812E-03  0.2278E-02  0.1219E-02  0.3096E-03  0.7812E-03
      4.407  0.6283E-01  0.1146E-01  0.8270E-02  0.1306E-02  0.8270E-02  0.1306E-02  0.8270E-02  0.1306E-02  0.5565E-02  0.1089E-02  0.5565E-02  0.1089E-02  0.3860E-02  0.6610E-04  0.5565E-02  0.1089E-02  0.3860E-02  0.6610E-04
      4.588  0.6593E-01  0.5633E-01  0.8155E-02  0.7768E-02  0.8155E-02  0.7768E-02  0.8155E-02  0.7768E-02  0.1044E-01  0.2816E-02  0.1044E-01  0.2816E-02  0.7769E-02  0.1439E-02  0.1044E-01  0.2816E-02  0.7769E-02  0.1439E-02
      4.769  0.5738E-01  0.7873E-01  0.8104E-02  0.1102E-01  0.8104E-02  0.1102E-01  0.8104E-02  0.1102E-01  0.1028E-01  0.5882E-02  0.1028E-01  0.5882E-02  0.1405E-01  0.5476E-02  0.1028E-01  0.5882E-02  0.1405E-01  0.5476E-02
      4.950  0.6538E-01  0.9257E-02  0.7471E-02  0.1581E-02  0.7471E-02  0.1581E-02  0.7471E-02  0.1581E-02  0.3106E-01  0.3246E-03  0.3106E-01  0.3246E-03  0.4845E-01  0.1492E-02  0.3106E-01  0.3246E-03  0.4845E-01  0.1492E-02
      5.131  0.9350E-01  0.6263E-01  0.1170E-01  0.9671E-02  0.1170E-01  0.9671E-02  0.1170E-01  0.9671E-02  0.6105E-01  0.6957E-02  0.6105E-01  0.6957E-02  0.7451E-01  0.6945E-02  0.6105E-01  0.6957E-02  0.7451E-01  0.6945E-02
      5.312  0.9552E-01  0.3994E-01  0.1597E-01  0.7347E-02  0.1597E-01  0.7347E-02  0.1597E-01  0.7347E-02  0.4610E-01  0.4495E-02  0.4610E-01  0.4495E-02  0.1309E+00  0.3949E-02  0.4610E-01  0.4495E-02  0.1309E+00  0.3949E-02
      5.493  0.5320E-01  0.4566E-01  0.8270E-02  0.7649E-02  0.8270E-02  0.7649E-02  0.8270E-02  0.7649E-02  0.7957E-01  0.1125E-01  0.7957E-01  0.1125E-01  0.9098E-01  0.2273E-02  0.7957E-01  0.1125E-01  0.9098E-01  0.2273E-02
      5.674  0.7429E-01  0.9571E-01  0.1911E-01  0.1761E-01  0.1911E-01  0.1761E-01  0.1911E-01  0.1761E-01  0.1365E+00  0.2115E-01  0.1365E+00  0.2115E-01  0.1771E+00  0.2123E-01  0.1365E+00  0.2115E-01  0.1771E+00  0.2123E-01
      5.855  0.3359E-01  0.3326E-01  0.1044E-01  0.4894E-02  0.1044E-01  0.4894E-02  0.1044E-01  0.4894E-02  0.1627E+00  0.1598E-01  0.1627E+00  0.1598E-01  0.9158E-01  0.8439E-02  0.1627E+00  0.1598E-01  0.9158E-01  0.8439E-02
      6.036  0.2549E-01  0.6964E-01  0.1951E-01  0.9376E-02  0.1951E-01  0.9376E-02  0.1951E-01  0.9376E-02  0.2013E+00  0.3930E-01  0.2013E+00  0.3930E-01  0.1547E+00  0.5000E-01  0.2013E+00  0.3930E-01  0.1547E+00  0.5000E-01
      6.217  0.1086E-01  0.8702E-01  0.1354E-01  0.1854E-01  0.1354E-01  0.1854E-01  0.1354E-01  0.1854E-01  0.1632E+00  0.4244E-01  0.1632E+00  0.4244E-01  0.6705E-01  0.4974E-01  0.1632E+00  0.4244E-01  0.6705E-01  0.4974E-01
      6.398  0.6251E-02  0.5893E-01  0.2047E-01  0.1421E-01  0.2047E-01  0.1421E-01  0.2047E-01  0.1421E-01  0.1850E+00  0.2799E-01  0.1850E+00  0.2799E-01  0.1252E+00  0.1024E+00  0.1850E+00  0.2799E-01  0.1252E+00  0.1024E+00
      6.579  0.1622E-02  0.4867E-01  0.1140E-01  0.9164E-02  0.1140E-01  0.9164E-02  0.1140E-01  0.9164E-02  0.1241E+00  0.4773E-01  0.1241E+00  0.4773E-01  0.1421E+00  0.5325E-01  0.1241E+00  0.4773E-01  0.1421E+00  0.5325E-01
      6.760  0.7377E-02  0.4099E-01  0.1739E-01  0.1427E-01  0.1739E-01  0.1427E-01  0.1739E-01  0.1427E-01  0.1834E+00  0.4841E-01  0.1834E+00  0.4841E-01  0.1267E+00  0.1014E+00  0.1834E+00  0.4841E-01  0.1267E+00  0.1014E+00
      6.941  0.8728E-02  0.4651E-01  0.1771E-01  0.1695E-01  0.1771E-01  0.1695E-01  0.1771E-01  0.1695E-01  0.2355E+00  0.1290E+00  0.2355E+00  0.1290E+00  0.1151E+00  0.9337E-01  0.2355E+00  0.1290E+00  0.1151E+00  0.9337E-01
      7.122  0.1316E-01  0.1462E-01  0.2194E-01  0.1505E-01  0.2194E-01  0.1505E-01  0.2194E-01  0.1505E-01  0.2643E+00  0.1076E+00  0.2643E+00  0.1076E+00  0.1552E+00  0.9818E-01  0.2643E+00  0.1076E+00  0.1552E+00  0.9818E-01
      7.303  0.1752E-01  0.1331E-01  0.2498E-01  0.2266E-01  0.2498E-01  0.2266E-01  0.2498E-01  0.2266E-01  0.2692E+00  0.2070E+00  0.2692E+00  0.2070E+00  0.2070E+00  0.9141E-01  0.2692E+00  0.2070E+00  0.2070E+00  0.9141E-01
      7.484  0.2187E-01  0.4968E-02  0.2429E-01  0.1560E-01  0.2429E-01  0.1560E-01  0.2429E-01  0.1560E-01  0.3398E+00  0.1068E+00  0.3398E+00  0.1068E+00  0.2518E+00  0.6111E-01  0.3398E+00  0.1068E+00  0.2518E+00  0.6111E-01
      7.665  0.8843E-02  0.3295E-02  0.1809E-01  0.1811E-01  0.1809E-01  0.1811E-01  0.1809E-01  0.1811E-01  0.3043E+00  0.1762E+00  0.3043E+00  0.1762E+00  0.2376E+00  0.7836E-01  0.3043E+00  0.1762E+00  0.2376E+00  0.7836E-01
      7.846  0.1072E-01  0.7883E-03  0.9522E-02  0.2193E-01  0.9522E-02  0.2193E-01  0.9522E-02  0.2193E-01  0.1524E+00  0.9749E-01  0.1524E+00  0.9749E-01  0.2124E+00  0.1019E+00  0.1524E+00  0.9749E-01  0.2124E+00  0.1019E+00