    1    1  100    2
  0.1115727E+02  0.2508174E-09  0.2508174E-09  0.2508174E-09  0.5000000E-15
  1.000000000000000E-004
  CAR 
 Co-fcc                                  
      9     60     12
 
  0.6250000E-01  0.6250000E-01  0.6250000E-01  0.3906250E-02
      1          1.273917        1.263213   1.000000   1.000000
      2          7.256359        8.815816   1.000000   1.000000
      3          7.333748        8.909447   1.000000   1.000000
      4          7.333748        8.909447   1.000000   1.000000
      5          8.308321       10.206830   1.000000   0.000000
      6          8.308321       10.206830   1.000000   0.000000
      7         32.395252       32.147097   0.000000   0.000000
      8         35.182567       35.270040   0.000000   0.000000
      9         36.625010       36.796291   0.000000   0.000000
     10         36.625010       36.796291   0.000000   0.000000
     11         40.436643       40.663797   0.000000   0.000000
     12         40.436643       40.664087   0.000000   0.000000
 
  0.1875000E+00  0.6250000E-01  0.6250000E-01  0.1171875E-01
      1          2.058019        2.054213   1.000000   1.000000
      2          7.053385        8.552429   1.000000   1.000000
      3          7.484913        9.079031   1.000000   1.000000
      4          7.489992        9.086824   1.000000   1.000000
      5          8.160887       10.026872   1.000000   0.014360
      6          8.394980       10.281145   1.000000   0.000000
      7         29.488421       29.667847   0.000000   0.000000
      8         32.105282       32.175266   0.000000   0.000000
      9         35.589297       35.606321   0.000000   0.000000
     10         37.629469       37.802533   0.000000   0.000000
     11         39.401132       39.350811   0.000000   0.000000
     12         40.576013       40.765694   0.000000   0.000000
 
  0.3125000E+00  0.6250000E-01  0.6250000E-01  0.1171875E-01
      1          3.711662        3.806949   1.000000   1.000000
      2          6.948976        8.238560   1.000000   1.000000
      3          7.431245        9.066559   1.000000   1.000000
      4          7.501687        9.165110   1.000000   1.000000
      5          8.368472       10.176483   1.000000   0.000000
      6          8.783623       10.617321   1.000000   0.000000
      7         23.442356       23.867791   0.000000   0.000000
      8         31.032985       31.094575   0.000000   0.000000
      9         34.543733       34.566465   0.000000   0.000000
     10         37.129337       37.444824   0.000000   0.000000
     11         38.334585       38.555755   0.000000   0.000000
     12         39.368524       39.409776   0.000000   0.000000
 
  0.4375000E+00  0.6250000E-01  0.6250000E-01  0.1171875E-01
      1          4.847106        5.503659   1.000000   1.000000
      2          7.210219        8.645325   1.000000   1.000000
      3          7.304030        8.873735   1.000000   1.000000
      4          7.983787        8.970513   1.000000   1.000000
      5          8.899484       10.737402   1.000000   0.000000
      6          9.557553       11.191910   1.000000   0.000000
      7         18.144295       18.848684   0.000000   0.000000
      8         30.587210       30.529237   0.000000   0.000000
      9         33.284681       33.396446   0.000000   0.000000
     10         34.997774       35.307110   0.000000   0.000000
     11         37.499411       37.750654   0.000000   0.000000
     12         39.066785       39.241778   0.000000   0.000000
 
 -0.4375000E+00  0.6250000E-01  0.6250000E-01  0.1171875E-01
      1          4.974620        5.874705   1.000000   1.000000
      2          7.118320        8.720943   1.000000   1.000000
      3          7.253104        8.911836   1.000000   1.000000
      4          8.530797        9.301479   1.000000   1.000000
      5          9.168606       11.042047   1.000000   0.000000
      6         10.371234       11.460400   0.000000   0.000000
      7         15.995332       16.950668   0.000000   0.000000
      8         30.744189       30.548343   0.000000   0.000000
      9         33.181929       33.477763   0.000000   0.000000
     10         33.358525       33.609634   0.000000   0.000000
     11         38.306995       38.547631   0.000000   0.000000
     12         38.358751       38.549364   0.000000   0.000000
 
 -0.3125000E+00  0.6250000E-01  0.6250000E-01  0.1171875E-01
      1          4.629653        5.060526   1.000000   1.000000
      2          7.246572        8.356783   1.000000   1.000000
      3          7.389669        8.912819   1.000000   1.000000
      4          7.468429        9.050066   1.000000   1.000000
      5          8.971009       10.734104   1.000000   0.000000
      6          9.036213       10.837617   1.000000   0.000000
      7         19.750875       20.343129   0.000000   0.000000
      8         31.462448       31.254354   0.000000   0.000000
      9         32.655340       32.973477   0.000000   0.000000
     10         35.010449       35.335867   0.000000   0.000000
     11         38.200948       38.354439   0.000000   0.000000
     12         40.012885       40.199704   0.000000   0.000000
 
 -0.1875000E+00  0.6250000E-01  0.6250000E-01  0.1171875E-01
      1          3.116219        3.151048   1.000000   1.000000
      2          6.902599        8.294551   1.000000   1.000000
      3          7.492386        9.133072   1.000000   1.000000
      4          7.548487        9.182218   1.000000   1.000000
      5          8.300466       10.095629   1.000000   0.000018
      6          8.548056       10.419638   1.000000   0.000000
      7         25.430878       25.784138   0.000000   0.000000
      8         32.499217       32.343987   0.000000   0.000000
      9         33.203226       33.523013   0.000000   0.000000
     10         37.664984       37.841481   0.000000   0.000000
     11         38.020428       38.169220   0.000000   0.000000
     12         42.277719       42.358401   0.000000   0.000000
 
 -0.6250000E-01  0.6250000E-01  0.6250000E-01  0.1171875E-01
      1          1.672373        1.663986   1.000000   1.000000
      2          7.119961        8.650348   1.000000   1.000000
      3          7.438872        9.022877   1.000000   1.000000
      4          7.442773        9.027610   1.000000   1.000000
      5          8.179488       10.050913   1.000000   0.002070
      6          8.372044       10.275805   1.000000   0.000000
      7         31.304610       31.296931   0.000000   0.000000
      8         33.687485       33.671353   0.000000   0.000000
      9         34.596084       34.864645   0.000000   0.000000
     10         36.508891       36.572788   0.000000   0.000000
     11         40.384475       40.546519   0.000000   0.000000
     12         42.252143       42.332158   0.000000   0.000000
 
  0.1875000E+00  0.1875000E+00  0.6250000E-01  0.1171875E-01
      1          2.433152        2.436091   1.000000   1.000000
      2          6.856106        8.336659   1.000000   1.000000
      3          7.625775        9.239186   1.000000   1.000000
      4          7.655396        9.260241   1.000000   1.000000
      5          8.005179        9.803430   1.000000   0.999982
      6          8.490988       10.404025   1.000000   0.000000
      7         29.787839       29.974840   0.000000   0.000000
      8         32.301960       32.267475   0.000000   0.000000
      9         32.323659       32.629207   0.000000   0.000000
     10         34.616294       34.653505   0.000000   0.000000
     11         39.846903       40.478190   0.000000   0.000000
     12         42.735917       42.810722   0.000000   0.000000
 
  0.3125000E+00  0.1875000E+00  0.6250000E-01  0.2343750E-01
      1          3.766912        3.838997   1.000000   1.000000
      2          6.567963        7.965545   1.000000   1.000000
      3          7.417328        9.061055   1.000000   1.000000
      4          7.902118        9.560390   1.000000   1.000000
      5          8.265929        9.974132   1.000000   0.243347
      6          8.858561       10.711071   1.000000   0.000000
      7         25.974284       26.311178   0.000000   0.000000
      8         28.556234       28.793990   0.000000   0.000000
      9         32.306816       32.414566   0.000000   0.000000
     10         34.255710       34.389963   0.000000   0.000000
     11         38.783350       39.286615   0.000000   0.000000
     12         42.537161       42.559030   0.000000   0.000000
 
  0.4375000E+00  0.1875000E+00  0.6250000E-01  0.2343750E-01
      1          5.129423        5.627876   1.000000   1.000000
      2          6.684764        7.866417   1.000000   1.000000
      3          7.124391        8.648998   1.000000   1.000000
      4          7.750183        9.441803   1.000000   1.000000
      5          8.941782       10.743329   1.000000   0.000000
      6         10.025728       11.528464   0.015583   0.000000
      7         20.258595       20.792547   0.000000   0.000000
      8         27.972458       28.182179   0.000000   0.000000
      9         29.891666       30.141232   0.000000   0.000000
     10         33.874949       34.054407   0.000000   0.000000
     11         40.497391       40.603154   0.000000   0.000000
     12         42.889671       43.138248   0.000000   0.000000
 
 -0.4375000E+00  0.1875000E+00  0.6250000E-01  0.2343750E-01
      1          5.434527        6.406646   1.000000   1.000000
      2          6.716331        8.051856   1.000000   1.000000
      3          7.551286        8.738697   1.000000   1.000000
      4          7.610542        9.289263   1.000000   1.000000
      5          9.133989       10.989365   1.000000   0.000000
      6         12.173228       13.048441   0.000000   0.000000
      7         16.193429       17.059110   0.000000   0.000000
      8         27.401901       27.599194   0.000000   0.000000
      9         29.156184       29.468975   0.000000   0.000000
     10         33.701666       33.791374   0.000000   0.000000
     11         39.632832       39.820300   0.000000   0.000000
     12         43.271221       43.349648   0.000000   0.000000
 
 -0.3125000E+00  0.1875000E+00  0.6250000E-01  0.2343750E-01
      1          5.363578        6.073235   1.000000   1.000000
      2          6.858544        8.091784   1.000000   1.000000
      3          7.197267        8.538611   1.000000   1.000000
      4          7.643252        9.339557   1.000000   1.000000
      5          8.828789       10.626615   1.000000   0.000000
      6         10.856811       12.194701   0.000000   0.000000
      7         18.614090       19.249871   0.000000   0.000000
      8         26.571546       26.840562   0.000000   0.000000
      9         30.732737       30.946386   0.000000   0.000000
     10         34.782500       34.881005   0.000000   0.000000
     11         39.015060       39.192910   0.000000   0.000000
     12         42.661783       42.755640   0.000000   0.000000
 
 -0.1875000E+00  0.1875000E+00  0.6250000E-01  0.2343750E-01
      1          4.339591        4.468198   1.000000   1.000000
      2          6.639392        7.991400   1.000000   1.000000
      3          7.251412        8.860335   1.000000   1.000000
      4          7.836294        9.543128   1.000000   1.000000
      5          8.201609        9.934433   1.000000   0.665414
      6          9.341545       11.103967   1.000000   0.000000
      7         24.001269       24.406034   0.000000   0.000000
      8         26.710627       26.995991   0.000000   0.000000
      9         33.257700       33.367894   0.000000   0.000000
     10         36.712915       36.800134   0.000000   0.000000
     11         38.504039       38.607016   0.000000   0.000000
     12         41.417843       41.712146   0.000000   0.000000
 
 -0.6250000E-01  0.1875000E+00  0.6250000E-01  0.2343750E-01
      1          2.791609        2.804619   1.000000   1.000000
      2          6.854267        8.306359   1.000000   1.000000
      3          7.526919        9.148695   1.000000   1.000000
      4          7.657851        9.277793   1.000000   1.000000
      5          8.080089        9.886680   1.000000   0.962293
      6          8.577370       10.453789   1.000000   0.000000
      7         27.657010       27.935111   0.000000   0.000000
      8         30.275971       30.442787   0.000000   0.000000
      9         34.670826       34.708309   0.000000   0.000000
     10         36.438535       36.456352   0.000000   0.000000
     11         39.781311       40.072798   0.000000   0.000000
     12         41.205788       41.416405   0.000000   0.000000
 
  0.3125000E+00  0.3125000E+00  0.6250000E-01  0.1171875E-01
      1          4.437866        4.685008   1.000000   1.000000
      2          6.167898        7.529837   1.000000   1.000000
      3          7.725406        9.186203   1.000000   1.000000
      4          8.310901       10.001717   1.000000   0.069999
      5          8.634019       10.242436   1.000000   0.000000
      6          8.829487       10.758083   1.000000   0.000000
      7         26.560747       26.850120   0.000000   0.000000
      8         28.203277       28.479616   0.000000   0.000000
      9         28.324272       28.541380   0.000000   0.000000
     10         31.091011       31.304797   0.000000   0.000000
     11         35.397401       35.885006   0.000000   0.000000
     12         46.808646       47.865395   0.000000   0.000000
 
  0.4375000E+00  0.3125000E+00  0.6250000E-01  0.2343750E-01
      1          5.172630        5.876015   1.000000   1.000000
      2          5.969952        7.270577   1.000000   1.000000
      3          7.673061        8.972638   1.000000   1.000000
      4          8.542361       10.304405   1.000000   0.000000
      5          8.987294       10.799936   1.000000   0.000000
      6         10.281838       11.628439   0.000000   0.000000
      7         23.201436       23.560662   0.000000   0.000000
      8         25.135593       25.477133   0.000000   0.000000
      9         26.047993       26.371208   0.000000   0.000000
     10         32.304881       32.513914   0.000000   0.000000
     11         36.583697       36.951620   0.000000   0.000000
     12         46.077546       46.400846   0.000000   0.000000
 
 -0.4375000E+00  0.3125000E+00  0.6250000E-01  0.2343750E-01
      1          5.651464        6.787882   1.000000   1.000000
      2          6.097992        7.292556   1.000000   1.000000
      3          7.387010        8.645618   1.000000   1.000000
      4          8.272327       10.063099   1.000000   0.000659
      5          9.196258       11.034637   1.000000   0.000000
      6         13.387560       14.222491   0.000000   0.000000
      7         18.171660       18.714980   0.000000   0.000000
      8         22.954024       23.413051   0.000000   0.000000
      9         26.251898       26.545404   0.000000   0.000000
     10         32.728741       32.912922   0.000000   0.000000
     11         41.473680       41.728860   0.000000   0.000000
     12         44.374444       44.623532   0.000000   0.000000
 
 -0.3125000E+00  0.3125000E+00  0.6250000E-01  0.2343750E-01
      1          6.108186        7.118475   1.000000   1.000000
      2          6.262179        7.560086   1.000000   1.000000
      3          6.953155        8.208464   1.000000   1.000000
      4          8.081549        9.883077   1.000000   0.969935
      5          8.896056       10.662716   1.000000   0.000000
      6         13.688756       14.563198   0.000000   0.000000
      7         18.018019       18.604583   0.000000   0.000000
      8         21.651419       22.136114   0.000000   0.000000
      9         27.947521       28.247852   0.000000   0.000000
     10         33.598286       33.728303   0.000000   0.000000
     11         42.241106       42.284278   0.000000   0.000000
     12         46.329538       47.008813   0.000000   0.000000
 
 -0.1875000E+00  0.3125000E+00  0.6250000E-01  0.2343750E-01
      1          5.641161        6.152286   1.000000   1.000000
      2          6.655230        7.900712   1.000000   1.000000
      3          6.800851        8.314106   1.000000   1.000000
      4          7.912803        9.671773   1.000000   1.000000
      5          8.537567       10.268222   1.000000   0.000000
      6         10.940717       12.348165   0.000000   0.000000
      7         20.788973       21.300473   0.000000   0.000000
      8         23.753764       24.127801   0.000000   0.000000
      9         30.493451       30.726925   0.000000   0.000000
     10         35.323476       35.437774   0.000000   0.000000
     11         39.531782       39.575663   0.000000   0.000000
     12         44.066148       44.202378   0.000000   0.000000
 
 -0.6250000E-01  0.3125000E+00  0.6250000E-01  0.2343750E-01
      1          4.451339        4.685640   1.000000   1.000000
      2          6.907765        8.101263   1.000000   1.000000
      3          7.265376        8.897560   1.000000   1.000000
      4          7.564461        9.238655   1.000000   1.000000
      5          8.591868       10.357871   1.000000   0.000000
      6          9.216225       10.982679   1.000000   0.000000
      7         21.719607       22.208736   0.000000   0.000000
      8         29.445090       29.604083   0.000000   0.000000
      9         32.948694       33.014996   0.000000   0.000000
     10         35.444576       35.712084   0.000000   0.000000
     11         39.132401       39.269765   0.000000   0.000000
     12         40.630682       40.762863   0.000000   0.000000
 
  0.4375000E+00  0.4375000E+00  0.6250000E-01  0.1171875E-01
      1          4.970450        5.979021   1.000000   1.000000
      2          5.618675        6.896133   1.000000   1.000000
      3          8.877719       10.249538   1.000000   0.000000
      4          8.907453       10.791780   1.000000   0.000000
      5          9.218579       11.082403   1.000000   0.000000
      6         10.952315       11.716780   0.000000   0.000000
      7         21.886764       22.461056   0.000000   0.000000
      8         24.262842       24.502865   0.000000   0.000000
      9         25.430878       25.613800   0.000000   0.000000
     10         30.218980       30.544126   0.000000   0.000000
     11         34.025910       34.429633   0.000000   0.000000
     12         46.958138       50.545087   0.000000   0.000000
 
 -0.4375000E+00  0.4375000E+00  0.6250000E-01  0.2343750E-01
      1          5.116317        6.271944   1.000000   1.000000
      2          5.641936        6.894753   1.000000   1.000000
      3          8.480274        9.840690   1.000000   0.998961
      4          8.857353       10.783990   1.000000   0.000000
      5          9.353277       11.168719   1.000000   0.000000
      6         13.446601       13.940285   0.000000   0.000000
      7         19.762294       20.505873   0.000000   0.000000
      8         21.866969       22.176889   0.000000   0.000000
      9         24.293745       24.520492   0.000000   0.000000
     10         31.667865       31.929279   0.000000   0.000000
     11         35.923951       36.285995   0.000000   0.000000
     12         46.939389       49.286841   0.000000   0.000000
 
 -0.3125000E+00  0.4375000E+00  0.6250000E-01  0.2343750E-01
      1          5.606727        6.850474   1.000000   1.000000
      2          6.007314        7.189061   1.000000   1.000000
      3          7.555187        8.812887   1.000000   1.000000
      4          8.441350       10.297199   1.000000   0.000000
      5          9.186781       10.986229   1.000000   0.000000
      6         15.395856       15.989175   0.000000   0.000000
      7         17.546250       18.078568   0.000000   0.000000
      8         20.480825       21.096216   0.000000   0.000000
      9         25.789919       26.075752   0.000000   0.000000
     10         32.565142       32.765523   0.000000   0.000000
     11         41.435898       41.748431   0.000000   0.000000
     12         45.523807       45.610605   0.000000   0.000000
 
 -0.1875000E+00  0.4375000E+00  0.6250000E-01  0.2343750E-01
      1          5.795524        6.835729   1.000000   1.000000
      2          6.428600        7.690968   1.000000   1.000000
      3          7.242801        8.482982   1.000000   1.000000
      4          7.851062        9.594995   1.000000   1.000000
      5          9.040391       10.862379   1.000000   0.000000
      6         13.383793       14.187845   0.000000   0.000000
      7         16.451446       17.234896   0.000000   0.000000
      8         24.385625       24.746806   0.000000   0.000000
      9         28.308049       28.601326   0.000000   0.000000
     10         33.616777       33.723743   0.000000   0.000000
     11         40.970209       41.096913   0.000000   0.000000
     12         45.393211       45.461994   0.000000   0.000000
 
 -0.6250000E-01  0.4375000E+00  0.6250000E-01  0.2343750E-01
      1          5.112374        5.956341   1.000000   1.000000
      2          7.012186        8.467575   1.000000   1.000000
      3          7.387035        8.870711   1.000000   1.000000
      4          7.889425        9.066086   1.000000   1.000000
      5          9.080107       10.928603   1.000000   0.000000
      6         10.652871       11.852152   0.000000   0.000000
      7         16.923599       17.730355   0.000000   0.000000
      8         29.371506       29.420710   0.000000   0.000000
      9         31.385019       31.638274   0.000000   0.000000
     10         33.965156       34.116522   0.000000   0.000000
     11         38.568772       38.794283   0.000000   0.000000
     12         40.724066       40.858637   0.000000   0.000000
 
 -0.4375000E+00 -0.4375000E+00  0.6250000E-01  0.1171875E-01
      1          4.913185        6.042422   1.000000   1.000000
      2          5.494198        6.753591   1.000000   1.000000
      3          9.018354       10.719684   1.000000   0.000000
      4          9.150448       10.985398   1.000000   0.000000
      5          9.365196       11.186420   1.000000   0.000000
      6         12.480948       12.762549   0.000000   0.000000
      7         19.662266       20.448494   0.000000   0.000000
      8         23.688196       23.892083   0.000000   0.000000
      9         24.814720       24.964739   0.000000   0.000000
     10         30.077200       30.428001   0.000000   0.000000
     11         33.851262       34.254062   0.000000   0.000000
     12         47.021321       50.637638   0.000000   0.000000
 
 -0.3125000E+00 -0.4375000E+00  0.6250000E-01  0.2343750E-01
      1          5.187323        6.226566   1.000000   1.000000
      2          5.755471        7.024672   1.000000   1.000000
      3          8.155773        9.440522   1.000000   1.000000
      4          8.786000       10.636810   1.000000   0.000000
      5          9.209365       11.037762   1.000000   0.000000
      6         11.848760       12.724409   0.000000   0.000000
      7         21.908941       22.372427   0.000000   0.000000
      8         22.552346       22.965744   0.000000   0.000000
      9         24.841565       25.094358   0.000000   0.000000
     10         31.869927       32.112241   0.000000   0.000000
     11         36.120003       36.479506   0.000000   0.000000
     12         46.814129       48.070550   0.000000   0.000000
 
 -0.1875000E+00 -0.4375000E+00  0.6250000E-01  0.2343750E-01
      1          5.544131        6.397200   1.000000   1.000000
      2          6.345991        7.558087   1.000000   1.000000
      3          7.188946        8.535302   1.000000   1.000000
      4          8.010759        9.740595   1.000000   1.000000
      5          9.138454       10.989393   1.000000   0.000000
      6         11.462145       12.602609   0.000000   0.000000
      7         19.066722       19.618225   0.000000   0.000000
      8         25.992022       26.286058   0.000000   0.000000
      9         27.270305       27.595855   0.000000   0.000000
     10         33.115965       33.281446   0.000000   0.000000
     11         41.309170       41.453238   0.000000   0.000000
     12         43.416976       43.782209   0.000000   0.000000
 
 -0.3125000E+00 -0.3125000E+00  0.6250000E-01  0.1171875E-01
      1          4.930360        5.605426   1.000000   1.000000
      2          5.853219        7.165786   1.000000   1.000000
      3          8.314653        9.504913   1.000000   1.000000
      4          8.659049       10.429734   1.000000   0.000000
      5          9.019770       10.845259   1.000000   0.000000
      6          9.461048       10.934529   1.000000   0.000000
      7         24.790664       25.136082   0.000000   0.000000
      8         25.468573       25.795166   0.000000   0.000000
      9         26.594842       26.826349   0.000000   0.000000
     10         30.528624       30.804636   0.000000   0.000000
     11         34.473555       34.895615   0.000000   0.000000
     12         46.916790       50.238908   0.000000   0.000000
 
 -0.1875000E+00 -0.3125000E+00  0.6250000E-01  0.2343750E-01
      1          4.709834        4.982706   1.000000   1.000000
      2          6.255859        7.600271   1.000000   1.000000
      3          7.356832        8.876892   1.000000   1.000000
      4          8.210402        9.911947   1.000000   0.856171
      5          8.660811       10.376505   1.000000   0.000000
      6          9.317368       11.040071   1.000000   0.000000
      7         24.476352       24.839099   0.000000   0.000000
      8         26.958233       27.226182   0.000000   0.000000
      9         28.985713       29.247329   0.000000   0.000000
     10         33.043347       33.215239   0.000000   0.000000
     11         37.432933       37.842530   0.000000   0.000000
     12         44.467639       44.566176   0.000000   0.000000
 
 -0.1875000E+00 -0.1875000E+00  0.6250000E-01  0.1171875E-01
      1          3.450677        3.503317   1.000000   1.000000
      2          6.519808        7.940474   1.000000   1.000000
      3          7.628411        9.293531   1.000000   1.000000
      4          7.955511        9.594072   1.000000   1.000000
      5          8.155598        9.807777   1.000000   0.999970
      6          8.649396       10.572689   1.000000   0.000000
      7         28.155883       28.429248   0.000000   0.000000
      8         30.148266       30.452439   0.000000   0.000000
      9         30.908449       30.931431   0.000000   0.000000
     10         32.367829       32.506758   0.000000   0.000000
     11         37.129604       37.729114   0.000000   0.000000
     12         45.226294       45.187908   0.000000   0.000000
 
  0.1875000E+00  0.1875000E+00  0.1875000E+00  0.3906250E-02
      1          2.424708        2.430347   1.000000   1.000000
      2          7.027662        8.480947   1.000000   1.000000
      3          7.492071        9.104543   1.000000   1.000000
      4          7.492071        9.104543   1.000000   1.000000
      5          8.312864       10.177643   1.000000   0.000000
      6          8.312864       10.177643   1.000000   0.000000
      7         27.376111       27.655866   0.000000   0.000000
      8         33.484408       33.236688   0.000000   0.000000
      9         35.516285       35.804555   0.000000   0.000000
     10         35.516285       35.804555   0.000000   0.000000
     11         40.941159       40.825644   0.000000   0.000000
     12         41.384985       41.470079   0.000000   0.000000
 
  0.3125000E+00  0.1875000E+00  0.1875000E+00  0.1171875E-01
      1          3.464843        3.508700   1.000000   1.000000
      2          6.792356        8.196407   1.000000   1.000000
      3          7.440308        9.053199   1.000000   1.000000
      4          7.714536        9.373297   1.000000   1.000000
      5          8.040114        9.839322   1.000000   0.999088
      6          8.882120       10.710184   1.000000   0.000000
      7         25.714737       26.063400   0.000000   0.000000
      8         28.382858       28.614327   0.000000   0.000000
      9         35.934535       35.871040   0.000000   0.000000
     10         37.863812       37.801889   0.000000   0.000000
     11         37.954455       38.121974   0.000000   0.000000
     12         39.802159       40.155755   0.000000   0.000000
 
  0.4375000E+00  0.1875000E+00  0.1875000E+00  0.1171875E-01
      1          5.030424        5.294029   1.000000   1.000000
      2          6.686656        7.980140   1.000000   1.000000
      3          7.087261        8.643811   1.000000   1.000000
      4          7.768280        9.527162   1.000000   1.000000
      5          8.280702        9.999687   1.000000   0.078037
      6          9.994833       11.637185   0.100079   0.000000
      7         22.272545       22.739425   0.000000   0.000000
      8         25.089573       25.422965   0.000000   0.000000
      9         33.991091       33.968158   0.000000   0.000000
     10         34.458151       34.776042   0.000000   0.000000
     11         39.797008       39.720167   0.000000   0.000000
     12         41.448354       41.663582   0.000000   0.000000
 
 -0.4375000E+00  0.1875000E+00  0.1875000E+00  0.1171875E-01
      1          5.575150        6.474443   1.000000   1.000000
      2          6.709788        8.032990   1.000000   1.000000
      3          7.336742        8.526211   1.000000   1.000000
      4          7.658178        9.381369   1.000000   1.000000
      5          8.888040       10.698126   1.000000   0.000000
      6         11.980595       13.046014   0.000000   0.000000
      7         17.308004       18.036582   0.000000   0.000000
      8         25.334510       25.652463   0.000000   0.000000
      9         31.418939       31.734044   0.000000   0.000000
     10         32.372438       32.407792   0.000000   0.000000