PROCAR lm decomposed
# of k-points:   60         # of bands:   12         # of ions:    1

 k-point     1 :    0.06250000 0.06250000 0.06250000     weight = 0.00390625

band     1 # energy    1.27391721 # occ.  1.00000000
 
ion      s     py     pz     px    dxy    dyz    dz2    dxz  x2-y2    tot
    1  0.692  0.003  0.003  0.003  0.000  0.000  0.000  0.000  0.000  0.702
 
band     2 # energy    7.25635921 # occ.  1.00000000
 
ion      s     py     pz     px    dxy    dyz    dz2    dxz  x2-y2    tot
    1  0.000  0.000  0.000  0.000  0.322  0.322  0.000  0.322  0.000  0.968
 
band     3 # energy    7.33374817 # occ.  1.00000000
 
ion      s     py     pz     px    dxy    dyz    dz2    dxz  x2-y2    tot
    1  0.000  0.000  0.000  0.000  0.380  0.082  0.001  0.506  0.001  0.970
 
band     4 # energy    7.33374817 # occ.  1.00000000
 
ion      s     py     pz     px    dxy    dyz    dz2    dxz  x2-y2    tot
    1  0.000  0.000  0.000  0.000  0.265  0.564  0.001  0.139  0.001  0.970
 
band     5 # energy    8.30832085 # occ.  1.00000000
 
ion      s     py     pz     px    dxy    dyz    dz2    dxz  x2-y2    tot
    1  0.000  0.000  0.000  0.000  0.001  0.000  0.928  0.000  0.054  0.984
 
band     6 # energy    8.30832085 # occ.  1.00000000
 
ion      s     py     pz     px    dxy    dyz    dz2    dxz  x2-y2    tot
    1  0.000  0.000  0.000  0.000  0.000  0.000  0.054  0.001  0.928  0.984
 
band     7 # energy   32.39525247 # occ.  0.00000000
 
ion      s     py     pz     px    dxy    dyz    dz2    dxz  x2-y2    tot
    1  0.001  0.007  0.007  0.007  0.049  0.049  0.000  0.049  0.000  0.170
 
band     8 # energy   35.18256697 # occ.  0.00000000
 
ion      s     py     pz     px    dxy    dyz    dz2    dxz  x2-y2    tot
    1  0.020  0.087  0.087  0.087  0.038  0.038  0.000  0.038  0.000  0.394
 
band     9 # energy   36.62501040 # occ.  0.00000000
 
ion      s     py     pz     px    dxy    dyz    dz2    dxz  x2-y2    tot
    1  0.000  0.092  0.040  0.171  0.019  0.082  0.003  0.044  0.012  0.465
 
band    10 # energy   36.62501040 # occ.  0.00000000
 
ion      s     py     pz     px    dxy    dyz    dz2    dxz  x2-y2    tot
    1  0.000  0.110  0.162  0.031  0.078  0.015  0.012  0.053  0.003  0.465
 
band    11 # energy   40.43664250 # occ.  0.00000000
 
ion      s     py     pz     px    dxy    dyz    dz2    dxz  x2-y2    tot
    1  0.000  0.003  0.001  0.005  0.139  0.639  0.001  0.321  0.005  1.114
 
band    12 # energy   40.43664343 # occ.  0.00000000
 
ion      s     py     pz     px    dxy    dyz    dz2    dxz  x2-y2    tot
    1  0.000  0.003  0.005  0.001  0.594  0.094  0.005  0.411  0.001  1.114
 

 k-point     2 :    0.18750000 0.06250000 0.06250000     weight = 0.01171875

band     1 # energy    2.05801902 # occ.  1.00000000
 
ion      s     py     pz     px    dxy    dyz    dz2    dxz  x2-y2    tot
    1  0.638  0.028  0.028  0.003  0.001  0.005  0.000  0.001  0.001  0.705
 
band     2 # energy    7.05338519 # occ.  1.00000000
 
ion      s     py     pz     px    dxy    dyz    dz2    dxz  x2-y2    tot
    1  0.001  0.001  0.001  0.006  0.458  0.034  0.000  0.458  0.000  0.958
 
band     3 # energy    7.48491272 # occ.  1.00000000
 
ion      s     py     pz     px    dxy    dyz    dz2    dxz  x2-y2    tot
    1  0.000  0.002  0.002  0.000  0.016  0.841  0.022  0.016  0.067  0.969
 
band     4 # energy    7.48999241 # occ.  1.00000000
 
ion      s     py     pz     px    dxy    dyz    dz2    dxz  x2-y2    tot
    1  0.000  0.000  0.000  0.000  0.474  0.000  0.017  0.474  0.006  0.970
 
band     5 # energy    8.16088663 # occ.  1.00000000
 
ion      s     py     pz     px    dxy    dyz    dz2    dxz  x2-y2    tot
    1  0.000  0.000  0.000  0.000  0.011  0.000  0.717  0.011  0.239  0.978
 
band     6 # energy    8.39497952 # occ.  1.00000000
 
ion      s     py     pz     px    dxy    dyz    dz2    dxz  x2-y2    tot
    1  0.001  0.000  0.000  0.000  0.002  0.085  0.223  0.002  0.669  0.982
 
band     7 # energy   29.48842104 # occ.  0.00000000
 
ion      s     py     pz     px    dxy    dyz    dz2    dxz  x2-y2    tot
    1  0.026  0.047  0.047  0.118  0.167  0.081  0.001  0.167  0.002  0.655
 
band     8 # energy   32.10528195 # occ.  0.00000000
 
ion      s     py     pz     px    dxy    dyz    dz2    dxz  x2-y2    tot
    1  0.039  0.080  0.080  0.034  0.059  0.131  0.006  0.059  0.018  0.505
 
band     9 # energy   35.58929719 # occ.  0.00000000
 
ion      s     py     pz     px    dxy    dyz    dz2    dxz  x2-y2    tot
    1  0.001  0.006  0.006  0.219  0.009  0.064  0.001  0.009  0.003  0.319
 
band    10 # energy   37.62946896 # occ.  0.00000000
 
ion      s     py     pz     px    dxy    dyz    dz2    dxz  x2-y2    tot
    1  0.000  0.111  0.111  0.000  0.095  0.000  0.114  0.095  0.038  0.564
 
band    11 # energy   39.40113183 # occ.  0.00000000
 
ion      s     py     pz     px    dxy    dyz    dz2    dxz  x2-y2    tot
    1  0.000  0.059  0.059  0.011  0.000  0.260  0.013  0.000  0.038  0.440
 
band    12 # energy   40.57601322 # occ.  0.00000000
 
ion      s     py     pz     px    dxy    dyz    dz2    dxz  x2-y2    tot
    1  0.000  0.002  0.002  0.000  0.441  0.000  0.087  0.441  0.029  1.002
 

 k-point     3 :    0.31250000 0.06250000 0.06250000     weight = 0.01171875

band     1 # energy    3.71166189 # occ.  1.00000000
 
ion      s     py     pz     px    dxy    dyz    dz2    dxz  x2-y2    tot
    1  0.486  0.056  0.056  0.016  0.030  0.054  0.001  0.030  0.003  0.732
 
band     2 # energy    6.94897579 # occ.  1.00000000
 
ion      s     py     pz     px    dxy    dyz    dz2    dxz  x2-y2    tot
    1  0.022  0.021  0.021  0.030  0.382  0.058  0.001  0.382  0.002  0.917
 
band     3 # energy    7.43124453 # occ.  1.00000000
 
ion      s     py     pz     px    dxy    dyz    dz2    dxz  x2-y2    tot
    1  0.000  0.003  0.003  0.000  0.033  0.473  0.105  0.033  0.314  0.963
 
band     4 # energy    7.50168673 # occ.  1.00000000
 
ion      s     py     pz     px    dxy    dyz    dz2    dxz  x2-y2    tot
    1  0.000  0.000  0.000  0.000  0.267  0.000  0.326  0.267  0.109  0.968
 
band     5 # energy    8.36847153 # occ.  1.00000000
 
ion      s     py     pz     px    dxy    dyz    dz2    dxz  x2-y2    tot
    1  0.000  0.001  0.001  0.000  0.220  0.000  0.403  0.220  0.134  0.978
 
band     6 # energy    8.78362303 # occ.  1.00000000
 
ion      s     py     pz     px    dxy    dyz    dz2    dxz  x2-y2    tot
    1  0.009  0.005  0.005  0.000  0.017  0.374  0.138  0.017  0.414  0.979
 
band     7 # energy   23.44235622 # occ.  0.00000000
 
ion      s     py     pz     px    dxy    dyz    dz2    dxz  x2-y2    tot
    1  0.121  0.078  0.078  0.133  0.130  0.102  0.001  0.130  0.003  0.776
 
band     8 # energy   31.03298467 # occ.  0.00000000
 
ion      s     py     pz     px    dxy    dyz    dz2    dxz  x2-y2    tot
    1  0.028  0.032  0.032  0.120  0.098  0.063  0.016  0.098  0.047  0.533
 
band     9 # energy   34.54373294 # occ.  0.00000000
 
ion      s     py     pz     px    dxy    dyz    dz2    dxz  x2-y2    tot
    1  0.000  0.063  0.063  0.125  0.002  0.118  0.000  0.002  0.001  0.376
 
band    10 # energy   37.12933748 # occ.  0.00000000
 
ion      s     py     pz     px    dxy    dyz    dz2    dxz  x2-y2    tot
    1  0.000  0.160  0.160  0.000  0.223  0.000  0.063  0.223  0.021  0.852
 
band    11 # energy   38.33458501 # occ.  0.00000000
 
ion      s     py     pz     px    dxy    dyz    dz2    dxz  x2-y2    tot
    1  0.000  0.085  0.085  0.000  0.001  0.000  0.470  0.001  0.157  0.797
 
band    12 # energy   39.36852441 # occ.  0.00000000
 
ion      s     py     pz     px    dxy    dyz    dz2    dxz  x2-y2    tot
    1  0.060  0.055  0.055  0.011  0.010  0.020  0.064  0.010  0.192  0.479
 

 k-point     4 :    0.43750000 0.06250000 0.06250000     weight = 0.01171875

band     1 # energy    4.84710583 # occ.  1.00000000
 
ion      s     py     pz     px    dxy    dyz    dz2    dxz  x2-y2    tot
    1  0.223  0.020  0.020  0.002  0.188  0.208  0.000  0.188  0.001  0.851
 
band     2 # energy    7.21021927 # occ.  1.00000000
 
ion      s     py     pz     px    dxy    dyz    dz2    dxz  x2-y2    tot
    1  0.000  0.002  0.002  0.000  0.046  0.284  0.145  0.046  0.434  0.958
 
band     3 # energy    7.30402987 # occ.  1.00000000
 
ion      s     py     pz     px    dxy    dyz    dz2    dxz  x2-y2    tot
    1  0.000  0.000  0.000  0.000  0.184  0.000  0.447  0.184  0.149  0.963
 
band     4 # energy    7.98378733 # occ.  1.00000000
 
ion      s     py     pz     px    dxy    dyz    dz2    dxz  x2-y2    tot
    1  0.057  0.091  0.091  0.091  0.191  0.025  0.021  0.191  0.064  0.824
 
band     5 # energy    8.89948440 # occ.  1.00000000
 
ion      s     py     pz     px    dxy    dyz    dz2    dxz  x2-y2    tot
    1  0.000  0.000  0.000  0.000  0.306  0.000  0.280  0.306  0.093  0.985
 
band     6 # energy    9.55755254 # occ.  1.00000000
 
ion      s     py     pz     px    dxy    dyz    dz2    dxz  x2-y2    tot
    1  0.043  0.049  0.049  0.030  0.008  0.426  0.077  0.008  0.230  0.920
 
band     7 # energy   18.14429462 # occ.  0.00000000
 
ion      s     py     pz     px    dxy    dyz    dz2    dxz  x2-y2    tot
    1  0.285  0.046  0.046  0.095  0.129  0.103  0.001  0.129  0.002  0.837
 
band     8 # energy   30.58721011 # occ.  0.00000000
 
ion      s     py     pz     px    dxy    dyz    dz2    dxz  x2-y2    tot
    1  0.014  0.007  0.007  0.126  0.054  0.036  0.026  0.054  0.077  0.401
 
band     9 # energy   33.28468061 # occ.  0.00000000
 
ion      s     py     pz     px    dxy    dyz    dz2    dxz  x2-y2    tot
    1  0.014  0.101  0.101  0.175  0.011  0.022  0.002  0.011  0.006  0.443
 
band    10 # energy   34.99777402 # occ.  0.00000000
 
ion      s     py     pz     px    dxy    dyz    dz2    dxz  x2-y2    tot
    1  0.000  0.262  0.262  0.000  0.001  0.000  0.124  0.001  0.041  0.691
 
band    11 # energy   37.49941125 # occ.  0.00000000
 
ion      s     py     pz     px    dxy    dyz    dz2    dxz  x2-y2    tot
    1  0.000  0.027  0.027  0.000  0.197  0.000  0.413  0.197  0.138  0.998
 
band    12 # energy   39.06678484 # occ.  0.00000000
 
ion      s     py     pz     px    dxy    dyz    dz2    dxz  x2-y2    tot
    1  0.051  0.015  0.015  0.013  0.000  0.214  0.130  0.000  0.389  0.828
 

 k-point     5 :   -0.43750000 0.06250000 0.06250000     weight = 0.01171875

band     1 # energy    4.97461956 # occ.  1.00000000
 
ion      s     py     pz     px    dxy    dyz    dz2    dxz  x2-y2    tot
    1  0.157  0.000  0.000  0.006  0.233  0.253  0.000  0.233  0.000  0.885
 
band     2 # energy    7.11831955 # occ.  1.00000000
 
ion      s     py     pz     px    dxy    dyz    dz2    dxz  x2-y2    tot
    1  0.000  0.002  0.002  0.000  0.062  0.198  0.157  0.062  0.471  0.956
 
band     3 # energy    7.25310352 # occ.  1.00000000
 
ion      s     py     pz     px    dxy    dyz    dz2    dxz  x2-y2    tot
    1  0.000  0.000  0.000  0.000  0.181  0.000  0.449  0.181  0.150  0.963
 
band     4 # energy    8.53079693 # occ.  1.00000000
 
ion      s     py     pz     px    dxy    dyz    dz2    dxz  x2-y2    tot
    1  0.002  0.066  0.066  0.065  0.065  0.364  0.048  0.065  0.144  0.884
 
band     5 # energy    9.16860605 # occ.  1.00000000
 
ion      s     py     pz     px    dxy    dyz    dz2    dxz  x2-y2    tot
    1  0.000  0.000  0.000  0.000  0.309  0.000  0.279  0.309  0.093  0.991
 
band     6 # energy   10.37123431 # occ.  0.00000000
 
ion      s     py     pz     px    dxy    dyz    dz2    dxz  x2-y2    tot
    1  0.007  0.141  0.141  0.158  0.051  0.077  0.038  0.051  0.113  0.778
 
band     7 # energy   15.99533249 # occ.  0.00000000
 
ion      s     py     pz     px    dxy    dyz    dz2    dxz  x2-y2    tot
    1  0.432  0.011  0.011  0.000  0.140  0.154  0.000  0.140  0.000  0.889
 
band     8 # energy   30.74418908 # occ.  0.00000000
 
ion      s     py     pz     px    dxy    dyz    dz2    dxz  x2-y2    tot
    1  0.001  0.001  0.001  0.054  0.010  0.039  0.028  0.010  0.083  0.226
 
band     9 # energy   33.18192891 # occ.  0.00000000
 
ion      s     py     pz     px    dxy    dyz    dz2    dxz  x2-y2    tot
    1  0.000  0.252  0.252  0.000  0.033  0.000  0.106  0.033  0.035  0.713
 
band    10 # energy   33.35852534 # occ.  0.00000000
 
ion      s     py     pz     px    dxy    dyz    dz2    dxz  x2-y2    tot
    1  0.037  0.092  0.092  0.304  0.013  0.006  0.012  0.013  0.035  0.601
 
band    11 # energy   38.30699488 # occ.  0.00000000
 
ion      s     py     pz     px    dxy    dyz    dz2    dxz  x2-y2    tot
    1  0.000  0.051  0.051  0.000  0.140  0.000  0.420  0.140  0.140  0.941
 
band    12 # energy   38.35875070 # occ.  0.00000000
 
ion      s     py     pz     px    dxy    dyz    dz2    dxz  x2-y2    tot
    1  0.011  0.003  0.003  0.028  0.026  0.260  0.138  0.026  0.414  0.908
 

 k-point     6 :   -0.31250000 0.06250000 0.06250000     weight = 0.01171875

band     1 # energy    4.62965303 # occ.  1.00000000
 
ion      s     py     pz     px    dxy    dyz    dz2    dxz  x2-y2    tot
    1  0.300  0.015  0.015  0.050  0.142  0.140  0.002  0.142  0.005  0.811
 
band     2 # energy    7.24657178 # occ.  1.00000000
 
ion      s     py     pz     px    dxy    dyz    dz2    dxz  x2-y2    tot
    1  0.001  0.005  0.005  0.004  0.114  0.092  0.154  0.114  0.463  0.952
 
band     3 # energy    7.38966881 # occ.  1.00000000
 
ion      s     py     pz     px    dxy    dyz    dz2    dxz  x2-y2    tot
    1  0.000  0.001  0.001  0.000  0.224  0.000  0.387  0.224  0.129  0.965
 
band     4 # energy    7.46842932 # occ.  1.00000000
 
ion      s     py     pz     px    dxy    dyz    dz2    dxz  x2-y2    tot
    1  0.064  0.066  0.066  0.068  0.013  0.558  0.001  0.013  0.004  0.852
 
band     5 # energy    8.97100893 # occ.  1.00000000
 
ion      s     py     pz     px    dxy    dyz    dz2    dxz  x2-y2    tot
    1  0.000  0.001  0.001  0.000  0.264  0.000  0.344  0.264  0.115  0.988
 
band     6 # energy    9.03621270 # occ.  1.00000000
 
ion      s     py     pz     px    dxy    dyz    dz2    dxz  x2-y2    tot
    1  0.031  0.015  0.015  0.033  0.190  0.138  0.085  0.190  0.254  0.949
 
band     7 # energy   19.75087521 # occ.  0.00000000
 
ion      s     py     pz     px    dxy    dyz    dz2    dxz  x2-y2    tot
    1  0.220  0.097  0.097  0.050  0.106  0.135  0.001  0.106  0.002  0.815
 
band     8 # energy   31.46244799 # occ.  0.00000000
 
ion      s     py     pz     px    dxy    dyz    dz2    dxz  x2-y2    tot
    1  0.006  0.006  0.006  0.003  0.000  0.099  0.022  0.000  0.066  0.209
 
band     9 # energy   32.65533966 # occ.  0.00000000
 
ion      s     py     pz     px    dxy    dyz    dz2    dxz  x2-y2    tot
    1  0.000  0.228  0.228  0.000  0.114  0.000  0.071  0.114  0.024  0.777
 
band    10 # energy   35.01044859 # occ.  0.00000000
 
ion      s     py     pz     px    dxy    dyz    dz2    dxz  x2-y2    tot
    1  0.047  0.046  0.046  0.390  0.000  0.080  0.025  0.000  0.076  0.709
 
band    11 # energy   38.20094811 # occ.  0.00000000
 
ion      s     py     pz     px    dxy    dyz    dz2    dxz  x2-y2    tot
    1  0.000  0.003  0.003  0.015  0.065  0.166  0.130  0.065  0.389  0.836
 
band    12 # energy   40.01288463 # occ.  0.00000000
 
ion      s     py     pz     px    dxy    dyz    dz2    dxz  x2-y2    tot
    1  0.000  0.062  0.062  0.000  0.045  0.000  0.437  0.045  0.146  0.794
 

 k-point     7 :   -0.18750000 0.06250000 0.06250000     weight = 0.01171875

band     1 # energy    3.11621937 # occ.  1.00000000
 
ion      s     py     pz     px    dxy    dyz    dz2    dxz  x2-y2    tot
    1  0.551  0.023  0.023  0.068  0.018  0.010  0.001  0.018  0.003  0.715
 
band     2 # energy    6.90259897 # occ.  1.00000000
 
ion      s     py     pz     px    dxy    dyz    dz2    dxz  x2-y2    tot
    1  0.008  0.013  0.013  0.008  0.135  0.624  0.000  0.135  0.001  0.938
 
band     3 # energy    7.49238569 # occ.  1.00000000
 
ion      s     py     pz     px    dxy    dyz    dz2    dxz  x2-y2    tot
    1  0.000  0.001  0.001  0.001  0.195  0.211  0.091  0.195  0.272  0.966
 
band     4 # energy    7.54848705 # occ.  1.00000000
 
ion      s     py     pz     px    dxy    dyz    dz2    dxz  x2-y2    tot
    1  0.000  0.002  0.002  0.000  0.354  0.000  0.194  0.354  0.065  0.969
 
band     5 # energy    8.30046574 # occ.  1.00000000
 
ion      s     py     pz     px    dxy    dyz    dz2    dxz  x2-y2    tot
    1  0.006  0.001  0.001  0.005  0.126  0.106  0.151  0.126  0.453  0.974
 
band     6 # energy    8.54805597 # occ.  1.00000000
 
ion      s     py     pz     px    dxy    dyz    dz2    dxz  x2-y2    tot
    1  0.000  0.001  0.001  0.000  0.130  0.000  0.541  0.130  0.180  0.983
 
band     7 # energy   25.43087798 # occ.  0.00000000
 
ion      s     py     pz     px    dxy    dyz    dz2    dxz  x2-y2    tot
    1  0.085  0.111  0.111  0.061  0.116  0.148  0.001  0.116  0.003  0.752
 
band     8 # energy   32.49921705 # occ.  0.00000000
 
ion      s     py     pz     px    dxy    dyz    dz2    dxz  x2-y2    tot
    1  0.027  0.001  0.001  0.015  0.001  0.173  0.013  0.001  0.040  0.271
 
band     9 # energy   33.20322634 # occ.  0.00000000
 
ion      s     py     pz     px    dxy    dyz    dz2    dxz  x2-y2    tot
    1  0.000  0.196  0.196  0.000  0.179  0.000  0.036  0.179  0.012  0.798
 
band    10 # energy   37.66498404 # occ.  0.00000000
 
ion      s     py     pz     px    dxy    dyz    dz2    dxz  x2-y2    tot
    1  0.029  0.001  0.001  0.305  0.027  0.151  0.041  0.027  0.124  0.706
 
band    11 # energy   38.02042782 # occ.  0.00000000
 
ion      s     py     pz     px    dxy    dyz    dz2    dxz  x2-y2    tot
    1  0.000  0.047  0.047  0.046  0.040  0.071  0.063  0.040  0.188  0.541
 
band    12 # energy   42.27771936 # occ.  0.00000000
 
ion      s     py     pz     px    dxy    dyz    dz2    dxz  x2-y2    tot
    1  0.000  0.047  0.029  0.001  0.012  0.000  0.325  0.008  0.135  0.558
 

 k-point     8 :   -0.06250000 0.06250000 0.06250000     weight = 0.01171875

band     1 # energy    1.67237319 # occ.  1.00000000
 
ion      s     py     pz     px    dxy    dyz    dz2    dxz  x2-y2    tot
    1  0.665  0.003  0.003  0.030  0.000  0.000  0.000  0.000  0.001  0.703
 
band     2 # energy    7.11996078 # occ.  1.00000000
 
ion      s     py     pz     px    dxy    dyz    dz2    dxz  x2-y2    tot
    1  0.000  0.001  0.001  0.000  0.058  0.845  0.000  0.058  0.000  0.963
 
band     3 # energy    7.43887230 # occ.  1.00000000
 
ion      s     py     pz     px    dxy    dyz    dz2    dxz  x2-y2    tot
    1  0.000  0.001  0.001  0.001  0.420  0.117  0.002  0.420  0.007  0.970
 
band     4 # energy    7.44277310 # occ.  1.00000000
 
ion      s     py     pz     px    dxy    dyz    dz2    dxz  x2-y2    tot
    1  0.000  0.001  0.001  0.000  0.478  0.000  0.009  0.478  0.003  0.970
 
band     5 # energy    8.17948841 # occ.  1.00000000
 
ion      s     py     pz     px    dxy    dyz    dz2    dxz  x2-y2    tot
    1  0.001  0.000  0.000  0.000  0.004  0.001  0.242  0.004  0.727  0.979
 
band     6 # energy    8.37204415 # occ.  1.00000000
 
ion      s     py     pz     px    dxy    dyz    dz2    dxz  x2-y2    tot
    1  0.000  0.000  0.000  0.000  0.006  0.000  0.729  0.006  0.243  0.984
 
band     7 # energy   31.30461007 # occ.  0.00000000
 
ion      s     py     pz     px    dxy    dyz    dz2    dxz  x2-y2    tot
    1  0.008  0.049  0.049  0.015  0.075  0.214  0.000  0.075  0.001  0.485
 
band     8 # energy   33.68748457 # occ.  0.00000000
 
ion      s     py     pz     px    dxy    dyz    dz2    dxz  x2-y2    tot
    1  0.033  0.045  0.045  0.072  0.040  0.041  0.005  0.040  0.015  0.337
 
band     9 # energy   34.59608387 # occ.  0.00000000
 
ion      s     py     pz     px    dxy    dyz    dz2    dxz  x2-y2    tot
    1  0.000  0.169  0.169  0.000  0.181  0.000  0.006  0.181  0.002  0.708
 
band    10 # energy   36.50889142 # occ.  0.00000000
 
ion      s     py     pz     px    dxy    dyz    dz2    dxz  x2-y2    tot
    1  0.009  0.079  0.079  0.060  0.028  0.003  0.023  0.028  0.068  0.377
 
band    11 # energy   40.38447490 # occ.  0.00000000
 
ion      s     py     pz     px    dxy    dyz    dz2    dxz  x2-y2    tot
    1  0.000  0.001  0.001  0.068  0.220  0.413  0.001  0.220  0.004  0.928
 
band    12 # energy   42.25214344 # occ.  0.00000000
 
ion      s     py     pz     px    dxy    dyz    dz2    dxz  x2-y2    tot
    1  0.000  0.001  0.002  0.017  0.285  0.082  0.020  0.257  0.006  0.671
 

 k-point     9 :    0.18750000 0.18750000 0.06250000     weight = 0.01171875

band     1 # energy    2.43315213 # occ.  1.00000000
 
ion      s     py     pz     px    dxy    dyz    dz2    dxz  x2-y2    tot
    1  0.609  0.003  0.077  0.003  0.000  0.001  0.010  0.001  0.000  0.706
 
band     2 # energy    6.85610564 # occ.  1.00000000
 
ion      s     py     pz     px    dxy    dyz    dz2    dxz  x2-y2    tot
    1  0.000  0.001  0.000  0.001  0.915  0.019  0.000  0.019  0.000  0.955
 
band     3 # energy    7.62577457 # occ.  1.00000000
 
ion      s     py     pz     px    dxy    dyz    dz2    dxz  x2-y2    tot
    1  0.000  0.002  0.000  0.002  0.035  0.394  0.141  0.394  0.000  0.969
 
band     4 # energy    7.65539614 # occ.  1.00000000
 
ion      s     py     pz     px    dxy    dyz    dz2    dxz  x2-y2    tot
    1  0.000  0.003  0.000  0.003  0.000  0.464  0.000  0.464  0.035  0.970
 
band     5 # energy    8.00517916 # occ.  1.00000000
 
ion      s     py     pz     px    dxy    dyz    dz2    dxz  x2-y2    tot
    1  0.007  0.000  0.003  0.000  0.005  0.067  0.819  0.067  0.000  0.970
 
band     6 # energy    8.49098843 # occ.  1.00000000
 
ion      s     py     pz     px    dxy    dyz    dz2    dxz  x2-y2    tot
    1  0.000  0.000  0.000  0.000  0.000  0.018  0.000  0.018  0.949  0.985
 
band     7 # energy   29.78783908 # occ.  0.00000000
 
ion      s     py     pz     px    dxy    dyz    dz2    dxz  x2-y2    tot
    1  0.019  0.102  0.016  0.102  0.231  0.097  0.009  0.097  0.000  0.673
 
band     8 # energy   32.30196003 # occ.  0.00000000
 
ion      s     py     pz     px    dxy    dyz    dz2    dxz  x2-y2    tot
    1  0.031  0.019  0.021  0.019  0.216  0.017  0.077  0.017  0.000  0.417
 
band     9 # energy   32.32365853 # occ.  0.00000000
 
ion      s     py     pz     px    dxy    dyz    dz2    dxz  x2-y2    tot
    1  0.000  0.201  0.000  0.201  0.000  0.178  0.000  0.178  0.006  0.764
 
band    10 # energy   34.61629413 # occ.  0.00000000
 
ion      s     py     pz     px    dxy    dyz    dz2    dxz  x2-y2    tot
    1  0.004  0.070  0.000  0.070  0.042  0.050  0.196  0.050  0.000  0.482
 
band    11 # energy   39.84690268 # occ.  0.00000000
 
ion      s     py     pz     px    dxy    dyz    dz2    dxz  x2-y2    tot
    1  0.175  0.017  0.571  0.017  0.004  0.000  0.136  0.000  0.000  0.921
 
band    12 # energy   42.73591667 # occ.  0.00000000
 
ion      s     py     pz     px    dxy    dyz    dz2    dxz  x2-y2    tot
    1  0.026  0.000  0.002  0.000  0.367  0.142  0.067  0.142  0.000  0.746
 

 k-point    10 :    0.31250000 0.18750000 0.06250000     weight = 0.02343750

band     1 # energy    3.76691242 # occ.  1.00000000
 
ion      s     py     pz     px    dxy    dyz    dz2    dxz  x2-y2    tot
    1  0.485  0.022  0.126  0.002  0.002  0.029  0.050  0.004  0.000  0.721
 
band     2 # energy    6.56796319 # occ.  1.00000000
 
ion      s     py     pz     px    dxy    dyz    dz2    dxz  x2-y2    tot
    1  0.001  0.002  0.001  0.011  0.844  0.006  0.003  0.075  0.000  0.943
 
band     3 # energy    7.41732750 # occ.  1.00000000
 
ion      s     py     pz     px    dxy    dyz    dz2    dxz  x2-y2    tot
    1  0.006  0.003  0.002  0.000  0.017  0.342  0.536  0.015  0.036  0.958
 
band     4 # energy    7.90211778 # occ.  1.00000000
 
ion      s     py     pz     px    dxy    dyz    dz2    dxz  x2-y2    tot
    1  0.002  0.002  0.002  0.004  0.043  0.123  0.050  0.557  0.188  0.970
 
band     5 # energy    8.26592887 # occ.  1.00000000
 
ion      s     py     pz     px    dxy    dyz    dz2    dxz  x2-y2    tot
    1  0.014  0.003  0.012  0.003  0.036  0.115  0.253  0.302  0.227  0.966
 
band     6 # energy    8.85856082 # occ.  1.00000000
 
ion      s     py     pz     px    dxy    dyz    dz2    dxz  x2-y2    tot
    1  0.013  0.004  0.007  0.000  0.001  0.349  0.070  0.003  0.531  0.979
 
band     7 # energy   25.97428407 # occ.  0.00000000
 
ion      s     py     pz     px    dxy    dyz    dz2    dxz  x2-y2    tot
    1  0.057  0.102  0.021  0.190  0.177  0.075  0.017  0.116  0.003  0.757
 
band     8 # energy   28.55623352 # occ.  0.00000000
 
ion      s     py     pz     px    dxy    dyz    dz2    dxz  x2-y2    tot
    1  0.040  0.147  0.012  0.134  0.102  0.110  0.048  0.073  0.018  0.684
 
band     9 # energy   32.30681602 # occ.  0.00000000
 
ion      s     py     pz     px    dxy    dyz    dz2    dxz  x2-y2    tot
    1  0.011  0.060  0.098  0.025  0.026  0.025  0.323  0.016  0.004  0.588
 
band    10 # energy   34.25571008 # occ.  0.00000000
 
ion      s     py     pz     px    dxy    dyz    dz2    dxz  x2-y2    tot
    1  0.029  0.003  0.078  0.100  0.308  0.001  0.052  0.058  0.001  0.631
 
band    11 # energy   38.78334957 # occ.  0.00000000
 
ion      s     py     pz     px    dxy    dyz    dz2    dxz  x2-y2    tot
    1  0.167  0.184  0.317  0.026  0.016  0.049  0.003  0.006  0.000  0.767
 
band    12 # energy   42.53716143 # occ.  0.00000000
 
ion      s     py     pz     px    dxy    dyz    dz2    dxz  x2-y2    tot
    1  0.029  0.023  0.020  0.002  0.057  0.008  0.178  0.028  0.154  0.499
 

 k-point    11 :    0.43750000 0.18750000 0.06250000     weight = 0.02343750

band     1 # energy    5.12942276 # occ.  1.00000000
 
ion      s     py     pz     px    dxy    dyz    dz2    dxz  x2-y2    tot
    1  0.236  0.018  0.089  0.001  0.155  0.143  0.090  0.084  0.001  0.817
 
band     2 # energy    6.68476416 # occ.  1.00000000
 
ion      s     py     pz     px    dxy    dyz    dz2    dxz  x2-y2    tot
    1  0.013  0.036  0.022  0.037  0.357  0.025  0.331  0.062  0.011  0.894
 
band     3 # energy    7.12439058 # occ.  1.00000000
 
ion      s     py     pz     px    dxy    dyz    dz2    dxz  x2-y2    tot
    1  0.024  0.001  0.020  0.007  0.316  0.273  0.254  0.006  0.042  0.943
 
band     4 # energy    7.75018290 # occ.  1.00000000
 
ion      s     py     pz     px    dxy    dyz    dz2    dxz  x2-y2    tot
    1  0.002  0.004  0.005  0.001  0.039  0.075  0.051  0.294  0.494  0.965
 
band     5 # energy    8.94178213 # occ.  1.00000000
 
ion      s     py     pz     px    dxy    dyz    dz2    dxz  x2-y2    tot
    1  0.003  0.001  0.007  0.004  0.036  0.063  0.053  0.469  0.347  0.981
 
band     6 # energy   10.02572805 # occ.  0.01558317
 
ion      s     py     pz     px    dxy    dyz    dz2    dxz  x2-y2    tot
    1  0.087  0.032  0.083  0.016  0.015  0.389  0.179  0.034  0.080  0.914
 
band     7 # energy   20.25859478 # occ.  0.00000000
 
ion      s     py     pz     px    dxy    dyz    dz2    dxz  x2-y2    tot
    1  0.183  0.101  0.020  0.169  0.154  0.069  0.014  0.089  0.003  0.801
 
band     8 # energy   27.97245832 # occ.  0.00000000
 
ion      s     py     pz     px    dxy    dyz    dz2    dxz  x2-y2    tot
    1  0.018  0.107  0.001  0.171  0.095  0.065  0.109  0.040  0.056  0.661
 
band     9 # energy   29.89166634 # occ.  0.00000000
 
ion      s     py     pz     px    dxy    dyz    dz2    dxz  x2-y2    tot
    1  0.072  0.018  0.227  0.072  0.000  0.000  0.244  0.034  0.018  0.685
 
band    10 # energy   33.87494862 # occ.  0.00000000
 
ion      s     py     pz     px    dxy    dyz    dz2    dxz  x2-y2    tot
    1  0.062  0.143  0.104  0.026  0.227  0.019  0.002  0.014  0.006  0.602
 
band    11 # energy   40.49739122 # occ.  0.00000000
 
ion      s     py     pz     px    dxy    dyz    dz2    dxz  x2-y2    tot
    1  0.015  0.111  0.003  0.003  0.189  0.020  0.092  0.041  0.206  0.679
 
band    12 # energy   42.88967068 # occ.  0.00000000
 
ion      s     py     pz     px    dxy    dyz    dz2    dxz  x2-y2    tot
    1  0.137  0.104  0.101  0.055  0.004  0.001  0.232  0.007  0.004  0.645
 

 k-point    12 :   -0.43750000 0.18750000 0.06250000     weight = 0.02343750

band     1 # energy    5.43452691 # occ.  1.00000000
 
ion      s     py     pz     px    dxy    dyz    dz2    dxz  x2-y2    tot
    1  0.115  0.000  0.023  0.008  0.333  0.236  0.010  0.167  0.000  0.893
 
band     2 # energy    6.71633093 # occ.  1.00000000
 
ion      s     py     pz     px    dxy    dyz    dz2    dxz  x2-y2    tot
    1  0.000  0.026  0.003  0.011  0.031  0.076  0.682  0.011  0.075  0.916
 
band     3 # energy    7.55128589 # occ.  1.00000000
 
ion      s     py     pz     px    dxy    dyz    dz2    dxz  x2-y2    tot
    1  0.002  0.022  0.030  0.043  0.210  0.318  0.087  0.034  0.179  0.924
 
band     4 # energy    7.61054205 # occ.  1.00000000
 
ion      s     py     pz     px    dxy    dyz    dz2    dxz  x2-y2    tot
    1  0.001  0.020  0.033  0.008  0.221  0.014  0.009  0.223  0.410  0.940
 
band     5 # energy    9.13398914 # occ.  1.00000000
 
ion      s     py     pz     px    dxy    dyz    dz2    dxz  x2-y2    tot
    1  0.000  0.000  0.000  0.000  0.037  0.172  0.030  0.466  0.285  0.989
 
band     6 # energy   12.17322837 # occ.  0.00000000
 
ion      s     py     pz     px    dxy    dyz    dz2    dxz  x2-y2    tot
    1  0.013  0.126  0.179  0.126  0.056  0.108  0.154  0.016  0.020  0.796
 
band     7 # energy   16.19342864 # occ.  0.00000000
 
ion      s     py     pz     px    dxy    dyz    dz2    dxz  x2-y2    tot
    1  0.401  0.015  0.009  0.054  0.161  0.115  0.001  0.113  0.001  0.869
 
band     8 # energy   27.40190087 # occ.  0.00000000
 
ion      s     py     pz     px    dxy    dyz    dz2    dxz  x2-y2    tot