Pt-fcc                                  
   1.00000000000000     
     0.000000    2.137157    2.137157
     2.137157    0.000000    2.137157
     2.137157    2.137157    0.000000
   Pt
     1
Direct
  0.000000  0.000000  0.000000
 
   40   40   40
  171.08      170.89      169.77      166.32      158.90      146.39      128.83      107.57      84.939      63.521    
  45.400      31.627      22.109      15.886      11.694      8.8730      7.0408      5.8845      5.1863      4.8129    
  4.6955      4.8129      5.1863      5.8845      7.0408      8.8730      11.694      15.886      22.109      31.627    
  45.400      63.521      84.939      107.57      128.83      146.39      158.90      166.32      169.77      170.89    
  170.89      170.23      167.92      162.39      152.26      136.98      117.30      95.126      72.979      53.237    
  37.456      26.067      18.476      13.470      10.056      7.8020      6.3574      5.4609      4.9421      4.7040    
  4.7040      4.9421      5.4609      6.3574      7.8020      10.056      13.470      18.476      26.067      37.456    
  53.237      72.979      95.126      117.30      136.98      152.26      162.39      167.92      170.23      170.89    
  169.77      167.92      163.46      155.02      141.75      123.88      102.81      80.787      60.237      43.040    
  30.076      21.154      15.292      11.303      8.6174      6.8690      5.7615      5.0899      4.7295      4.6158    
  4.7295      5.0899      5.7615      6.8690      8.6174      11.303      15.292      21.154      30.076      43.040    
  60.237      80.787      102.81      123.88      141.75      155.02      163.46      167.92      169.77      170.23    
  166.32      162.39      155.02      143.31      127.17      107.55      86.319      65.743      47.826      33.765    
  23.738      17.050      12.542      9.4490      7.4006      6.0795      5.2529      4.7706      4.5480      4.5480    
  4.7706      5.2529      6.0795      7.4006      9.4490      12.542      17.050      23.738      33.765      47.826    
  65.743      86.319      107.55      127.17      143.31      155.02      162.39      166.32      167.92      167.92    
  158.90      152.26      141.75      127.17      109.15      89.177      69.251      51.321      36.745      25.987    
  18.634      13.686      10.246      7.9246      6.4013      5.4249      4.8251      4.4996      4.3963      4.4996    
  4.8251      5.4249      6.4013      7.9246      10.246      13.686      18.634      25.987      36.745      51.321    
  69.251      89.177      109.15      127.17      141.75      152.26      158.90      162.39      163.46      162.39    
  146.39      136.98      123.88      107.55      89.177      70.454      53.163      38.683      27.654      19.907    
  14.645      10.950      8.4072      6.7083      5.5968      4.8889      4.4690      4.2728      4.2728      4.4690    
  4.8889      5.5968      6.7083      8.4072      10.950      14.645      19.907      27.654      38.683      53.163    
  70.454      89.177      107.55      123.88      136.98      146.39      152.26      155.02      155.02      152.26    
  128.83      117.30      102.81      86.319      69.251      53.163      39.355      28.543      20.736      15.337    
  11.504      8.8117      6.9794      5.7570      4.9564      4.4536      4.1757      4.0866      4.1757      4.4536    
  4.9564      5.7570      6.9794      8.8117      11.504      15.337      20.736      28.543      39.355      53.163    
  69.251      86.319      102.81      117.30      128.83      136.98      141.75      143.31      141.75      136.98    
  107.57      95.126      80.787      65.743      51.321      38.683      28.543      21.024      15.700      11.858    
  9.1038      7.1926      5.8927      5.0206      4.4497      4.1027      3.9378      3.9378      4.1027      4.4497    
  5.0206      5.8927      7.1926      9.1038      11.858      15.700      21.024      28.543      38.683      51.321    
  65.743      80.787      95.126      107.57      117.30      123.88      127.17      127.17      123.88      117.30    
  84.939      72.979      60.237      47.826      36.745      27.654      20.736      15.700      11.980      9.2570    
  7.3292      5.9915      5.0737      4.4529      4.0510      3.8237      3.7499      3.8237      4.0510      4.4529    
  5.0737      5.9915      7.3292      9.2570      11.980      15.700      20.736      27.654      36.745      47.826    
  60.237      72.979      84.939      95.126      102.81      107.55      109.15      107.55      102.81      95.126    
  63.521      53.237      43.040      33.765      25.987      19.907      15.337      11.858      9.2570      7.3762    
  6.0436      5.1088      4.4584      4.0174      3.7414      3.6079      3.6079      3.7414      4.0174      4.4584    
  5.1088      6.0436      7.3762      9.2570      11.858      15.337      19.907      25.987      33.765      43.040    
  53.237      63.521      72.979      80.787      86.319      89.177      89.177      86.319      80.787      72.979    
  45.400      37.456      30.076      23.738      18.634      14.645      11.504      9.1038      7.3292      6.0436    
  5.1211      4.4623      3.9987      3.6883      3.5086      3.4497      3.5086      3.6883      3.9987      4.4623    
  5.1211      6.0436      7.3292      9.1038      11.504      14.645      18.634      23.738      30.076      37.456    
  45.400      53.237      60.237      65.743      69.251      70.454      69.251      65.743      60.237      53.237    
  31.627      26.067      21.154      17.050      13.686      10.950      8.8117      7.1926      5.9915      5.1088    
  4.4623      3.9928      3.6624      3.4500      3.3457      3.3457      3.4500      3.6624      3.9928      4.4623    
  5.1088      5.9915      7.1926      8.8117      10.950      13.686      17.050      21.154      26.067      31.627    
  37.456      43.040      47.826      51.321      53.163      53.163      51.321      47.826      43.040      37.456    
  22.109      18.476      15.292      12.542      10.246      8.4072      6.9794      5.8927      5.0737      4.4584    
  3.9987      3.6624      3.4307      3.2942      3.2490      3.2942      3.4307      3.6624      3.9987      4.4584    
  5.0736      5.8927      6.9794      8.4072      10.246      12.542      15.292      18.476      22.109      26.067    
  30.076      33.765      36.745      38.683      39.355      38.683      36.745      33.765      30.076      26.067    
  15.886      13.470      11.303      9.4490      7.9246      6.7083      5.7570      5.0206      4.4529      4.0174    
  3.6883      3.4500      3.2942      3.2169      3.2169      3.2942      3.4500      3.6883      4.0174      4.4529    
  5.0206      5.7570      6.7083      7.9246      9.4490      11.303      13.470      15.886      18.476      21.154    
  23.738      25.987      27.654      28.543      28.543      27.654      25.987      23.738      21.154      18.476    
  11.694      10.056      8.6174      7.4006      6.4013      5.5968      4.9564      4.4497      4.0510      3.7414    
  3.5086      3.3457      3.2490      3.2169      3.2490      3.3457      3.5086      3.7414      4.0510      4.4497    
  4.9564      5.5968      6.4013      7.4006      8.6174      10.056      11.694      13.470      15.292      17.050    
  18.634      19.907      20.736      21.024      20.736      19.907      18.634      17.050      15.292      13.470    
  8.8730      7.8020      6.8690      6.0795      5.4249      4.8889      4.4536      4.1027      3.8237      3.6079    
  3.4497      3.3457      3.2942      3.2942      3.3457      3.4497      3.6079      3.8237      4.1027      4.4536    
  4.8889      5.4249      6.0795      6.8690      7.8020      8.8730      10.056      11.303      12.542      13.686    
  14.645      15.337      15.700      15.700      15.337      14.645      13.686      12.542      11.303      10.056    
  7.0408      6.3574      5.7615      5.2529      4.8251      4.4690      4.1757      3.9378      3.7499      3.6079    
  3.5086      3.4500      3.4307      3.4500      3.5086      3.6079      3.7499      3.9378      4.1757      4.4690    
  4.8251      5.2529      5.7615      6.3574      7.0408      7.8020      8.6174      9.4490      10.246      10.950    
  11.504      11.858      11.980      11.858      11.504      10.950      10.246      9.4490      8.6174      7.8020    
  5.8845      5.4609      5.0899      4.7706      4.4996      4.2728      4.0866      3.9378      3.8237      3.7414    
  3.6883      3.6624      3.6624      3.6883      3.7414      3.8237      3.9378      4.0866      4.2728      4.4996    
  4.7706      5.0899      5.4609      5.8845      6.3574      6.8690      7.4006      7.9246      8.4072      8.8117    
  9.1038      9.2570      9.2570      9.1038      8.8117      8.4072      7.9246      7.4006      6.8690      6.3574    
  5.1863      4.9421      4.7295      4.5480      4.3963      4.2728      4.1757      4.1027      4.0510      4.0174    
  3.9987      3.9928      3.9987      4.0174      4.0510      4.1027      4.1757      4.2728      4.3963      4.5480    
  4.7295      4.9421      5.1863      5.4609      5.7615      6.0795      6.4013      6.7083      6.9794      7.1926    
  7.3292      7.3762      7.3292      7.1926      6.9794      6.7083      6.4013      6.0795      5.7615      5.4609    
  4.8129      4.7040      4.6158      4.5480      4.4996      4.4690      4.4536      4.4497      4.4529      4.4584    
  4.4623      4.4623      4.4584      4.4529      4.4497      4.4536      4.4690      4.4996      4.5480      4.6159    
  4.7041      4.8129      4.9421      5.0899      5.2529      5.4249      5.5968      5.7570      5.8927      5.9915    
  6.0436      6.0436      5.9915      5.8927      5.7570      5.5968      5.4249      5.2529      5.0899      4.9421    
  4.6955      4.7040      4.7295      4.7706      4.8251      4.8889      4.9564      5.0206      5.0737      5.1088    
  5.1211      5.1088      5.0736      5.0206      4.9564      4.8889      4.8251      4.7706      4.7295      4.7041    
  4.6955      4.7041      4.7295      4.7706      4.8251      4.8889      4.9564      5.0206      5.0736      5.1088    
  5.1211      5.1088      5.0737      5.0206      4.9564      4.8889      4.8251      4.7706      4.7295      4.7040    
  4.8129      4.9421      5.0899      5.2529      5.4249      5.5968      5.7570      5.8927      5.9915      6.0436    
  6.0436      5.9915      5.8927      5.7570      5.5968      5.4249      5.2529      5.0899      4.9421      4.8129    
  4.7041      4.6159      4.5480      4.4996      4.4690      4.4536      4.4497      4.4529      4.4584      4.4623    
  4.4623      4.4584      4.4529      4.4497      4.4536      4.4690      4.4996      4.5480      4.6158      4.7040    
  5.1863      5.4609      5.7615      6.0795      6.4013      6.7083      6.9794      7.1926      7.3292      7.3762    
  7.3292      7.1926      6.9794      6.7083      6.4013      6.0795      5.7615      5.4609      5.1863      4.9421    
  4.7295      4.5480      4.3963      4.2728      4.1757      4.1027      4.0510      4.0174      3.9987      3.9928    
  3.9987      4.0174      4.0510      4.1027      4.1757      4.2728      4.3963      4.5480      4.7295      4.9421    
  5.8845      6.3574      6.8690      7.4006      7.9246      8.4072      8.8117      9.1038      9.2570      9.2570    
  9.1038      8.8117      8.4072      7.9246      7.4006      6.8690      6.3574      5.8845      5.4609      5.0899    
  4.7706      4.4996      4.2728      4.0866      3.9378      3.8237      3.7414      3.6883      3.6624      3.6624    
  3.6883      3.7414      3.8237      3.9378      4.0866      4.2728      4.4996      4.7706      5.0899      5.4609    
  7.0408      7.8020      8.6174      9.4490      10.246      10.950      11.504      11.858      11.980      11.858    
  11.504      10.950      10.246      9.4490      8.6174      7.8020      7.0408      6.3574      5.7615      5.2529    
  4.8251      4.4690      4.1757      3.9378      3.7499      3.6079      3.5086      3.4500      3.4307      3.4500    
  3.5086      3.6079      3.7499      3.9378      4.1757      4.4690      4.8251      5.2529      5.7615      6.3574    
  8.8730      10.056      11.303      12.542      13.686      14.645      15.337      15.700      15.700      15.337    
  14.645      13.686      12.542      11.303      10.056      8.8730      7.8020      6.8690      6.0795      5.4249    
  4.8889      4.4536      4.1027      3.8237      3.6079      3.4497      3.3457      3.2942      3.2942      3.3457    
  3.4497      3.6079      3.8237      4.1027      4.4536      4.8889      5.4249      6.0795      6.8690      7.8020    
  11.694      13.470      15.292      17.050      18.634      19.907      20.736      21.024      20.736      19.907    
  18.634      17.050      15.292      13.470      11.694      10.056      8.6174      7.4006      6.4013      5.5968    
  4.9564      4.4497      4.0510      3.7414      3.5086      3.3457      3.2490      3.2169      3.2490      3.3457    
  3.5086      3.7414      4.0510      4.4497      4.9564      5.5968      6.4013      7.4006      8.6174      10.056    
  15.886      18.476      21.154      23.738      25.987      27.654      28.543      28.543      27.654      25.987    
  23.738      21.154      18.476      15.886      13.470      11.303      9.4490      7.9246      6.7083      5.7570    
  5.0206      4.4529      4.0174      3.6883      3.4500      3.2942      3.2169      3.2169      3.2942      3.4500    
  3.6883      4.0174      4.4529      5.0206      5.7570      6.7083      7.9246      9.4490      11.303      13.470    
  22.109      26.067      30.076      33.765      36.745      38.683      39.355      38.683      36.745      33.765    
  30.076      26.067      22.109      18.476      15.292      12.542      10.246      8.4072      6.9794      5.8927    
  5.0736      4.4584      3.9987      3.6624      3.4307      3.2942      3.2490      3.2942      3.4307      3.6624    
  3.9987      4.4584      5.0737      5.8927      6.9794      8.4072      10.246      12.542      15.292      18.476    
  31.627      37.456      43.040      47.826      51.321      53.163      53.163      51.321      47.826      43.040    
  37.456      31.627      26.067      21.154      17.050      13.686      10.950      8.8117      7.1926      5.9915    
  5.1088      4.4623      3.9928      3.6624      3.4500      3.3457      3.3457      3.4500      3.6624      3.9928    
  4.4623      5.1088      5.9915      7.1926      8.8117      10.950      13.686      17.050      21.154      26.067    
  45.400      53.237      60.237      65.743      69.251      70.454      69.251      65.743      60.237      53.237    
  45.400      37.456      30.076      23.738      18.634      14.645      11.504      9.1038      7.3292      6.0436    
  5.1211      4.4623      3.9987      3.6883      3.5086      3.4497      3.5086      3.6883      3.9987      4.4623    
  5.1211      6.0436      7.3292      9.1038      11.504      14.645      18.634      23.738      30.076      37.456    
  63.521      72.979      80.787      86.319      89.177      89.177      86.319      80.787      72.979      63.521    
  53.237      43.040      33.765      25.987      19.907      15.337      11.858      9.2570      7.3762      6.0436    
  5.1088      4.4584      4.0174      3.7414      3.6079      3.6079      3.7414      4.0174      4.4584      5.1088    
  6.0436      7.3762      9.2570      11.858      15.337      19.907      25.987      33.765      43.040      53.237    
  84.939      95.126      102.81      107.55      109.15      107.55      102.81      95.126      84.939      72.979    
  60.237      47.826      36.745      27.654      20.736      15.700      11.980      9.2570      7.3292      5.9915    
  5.0737      4.4529      4.0510      3.8237      3.7499      3.8237      4.0510      4.4529      5.0737      5.9915    
  7.3292      9.2570      11.980      15.700      20.736      27.654      36.745      47.826      60.237      72.979    
  107.57      117.30      123.88      127.17      127.17      123.88      117.30      107.57      95.126      80.787    
  65.743      51.321      38.683      28.543      21.024      15.700      11.858      9.1038      7.1926      5.8927    
  5.0206      4.4497      4.1027      3.9378      3.9378      4.1027      4.4497      5.0206      5.8927      7.1926    
  9.1038      11.858      15.700      21.024      28.543      38.683      51.321      65.743      80.787      95.126    
  128.83      136.98      141.75      143.31      141.75      136.98      128.83      117.30      102.81      86.319    
  69.251      53.163      39.355      28.543      20.736      15.337      11.504      8.8117      6.9794      5.7570    
  4.9564      4.4536      4.1757      4.0866      4.1757      4.4536      4.9564      5.7570      6.9794      8.8117    
  11.504      15.337      20.736      28.543      39.355      53.163      69.251      86.319      102.81      117.30    
  146.39      152.26      155.02      155.02      152.26      146.39      136.98      123.88      107.55      89.177    
  70.454      53.163      38.683      27.654      19.907      14.645      10.950      8.4072      6.7083      5.5968    
  4.8889      4.4690      4.2728      4.2728      4.4690      4.8889      5.5968      6.7083      8.4072      10.950    
  14.645      19.907      27.654      38.683      53.163      70.454      89.177      107.55      123.88      136.98    
  158.90      162.39      163.46      162.39      158.90      152.26      141.75      127.17      109.15      89.177    
  69.251      51.321      36.745      25.987      18.634      13.686      10.246      7.9246      6.4013      5.4249    
  4.8251      4.4996      4.3963      4.4996      4.8251      5.4249      6.4013      7.9246      10.246      13.686    
  18.634      25.987      36.745      51.321      69.251      89.177      109.15      127.17      141.75      152.26    
  166.32      167.92      167.92      166.32      162.39      155.02      143.31      127.17      107.55      86.319    
  65.743      47.826      33.765      23.738      17.050      12.542      9.4490      7.4006      6.0795      5.2529    
  4.7706      4.5480      4.5480      4.7706      5.2529      6.0795      7.4006      9.4490      12.542      17.050    
  23.738      33.765      47.826      65.743      86.319      107.55      127.17      143.31      155.02      162.39    
  169.77      170.23      169.77      167.92      163.46      155.02      141.75      123.88      102.81      80.787    
  60.237      43.040      30.076      21.154      15.292      11.303      8.6174      6.8690      5.7615      5.0899    
  4.7295      4.6158      4.7295      5.0899      5.7615      6.8690      8.6174      11.303      15.292      21.154    
  30.076      43.040      60.237      80.787      102.81      123.88      141.75      155.02      163.46      167.92    
  170.89      170.89      170.23      167.92      162.39      152.26      136.98      117.30      95.126      72.979    
  53.237      37.456      26.067      18.476      13.470      10.056      7.8020      6.3574      5.4609      4.9421    
  4.7040      4.7040      4.9421      5.4609      6.3574      7.8020      10.056      13.470      18.476      26.067    
  37.456      53.237      72.979      95.126      117.30      136.98      152.26      162.39      167.92      170.23    
  170.89      170.23      167.92      162.39      152.26      136.98      117.30      95.126      72.979      53.237    
  37.456      26.067      18.476      13.470      10.056      7.8020      6.3574      5.4609      4.9421      4.7040    
  4.7040      4.9421      5.4609      6.3574      7.8020      10.056      13.470      18.476      26.067      37.456    
  53.237      72.979      95.126      117.30      136.98      152.26      162.39      167.92      170.23      170.89    
  170.23      168.54      164.30      156.09      143.00      125.21      104.10      81.933      61.159      43.715    
  30.526      21.434      15.468      11.421      8.6965      6.9238      5.8021      5.1229      4.7587      4.6440    
  4.7587      5.1229      5.8021      6.9238      8.6965      11.421      15.468      21.434      30.526      43.715    
  61.159      81.933      104.10      125.21      143.00      156.09      164.30      168.54      170.23      170.63    
  167.92      164.30      157.28      145.89      129.90      110.23      88.741      67.749      49.343      34.811    
  24.404      17.462      12.816      9.6317      7.5246      6.1683      5.3219      4.8293      4.6024      4.6024    
  4.8293      5.3219      6.1683      7.5246      9.6317      12.816      17.462      24.404      34.811      49.343    
  67.749      88.741      110.23      129.90      145.89      157.28      164.30      167.92      169.33      169.33    
  162.39      156.09      145.89      131.45      113.32      92.969      72.443      53.792      38.498      27.131    
  19.345      14.150      10.556      8.1326      6.5462      5.5332      4.9134      4.5783      4.4722      4.5783    
  4.9134      5.5332      6.5462      8.1326      10.556      14.150      19.345      27.131      38.498      53.792    
  72.443      92.970      113.32      131.45      145.89      156.09      162.39      165.62      166.59      165.62    
  152.26      143.00      129.90      113.32      94.400      74.877      56.636      41.198      29.335      20.965    
  15.324      11.407      8.7122      6.9168      5.7475      5.0071      4.5702      4.3668      4.3668      4.5702    
  5.0071      5.7475      6.9168      8.7122      11.407      15.324      20.965      29.335      41.198      56.636    
  74.877      94.400      113.32      129.90      143.00      152.26      157.93      160.56      160.56      157.93    
  136.98      125.21      110.23      92.969      74.877      57.614      42.625      30.769      22.160      16.247    
  12.119      9.2223      7.2567      5.9526      5.1045      4.5755      4.2849      4.1920      4.2849      4.5755    
  5.1045      5.9526      7.2567      9.2223      12.119      16.247      22.160      30.769      42.625      57.614    
  74.877      92.970      110.23      125.21      136.98      145.20      149.96      151.51      149.96      145.20    
  117.30      104.10      88.741      72.443      56.636      42.625      31.266      22.795      16.840      12.632    
  9.6223      7.5409      6.1339      5.1978      4.5905      4.2241      4.0510      4.0510      4.2241      4.5905    
  5.1978      6.1339      7.5409      9.6223      12.632      16.840      22.795      31.266      42.625      56.636    
  72.443      88.741      104.10      117.30      127.52      134.38      137.80      137.80      134.38      127.52    
  95.126      81.933      67.749      53.792      41.198      30.769      22.795      17.045      12.901      9.8779    
  7.7458      6.2769      5.2785      4.6104      4.1819      3.9413      3.8635      3.9413      4.1819      4.6104    
  5.2785      6.2769      7.7458      9.8779      12.901      17.045      22.795      30.769      41.198      53.792    
  67.749      81.933      95.126      106.27      114.63      119.77      121.49      119.77      114.63      106.27    
  72.979      61.159      49.343      38.498      29.335      22.160      16.840      12.901      9.9657      7.8532    
  6.3685      5.3381      4.6298      4.1548      3.8602      3.7184      3.7184      3.8602      4.1548      4.6298    
  5.3381      6.3685      7.8532      9.9657      12.901      16.840      22.160      29.335      38.498      49.343    
  61.159      72.979      83.772      92.632      98.884      102.11      102.11      98.884      92.632      83.772    
  53.237      43.715      34.811      27.131      20.965      16.247      12.632      9.8779      7.8532      6.4001    
  5.3698      4.6439      4.1394      3.8049      3.6127      3.5497      3.6127      3.8049      4.1394      4.6439    
  5.3698      6.4001      7.8532      9.8779      12.632      16.247      20.965      27.131      34.811      43.715    
  53.237      62.571      70.865      77.363      81.493      82.908      81.493      77.363      70.865      62.571    
  37.456      30.526      24.404      19.345      15.324      12.119      9.6223      7.7458      6.3685      5.3698    
  4.6490      4.1325      3.7730      3.5437      3.4315      3.4315      3.5437      3.7730      4.1325      4.6490    
  5.3698      6.3685      7.7458      9.6223      12.119      15.324      19.345      24.404      30.526      37.456    
  44.700      51.610      57.512      61.811      64.073      64.073      61.811      57.512      51.610      44.700    
  26.067      21.434      17.462      14.150      11.407      9.2223      7.5409      6.2769      5.3381      4.6439    
  4.1325      3.7626      3.5098      3.3615      3.3125      3.3615      3.5098      3.7626      4.1325      4.6439    
  5.3381      6.2769      7.5409      9.2223      11.407      14.150      17.462      21.434      26.067      31.157    
  36.320      41.066      44.894      47.380      48.242      47.380      44.894      41.066      36.320      31.157    
  18.476      15.468      12.816      10.556      8.7122      7.2567      6.1339      5.2785      4.6298      4.1394    
  3.7730      3.5098      3.3383      3.2534      3.2534      3.3383      3.5098      3.7730      4.1394      4.6298    
  5.2785      6.1339      7.2567      8.7122      10.556      12.816      15.468      18.476      21.816      25.339    
  28.769      31.765      33.991      35.177      35.177      33.991      31.765      28.769      25.339      21.816    
  13.470      11.421      9.6317      8.1326      6.9168      5.9526      5.1978      4.6104      4.1548      3.8049    
  3.5437      3.3615      3.2534      3.2176      3.2534      3.3615      3.5437      3.8049      4.1548      4.6104    
  5.1978      5.9526      6.9168      8.1326      9.6317      11.421      13.470      15.703      18.028      20.343    
  22.473      24.205      25.340      25.735      25.340      24.205      22.473      20.343      18.028      15.703    
  10.056      8.6965      7.5246      6.5462      5.7475      5.1045      4.5905      4.1819      3.8602      3.6127    
  3.4315      3.3125      3.2534      3.2534      3.3125      3.4315      3.6127      3.8602      4.1819      4.5905    
  5.1045      5.7475      6.5462      7.5246      8.6965      10.056      11.571      13.176      14.777      16.261    
  17.523      18.450      18.942      18.942      18.450      17.523      16.261      14.777      13.176      11.571    
  7.8020      6.9238      6.1683      5.5332      5.0071      4.5755      4.2241      3.9413      3.7184      3.5497    
  3.4315      3.3615      3.3383      3.3615      3.4315      3.5497      3.7184      3.9413      4.2241      4.5755    
  5.0071      5.5332      6.1683      6.9238      7.8020      8.7911      9.8601      10.958      12.015      12.952    
  13.690      14.163      14.326      14.163      13.690      12.952      12.015      10.958      9.8601      8.7911    
  6.3574      5.8021      5.3219      4.9134      4.5702      4.2849      4.0510      3.8635      3.7184      3.6127    
  3.5437      3.5098      3.5098      3.5437      3.6127      3.7184      3.8635      4.0510      4.2849      4.5702    
  4.9134      5.3219      5.8021      6.3574      6.9842      7.6690      8.3862      9.0975      9.7555      10.309    
  10.709      10.919      10.919      10.709      10.309      9.7555      9.0975      8.3862      7.6691      6.9842    
  5.4609      5.1229      4.8293      4.5783      4.3668      4.1920      4.0510      3.9413      3.8602      3.8049    
  3.7730      3.7626      3.7730      3.8049      3.8602      3.9413      4.0510      4.1920      4.3669      4.5783    
  4.8293      5.1229      5.4609      5.8426      6.2625      6.7086      7.1615      7.5949      7.9781      8.2799    
  8.4733      8.5399      8.4733      8.2799      7.9781      7.5949      7.1615      6.7086      6.2625      5.8426    
  4.9421      4.7587      4.6024      4.4722      4.3668      4.2849      4.2241      4.1819      4.1548      4.1394    
  4.1325      4.1325      4.1394      4.1548      4.1819      4.2241      4.2849      4.3669      4.4722      4.6024    
  4.7587      4.9421      5.1523      5.3874      5.6423      5.9078      6.1706      6.4137      6.6183      6.7667    
  6.8448      6.8448      6.7667      6.6183      6.4137      6.1706      5.9078      5.6423      5.3874      5.1523    
  4.7040      4.6440      4.6024      4.5783      4.5702      4.5755      4.5905      4.6104      4.6298      4.6439    
  4.6490      4.6439      4.6298      4.6104      4.5905      4.5755      4.5702      4.5783      4.6024      4.6440    
  4.7041      4.7828      4.8797      4.9931      5.1191      5.2517      5.3823      5.5005      5.5951      5.6564    
  5.6777      5.6564      5.5951      5.5005      5.3823      5.2518      5.1191      4.9931      4.8797      4.7828    
  4.7040      4.7587      4.8293      4.9134      5.0071      5.1045      5.1978      5.2785      5.3381      5.3698    
  5.3698      5.3381      5.2785      5.1978      5.1045      5.0071      4.9134      4.8293      4.7587      4.7041    
  4.6665      4.6464      4.6434      4.6565      4.6833      4.7199      4.7609      4.8000      4.8306      4.8474    
  4.8474      4.8306      4.8000      4.7609      4.7199      4.6833      4.6565      4.6434      4.6463      4.6665    
  4.9421      5.1229      5.3219      5.5332      5.7475      5.9526      6.1339      6.2769      6.3685      6.4001    