Pt-fcc                                  
   1.00000000000000     
     0.000000    2.137157    2.137157
     2.137157    0.000000    2.137157
     2.137157    2.137157    0.000000
   Pt
     1
Direct
  0.000000  0.000000  0.000000
 
   40   40   40
 0.17107841062E+03 0.17088853363E+03 0.16977138595E+03 0.16632115113E+03 0.15889631023E+03
 0.14638957122E+03 0.12883282380E+03 0.10757418768E+03 0.84939447407E+02 0.63520657300E+02
 0.45400346069E+02 0.31627003531E+02 0.22108704238E+02 0.15885548956E+02 0.11693731759E+02
 0.88730286101E+01 0.70408465797E+01 0.58845186942E+01 0.51862813568E+01 0.48129156552E+01
 0.46954544250E+01 0.48129156552E+01 0.51862813568E+01 0.58845186942E+01 0.70408465797E+01
 0.88730286101E+01 0.11693731759E+02 0.15885548956E+02 0.22108704238E+02 0.31627003531E+02
 0.45400346069E+02 0.63520657300E+02 0.84939447407E+02 0.10757418768E+03 0.12883282380E+03
 0.14638957122E+03 0.15889631023E+03 0.16632115113E+03 0.16977138595E+03 0.17088853363E+03
 0.17088853363E+03 0.17023090258E+03 0.16791682325E+03 0.16239048901E+03 0.15225544027E+03
 0.13698131386E+03 0.11730241902E+03 0.95125717502E+02 0.72978769632E+02 0.53236725691E+02
 0.37456495958E+02 0.26067265004E+02 0.18475849359E+02 0.13470379674E+02 0.10056405962E+02
 0.78020082629E+01 0.63573721880E+01 0.54608683291E+01 0.49420767128E+01 0.47040471464E+01
 0.47040468961E+01 0.49420761492E+01 0.54608678994E+01 0.63573722228E+01 0.78020087316E+01
 0.10056406436E+02 0.13470379677E+02 0.18475848741E+02 0.26067264200E+02 0.37456495745E+02
 0.53236726646E+02 0.72978771442E+02 0.95125718744E+02 0.11730241751E+03 0.13698130763E+03
 0.15225542877E+03 0.16239047370E+03 0.16791680758E+03 0.17023089084E+03 0.17088852928E+03
 0.16977138595E+03 0.16791682325E+03 0.16345688605E+03 0.15501660996E+03 0.14175198066E+03
 0.12388046424E+03 0.10280856707E+03 0.80786961138E+02 0.60237174515E+02 0.43040399268E+02
 0.30076077239E+02 0.21153902745E+02 0.15292099365E+02 0.11303014172E+02 0.86174202723E+01
 0.68690169186E+01 0.57615090693E+01 0.50899292749E+01 0.47294893159E+01 0.46158494410E+01
 0.47294884904E+01 0.50899282622E+01 0.57615086618E+01 0.68690174380E+01 0.86174212830E+01
 0.11303014760E+02 0.15292098864E+02 0.21153901363E+02 0.30076076153E+02 0.43040399893E+02
 0.60237177366E+02 0.80786964874E+02 0.10280856855E+03 0.12388045966E+03 0.14175196750E+03
 0.15501658870E+03 0.16345686074E+03 0.16791680047E+03 0.16977137244E+03 0.17023089084E+03
 0.16632115113E+03 0.16239048901E+03 0.15501660996E+03 0.14331267670E+03 0.12717323626E+03
 0.10755207552E+03 0.86318728338E+02 0.65742707214E+02 0.47826085587E+02 0.33765039826E+02
 0.23738042706E+02 0.17049767227E+02 0.12541685910E+02 0.94489984398E+01 0.74005690766E+01
 0.60795336724E+01 0.52529229205E+01 0.47706205734E+01 0.45479866819E+01 0.45479861000E+01
 0.47706192752E+01 0.52529219064E+01 0.60795337479E+01 0.74005702007E+01 0.94489996997E+01
 0.12541686161E+02 0.17049766044E+02 0.23738040921E+02 0.33765039222E+02 0.47826087718E+02
 0.65742712067E+02 0.86318733583E+02 0.10755207709E+03 0.12717323015E+03 0.14331266117E+03
 0.15501658703E+03 0.16239046436E+03 0.16632113217E+03 0.16791680047E+03 0.16791680758E+03
 0.15889631023E+03 0.15225544027E+03 0.14175198066E+03 0.12717323626E+03 0.10915185656E+03
 0.89177384943E+02 0.69250547524E+02 0.51320661970E+02 0.36745295986E+02 0.25986894138E+02
 0.18633573482E+02 0.13685972959E+02 0.10245999650E+02 0.79246238158E+01 0.64012592903E+01
 0.54248874616E+01 0.48250794769E+01 0.44995591058E+01 0.43962705544E+01 0.44995580384E+01
 0.48250781532E+01 0.54248869112E+01 0.64012599871E+01 0.79246252724E+01 0.10246000708E+02
 0.13685972619E+02 0.18633571767E+02 0.25986892340E+02 0.36745296034E+02 0.51320665181E+02
 0.69250553440E+02 0.89177391069E+02 0.10915185922E+03 0.12717323243E+03 0.14175196970E+03
 0.15225542469E+03 0.15889629505E+03 0.16239046436E+03 0.16345686074E+03 0.16239047370E+03
 0.14638957122E+03 0.13698131386E+03 0.12388046424E+03 0.10755207552E+03 0.89177384943E+02
 0.70453875650E+02 0.53162554993E+02 0.38682749204E+02 0.27654404863E+02 0.19906914134E+02
 0.14645156645E+02 0.10950298630E+02 0.84072069722E+01 0.67083461863E+01 0.55967593575E+01
 0.48889135605E+01 0.44689515827E+01 0.42727688544E+01 0.42727683640E+01 0.44689504697E+01
 0.48889126702E+01 0.55967593992E+01 0.67083472200E+01 0.84072082741E+01 0.10950299159E+02
 0.14645155736E+02 0.19906912101E+02 0.27654402979E+02 0.38682749104E+02 0.53162557718E+02
 0.70453880906E+02 0.89177391102E+02 0.10755208025E+03 0.12388046575E+03 0.13698131181E+03
 0.14638956696E+03 0.15225542469E+03 0.15501658703E+03 0.15501658870E+03 0.15225542877E+03
 0.12883282380E+03 0.11730241902E+03 0.10280856707E+03 0.86318728338E+02 0.69250547524E+02
 0.53162554993E+02 0.39354545006E+02 0.28542855330E+02 0.20735834091E+02 0.15337170501E+02
 0.11504081318E+02 0.88116561144E+01 0.69793931748E+01 0.57569829679E+01 0.49564391808E+01
 0.44535715572E+01 0.41756617678E+01 0.40865848855E+01 0.41756612127E+01 0.44535708386E+01
 0.49564388290E+01 0.57569832930E+01 0.69793940294E+01 0.88116569083E+01 0.11504081330E+02
 0.15337169289E+02 0.20735831816E+02 0.28542852779E+02 0.39354543307E+02 0.53162555209E+02
 0.69250550133E+02 0.86318733173E+02 0.10280857331E+03 0.11730242552E+03 0.12883282952E+03
 0.13698131181E+03 0.14175196970E+03 0.14331266117E+03 0.14175196750E+03 0.13698130763E+03
 0.10757418768E+03 0.95125717502E+02 0.80786961138E+02 0.65742707214E+02 0.51320661970E+02
 0.38682749204E+02 0.28542855330E+02 0.21023813382E+02 0.15700466924E+02 0.11858321077E+02
 0.91037531142E+01 0.71926263257E+01 0.58926886725E+01 0.50205652342E+01 0.44497368823E+01
 0.41026834595E+01 0.39378454151E+01 0.39378453330E+01 0.41026832572E+01 0.44497366439E+01
 0.50205651105E+01 0.58926887739E+01 0.71926266727E+01 0.91037534868E+01 0.11858321040E+02
 0.15700465909E+02 0.21023810985E+02 0.28542851609E+02 0.38682744842E+02 0.51320658282E+02
 0.65742705660E+02 0.80786962843E+02 0.95125722674E+02 0.10757419528E+03 0.11730242552E+03
 0.12388046575E+03 0.12717323243E+03 0.12717323015E+03 0.12388045966E+03 0.11730241751E+03
 0.84939447407E+02 0.72978769632E+02 0.60237174515E+02 0.47826085587E+02 0.36745295986E+02
 0.27654404863E+02 0.20735834091E+02 0.15700466924E+02 0.11980238529E+02 0.92570198197E+01
 0.73291756932E+01 0.59915051802E+01 0.50736509628E+01 0.44529226337E+01 0.40509972983E+01
 0.38236949465E+01 0.37499424785E+01 0.38236951781E+01 0.40509975269E+01 0.44529225959E+01
 0.50736506228E+01 0.59915048097E+01 0.73291756961E+01 0.92570203593E+01 0.11980239209E+02
 0.15700466802E+02 0.20735832034E+02 0.27654400268E+02 0.36745289180E+02 0.47826078112E+02
 0.60237168439E+02 0.72978766737E+02 0.84939448375E+02 0.95125722674E+02 0.10280857331E+03
 0.10755208025E+03 0.10915185922E+03 0.10755207709E+03 0.10280856855E+03 0.95125718744E+02
 0.63520657300E+02 0.53236725691E+02 0.43040399268E+02 0.33765039826E+02 0.25986894138E+02
 0.19906914134E+02 0.15337170501E+02 0.11858321077E+02 0.92570198197E+01 0.73762085388E+01
 0.60436281391E+01 0.51087687295E+01 0.44584252973E+01 0.40173758650E+01 0.37413845376E+01
 0.36078817984E+01 0.36078820859E+01 0.37413851517E+01 0.40173762832E+01 0.44584251017E+01
 0.51087680166E+01 0.60436275114E+01 0.73762087701E+01 0.92570212591E+01 0.11858323223E+02
 0.15337172055E+02 0.19906913440E+02 0.25986890130E+02 0.33765032467E+02 0.43040389834E+02
 0.53236716256E+02 0.63520649722E+02 0.72978766737E+02 0.80786962843E+02 0.86318733173E+02
 0.89177391102E+02 0.89177391069E+02 0.86318733583E+02 0.80786964874E+02 0.72978771442E+02
 0.45400346069E+02 0.37456495958E+02 0.30076077239E+02 0.23738042706E+02 0.18633573482E+02
 0.14645156645E+02 0.11504081318E+02 0.91037531142E+01 0.73291756932E+01 0.60436281391E+01
 0.51210582116E+01 0.44623042910E+01 0.39987249961E+01 0.36883206537E+01 0.35086491522E+01
 0.34496711104E+01 0.35086497679E+01 0.36883214167E+01 0.39987252980E+01 0.44623038457E+01
 0.51210573281E+01 0.60436276672E+01 0.73291765312E+01 0.91037557040E+01 0.11504085139E+02
 0.14645160421E+02 0.18633575408E+02 0.23738041402E+02 0.30076072133E+02 0.37456487534E+02
 0.45400335788E+02 0.53236716256E+02 0.60237168439E+02 0.65742705660E+02 0.69250550133E+02
 0.70453880906E+02 0.69250553440E+02 0.65742712067E+02 0.60237177366E+02 0.53236726646E+02
 0.31627003531E+02 0.26067265004E+02 0.21153902745E+02 0.17049767227E+02 0.13685972959E+02
 0.10950298630E+02 0.88116561144E+01 0.71926263257E+01 0.59915051802E+01 0.51087687295E+01
 0.44623042910E+01 0.39927849174E+01 0.36623905071E+01 0.34500430343E+01 0.33457197006E+01
 0.33457199914E+01 0.34500437067E+01 0.36623911115E+01 0.39927850008E+01 0.44623037448E+01
 0.51087679040E+01 0.59915048800E+01 0.71926274115E+01 0.88116592060E+01 0.10950303569E+02
 0.13685978895E+02 0.17049772591E+02 0.21153905781E+02 0.26067264464E+02 0.31626998829E+02
 0.37456487534E+02 0.43040389834E+02 0.47826078112E+02 0.51320658282E+02 0.53162555209E+02
 0.53162557718E+02 0.51320665181E+02 0.47826087718E+02 0.43040399893E+02 0.37456495745E+02
 0.22108704238E+02 0.18475849359E+02 0.15292099365E+02 0.12541685910E+02 0.10245999650E+02
 0.84072069722E+01 0.69793931748E+01 0.58926886725E+01 0.50736509628E+01 0.44584252973E+01
 0.39987249961E+01 0.36623905071E+01 0.34306689060E+01 0.32941627852E+01 0.32489902755E+01
 0.32941630400E+01 0.34306692996E+01 0.36623908199E+01 0.39987249585E+01 0.44584247459E+01
 0.50736499915E+01 0.58926878172E+01 0.69793933004E+01 0.84072090989E+01 0.10246004375E+02
 0.12541693011E+02 0.15292107705E+02 0.18475856800E+02 0.22108708762E+02 0.26067264464E+02
 0.30076072133E+02 0.33765032467E+02 0.36745289180E+02 0.38682744842E+02 0.39354543307E+02
 0.38682749104E+02 0.36745296034E+02 0.33765039222E+02 0.30076076153E+02 0.26067264200E+02
 0.15885548956E+02 0.13470379674E+02 0.11303014172E+02 0.94489984398E+01 0.79246238158E+01
 0.67083461863E+01 0.57569829679E+01 0.50205652342E+01 0.44529226337E+01 0.40173758650E+01
 0.36883206537E+01 0.34500430343E+01 0.32941627852E+01 0.32168890088E+01 0.32168889336E+01
 0.32941626539E+01 0.34500430288E+01 0.36883207952E+01 0.40173758521E+01 0.44529219603E+01
 0.50205635412E+01 0.57569805136E+01 0.67083439795E+01 0.79246234050E+01 0.94490012527E+01
 0.11303020603E+02 0.13470388912E+02 0.15885558902E+02 0.18475856800E+02 0.21153905781E+02
 0.23738041402E+02 0.25986890130E+02 0.27654400268E+02 0.28542851609E+02 0.28542852779E+02
 0.27654402979E+02 0.25986892340E+02 0.23738040921E+02 0.21153901363E+02 0.18475848741E+02
 0.11693731759E+02 0.10056405962E+02 0.86174202723E+01 0.74005690766E+01 0.64012592903E+01
 0.55967593575E+01 0.49564391808E+01 0.44497368823E+01 0.40509972983E+01 0.37413845376E+01
 0.35086491522E+01 0.33457197006E+01 0.32489902755E+01 0.32168889336E+01 0.32489897918E+01
 0.33457191465E+01 0.35086489903E+01 0.37413848301E+01 0.40509974632E+01 0.44497359580E+01
 0.49564363801E+01 0.55967547760E+01 0.64012541034E+01 0.74005652294E+01 0.86174197207E+01
 0.10056409619E+02 0.11693739071E+02 0.13470388912E+02 0.15292107705E+02 0.17049772591E+02
 0.18633575408E+02 0.19906913440E+02 0.20735832034E+02 0.21023810985E+02 0.20735831816E+02
 0.19906912101E+02 0.18633571767E+02 0.17049766044E+02 0.15292098864E+02 0.13470379677E+02
 0.88730286101E+01 0.78020082629E+01 0.68690169186E+01 0.60795336724E+01 0.54248874616E+01
 0.48889135605E+01 0.44535715572E+01 0.41026834595E+01 0.38236949465E+01 0.36078817984E+01
 0.34496711104E+01 0.33457199914E+01 0.32941630400E+01 0.32941626539E+01 0.33457191465E+01
 0.34496705174E+01 0.36078820079E+01 0.38236958596E+01 0.41026841667E+01 0.44535707549E+01
 0.48889102054E+01 0.54248814894E+01 0.60795262247E+01 0.68690099314E+01 0.78020038114E+01
 0.88730279803E+01 0.10056409619E+02 0.11303020603E+02 0.12541693011E+02 0.13685978895E+02
 0.14645160421E+02 0.15337172055E+02 0.15700466802E+02 0.15700465909E+02 0.15337169289E+02
 0.14645155736E+02 0.13685972619E+02 0.12541686161E+02 0.11303014760E+02 0.10056406436E+02
 0.70408465797E+01 0.63573721880E+01 0.57615090693E+01 0.52529229205E+01 0.48250794769E+01
 0.44689515827E+01 0.41756617678E+01 0.39378454151E+01 0.37499424785E+01 0.36078820859E+01
 0.35086497679E+01 0.34500437067E+01 0.34306692996E+01 0.34500430288E+01 0.35086489903E+01
 0.36078820079E+01 0.37499435615E+01 0.39378474028E+01 0.41756636192E+01 0.44689519054E+01
 0.48250771023E+01 0.52529174851E+01 0.57615013019E+01 0.63573636121E+01 0.70408390464E+01
 0.78020038114E+01 0.86174197207E+01 0.94490012527E+01 0.10246004375E+02 0.10950303569E+02
 0.11504085139E+02 0.11858323223E+02 0.11980239209E+02 0.11858321040E+02 0.11504081330E+02
 0.10950299159E+02 0.10246000708E+02 0.94489996997E+01 0.86174212830E+01 0.78020087316E+01
 0.58845186942E+01 0.54608683291E+01 0.50899292749E+01 0.47706205734E+01 0.44995591058E+01
 0.42727688544E+01 0.40865848855E+01 0.39378453330E+01 0.38236951781E+01 0.37413851517E+01
 0.36883214167E+01 0.36623911115E+01 0.36623908199E+01 0.36883207952E+01 0.37413848301E+01
 0.38236958596E+01 0.39378474028E+01 0.40865881589E+01 0.42727724732E+01 0.44995617901E+01
 0.47706210280E+01 0.50899266288E+01 0.54608625828E+01 0.58845107427E+01 0.63573636121E+01
 0.68690099314E+01 0.74005652294E+01 0.79246234050E+01 0.84072090989E+01 0.88116592060E+01
 0.91037557040E+01 0.92570212591E+01 0.92570203593E+01 0.91037534868E+01 0.88116569083E+01
 0.84072082741E+01 0.79246252724E+01 0.74005702007E+01 0.68690174380E+01 0.63573722228E+01
 0.51862813568E+01 0.49420767128E+01 0.47294893159E+01 0.45479866819E+01 0.43962705544E+01
 0.42727683640E+01 0.41756612127E+01 0.41026832572E+01 0.40509975269E+01 0.40173762832E+01
 0.39987252980E+01 0.39927850008E+01 0.39987249585E+01 0.40173758521E+01 0.40509974632E+01
 0.41026841667E+01 0.41756636192E+01 0.42727724732E+01 0.43962759594E+01 0.45479923077E+01
 0.47294936713E+01 0.49420783141E+01 0.51862793746E+01 0.54608625828E+01 0.57615013019E+01
 0.60795262247E+01 0.64012541034E+01 0.67083439795E+01 0.69793933004E+01 0.71926274115E+01
 0.73291765312E+01 0.73762087701E+01 0.73291756961E+01 0.71926266727E+01 0.69793940294E+01
 0.67083472200E+01 0.64012599871E+01 0.60795337479E+01 0.57615086618E+01 0.54608678994E+01
 0.48129156552E+01 0.47040471464E+01 0.46158494410E+01 0.45479861000E+01 0.44995580384E+01
 0.44689504697E+01 0.44535708386E+01 0.44497366439E+01 0.44529225959E+01 0.44584251017E+01
 0.44623038457E+01 0.44623037448E+01 0.44584247459E+01 0.44529219603E+01 0.44497359580E+01
 0.44535707549E+01 0.44689519054E+01 0.44995617901E+01 0.45479923077E+01 0.46158572430E+01
 0.47040548675E+01 0.48129213282E+01 0.49420783141E+01 0.50899266288E+01 0.52529174851E+01
 0.54248814894E+01 0.55967547760E+01 0.57569805136E+01 0.58926878172E+01 0.59915048800E+01
 0.60436276672E+01 0.60436275114E+01 0.59915048097E+01 0.58926887739E+01 0.57569832930E+01
 0.55967593992E+01 0.54248869112E+01 0.52529219064E+01 0.50899282622E+01 0.49420761492E+01
 0.46954544250E+01 0.47040468961E+01 0.47294884904E+01 0.47706192752E+01 0.48250781532E+01
 0.48889126702E+01 0.49564388290E+01 0.50205651105E+01 0.50736506228E+01 0.51087680166E+01
 0.51210573281E+01 0.51087679040E+01 0.50736499915E+01 0.50205635412E+01 0.49564363801E+01
 0.48889102054E+01 0.48250771023E+01 0.47706210280E+01 0.47294936713E+01 0.47040548675E+01
 0.46954634665E+01 0.47040548675E+01 0.47294936713E+01 0.47706210280E+01 0.48250771023E+01
 0.48889102054E+01 0.49564363801E+01 0.50205635412E+01 0.50736499915E+01 0.51087679040E+01
 0.51210573281E+01 0.51087680166E+01 0.50736506228E+01 0.50205651105E+01 0.49564388290E+01
 0.48889126702E+01 0.48250781532E+01 0.47706192752E+01 0.47294884904E+01 0.47040468961E+01
 0.48129156552E+01 0.49420761492E+01 0.50899282622E+01 0.52529219064E+01 0.54248869112E+01
 0.55967593992E+01 0.57569832930E+01 0.58926887739E+01 0.59915048097E+01 0.60436275114E+01
 0.60436276672E+01 0.59915048800E+01 0.58926878172E+01 0.57569805136E+01 0.55967547760E+01
 0.54248814894E+01 0.52529174851E+01 0.50899266288E+01 0.49420783141E+01 0.48129213282E+01
 0.47040548675E+01 0.46158572430E+01 0.45479923077E+01 0.44995617901E+01 0.44689519054E+01
 0.44535707549E+01 0.44497359580E+01 0.44529219603E+01 0.44584247459E+01 0.44623037448E+01
 0.44623038457E+01 0.44584251017E+01 0.44529225959E+01 0.44497366439E+01 0.44535708386E+01
 0.44689504697E+01 0.44995580384E+01 0.45479861000E+01 0.46158494410E+01 0.47040471464E+01
 0.51862813568E+01 0.54608678994E+01 0.57615086618E+01 0.60795337479E+01 0.64012599871E+01
 0.67083472200E+01 0.69793940294E+01 0.71926266727E+01 0.73291756961E+01 0.73762087701E+01
 0.73291765312E+01 0.71926274115E+01 0.69793933004E+01 0.67083439795E+01 0.64012541034E+01
 0.60795262247E+01 0.57615013019E+01 0.54608625828E+01 0.51862793746E+01 0.49420783141E+01
 0.47294936713E+01 0.45479923077E+01 0.43962759594E+01 0.42727724732E+01 0.41756636192E+01
 0.41026841667E+01 0.40509974632E+01 0.40173758521E+01 0.39987249585E+01 0.39927850008E+01
 0.39987252980E+01 0.40173762832E+01 0.40509975269E+01 0.41026832572E+01 0.41756612127E+01
 0.42727683640E+01 0.43962705544E+01 0.45479866819E+01 0.47294893159E+01 0.49420767128E+01
 0.58845186942E+01 0.63573722228E+01 0.68690174380E+01 0.74005702007E+01 0.79246252724E+01
 0.84072082741E+01 0.88116569083E+01 0.91037534868E+01 0.92570203593E+01 0.92570212591E+01
 0.91037557040E+01 0.88116592060E+01 0.84072090989E+01 0.79246234050E+01 0.74005652294E+01
 0.68690099314E+01 0.63573636121E+01 0.58845107427E+01 0.54608625828E+01 0.50899266288E+01
 0.47706210280E+01 0.44995617901E+01 0.42727724732E+01 0.40865881589E+01 0.39378474028E+01
 0.38236958596E+01 0.37413848301E+01 0.36883207952E+01 0.36623908199E+01 0.36623911115E+01
 0.36883214167E+01 0.37413851517E+01 0.38236951781E+01 0.39378453330E+01 0.40865848855E+01
 0.42727688544E+01 0.44995591058E+01 0.47706205734E+01 0.50899292749E+01 0.54608683291E+01
 0.70408465797E+01 0.78020087316E+01 0.86174212830E+01 0.94489996997E+01 0.10246000708E+02
 0.10950299159E+02 0.11504081330E+02 0.11858321040E+02 0.11980239209E+02 0.11858323223E+02
 0.11504085139E+02 0.10950303569E+02 0.10246004375E+02 0.94490012527E+01 0.86174197207E+01
 0.78020038114E+01 0.70408390464E+01 0.63573636121E+01 0.57615013019E+01 0.52529174851E+01
 0.48250771023E+01 0.44689519054E+01 0.41756636192E+01 0.39378474028E+01 0.37499435615E+01
 0.36078820079E+01 0.35086489903E+01 0.34500430288E+01 0.34306692996E+01 0.34500437067E+01
 0.35086497679E+01 0.36078820859E+01 0.37499424785E+01 0.39378454151E+01 0.41756617678E+01
 0.44689515827E+01 0.48250794769E+01 0.52529229205E+01 0.57615090693E+01 0.63573721880E+01
 0.88730286101E+01 0.10056406436E+02 0.11303014760E+02 0.12541686161E+02 0.13685972619E+02
 0.14645155736E+02 0.15337169289E+02 0.15700465909E+02 0.15700466802E+02 0.15337172055E+02
 0.14645160421E+02 0.13685978895E+02 0.12541693011E+02 0.11303020603E+02 0.10056409619E+02
 0.88730279803E+01 0.78020038114E+01 0.68690099314E+01 0.60795262247E+01 0.54248814894E+01
 0.48889102054E+01 0.44535707549E+01 0.41026841667E+01 0.38236958596E+01 0.36078820079E+01
 0.34496705174E+01 0.33457191465E+01 0.32941626539E+01 0.32941630400E+01 0.33457199914E+01
 0.34496711104E+01 0.36078817984E+01 0.38236949465E+01 0.41026834595E+01 0.44535715572E+01
 0.48889135605E+01 0.54248874616E+01 0.60795336724E+01 0.68690169186E+01 0.78020082629E+01
 0.11693731759E+02 0.13470379677E+02 0.15292098864E+02 0.17049766044E+02 0.18633571767E+02
 0.19906912101E+02 0.20735831816E+02 0.21023810985E+02 0.20735832034E+02 0.19906913440E+02
 0.18633575408E+02 0.17049772591E+02 0.15292107705E+02 0.13470388912E+02 0.11693739071E+02
 0.10056409619E+02 0.86174197207E+01 0.74005652294E+01 0.64012541034E+01 0.55967547760E+01
 0.49564363801E+01 0.44497359580E+01 0.40509974632E+01 0.37413848301E+01 0.35086489903E+01
 0.33457191465E+01 0.32489897918E+01 0.32168889336E+01 0.32489902755E+01 0.33457197006E+01
 0.35086491522E+01 0.37413845376E+01 0.40509972983E+01 0.44497368823E+01 0.49564391808E+01
 0.55967593575E+01 0.64012592903E+01 0.74005690766E+01 0.86174202723E+01 0.10056405962E+02
 0.15885548956E+02 0.18475848741E+02 0.21153901363E+02 0.23738040921E+02 0.25986892340E+02
 0.27654402979E+02 0.28542852779E+02 0.28542851609E+02 0.27654400268E+02 0.25986890130E+02
 0.23738041402E+02 0.21153905781E+02 0.18475856800E+02 0.15885558902E+02 0.13470388912E+02
 0.11303020603E+02 0.94490012527E+01 0.79246234050E+01 0.67083439795E+01 0.57569805136E+01
 0.50205635412E+01 0.44529219603E+01 0.40173758521E+01 0.36883207952E+01 0.34500430288E+01
 0.32941626539E+01 0.32168889336E+01 0.32168890088E+01 0.32941627852E+01 0.34500430343E+01
 0.36883206537E+01 0.40173758650E+01 0.44529226337E+01 0.50205652342E+01 0.57569829679E+01
 0.67083461863E+01 0.79246238158E+01 0.94489984398E+01 0.11303014172E+02 0.13470379674E+02
 0.22108704238E+02 0.26067264200E+02 0.30076076153E+02 0.33765039222E+02 0.36745296034E+02
 0.38682749104E+02 0.39354543307E+02 0.38682744842E+02 0.36745289180E+02 0.33765032467E+02
 0.30076072133E+02 0.26067264464E+02 0.22108708762E+02 0.18475856800E+02 0.15292107705E+02
 0.12541693011E+02 0.10246004375E+02 0.84072090989E+01 0.69793933004E+01 0.58926878172E+01
 0.50736499915E+01 0.44584247459E+01 0.39987249585E+01 0.36623908199E+01 0.34306692996E+01
 0.32941630400E+01 0.32489902755E+01 0.32941627852E+01 0.34306689060E+01 0.36623905071E+01
 0.39987249961E+01 0.44584252973E+01 0.50736509628E+01 0.58926886725E+01 0.69793931748E+01
 0.84072069722E+01 0.10245999650E+02 0.12541685910E+02 0.15292099365E+02 0.18475849359E+02
 0.31627003531E+02 0.37456495745E+02 0.43040399893E+02 0.47826087718E+02 0.51320665181E+02
 0.53162557718E+02 0.53162555209E+02 0.51320658282E+02 0.47826078112E+02 0.43040389834E+02
 0.37456487534E+02 0.31626998829E+02 0.26067264464E+02 0.21153905781E+02 0.17049772591E+02
 0.13685978895E+02 0.10950303569E+02 0.88116592060E+01 0.71926274115E+01 0.59915048800E+01
 0.51087679040E+01 0.44623037448E+01 0.39927850008E+01 0.36623911115E+01 0.34500437067E+01
 0.33457199914E+01 0.33457197006E+01 0.34500430343E+01 0.36623905071E+01 0.39927849174E+01
 0.44623042910E+01 0.51087687295E+01 0.59915051802E+01 0.71926263257E+01 0.88116561144E+01
 0.10950298630E+02 0.13685972959E+02 0.17049767227E+02 0.21153902745E+02 0.26067265004E+02
 0.45400346069E+02 0.53236726646E+02 0.60237177366E+02 0.65742712067E+02 0.69250553440E+02
 0.70453880906E+02 0.69250550133E+02 0.65742705660E+02 0.60237168439E+02 0.53236716256E+02
 0.45400335788E+02 0.37456487534E+02 0.30076072133E+02 0.23738041402E+02 0.18633575408E+02
 0.14645160421E+02 0.11504085139E+02 0.91037557040E+01 0.73291765312E+01 0.60436276672E+01
 0.51210573281E+01 0.44623038457E+01 0.39987252980E+01 0.36883214167E+01 0.35086497679E+01
 0.34496711104E+01 0.35086491522E+01 0.36883206537E+01 0.39987249961E+01 0.44623042910E+01
 0.51210582116E+01 0.60436281391E+01 0.73291756932E+01 0.91037531142E+01 0.11504081318E+02
 0.14645156645E+02 0.18633573482E+02 0.23738042706E+02 0.30076077239E+02 0.37456495958E+02
 0.63520657300E+02 0.72978771442E+02 0.80786964874E+02 0.86318733583E+02 0.89177391069E+02
 0.89177391102E+02 0.86318733173E+02 0.80786962843E+02 0.72978766737E+02 0.63520649722E+02
 0.53236716256E+02 0.43040389834E+02 0.33765032467E+02 0.25986890130E+02 0.19906913440E+02
 0.15337172055E+02 0.11858323223E+02 0.92570212591E+01 0.73762087701E+01 0.60436275114E+01
 0.51087680166E+01 0.44584251017E+01 0.40173762832E+01 0.37413851517E+01 0.36078820859E+01
 0.36078817984E+01 0.37413845376E+01 0.40173758650E+01 0.44584252973E+01 0.51087687295E+01
 0.60436281391E+01 0.73762085388E+01 0.92570198197E+01 0.11858321077E+02 0.15337170501E+02
 0.19906914134E+02 0.25986894138E+02 0.33765039826E+02 0.43040399268E+02 0.53236725691E+02
 0.84939447407E+02 0.95125718744E+02 0.10280856855E+03 0.10755207709E+03 0.10915185922E+03
 0.10755208025E+03 0.10280857331E+03 0.95125722674E+02 0.84939448375E+02 0.72978766737E+02
 0.60237168439E+02 0.47826078112E+02 0.36745289180E+02 0.27654400268E+02 0.20735832034E+02
 0.15700466802E+02 0.11980239209E+02 0.92570203593E+01 0.73291756961E+01 0.59915048097E+01
 0.50736506228E+01 0.44529225959E+01 0.40509975269E+01 0.38236951781E+01 0.37499424785E+01
 0.38236949465E+01 0.40509972983E+01 0.44529226337E+01 0.50736509628E+01 0.59915051802E+01
 0.73291756932E+01 0.92570198197E+01 0.11980238529E+02 0.15700466924E+02 0.20735834091E+02
 0.27654404863E+02 0.36745295986E+02 0.47826085587E+02 0.60237174515E+02 0.72978769632E+02
 0.10757418768E+03 0.11730241751E+03 0.12388045966E+03 0.12717323015E+03 0.12717323243E+03
 0.12388046575E+03 0.11730242552E+03 0.10757419528E+03 0.95125722674E+02 0.80786962843E+02
 0.65742705660E+02 0.51320658282E+02 0.38682744842E+02 0.28542851609E+02 0.21023810985E+02
 0.15700465909E+02 0.11858321040E+02 0.91037534868E+01 0.71926266727E+01 0.58926887739E+01
 0.50205651105E+01 0.44497366439E+01 0.41026832572E+01 0.39378453330E+01 0.39378454151E+01
 0.41026834595E+01 0.44497368823E+01 0.50205652342E+01 0.58926886725E+01 0.71926263257E+01
 0.91037531142E+01 0.11858321077E+02 0.15700466924E+02 0.21023813382E+02 0.28542855330E+02
 0.38682749204E+02 0.51320661970E+02 0.65742707214E+02 0.80786961138E+02 0.95125717502E+02
 0.12883282380E+03 0.13698130763E+03 0.14175196750E+03 0.14331266117E+03 0.14175196970E+03
 0.13698131181E+03 0.12883282952E+03 0.11730242552E+03 0.10280857331E+03 0.86318733173E+02
 0.69250550133E+02 0.53162555209E+02 0.39354543307E+02 0.28542852779E+02 0.20735831816E+02
 0.15337169289E+02 0.11504081330E+02 0.88116569083E+01 0.69793940294E+01 0.57569832930E+01
 0.49564388290E+01 0.44535708386E+01 0.41756612127E+01 0.40865848855E+01 0.41756617678E+01
 0.44535715572E+01 0.49564391808E+01 0.57569829679E+01 0.69793931748E+01 0.88116561144E+01
 0.11504081318E+02 0.15337170501E+02 0.20735834091E+02 0.28542855330E+02 0.39354545006E+02
 0.53162554993E+02 0.69250547524E+02 0.86318728338E+02 0.10280856707E+03 0.11730241902E+03
 0.14638957122E+03 0.15225542877E+03 0.15501658870E+03 0.15501658703E+03 0.15225542469E+03
 0.14638956696E+03 0.13698131181E+03 0.12388046575E+03 0.10755208025E+03 0.89177391102E+02
 0.70453880906E+02 0.53162557718E+02 0.38682749104E+02 0.27654402979E+02 0.19906912101E+02
 0.14645155736E+02 0.10950299159E+02 0.84072082741E+01 0.67083472200E+01 0.55967593992E+01
 0.48889126702E+01 0.44689504697E+01 0.42727683640E+01 0.42727688544E+01 0.44689515827E+01
 0.48889135605E+01 0.55967593575E+01 0.67083461863E+01 0.84072069722E+01 0.10950298630E+02
 0.14645156645E+02 0.19906914134E+02 0.27654404863E+02 0.38682749204E+02 0.53162554993E+02
 0.70453875650E+02 0.89177384943E+02 0.10755207552E+03 0.12388046424E+03 0.13698131386E+03
 0.15889631023E+03 0.16239047370E+03 0.16345686074E+03 0.16239046436E+03 0.15889629505E+03
 0.15225542469E+03 0.14175196970E+03 0.12717323243E+03 0.10915185922E+03 0.89177391069E+02
 0.69250553440E+02 0.51320665181E+02 0.36745296034E+02 0.25986892340E+02 0.18633571767E+02
 0.13685972619E+02 0.10246000708E+02 0.79246252724E+01 0.64012599871E+01 0.54248869112E+01
 0.48250781532E+01 0.44995580384E+01 0.43962705544E+01 0.44995591058E+01 0.48250794769E+01
 0.54248874616E+01 0.64012592903E+01 0.79246238158E+01 0.10245999650E+02 0.13685972959E+02
 0.18633573482E+02 0.25986894138E+02 0.36745295986E+02 0.51320661970E+02 0.69250547524E+02
 0.89177384943E+02 0.10915185656E+03 0.12717323626E+03 0.14175198066E+03 0.15225544027E+03
 0.16632115113E+03 0.16791680758E+03 0.16791680047E+03 0.16632113217E+03 0.16239046436E+03
 0.15501658703E+03 0.14331266117E+03 0.12717323015E+03 0.10755207709E+03 0.86318733583E+02
 0.65742712067E+02 0.47826087718E+02 0.33765039222E+02 0.23738040921E+02 0.17049766044E+02
 0.12541686161E+02 0.94489996997E+01 0.74005702007E+01 0.60795337479E+01 0.52529219064E+01
 0.47706192752E+01 0.45479861000E+01 0.45479866819E+01 0.47706205734E+01 0.52529229205E+01
 0.60795336724E+01 0.74005690766E+01 0.94489984398E+01 0.12541685910E+02 0.17049767227E+02
 0.23738042706E+02 0.33765039826E+02 0.47826085587E+02 0.65742707214E+02 0.86318728338E+02
 0.10755207552E+03 0.12717323626E+03 0.14331267670E+03 0.15501660996E+03 0.16239048901E+03
 0.16977138595E+03 0.17023089084E+03 0.16977137244E+03 0.16791680047E+03 0.16345686074E+03
 0.15501658870E+03 0.14175196750E+03 0.12388045966E+03 0.10280856855E+03 0.80786964874E+02
 0.60237177366E+02 0.43040399893E+02 0.30076076153E+02 0.21153901363E+02 0.15292098864E+02
 0.11303014760E+02 0.86174212830E+01 0.68690174380E+01 0.57615086618E+01 0.50899282622E+01
 0.47294884904E+01 0.46158494410E+01 0.47294893159E+01 0.50899292749E+01 0.57615090693E+01
 0.68690169186E+01 0.86174202723E+01 0.11303014172E+02 0.15292099365E+02 0.21153902745E+02
 0.30076077239E+02 0.43040399268E+02 0.60237174515E+02 0.80786961138E+02 0.10280856707E+03
 0.12388046424E+03 0.14175198066E+03 0.15501660996E+03 0.16345688605E+03 0.16791682325E+03
 0.17088853363E+03 0.17088852928E+03 0.17023089084E+03 0.16791680758E+03 0.16239047370E+03
 0.15225542877E+03 0.13698130763E+03 0.11730241751E+03 0.95125718744E+02 0.72978771442E+02
 0.53236726646E+02 0.37456495745E+02 0.26067264200E+02 0.18475848741E+02 0.13470379677E+02
 0.10056406436E+02 0.78020087316E+01 0.63573722228E+01 0.54608678994E+01 0.49420761492E+01
 0.47040468961E+01 0.47040471464E+01 0.49420767128E+01 0.54608683291E+01 0.63573721880E+01
 0.78020082629E+01 0.10056405962E+02 0.13470379674E+02 0.18475849359E+02 0.26067265004E+02
 0.37456495958E+02 0.53236725691E+02 0.72978769632E+02 0.95125717502E+02 0.11730241902E+03
 0.13698131386E+03 0.15225544027E+03 0.16239048901E+03 0.16791682325E+03 0.17023090258E+03
 0.17088853363E+03 0.17023090258E+03 0.16791682325E+03 0.16239048901E+03 0.15225544027E+03
 0.13698131386E+03 0.11730241902E+03 0.95125717502E+02 0.72978769632E+02 0.53236725691E+02
 0.37456495958E+02 0.26067265004E+02 0.18475849359E+02 0.13470379674E+02 0.10056405962E+02
 0.78020082629E+01 0.63573721880E+01 0.54608683291E+01 0.49420767128E+01 0.47040471464E+01
 0.47040468961E+01 0.49420761492E+01 0.54608678994E+01 0.63573722228E+01 0.78020087316E+01
 0.10056406436E+02 0.13470379677E+02 0.18475848741E+02 0.26067264200E+02 0.37456495745E+02