   1   1   1   0
  0.1952266E+02  0.3022396E-09  0.3022396E-09  0.3022396E-09  0.5000000E-15
  1.000000000000000E-004
  CAR 
 Pt-fcc                                  
     58.05025937    -49.25758678  301      7.60252244      1.00000000
    -49.258  0.0000E+00  0.0000E+00
    -48.900  0.0000E+00  0.0000E+00
    -48.542  0.0000E+00  0.0000E+00
    -48.185  0.0000E+00  0.0000E+00
    -47.827  0.0000E+00  0.0000E+00
    -47.469  0.0000E+00  0.0000E+00
    -47.111  0.0000E+00  0.0000E+00
    -46.754  0.0000E+00  0.0000E+00
    -46.396  0.0000E+00  0.0000E+00
    -46.038  0.0000E+00  0.0000E+00
    -45.681  0.0000E+00  0.0000E+00
    -45.323  0.0000E+00  0.0000E+00
    -44.965  0.0000E+00  0.0000E+00
    -44.608  0.8471E-13  0.3030E-13
    -44.250  0.1163E+00  0.4160E-01
    -43.892  0.5011E-01  0.6000E-01
    -43.535  0.0000E+00  0.6000E-01
    -43.177  0.0000E+00  0.6000E-01
    -42.819  0.0000E+00  0.6000E-01
    -42.461  0.0000E+00  0.6000E-01
    -42.104  0.0000E+00  0.6000E-01
    -41.746  0.0000E+00  0.6000E-01
    -41.388  0.0000E+00  0.6000E-01
    -41.031  0.0000E+00  0.6000E-01
    -40.673  0.0000E+00  0.6000E-01
    -40.315  0.0000E+00  0.6000E-01
    -39.958  0.0000E+00  0.6000E-01
    -39.600  0.0000E+00  0.6000E-01
    -39.242  0.0000E+00  0.6000E-01
    -38.884  0.0000E+00  0.6000E-01
    -38.527  0.0000E+00  0.6000E-01
    -38.169  0.0000E+00  0.6000E-01
    -37.811  0.0000E+00  0.6000E-01
    -37.454  0.0000E+00  0.6000E-01
    -37.096  0.0000E+00  0.6000E-01
    -36.738  0.0000E+00  0.6000E-01
    -36.381  0.0000E+00  0.6000E-01
    -36.023  0.0000E+00  0.6000E-01
    -35.665  0.0000E+00  0.6000E-01
    -35.308  0.0000E+00  0.6000E-01
    -34.950  0.0000E+00  0.6000E-01
    -34.592  0.0000E+00  0.6000E-01
    -34.234  0.0000E+00  0.6000E-01
    -33.877  0.0000E+00  0.6000E-01
    -33.519  0.0000E+00  0.6000E-01
    -33.161  0.0000E+00  0.6000E-01
    -32.804  0.0000E+00  0.6000E-01
    -32.446  0.0000E+00  0.6000E-01
    -32.088  0.0000E+00  0.6000E-01
    -31.731  0.0000E+00  0.6000E-01
    -31.373  0.0000E+00  0.6000E-01
    -31.015  0.0000E+00  0.6000E-01
    -30.658  0.0000E+00  0.6000E-01
    -30.300  0.0000E+00  0.6000E-01
    -29.942  0.0000E+00  0.6000E-01
    -29.584  0.0000E+00  0.6000E-01
    -29.227  0.0000E+00  0.6000E-01
    -28.869  0.0000E+00  0.6000E-01
    -28.511  0.0000E+00  0.6000E-01
    -28.154  0.0000E+00  0.6000E-01
    -27.796  0.0000E+00  0.6000E-01
    -27.438  0.0000E+00  0.6000E-01
    -27.081  0.0000E+00  0.6000E-01
    -26.723  0.0000E+00  0.6000E-01
    -26.365  0.0000E+00  0.6000E-01
    -26.008  0.0000E+00  0.6000E-01
    -25.650  0.0000E+00  0.6000E-01
    -25.292  0.0000E+00  0.6000E-01
    -24.934  0.0000E+00  0.6000E-01
    -24.577  0.0000E+00  0.6000E-01
    -24.219  0.0000E+00  0.6000E-01
    -23.861  0.0000E+00  0.6000E-01
    -23.504  0.0000E+00  0.6000E-01
    -23.146  0.0000E+00  0.6000E-01
    -22.788  0.0000E+00  0.6000E-01
    -22.431  0.0000E+00  0.6000E-01
    -22.073  0.0000E+00  0.6000E-01
    -21.715  0.0000E+00  0.6000E-01
    -21.358  0.0000E+00  0.6000E-01
    -21.000  0.0000E+00  0.6000E-01
    -20.642  0.0000E+00  0.6000E-01
    -20.284  0.0000E+00  0.6000E-01
    -19.927  0.0000E+00  0.6000E-01
    -19.569  0.0000E+00  0.6000E-01
    -19.211  0.0000E+00  0.6000E-01
    -18.854  0.0000E+00  0.6000E-01
    -18.496  0.0000E+00  0.6000E-01
    -18.138  0.0000E+00  0.6000E-01
    -17.781  0.0000E+00  0.6000E-01
    -17.423  0.0000E+00  0.6000E-01
    -17.065  0.0000E+00  0.6000E-01
    -16.708  0.0000E+00  0.6000E-01
    -16.350  0.0000E+00  0.6000E-01
    -15.992  0.0000E+00  0.6000E-01
    -15.634  0.0000E+00  0.6000E-01
    -15.277  0.0000E+00  0.6000E-01
    -14.919  0.0000E+00  0.6000E-01
    -14.561  0.0000E+00  0.6000E-01
    -14.204  0.0000E+00  0.6000E-01
    -13.846  0.0000E+00  0.6000E-01
    -13.488  0.0000E+00  0.6000E-01
    -13.131  0.0000E+00  0.6000E-01
    -12.773  0.0000E+00  0.6000E-01
    -12.415  0.0000E+00  0.6000E-01
    -12.058  0.0000E+00  0.6000E-01
    -11.700  0.0000E+00  0.6000E-01
    -11.342  0.0000E+00  0.6000E-01
    -10.984  0.0000E+00  0.6000E-01
    -10.627  0.0000E+00  0.6000E-01
    -10.269  0.0000E+00  0.6000E-01
     -9.911  0.0000E+00  0.6000E-01
     -9.554  0.0000E+00  0.6000E-01
     -9.196  0.0000E+00  0.6000E-01
     -8.838  0.0000E+00  0.6000E-01
     -8.481  0.0000E+00  0.6000E-01
     -8.123  0.0000E+00  0.6000E-01
     -7.765  0.0000E+00  0.6000E-01
     -7.408  0.0000E+00  0.6000E-01
     -7.050  0.0000E+00  0.6000E-01
     -6.692  0.0000E+00  0.6000E-01
     -6.334  0.0000E+00  0.6000E-01
     -5.977  0.0000E+00  0.6000E-01
     -5.619  0.0000E+00  0.6000E-01
     -5.261  0.0000E+00  0.6000E-01
     -4.904  0.0000E+00  0.6000E-01
     -4.546  0.0000E+00  0.6000E-01
     -4.188  0.0000E+00  0.6000E-01
     -3.831  0.0000E+00  0.6000E-01
     -3.473  0.0000E+00  0.6000E-01
     -3.115  0.0000E+00  0.6000E-01
     -2.758  0.0000E+00  0.6000E-01
     -2.400  0.0000E+00  0.6000E-01
     -2.042  0.0000E+00  0.6000E-01
     -1.684  0.0000E+00  0.6000E-01
     -1.327  0.0000E+00  0.6000E-01
     -0.969  0.0000E+00  0.6000E-01
     -0.611  0.0000E+00  0.6000E-01
     -0.254  0.1403E-17  0.6000E-01
      0.104  0.1112E-03  0.6004E-01
      0.462  0.6132E-03  0.6026E-01
      0.819  0.8057E-03  0.6055E-01
      1.177  0.8609E-03  0.6086E-01
      1.535  0.1687E-02  0.6146E-01
      1.892  0.1735E-02  0.6208E-01
      2.250  0.2293E-02  0.6290E-01
      2.608  0.3744E-02  0.6426E-01
      2.966  0.7707E-02  0.6704E-01
      3.323  0.1256E-01  0.7154E-01
      3.681  0.1812E-01  0.7805E-01
      4.039  0.1608E-01  0.8386E-01
      4.396  0.1512E-01  0.8931E-01
      4.754  0.1889E-01  0.9608E-01
      5.112  0.2398E-01  0.1047E+00
      5.469  0.3268E-01  0.1164E+00
      5.827  0.1905E-01  0.1234E+00
      6.185  0.1809E-01  0.1299E+00
      6.542  0.2106E-01  0.1375E+00
      6.900  0.1862E-01  0.1442E+00
      7.258  0.1846E-01  0.1508E+00
      7.616  0.2691E-01  0.1604E+00
      7.973  0.1636E-01  0.1663E+00
      8.331  0.1552E-02  0.1669E+00
      8.689  0.4216E-02  0.1684E+00
      9.046  0.3917E-02  0.1698E+00
      9.404  0.2712E-02  0.1707E+00
      9.762  0.3756E-02  0.1721E+00
     10.119  0.3289E-02  0.1733E+00
     10.477  0.2673E-02  0.1742E+00
     10.835  0.3665E-02  0.1756E+00
     11.192  0.2433E-02  0.1764E+00
     11.550  0.2792E-02  0.1775E+00
     11.908  0.4904E-02  0.1792E+00
     12.266  0.3018E-02  0.1803E+00
     12.623  0.3361E-02  0.1815E+00
     12.981  0.3246E-02  0.1827E+00
     13.339  0.2737E-02  0.1837E+00
     13.696  0.4558E-02  0.1853E+00
     14.054  0.3139E-02  0.1864E+00
     14.412  0.3945E-02  0.1879E+00
     14.769  0.3584E-02  0.1891E+00
     15.127  0.4396E-02  0.1907E+00
     15.485  0.1632E-02  0.1913E+00
     15.843  0.3120E-02  0.1924E+00
     16.200  0.4961E-02  0.1942E+00
     16.558  0.4148E-02  0.1957E+00
     16.916  0.1823E-02  0.1963E+00
     17.273  0.5250E-02  0.1982E+00
     17.631  0.4143E-02  0.1997E+00
     17.989  0.3886E-02  0.2011E+00
     18.346  0.5954E-02  0.2032E+00
     18.704  0.4597E-02  0.2049E+00
     19.062  0.4913E-02  0.2067E+00
     19.419  0.5379E-02  0.2086E+00
     19.777  0.8873E-02  0.2118E+00
     20.135  0.2425E-02  0.2127E+00
     20.493  0.5213E-02  0.2145E+00
     20.850  0.6198E-02  0.2168E+00
     21.208  0.6357E-02  0.2190E+00
     21.566  0.4236E-02  0.2206E+00
     21.923  0.4920E-02  0.2224E+00
     22.281  0.6857E-02  0.2248E+00
     22.639  0.6158E-02  0.2270E+00
     22.996  0.6276E-02  0.2293E+00
     23.354  0.7459E-02  0.2320E+00
     23.712  0.5876E-02  0.2341E+00
     24.069  0.3362E-02  0.2353E+00
     24.427  0.7800E-02  0.2381E+00
     24.785  0.8717E-02  0.2412E+00
     25.143  0.7271E-02  0.2438E+00
     25.500  0.9152E-02  0.2471E+00
     25.858  0.9050E-02  0.2504E+00
     26.216  0.6137E-02  0.2526E+00
     26.573  0.7756E-02  0.2554E+00
     26.931  0.4974E-02  0.2571E+00
     27.289  0.7311E-02  0.2598E+00
     27.646  0.3620E-02  0.2611E+00
     28.004  0.3566E-02  0.2624E+00
     28.362  0.6622E-02  0.2647E+00
     28.719  0.2888E-02  0.2658E+00
     29.077  0.4415E-02  0.2673E+00
     29.435  0.6265E-02  0.2696E+00
     29.793  0.4483E-02  0.2712E+00
     30.150  0.2402E-02  0.2721E+00
     30.508  0.7217E-02  0.2747E+00
     30.866  0.6634E-02  0.2770E+00
     31.223  0.7887E-02  0.2799E+00
     31.581  0.6342E-02  0.2822E+00
     31.939  0.1183E-01  0.2864E+00
     32.296  0.9410E-02  0.2898E+00
     32.654  0.1423E-01  0.2949E+00
     33.012  0.1161E-01  0.2991E+00
     33.369  0.1020E-01  0.3028E+00
     33.727  0.7827E-02  0.3057E+00
     34.085  0.1160E-01  0.3098E+00
     34.443  0.1015E-01  0.3134E+00
     34.800  0.1216E-01  0.3178E+00
     35.158  0.7877E-02  0.3207E+00
     35.516  0.7442E-02  0.3233E+00
     35.873  0.6564E-02  0.3257E+00
     36.231  0.7360E-02  0.3284E+00
     36.589  0.7325E-02  0.3310E+00
     36.946  0.6903E-02  0.3335E+00
     37.304  0.9528E-02  0.3369E+00
     37.662  0.6153E-02  0.3391E+00
     38.019  0.7811E-02  0.3420E+00
     38.377  0.7427E-02  0.3446E+00
     38.735  0.9901E-02  0.3482E+00
     39.093  0.1073E-01  0.3521E+00
     39.450  0.1123E-01  0.3561E+00
     39.808  0.1023E-01  0.3598E+00
     40.166  0.1513E-01  0.3652E+00
     40.523  0.1316E-01  0.3699E+00
     40.881  0.1161E-01  0.3741E+00
     41.239  0.8089E-02  0.3770E+00
     41.596  0.6790E-02  0.3795E+00
     41.954  0.8572E-02  0.3826E+00
     42.312  0.1104E-01  0.3865E+00
     42.669  0.8607E-02  0.3896E+00
     43.027  0.9836E-02  0.3932E+00
     43.385  0.7806E-02  0.3960E+00
     43.743  0.1005E-01  0.3996E+00
     44.100  0.8248E-02  0.4026E+00
     44.458  0.9536E-02  0.4060E+00
     44.816  0.1107E-01  0.4100E+00
     45.173  0.1075E-01  0.4138E+00
     45.531  0.1226E-01  0.4182E+00
     45.889  0.5651E-02  0.4203E+00
     46.246  0.1028E-01  0.4240E+00
     46.604  0.1024E-01  0.4277E+00
     46.962  0.7478E-02  0.4304E+00
     47.319  0.1016E-01  0.4341E+00
     47.677  0.8652E-02  0.4372E+00
     48.035  0.7835E-02  0.4400E+00
     48.393  0.7344E-02  0.4426E+00
     48.750  0.1197E-01  0.4469E+00
     49.108  0.1006E-01  0.4505E+00
     49.466  0.6191E-01  0.4727E+00
     49.823  0.5161E-02  0.4746E+00
     50.181  0.5331E-02  0.4766E+00
     50.539  0.1531E-02  0.4771E+00
     50.896  0.3721E-02  0.4784E+00
     51.254  0.1558E-02  0.4790E+00
     51.612  0.1046E-02  0.4794E+00
     51.969  0.6813E-03  0.4796E+00
     52.327  0.3343E-03  0.4798E+00
     52.685  0.3355E-03  0.4799E+00
     53.043  0.3929E-07  0.4799E+00
     53.400  0.3354E-03  0.4800E+00
     53.758  0.0000E+00  0.4800E+00
     54.116  0.0000E+00  0.4800E+00
     54.473  0.0000E+00  0.4800E+00
     54.831  0.0000E+00  0.4800E+00
     55.189  0.0000E+00  0.4800E+00
     55.546  0.0000E+00  0.4800E+00
     55.904  0.0000E+00  0.4800E+00
     56.262  0.0000E+00  0.4800E+00
     56.619  0.0000E+00  0.4800E+00
     56.977  0.0000E+00  0.4800E+00
     57.335  0.0000E+00  0.4800E+00
     57.693  0.0000E+00  0.4800E+00
     58.050  0.0000E+00  0.4800E+00
     58.05025937    -49.25758678  301      7.60252244      1.00000000
    -49.258  0.0000E+00  0.0000E+00  0.0000E+00  0.0000E+00  0.0000E+00  0.0000E+00  0.0000E+00  0.0000E+00  0.0000E+00
    -48.900  0.0000E+00  0.0000E+00  0.0000E+00  0.0000E+00  0.0000E+00  0.0000E+00  0.0000E+00  0.0000E+00  0.0000E+00
    -48.542  0.0000E+00  0.0000E+00  0.0000E+00  0.0000E+00  0.0000E+00  0.0000E+00  0.0000E+00  0.0000E+00  0.0000E+00
    -48.185  0.0000E+00  0.0000E+00  0.0000E+00  0.0000E+00  0.0000E+00  0.0000E+00  0.0000E+00  0.0000E+00  0.0000E+00
    -47.827  0.0000E+00  0.0000E+00  0.0000E+00  0.0000E+00  0.0000E+00  0.0000E+00  0.0000E+00  0.0000E+00  0.0000E+00
    -47.469  0.0000E+00  0.0000E+00  0.0000E+00  0.0000E+00  0.0000E+00  0.0000E+00  0.0000E+00  0.0000E+00  0.0000E+00
    -47.111  0.0000E+00  0.0000E+00  0.0000E+00  0.0000E+00  0.0000E+00  0.0000E+00  0.0000E+00  0.0000E+00  0.0000E+00
    -46.754  0.0000E+00  0.0000E+00  0.0000E+00  0.0000E+00  0.0000E+00  0.0000E+00  0.0000E+00  0.0000E+00  0.0000E+00
    -46.396  0.0000E+00  0.0000E+00  0.0000E+00  0.0000E+00  0.0000E+00  0.0000E+00  0.0000E+00  0.0000E+00  0.0000E+00
    -46.038  0.0000E+00  0.0000E+00  0.0000E+00  0.0000E+00  0.0000E+00  0.0000E+00  0.0000E+00  0.0000E+00  0.0000E+00
    -45.681  0.0000E+00  0.0000E+00  0.0000E+00  0.0000E+00  0.0000E+00  0.0000E+00  0.0000E+00  0.0000E+00  0.0000E+00
    -45.323  0.0000E+00  0.0000E+00  0.0000E+00  0.0000E+00  0.0000E+00  0.0000E+00  0.0000E+00  0.0000E+00  0.0000E+00
    -44.965  0.0000E+00  0.0000E+00  0.0000E+00  0.0000E+00  0.0000E+00  0.0000E+00  0.0000E+00  0.0000E+00  0.0000E+00
    -44.608  0.8726E-17  0.2788E-11  0.2788E-11  0.2788E-11  0.3804E-17  0.3804E-17  0.2280E-17  0.3804E-17  0.2280E-17
    -44.250  0.3655E-04  0.3839E+01  0.3839E+01  0.3839E+01  0.1595E-04  0.1595E-04  0.7692E-05  0.1595E-04  0.7692E-05
    -43.892  0.3875E-05  0.1658E+01  0.1658E+01  0.1658E+01  0.4366E-05  0.4366E-05  0.3055E-05  0.4366E-05  0.3055E-05
    -43.535  0.0000E+00  0.0000E+00  0.0000E+00  0.0000E+00  0.0000E+00  0.0000E+00  0.0000E+00  0.0000E+00  0.0000E+00
    -43.177  0.0000E+00  0.0000E+00  0.0000E+00  0.0000E+00  0.0000E+00  0.0000E+00  0.0000E+00  0.0000E+00  0.0000E+00
    -42.819  0.0000E+00  0.0000E+00  0.0000E+00  0.0000E+00  0.0000E+00  0.0000E+00  0.0000E+00  0.0000E+00  0.0000E+00
    -42.461  0.0000E+00  0.0000E+00  0.0000E+00  0.0000E+00  0.0000E+00  0.0000E+00  0.0000E+00  0.0000E+00  0.0000E+00
    -42.104  0.0000E+00  0.0000E+00  0.0000E+00  0.0000E+00  0.0000E+00  0.0000E+00  0.0000E+00  0.0000E+00  0.0000E+00
    -41.746  0.0000E+00  0.0000E+00  0.0000E+00  0.0000E+00  0.0000E+00  0.0000E+00  0.0000E+00  0.0000E+00  0.0000E+00
    -41.388  0.0000E+00  0.0000E+00  0.0000E+00  0.0000E+00  0.0000E+00  0.0000E+00  0.0000E+00  0.0000E+00  0.0000E+00
    -41.031  0.0000E+00  0.0000E+00  0.0000E+00  0.0000E+00  0.0000E+00  0.0000E+00  0.0000E+00  0.0000E+00  0.0000E+00
    -40.673  0.0000E+00  0.0000E+00  0.0000E+00  0.0000E+00  0.0000E+00  0.0000E+00  0.0000E+00  0.0000E+00  0.0000E+00
    -40.315  0.0000E+00  0.0000E+00  0.0000E+00  0.0000E+00  0.0000E+00  0.0000E+00  0.0000E+00  0.0000E+00  0.0000E+00
    -39.958  0.0000E+00  0.0000E+00  0.0000E+00  0.0000E+00  0.0000E+00  0.0000E+00  0.0000E+00  0.0000E+00  0.0000E+00
    -39.600  0.0000E+00  0.0000E+00  0.0000E+00  0.0000E+00  0.0000E+00  0.0000E+00  0.0000E+00  0.0000E+00  0.0000E+00
    -39.242  0.0000E+00  0.0000E+00  0.0000E+00  0.0000E+00  0.0000E+00  0.0000E+00  0.0000E+00  0.0000E+00  0.0000E+00
    -38.884  0.0000E+00  0.0000E+00  0.0000E+00  0.0000E+00  0.0000E+00  0.0000E+00  0.0000E+00  0.0000E+00  0.0000E+00
    -38.527  0.0000E+00  0.0000E+00  0.0000E+00  0.0000E+00  0.0000E+00  0.0000E+00  0.0000E+00  0.0000E+00  0.0000E+00
    -38.169  0.0000E+00  0.0000E+00  0.0000E+00  0.0000E+00  0.0000E+00  0.0000E+00  0.0000E+00  0.0000E+00  0.0000E+00
    -37.811  0.0000E+00  0.0000E+00  0.0000E+00  0.0000E+00  0.0000E+00  0.0000E+00  0.0000E+00  0.0000E+00  0.0000E+00
    -37.454  0.0000E+00  0.0000E+00  0.0000E+00  0.0000E+00  0.0000E+00  0.0000E+00  0.0000E+00  0.0000E+00  0.0000E+00
    -37.096  0.0000E+00  0.0000E+00  0.0000E+00  0.0000E+00  0.0000E+00  0.0000E+00  0.0000E+00  0.0000E+00  0.0000E+00
    -36.738  0.0000E+00  0.0000E+00  0.0000E+00  0.0000E+00  0.0000E+00  0.0000E+00  0.0000E+00  0.0000E+00  0.0000E+00
    -36.381  0.0000E+00  0.0000E+00  0.0000E+00  0.0000E+00  0.0000E+00  0.0000E+00  0.0000E+00  0.0000E+00  0.0000E+00
    -36.023  0.0000E+00  0.0000E+00  0.0000E+00  0.0000E+00  0.0000E+00  0.0000E+00  0.0000E+00  0.0000E+00  0.0000E+00
    -35.665  0.0000E+00  0.0000E+00  0.0000E+00  0.0000E+00  0.0000E+00  0.0000E+00  0.0000E+00  0.0000E+00  0.0000E+00
    -35.308  0.0000E+00  0.0000E+00  0.0000E+00  0.0000E+00  0.0000E+00  0.0000E+00  0.0000E+00  0.0000E+00  0.0000E+00
    -34.950  0.0000E+00  0.0000E+00  0.0000E+00  0.0000E+00  0.0000E+00  0.0000E+00  0.0000E+00  0.0000E+00  0.0000E+00
    -34.592  0.0000E+00  0.0000E+00  0.0000E+00  0.0000E+00  0.0000E+00  0.0000E+00  0.0000E+00  0.0000E+00  0.0000E+00
    -34.234  0.0000E+00  0.0000E+00  0.0000E+00  0.0000E+00  0.0000E+00  0.0000E+00  0.0000E+00  0.0000E+00  0.0000E+00
    -33.877  0.0000E+00  0.0000E+00  0.0000E+00  0.0000E+00  0.0000E+00  0.0000E+00  0.0000E+00  0.0000E+00  0.0000E+00
    -33.519  0.0000E+00  0.0000E+00  0.0000E+00  0.0000E+00  0.0000E+00  0.0000E+00  0.0000E+00  0.0000E+00  0.0000E+00
    -33.161  0.0000E+00  0.0000E+00  0.0000E+00  0.0000E+00  0.0000E+00  0.0000E+00  0.0000E+00  0.0000E+00  0.0000E+00
    -32.804  0.0000E+00  0.0000E+00  0.0000E+00  0.0000E+00  0.0000E+00  0.0000E+00  0.0000E+00  0.0000E+00  0.0000E+00
    -32.446  0.0000E+00  0.0000E+00  0.0000E+00  0.0000E+00  0.0000E+00  0.0000E+00  0.0000E+00  0.0000E+00  0.0000E+00
    -32.088  0.0000E+00  0.0000E+00  0.0000E+00  0.0000E+00  0.0000E+00  0.0000E+00  0.0000E+00  0.0000E+00  0.0000E+00
    -31.731  0.0000E+00  0.0000E+00  0.0000E+00  0.0000E+00  0.0000E+00  0.0000E+00  0.0000E+00  0.0000E+00  0.0000E+00
    -31.373  0.0000E+00  0.0000E+00  0.0000E+00  0.0000E+00  0.0000E+00  0.0000E+00  0.0000E+00  0.0000E+00  0.0000E+00
    -31.015  0.0000E+00  0.0000E+00  0.0000E+00  0.0000E+00  0.0000E+00  0.0000E+00  0.0000E+00  0.0000E+00  0.0000E+00
    -30.658  0.0000E+00  0.0000E+00  0.0000E+00  0.0000E+00  0.0000E+00  0.0000E+00  0.0000E+00  0.0000E+00  0.0000E+00
    -30.300  0.0000E+00  0.0000E+00  0.0000E+00  0.0000E+00  0.0000E+00  0.0000E+00  0.0000E+00  0.0000E+00  0.0000E+00
    -29.942  0.0000E+00  0.0000E+00  0.0000E+00  0.0000E+00  0.0000E+00  0.0000E+00  0.0000E+00  0.0000E+00  0.0000E+00
    -29.584  0.0000E+00  0.0000E+00  0.0000E+00  0.0000E+00  0.0000E+00  0.0000E+00  0.0000E+00  0.0000E+00  0.0000E+00
    -29.227  0.0000E+00  0.0000E+00  0.0000E+00  0.0000E+00  0.0000E+00  0.0000E+00  0.0000E+00  0.0000E+00  0.0000E+00
    -28.869  0.0000E+00  0.0000E+00  0.0000E+00  0.0000E+00  0.0000E+00  0.0000E+00  0.0000E+00  0.0000E+00  0.0000E+00
    -28.511  0.0000E+00  0.0000E+00  0.0000E+00  0.0000E+00  0.0000E+00  0.0000E+00  0.0000E+00  0.0000E+00  0.0000E+00
    -28.154  0.0000E+00  0.0000E+00  0.0000E+00  0.0000E+00  0.0000E+00  0.0000E+00  0.0000E+00  0.0000E+00  0.0000E+00
    -27.796  0.0000E+00  0.0000E+00  0.0000E+00  0.0000E+00  0.0000E+00  0.0000E+00  0.0000E+00  0.0000E+00  0.0000E+00
    -27.438  0.0000E+00  0.0000E+00  0.0000E+00  0.0000E+00  0.0000E+00  0.0000E+00  0.0000E+00  0.0000E+00  0.0000E+00
    -27.081  0.0000E+00  0.0000E+00  0.0000E+00  0.0000E+00  0.0000E+00  0.0000E+00  0.0000E+00  0.0000E+00  0.0000E+00
    -26.723  0.0000E+00  0.0000E+00  0.0000E+00  0.0000E+00  0.0000E+00  0.0000E+00  0.0000E+00  0.0000E+00  0.0000E+00
    -26.365  0.0000E+00  0.0000E+00  0.0000E+00  0.0000E+00  0.0000E+00  0.0000E+00  0.0000E+00  0.0000E+00  0.0000E+00
    -26.008  0.0000E+00  0.0000E+00  0.0000E+00  0.0000E+00  0.0000E+00  0.0000E+00  0.0000E+00  0.0000E+00  0.0000E+00
    -25.650  0.0000E+00  0.0000E+00  0.0000E+00  0.0000E+00  0.0000E+00  0.0000E+00  0.0000E+00  0.0000E+00  0.0000E+00
    -25.292  0.0000E+00  0.0000E+00  0.0000E+00  0.0000E+00  0.0000E+00  0.0000E+00  0.0000E+00  0.0000E+00  0.0000E+00
    -24.934  0.0000E+00  0.0000E+00  0.0000E+00  0.0000E+00  0.0000E+00  0.0000E+00  0.0000E+00  0.0000E+00  0.0000E+00
    -24.577  0.0000E+00  0.0000E+00  0.0000E+00  0.0000E+00  0.0000E+00  0.0000E+00  0.0000E+00  0.0000E+00  0.0000E+00
    -24.219  0.0000E+00  0.0000E+00  0.0000E+00  0.0000E+00  0.0000E+00  0.0000E+00  0.0000E+00  0.0000E+00  0.0000E+00
    -23.861  0.0000E+00  0.0000E+00  0.0000E+00  0.0000E+00  0.0000E+00  0.0000E+00  0.0000E+00  0.0000E+00  0.0000E+00
    -23.504  0.0000E+00  0.0000E+00  0.0000E+00  0.0000E+00  0.0000E+00  0.0000E+00  0.0000E+00  0.0000E+00  0.0000E+00
    -23.146  0.0000E+00  0.0000E+00  0.0000E+00  0.0000E+00  0.0000E+00  0.0000E+00  0.0000E+00  0.0000E+00  0.0000E+00
    -22.788  0.0000E+00  0.0000E+00  0.0000E+00  0.0000E+00  0.0000E+00  0.0000E+00  0.0000E+00  0.0000E+00  0.0000E+00
    -22.431  0.0000E+00  0.0000E+00  0.0000E+00  0.0000E+00  0.0000E+00  0.0000E+00  0.0000E+00  0.0000E+00  0.0000E+00
    -22.073  0.0000E+00  0.0000E+00  0.0000E+00  0.0000E+00  0.0000E+00  0.0000E+00  0.0000E+00  0.0000E+00  0.0000E+00
    -21.715  0.0000E+00  0.0000E+00  0.0000E+00  0.0000E+00  0.0000E+00  0.0000E+00  0.0000E+00  0.0000E+00  0.0000E+00
    -21.358  0.0000E+00  0.0000E+00  0.0000E+00  0.0000E+00  0.0000E+00  0.0000E+00  0.0000E+00  0.0000E+00  0.0000E+00
    -21.000  0.0000E+00  0.0000E+00  0.0000E+00  0.0000E+00  0.0000E+00  0.0000E+00  0.0000E+00  0.0000E+00  0.0000E+00
    -20.642  0.0000E+00  0.0000E+00  0.0000E+00  0.0000E+00  0.0000E+00  0.0000E+00  0.0000E+00  0.0000E+00  0.0000E+00
    -20.284  0.0000E+00  0.0000E+00  0.0000E+00  0.0000E+00  0.0000E+00  0.0000E+00  0.0000E+00  0.0000E+00  0.0000E+00
    -19.927  0.0000E+00  0.0000E+00  0.0000E+00  0.0000E+00  0.0000E+00  0.0000E+00  0.0000E+00  0.0000E+00  0.0000E+00
    -19.569  0.0000E+00  0.0000E+00  0.0000E+00  0.0000E+00  0.0000E+00  0.0000E+00  0.0000E+00  0.0000E+00  0.0000E+00
    -19.211  0.0000E+00  0.0000E+00  0.0000E+00  0.0000E+00  0.0000E+00  0.0000E+00  0.0000E+00  0.0000E+00  0.0000E+00
    -18.854  0.0000E+00  0.0000E+00  0.0000E+00  0.0000E+00  0.0000E+00  0.0000E+00  0.0000E+00  0.0000E+00  0.0000E+00
    -18.496  0.0000E+00  0.0000E+00  0.0000E+00  0.0000E+00  0.0000E+00  0.0000E+00  0.0000E+00  0.0000E+00  0.0000E+00
    -18.138  0.0000E+00  0.0000E+00  0.0000E+00  0.0000E+00  0.0000E+00  0.0000E+00  0.0000E+00  0.0000E+00  0.0000E+00
    -17.781  0.0000E+00  0.0000E+00  0.0000E+00  0.0000E+00  0.0000E+00  0.0000E+00  0.0000E+00  0.0000E+00  0.0000E+00
    -17.423  0.0000E+00  0.0000E+00  0.0000E+00  0.0000E+00  0.0000E+00  0.0000E+00  0.0000E+00  0.0000E+00  0.0000E+00
    -17.065  0.0000E+00  0.0000E+00  0.0000E+00  0.0000E+00  0.0000E+00  0.0000E+00  0.0000E+00  0.0000E+00  0.0000E+00
    -16.708  0.0000E+00  0.0000E+00  0.0000E+00  0.0000E+00  0.0000E+00  0.0000E+00  0.0000E+00  0.0000E+00  0.0000E+00
    -16.350  0.0000E+00  0.0000E+00  0.0000E+00  0.0000E+00  0.0000E+00  0.0000E+00  0.0000E+00  0.0000E+00  0.0000E+00
    -15.992  0.0000E+00  0.0000E+00  0.0000E+00  0.0000E+00  0.0000E+00  0.0000E+00  0.0000E+00  0.0000E+00  0.0000E+00
    -15.634  0.0000E+00  0.0000E+00  0.0000E+00  0.0000E+00  0.0000E+00  0.0000E+00  0.0000E+00  0.0000E+00  0.0000E+00
    -15.277  0.0000E+00  0.0000E+00  0.0000E+00  0.0000E+00  0.0000E+00  0.0000E+00  0.0000E+00  0.0000E+00  0.0000E+00
    -14.919  0.0000E+00  0.0000E+00  0.0000E+00  0.0000E+00  0.0000E+00  0.0000E+00  0.0000E+00  0.0000E+00  0.0000E+00
    -14.561  0.0000E+00  0.0000E+00  0.0000E+00  0.0000E+00  0.0000E+00  0.0000E+00  0.0000E+00  0.0000E+00  0.0000E+00
    -14.204  0.0000E+00  0.0000E+00  0.0000E+00  0.0000E+00  0.0000E+00  0.0000E+00  0.0000E+00  0.0000E+00  0.0000E+00
    -13.846  0.0000E+00  0.0000E+00  0.0000E+00  0.0000E+00  0.0000E+00  0.0000E+00  0.0000E+00  0.0000E+00  0.0000E+00
    -13.488  0.0000E+00  0.0000E+00  0.0000E+00  0.0000E+00  0.0000E+00  0.0000E+00  0.0000E+00  0.0000E+00  0.0000E+00
    -13.131  0.0000E+00  0.0000E+00  0.0000E+00  0.0000E+00  0.0000E+00  0.0000E+00  0.0000E+00  0.0000E+00  0.0000E+00
    -12.773  0.0000E+00  0.0000E+00  0.0000E+00  0.0000E+00  0.0000E+00  0.0000E+00  0.0000E+00  0.0000E+00  0.0000E+00
    -12.415  0.0000E+00  0.0000E+00  0.0000E+00  0.0000E+00  0.0000E+00  0.0000E+00  0.0000E+00  0.0000E+00  0.0000E+00
    -12.058  0.0000E+00  0.0000E+00  0.0000E+00  0.0000E+00  0.0000E+00  0.0000E+00  0.0000E+00  0.0000E+00  0.0000E+00
    -11.700  0.0000E+00  0.0000E+00  0.0000E+00  0.0000E+00  0.0000E+00  0.0000E+00  0.0000E+00  0.0000E+00  0.0000E+00
    -11.342  0.0000E+00  0.0000E+00  0.0000E+00  0.0000E+00  0.0000E+00  0.0000E+00  0.0000E+00  0.0000E+00  0.0000E+00
    -10.984  0.0000E+00  0.0000E+00  0.0000E+00  0.0000E+00  0.0000E+00  0.0000E+00  0.0000E+00  0.0000E+00  0.0000E+00
    -10.627  0.0000E+00  0.0000E+00  0.0000E+00  0.0000E+00  0.0000E+00  0.0000E+00  0.0000E+00  0.0000E+00  0.0000E+00
    -10.269  0.0000E+00  0.0000E+00  0.0000E+00  0.0000E+00  0.0000E+00  0.0000E+00  0.0000E+00  0.0000E+00  0.0000E+00
     -9.911  0.0000E+00  0.0000E+00  0.0000E+00  0.0000E+00  0.0000E+00  0.0000E+00  0.0000E+00  0.0000E+00  0.0000E+00
     -9.554  0.0000E+00  0.0000E+00  0.0000E+00  0.0000E+00  0.0000E+00  0.0000E+00  0.0000E+00  0.0000E+00  0.0000E+00
     -9.196  0.0000E+00  0.0000E+00  0.0000E+00  0.0000E+00  0.0000E+00  0.0000E+00  0.0000E+00  0.0000E+00  0.0000E+00
     -8.838  0.0000E+00  0.0000E+00  0.0000E+00  0.0000E+00  0.0000E+00  0.0000E+00  0.0000E+00  0.0000E+00  0.0000E+00
     -8.481  0.0000E+00  0.0000E+00  0.0000E+00  0.0000E+00  0.0000E+00  0.0000E+00  0.0000E+00  0.0000E+00  0.0000E+00
     -8.123  0.0000E+00  0.0000E+00  0.0000E+00  0.0000E+00  0.0000E+00  0.0000E+00  0.0000E+00  0.0000E+00  0.0000E+00
     -7.765  0.0000E+00  0.0000E+00  0.0000E+00  0.0000E+00  0.0000E+00  0.0000E+00  0.0000E+00  0.0000E+00  0.0000E+00
     -7.408  0.0000E+00  0.0000E+00  0.0000E+00  0.0000E+00  0.0000E+00  0.0000E+00  0.0000E+00  0.0000E+00  0.0000E+00
     -7.050  0.0000E+00  0.0000E+00  0.0000E+00  0.0000E+00  0.0000E+00  0.0000E+00  0.0000E+00  0.0000E+00  0.0000E+00
     -6.692  0.0000E+00  0.0000E+00  0.0000E+00  0.0000E+00  0.0000E+00  0.0000E+00  0.0000E+00  0.0000E+00  0.0000E+00
     -6.334  0.0000E+00  0.0000E+00  0.0000E+00  0.0000E+00  0.0000E+00  0.0000E+00  0.0000E+00  0.0000E+00  0.0000E+00
     -5.977  0.0000E+00  0.0000E+00  0.0000E+00  0.0000E+00  0.0000E+00  0.0000E+00  0.0000E+00  0.0000E+00  0.0000E+00
     -5.619  0.0000E+00  0.0000E+00  0.0000E+00  0.0000E+00  0.0000E+00  0.0000E+00  0.0000E+00  0.0000E+00  0.0000E+00
     -5.261  0.0000E+00  0.0000E+00  0.0000E+00  0.0000E+00  0.0000E+00  0.0000E+00  0.0000E+00  0.0000E+00  0.0000E+00
     -4.904  0.0000E+00  0.0000E+00  0.0000E+00  0.0000E+00  0.0000E+00  0.0000E+00  0.0000E+00  0.0000E+00  0.0000E+00
     -4.546  0.0000E+00  0.0000E+00  0.0000E+00  0.0000E+00  0.0000E+00  0.0000E+00  0.0000E+00  0.0000E+00  0.0000E+00
     -4.188  0.0000E+00  0.0000E+00  0.0000E+00  0.0000E+00  0.0000E+00  0.0000E+00  0.0000E+00  0.0000E+00  0.0000E+00
     -3.831  0.0000E+00  0.0000E+00  0.0000E+00  0.0000E+00  0.0000E+00  0.0000E+00  0.0000E+00  0.0000E+00  0.0000E+00
     -3.473  0.0000E+00  0.0000E+00  0.0000E+00  0.0000E+00  0.0000E+00  0.0000E+00  0.0000E+00  0.0000E+00  0.0000E+00
     -3.115  0.0000E+00  0.0000E+00  0.0000E+00  0.0000E+00  0.0000E+00  0.0000E+00  0.0000E+00  0.0000E+00  0.0000E+00
     -2.758  0.0000E+00  0.0000E+00  0.0000E+00  0.0000E+00  0.0000E+00  0.0000E+00  0.0000E+00  0.0000E+00  0.0000E+00
     -2.400  0.0000E+00  0.0000E+00  0.0000E+00  0.0000E+00  0.0000E+00  0.0000E+00  0.0000E+00  0.0000E+00  0.0000E+00
     -2.042  0.0000E+00  0.0000E+00  0.0000E+00  0.0000E+00  0.0000E+00  0.0000E+00  0.0000E+00  0.0000E+00  0.0000E+00
     -1.684  0.0000E+00  0.0000E+00  0.0000E+00  0.0000E+00  0.0000E+00  0.0000E+00  0.0000E+00  0.0000E+00  0.0000E+00
     -1.327  0.0000E+00  0.0000E+00  0.0000E+00  0.0000E+00  0.0000E+00  0.0000E+00  0.0000E+00  0.0000E+00  0.0000E+00
     -0.969  0.0000E+00  0.0000E+00  0.0000E+00  0.0000E+00  0.0000E+00  0.0000E+00  0.0000E+00  0.0000E+00  0.0000E+00
     -0.611  0.0000E+00  0.0000E+00  0.0000E+00  0.0000E+00  0.0000E+00  0.0000E+00  0.0000E+00  0.0000E+00  0.0000E+00
     -0.254  0.4522E-16  0.3894E-19  0.3894E-19  0.3894E-19  0.2694E-20  0.2694E-20  0.2927E-32  0.2694E-20  0.2927E-32
      0.104  0.3585E-02  0.3095E-05  0.3095E-05  0.3095E-05  0.2147E-06  0.2147E-06  0.1109E-08  0.2147E-06  0.1109E-08
      0.462  0.1943E-01  0.8042E-04  0.8042E-04  0.8042E-04  0.2332E-04  0.2332E-04  0.6306E-05  0.2332E-04  0.6306E-05
      0.819  0.2490E-01  0.2060E-03  0.2060E-03  0.2060E-03  0.9520E-04  0.9520E-04  0.6282E-04  0.9520E-04  0.6282E-04
      1.177  0.2600E-01  0.2902E-03  0.2902E-03  0.2902E-03  0.2914E-03  0.2914E-03  0.8385E-04  0.2914E-03  0.8385E-04
      1.535  0.4908E-01  0.7627E-03  0.7627E-03  0.7627E-03  0.9456E-03  0.9456E-03  0.5726E-03  0.9456E-03  0.5726E-03
      1.892  0.4745E-01  0.9285E-03  0.9285E-03  0.9285E-03  0.2655E-02  0.2655E-02  0.6933E-03  0.2655E-02  0.6933E-03
      2.250  0.5793E-01  0.1366E-02  0.1366E-02  0.1366E-02  0.5393E-02  0.5393E-02  0.2499E-02  0.5393E-02  0.2499E-02
      2.608  0.7432E-01  0.1652E-02  0.1652E-02  0.1652E-02  0.2649E-01  0.2649E-01  0.4212E-02  0.2649E-01  0.4212E-02
      2.966  0.1196E+00  0.3024E-02  0.3024E-02  0.3024E-02  0.7156E-01  0.7156E-01  0.2228E-01  0.7156E-01  0.2228E-01
      3.323  0.1198E+00  0.3796E-02  0.3796E-02  0.3796E-02  0.1059E+00  0.1059E+00  0.1362E+00  0.1059E+00  0.1362E+00
      3.681  0.8439E-01  0.3896E-02  0.3896E-02  0.3896E-02  0.2460E+00  0.2460E+00  0.1712E+00  0.2460E+00  0.1712E+00
      4.039  0.3963E-01  0.4355E-02  0.4355E-02  0.4355E-02  0.2387E+00  0.2387E+00  0.1600E+00  0.2387E+00  0.1600E+00
      4.396  0.8805E-02  0.5786E-02  0.5786E-02  0.5786E-02  0.2182E+00  0.2182E+00  0.1835E+00  0.2182E+00  0.1835E+00
      4.754  0.1019E-01  0.6010E-02  0.6010E-02  0.6010E-02  0.2695E+00  0.2695E+00  0.2621E+00  0.2695E+00  0.2621E+00
      5.112  0.2373E-01  0.7957E-02  0.7957E-02  0.7957E-02  0.3801E+00  0.3801E+00  0.2903E+00  0.3801E+00  0.2903E+00
      5.469  0.2995E-01  0.1078E-01  0.1078E-01  0.1078E-01  0.5361E+00  0.5361E+00  0.4072E+00  0.5361E+00  0.4072E+00
      5.827  0.1514E-01  0.6621E-02  0.6621E-02  0.6621E-02  0.3015E+00  0.3015E+00  0.2674E+00  0.3015E+00  0.2674E+00
      6.185  0.1636E-01  0.6235E-02  0.6235E-02  0.6235E-02  0.2139E+00  0.2139E+00  0.3756E+00  0.2139E+00  0.3756E+00
      6.542  0.9293E-02  0.3997E-02  0.3997E-02  0.3997E-02  0.1774E+00  0.1774E+00  0.6010E+00  0.1774E+00  0.6010E+00