    1    1  100    1
  0.1952266E+02  0.3022396E-09  0.3022396E-09  0.3022396E-09  0.5000000E-15
  1.000000000000000E-004
  CAR 
 Pt-fcc                                  
     16    110     24
 
  0.5000000E-01  0.5000000E-01  0.5000000E-01  0.2000000E-02
      1        -44.211945   1.000000
      2        -44.208473   1.000000
      3        -44.208473   1.000000
      4          0.015791   1.000000
      5          5.092330   1.000000
      6          5.147517   1.000000
      7          5.147517   1.000000
      8          6.517312   1.000000
      9          6.517312   1.000000
     10         22.637070   0.000000
     11         25.543441   0.000000
     12         26.187668   0.000000
     13         26.187668   0.000000
     14         31.065687   0.000000
     15         33.438338   0.000000
     16         34.008860   0.000000
     17         34.008860   0.000000
     18         35.989359   0.000000
     19         35.989359   0.000000
     20         36.754276   0.000000
     21         42.882527   0.000000
     22         42.882527   0.000000
     23         46.532142   0.000000
     24         49.220255   0.000000
 
  0.1500000E+00  0.5000000E-01  0.5000000E-01  0.6000000E-02
      1        -44.232054   1.000000
      2        -44.214696   1.000000
      3        -44.210672   1.000000
      4          0.428244   1.000000
      5          4.949096   1.000000
      6          5.271536   1.000000
      7          5.297929   1.000000
      8          6.382774   1.000000
      9          6.560322   1.000000
     10         22.981116   0.000000
     11         23.843094   0.000000
     12         25.920281   0.000000
     13         27.032551   0.000000
     14         30.236023   0.000000
     15         32.404726   0.000000
     16         33.204118   0.000000
     17         33.802188   0.000000
     18         34.912270   0.000000
     19         37.277925   0.000000
     20         39.063394   0.000000
     21         42.275738   0.000000
     22         44.043285   0.000000
     23         48.686461   0.000000
     24         49.221689   0.000000
 
  0.2500000E+00  0.5000000E-01  0.5000000E-01  0.6000000E-02
      1        -44.277893   1.000000
      2        -44.222802   1.000000
      3        -44.217097   1.000000
      4          1.341887   1.000000
      5          4.813077   1.000000
      6          5.406478   1.000000
      7          5.430632   1.000000
      8          6.385686   1.000000
      9          6.744268   1.000000
     10         20.399016   0.000000
     11         23.575848   0.000000
     12         26.131660   0.000000
     13         28.245148   0.000000
     14         28.265217   0.000000
     15         30.416079   0.000000
     16         31.346753   0.000000
     17         35.520565   0.000000
     18         36.630965   0.000000
     19         38.458777   0.000000
     20         40.213889   0.000000
     21         43.081930   0.000000
     22         45.019151   0.000000
     23         49.210451   0.000000
     24         51.701645   0.000000
 
  0.3500000E+00  0.5000000E-01  0.5000000E-01  0.6000000E-02
      1        -44.330390   1.000000
      2        -44.231475   1.000000
      3        -44.225422   1.000000
      4          2.264141   1.000000
      5          5.204955   1.000000
      6          5.332539   1.000000
      7          5.338857   1.000000
      8          6.816893   1.000000
      9          7.236338   1.000000
     10         16.753085   0.000000
     11         22.998460   0.000000
     12         25.223788   0.000000
     13         27.141699   0.000000
     14         29.336908   0.000000
     15         30.493502   0.000000
     16         31.448881   0.000000
     17         36.227916   0.000000
     18         37.647511   0.000000
     19         39.892496   0.000000
     20         42.564767   0.000000
     21         44.373972   0.000000
     22         45.919852   0.000000
     23         49.209046   0.000000
     24         50.310721   0.000000
 
  0.4500000E+00  0.5000000E-01  0.5000000E-01  0.6000000E-02
      1        -44.369015   1.000000
      2        -44.236957   1.000000
      3        -44.232712   1.000000
      4          2.592612   1.000000
      5          5.119619   1.000000
      6          5.183890   1.000000
      7          6.617323   1.000000
      8          7.351233   1.000000
      9          7.922183   0.000000
     10         13.322365   0.000000
     11         22.314686   0.000000
     12         24.319728   0.000000
     13         25.279731   0.000000
     14         31.178603   0.000000
     15         31.599832   0.000000
     16         32.486997   0.000000
     17         37.281163   0.000000
     18         38.096587   0.000000
     19         39.820652   0.000000
     20         44.302634   0.000000
     21         46.831641   0.000000
     22         46.925907   0.000000
     23         47.654272   0.000000
     24         48.914823   0.000000
 
 -0.4500000E+00  0.5000000E-01  0.5000000E-01  0.6000000E-02
      1        -44.379957   1.000000
      2        -44.237366   1.000000
      3        -44.235850   1.000000
      4          2.623419   1.000000
      5          5.060683   1.000000
      6          5.148604   1.000000
      7          7.088075   1.000000
      8          7.606706   0.452908
      9          8.588269   0.000000
     10         11.807538   0.000000
     11         22.126827   0.000000
     12         24.340242   0.000000
     13         24.444708   0.000000
     14         31.789521   0.000000
     15         31.895506   0.000000
     16         33.031204   0.000000
     17         37.673136   0.000000
     18         38.444470   0.000000
     19         39.417254   0.000000
     20         45.383091   0.000000
     21         46.050480   0.000000
     22         46.266271   0.000000
     23         47.680115   0.000000
     24         48.057618   0.000000
 
 -0.3500000E+00  0.5000000E-01  0.5000000E-01  0.6000000E-02
      1        -44.358561   1.000000
      2        -44.233610   1.000000
      3        -44.232380   1.000000
      4          2.539191   1.000000
      5          5.147524   1.000000
      6          5.246008   1.000000
      7          6.093877   1.000000
      8          7.425638   1.000000
      9          7.465110   0.999949
     10         14.387879   0.000000
     11         22.524107   0.000000
     12         24.762776   0.000000
     13         25.472914   0.000000
     14         31.151922   0.000000
     15         31.186047   0.000000
     16         31.809415   0.000000
     17         36.364516   0.000000
     18         38.877401   0.000000
     19         39.634228   0.000000
     20         44.092269   0.000000
     21         45.688052   0.000000
     22         46.859704   0.000000
     23         48.034596   0.000000
     24         49.211373   0.000000
 
 -0.2500000E+00  0.5000000E-01  0.5000000E-01  0.6000000E-02
      1        -44.313265   1.000000
      2        -44.227333   1.000000
      3        -44.223994   1.000000
      4          2.007691   1.000000
      5          4.974182   1.000000
      6          5.338554   1.000000
      7          5.397229   1.000000
      8          6.724992   1.000000
      9          6.977315   1.000000
     10         17.978085   0.000000
     11         23.324754   0.000000
     12         25.718401   0.000000
     13         27.279015   0.000000
     14         29.084788   0.000000
     15         30.550827   0.000000
     16         30.785120   0.000000
     17         35.621106   0.000000
     18         38.642537   0.000000
     19         38.839939   0.000000
     20         41.820387   0.000000
     21         43.260101   0.000000
     22         45.929530   0.000000
     23         49.211503   0.000000
     24         50.678745   0.000000
 
 -0.1500000E+00  0.5000000E-01  0.5000000E-01  0.6000000E-02
      1        -44.260394   1.000000
      2        -44.218923   1.000000
      3        -44.215593   1.000000
      4          1.000770   1.000000
      5          4.819659   1.000000
      6          5.399634   1.000000
      7          5.411731   1.000000
      8          6.346132   1.000000
      9          6.639071   1.000000
     10         21.552881   0.000000
     11         23.629257   0.000000
     12         26.149826   0.000000
     13         27.492846   0.000000
     14         28.919540   0.000000
     15         31.095923   0.000000
     16         31.614383   0.000000
     17         35.082277   0.000000
     18         36.186348   0.000000
     19         38.294140   0.000000
     20         39.603962   0.000000
     21         42.522757   0.000000
     22         44.779360   0.000000
     23         49.213455   0.000000
     24         51.039499   0.000000
 
 -0.5000000E-01  0.5000000E-01  0.5000000E-01  0.6000000E-02
      1        -44.221096   1.000000
      2        -44.211839   1.000000
      3        -44.210818   1.000000
      4          0.225097   1.000000
      5          4.993665   1.000000
      6          5.231627   1.000000
      7          5.236566   1.000000
      8          6.404301   1.000000
      9          6.568096   1.000000
     10         22.867414   0.000000
     11         24.770934   0.000000
     12         25.999951   0.000000
     13         26.325866   0.000000
     14         31.442241   0.000000
     15         32.667239   0.000000
     16         33.002110   0.000000
     17         33.806621   0.000000
     18         34.724939   0.000000
     19         37.681886   0.000000
     20         38.025151   0.000000
     21         42.185278   0.000000
     22         43.618310   0.000000
     23         47.794075   0.000000
     24         49.216815   0.000000
 
  0.1500000E+00  0.1500000E+00  0.5000000E-01  0.6000000E-02
      1        -44.236551   1.000000
      2        -44.217953   1.000000
      3        -44.216973   1.000000
      4          0.633255   1.000000
      5          4.797293   1.000000
      6          5.408788   1.000000
      7          5.412386   1.000000
      8          6.204678   1.000000
      9          6.666453   1.000000
     10         23.257279   0.000000
     11         24.012553   0.000000
     12         25.469527   0.000000
     13         26.030621   0.000000
     14         30.386388   0.000000
     15         31.822634   0.000000
     16         32.246887   0.000000
     17         34.494172   0.000000
     18         34.819976   0.000000
     19         39.312077   0.000000
     20         39.499085   0.000000
     21         41.122056   0.000000
     22         44.062788   0.000000
     23         49.206706   0.000000
     24         50.047886   0.000000
 
  0.2500000E+00  0.1500000E+00  0.5000000E-01  0.1200000E-01
      1        -44.268475   1.000000
      2        -44.229691   1.000000
      3        -44.221566   1.000000
      4          1.386338   1.000000
      5          4.567762   1.000000
      6          5.500446   1.000000
      7          5.660672   1.000000
      8          6.141655   1.000000
      9          6.858209   1.000000
     10         21.781588   0.000000
     11         23.373844   0.000000
     12         25.089469   0.000000
     13         26.268701   0.000000
     14         28.526319   0.000000
     15         31.112106   0.000000
     16         32.132367   0.000000
     17         34.665424   0.000000
     18         37.328475   0.000000
     19         39.211275   0.000000
     20         40.258320   0.000000
     21         42.087611   0.000000
     22         45.369873   0.000000
     23         49.211465   0.000000
     24         51.118555   0.000000
 
  0.3500000E+00  0.1500000E+00  0.5000000E-01  0.1200000E-01
      1        -44.314805   1.000000
      2        -44.240321   1.000000
      3        -44.229562   1.000000
      4          2.379534   1.000000
      5          4.592010   1.000000
      6          5.234178   1.000000
      7          5.674138   1.000000
      8          6.710215   1.000000
      9          7.347921   1.000000
     10         18.175749   0.000000
     11         22.919495   0.000000
     12         24.167259   0.000000
     13         26.071965   0.000000
     14         29.306091   0.000000
     15         30.925511   0.000000
     16         32.609088   0.000000
     17         34.283072   0.000000
     18         39.164894   0.000000
     19         40.257570   0.000000
     20         41.644661   0.000000
     21         43.030686   0.000000
     22         47.229585   0.000000
     23         49.209072   0.000000
     24         49.423081   0.000000
 
  0.4500000E+00  0.1500000E+00  0.5000000E-01  0.1200000E-01
      1        -44.354149   1.000000
      2        -44.248492   1.000000
      3        -44.237663   1.000000
      4          2.890660   1.000000
      5          4.962703   1.000000
      6          5.348135   1.000000
      7          5.544378   1.000000
      8          7.399646   1.000000
      9          8.289182   0.000000
     10         14.559741   0.000000
     11         22.462870   0.000000
     12         23.017652   0.000000
     13         24.890699   0.000000
     14         30.980123   0.000000
     15         32.185810   0.000000
     16         33.392801   0.000000
     17         34.388321   0.000000
     18         39.840409   0.000000
     19         41.305088   0.000000
     20         41.840617   0.000000
     21         45.891078   0.000000
     22         46.662138   0.000000
     23         48.476401   0.000000
     24         49.210834   0.000000
 
 -0.4500000E+00  0.1500000E+00  0.5000000E-01  0.1200000E-01
      1        -44.372326   1.000000
      2        -44.253639   1.000000
      3        -44.240723   1.000000
      4          2.963151   1.000000
      5          4.847472   1.000000
      6          5.413621   1.000000
      7          6.142653   1.000000
      8          7.563051   0.867879
      9          9.891324   0.000000
     10         11.784867   0.000000
     11         22.038106   0.000000
     12         22.692876   0.000000
     13         24.180545   0.000000
     14         31.620272   0.000000
     15         32.486823   0.000000
     16         34.372593   0.000000
     17         36.460073   0.000000
     18         38.570202   0.000000
     19         40.036339   0.000000
     20         43.727561   0.000000
     21         44.891119   0.000000
     22         47.465834   0.000000
     23         49.090179   0.000000
     24         49.204012   0.000000
 
 -0.3500000E+00  0.1500000E+00  0.5000000E-01  0.1200000E-01
      1        -44.362481   1.000000
      2        -44.254177   1.000000
      3        -44.236627   1.000000
      4          2.951052   1.000000
      5          4.920209   1.000000
      6          5.434813   1.000000
      7          5.816012   1.000000
      8          7.274000   1.000000
      9          8.881517   0.000000
     10         13.530860   0.000000
     11         21.754896   0.000000
     12         23.092624   0.000000
     13         25.029405   0.000000
     14         30.753606   0.000000
     15         32.222642   0.000000
     16         34.249007   0.000000
     17         35.791186   0.000000
     18         38.716023   0.000000
     19         40.511860   0.000000
     20         42.386880   0.000000
     21         46.188307   0.000000
     22         47.864517   0.000000
     23         48.472681   0.000000
     24         49.206389   0.000000
 
 -0.2500000E+00  0.1500000E+00  0.5000000E-01  0.1200000E-01
      1        -44.328977   1.000000
      2        -44.248299   1.000000
      3        -44.227862   1.000000
      4          2.649406   1.000000
      5          4.822504   1.000000
      6          5.172487   1.000000
      7          5.600105   1.000000
      8          6.650051   1.000000
      9          7.794842   0.000000
     10         16.963547   0.000000
     11         22.011864   0.000000
     12         24.072703   0.000000
     13         26.842692   0.000000
     14         28.950538   0.000000
     15         31.374192   0.000000
     16         33.650318   0.000000
     17         34.258290   0.000000
     18         37.910379   0.000000
     19         40.347691   0.000000
     20         42.738972   0.000000
     21         44.680061   0.000000
     22         47.475046   0.000000
     23         48.588248   0.000000
     24         49.206969   0.000000
 
 -0.1500000E+00  0.1500000E+00  0.5000000E-01  0.1200000E-01
      1        -44.284276   1.000000
      2        -44.236183   1.000000
      3        -44.219148   1.000000
      4          1.719119   1.000000
      5          4.597696   1.000000
      6          5.403581   1.000000
      7          5.684268   1.000000
      8          6.145353   1.000000
      9          7.075786   1.000000
     10         20.510356   0.000000
     11         22.583498   0.000000
     12         25.568485   0.000000
     13         26.473827   0.000000
     14         29.589291   0.000000
     15         30.197789   0.000000
     16         32.835563   0.000000
     17         33.953077   0.000000
     18         37.283478   0.000000
     19         38.683039   0.000000
     20         41.050791   0.000000
     21         43.578547   0.000000
     22         46.167173   0.000000
     23         49.212038   0.000000
     24         50.020528   0.000000
 
 -0.5000000E-01  0.1500000E+00  0.5000000E-01  0.1200000E-01
      1        -44.248192   1.000000
      2        -44.221134   1.000000
      3        -44.213914   1.000000
      4          0.824009   1.000000
      5          4.796626   1.000000
      6          5.411317   1.000000
      7          5.421759   1.000000
      8          6.241003   1.000000
      9          6.672155   1.000000
     10         22.655317   0.000000
     11         23.430494   0.000000
     12         25.547394   0.000000
     13         27.186121   0.000000
     14         29.217789   0.000000
     15         31.859402   0.000000
     16         32.363727   0.000000
     17         34.358061   0.000000
     18         35.315301   0.000000
     19         38.184321   0.000000
     20         40.362473   0.000000
     21         41.644483   0.000000
     22         44.781744   0.000000
     23         49.211302   0.000000
     24         50.146369   0.000000
 
  0.2500000E+00  0.2500000E+00  0.5000000E-01  0.6000000E-02
      1        -44.281423   1.000000
      2        -44.236322   1.000000
      3        -44.235889   1.000000
      4          1.904346   1.000000
      5          4.250217   1.000000
      6          5.620631   1.000000
      7          5.998408   1.000000
      8          6.157575   1.000000
      9          6.971298   1.000000
     10         22.201489   0.000000
     11         23.223355   0.000000
     12         24.250176   0.000000
     13         24.923892   0.000000
     14         25.863825   0.000000
     15         32.220267   0.000000
     16         32.283565   0.000000
     17         36.092086   0.000000
     18         38.384201   0.000000
     19         39.089360   0.000000
     20         41.866403   0.000000
     21         42.339143   0.000000
     22         44.373907   0.000000
     23         49.213699   0.000000
     24         53.172630   0.000000
 
  0.3500000E+00  0.2500000E+00  0.5000000E-01  0.1200000E-01
      1        -44.312411   1.000000
      2        -44.250801   1.000000
      3        -44.243162   1.000000
      4          2.708189   1.000000
      5          4.040243   1.000000
      6          5.357845   1.000000
      7          6.308595   1.000000
      8          6.727300   1.000000
      9          7.369987   1.000000
     10         19.697622   0.000000
     11         21.516173   0.000000
     12         22.990815   0.000000
     13         25.332429   0.000000
     14         26.563196   0.000000
     15         32.370654   0.000000
     16         33.464624   0.000000
     17         36.526798   0.000000
     18         37.906230   0.000000
     19         40.556424   0.000000
     20         42.722151   0.000000
     21         44.059821   0.000000
     22         45.266535   0.000000
     23         49.212784   0.000000
     24         51.599131   0.000000
 
  0.4500000E+00  0.2500000E+00  0.5000000E-01  0.1200000E-01
      1        -44.342244   1.000000
      2        -44.265554   1.000000
      3        -44.250494   1.000000
      4          3.298318   1.000000
      5          4.232885   1.000000
      6          5.104767   1.000000
      7          6.196015   1.000000
      8          7.479679   0.999744
      9          8.507732   0.000000
     10         16.013823   0.000000
     11         20.860192   0.000000
     12         21.453603   0.000000
     13         25.014037   0.000000
     14         29.416139   0.000000
     15         32.412038   0.000000
     16         33.925653   0.000000
     17         36.344290   0.000000
     18         39.297505   0.000000
     19         41.334057   0.000000
     20         42.489484   0.000000
     21         45.693401   0.000000
     22         46.296205   0.000000
     23         49.206417   0.000000
     24         50.094778   0.000000
 
 -0.4500000E+00  0.2500000E+00  0.5000000E-01  0.1200000E-01
      1        -44.356555   1.000000
      2        -44.280156   1.000000
      3        -44.251921   1.000000
      4          3.466976   1.000000
      5          4.500959   1.000000
      6          5.276684   1.000000
      7          6.022689   1.000000
      8          7.592578   0.610746
      9         10.606125   0.000000
     10         12.799279   0.000000
     11         19.724204   0.000000
     12         21.473389   0.000000
     13         24.633205   0.000000
     14         31.658430   0.000000
     15         32.973410   0.000000
     16         33.622193   0.000000
     17         36.722909   0.000000
     18         39.680798   0.000000
     19         41.320174   0.000000
     20         42.138531   0.000000
     21         45.461232   0.000000
     22         47.395792   0.000000
     23         49.205162   0.000000
     24         49.765149   0.000000
 
 -0.3500000E+00  0.2500000E+00  0.5000000E-01  0.1200000E-01
      1        -44.352376   1.000000
      2        -44.288144   1.000000
      3        -44.246286   1.000000
      4          3.602210   1.000000
      5          4.566936   1.000000
      6          5.299787   1.000000
      7          5.933556   1.000000
      8          7.232018   1.000000
      9         10.425233   0.000000
     10         13.321590   0.000000
     11         18.750458   0.000000
     12         22.555043   0.000000
     13         24.770485   0.000000
     14         30.965470   0.000000
     15         32.868852   0.000000
     16         34.732147   0.000000
     17         37.090747   0.000000
     18         39.134223   0.000000
     19         40.054474   0.000000
     20         42.958547   0.000000
     21         44.652326   0.000000
     22         47.277288   0.000000
     23         49.204379   0.000000
     24         49.328445   0.000000
 
 -0.2500000E+00  0.2500000E+00  0.5000000E-01  0.1200000E-01
      1        -44.335860   1.000000
      2        -44.281124   1.000000
      3        -44.236433   1.000000
      4          3.557974   1.000000
      5          4.604956   1.000000
      6          4.845934   1.000000
      7          6.003703   1.000000
      8          6.613473   1.000000
      9          8.950599   0.000000
     10         16.317723   0.000000
     11         18.715591   0.000000
     12         23.664105   0.000000
     13         26.077435   0.000000
     14         28.942535   0.000000
     15         32.731233   0.000000
     16         34.383801   0.000000
     17         36.314531   0.000000
     18         38.340354   0.000000
     19         39.239612   0.000000
     20         43.187425   0.000000
     21         46.746828   0.000000
     22         47.308695   0.000000
     23         47.823472   0.000000
     24         49.205073   0.000000
 
 -0.1500000E+00  0.2500000E+00  0.5000000E-01  0.1200000E-01
      1        -44.316702   1.000000
      2        -44.256846   1.000000
      3        -44.226640   1.000000
      4          2.730110   1.000000
      5          4.508815   1.000000
      6          5.156033   1.000000
      7          5.893009   1.000000
      8          6.259967   1.000000
      9          7.872465   0.000000
     10         18.252987   0.000000
     11         20.736635   0.000000
     12         24.522335   0.000000
     13         27.186299   0.000000
     14         28.201004   0.000000
     15         31.763614   0.000000
     16         33.153477   0.000000
     17         35.171212   0.000000
     18         37.339004   0.000000
     19         38.933751   0.000000
     20         43.620256   0.000000
     21         45.470775   0.000000
     22         46.901826   0.000000
     23         48.431968   0.000000
     24         49.210101   0.000000
 
 -0.5000000E-01  0.2500000E+00  0.5000000E-01  0.1200000E-01
      1        -44.296466   1.000000
      2        -44.230646   1.000000
      3        -44.221114   1.000000
      4          1.819309   1.000000
      5          4.730240   1.000000
      6          5.381629   1.000000
      7          5.516893   1.000000
      8          6.429437   1.000000
      9          7.015745   1.000000
     10         19.277036   0.000000
     11         23.380694   0.000000
     12         25.241918   0.000000
     13         27.353660   0.000000
     14         28.978187   0.000000
     15         30.208569   0.000000
     16         31.953284   0.000000
     17         34.593025   0.000000
     18         37.804343   0.000000
     19         39.843092   0.000000
     20         40.559042   0.000000
     21         42.984630   0.000000
     22         46.245121   0.000000
     23         49.211881   0.000000
     24         50.547924   0.000000
 
  0.3500000E+00  0.3500000E+00  0.5000000E-01  0.6000000E-02
      1        -44.330115   1.000000
      2        -44.257451   1.000000
      3        -44.256085   1.000000
      4          2.966559   1.000000
      5          3.704756   1.000000
      6          6.020633   1.000000
      7          6.785845   1.000000
      8          7.100182   1.000000
      9          7.338476   1.000000
     10         19.584808   0.000000
     11         20.594334   0.000000
     12         20.802731   0.000000
     13         24.411313   0.000000
     14         26.139626   0.000000
     15         34.314549   0.000000
     16         34.576717   0.000000
     17         36.462089   0.000000
     18         38.328695   0.000000
     19         40.694972   0.000000
     20         44.226152   0.000000
     21         44.434956   0.000000
     22         46.139238   0.000000
     23         49.215986   0.000000
     24         50.827757   0.000000
 
  0.4500000E+00  0.3500000E+00  0.5000000E-01  0.1200000E-01
      1        -44.349030   1.000000
      2        -44.271088   1.000000
      3        -44.263447   1.000000
      4          3.200502   1.000000
      5          3.600302   1.000000
      6          6.114337   1.000000
      7          7.051902   1.000000
      8          7.490841   0.999208
      9          8.519754   0.000000
     10         16.994703   0.000000
     11         19.083065   0.000000
     12         19.664208   0.000000
     13         25.331732   0.000000
     14         27.058048   0.000000
     15         33.862573   0.000000
     16         35.973040   0.000000
     17         37.349895   0.000000
     18         39.460285   0.000000
     19         40.594037   0.000000
     20         43.437839   0.000000
     21         45.486285   0.000000
     22         47.769764   0.000000
     23         48.637171   0.000000
     24         49.211538   0.000000
 
 -0.4500000E+00  0.3500000E+00  0.5000000E-01  0.1200000E-01
      1        -44.353111   1.000000
      2        -44.292102   1.000000
      3        -44.264676   1.000000
      4          3.407678   1.000000
      5          3.864706   1.000000
      6          5.823550   1.000000
      7          6.792009   1.000000
      8          7.677358   0.017144
      9         10.781721   0.000000
     10         14.135414   0.000000
     11         17.543886   0.000000
     12         19.742217   0.000000
     13         25.540977   0.000000
     14         29.401256   0.000000
     15         33.013584   0.000000
     16         35.386269   0.000000
     17         38.806679   0.000000
     18         39.931114   0.000000
     19         40.857123   0.000000
     20         43.403151   0.000000
     21         44.817402   0.000000
     22         47.399082   0.000000
     23         48.692210   0.000000
     24         49.207950   0.000000
 
 -0.3500000E+00  0.3500000E+00  0.5000000E-01  0.1200000E-01
      1        -44.337565   1.000000
      2        -44.316871   1.000000
      3        -44.258318   1.000000
      4          3.678394   1.000000
      5          4.301537   1.000000
      6          5.358579   1.000000
      7          6.500393   1.000000
      8          7.383274   1.000000
      9         11.707763   0.000000
     10         13.813243   0.000000
     11         16.017830   0.000000
     12         20.946498   0.000000
     13         25.294477   0.000000
     14         31.945223   0.000000
     15         32.349298   0.000000
     16         33.885182   0.000000
     17         37.863199   0.000000
     18         40.369314   0.000000
     19         41.627184   0.000000
     20         43.773396   0.000000
     21         44.236248   0.000000
     22         46.317130   0.000000
     23         49.204417   0.000000
     24         49.283316   0.000000
 
 -0.2500000E+00  0.3500000E+00  0.5000000E-01  0.1200000E-01
      1        -44.338521   1.000000
      2        -44.305711   1.000000
      3        -44.247505   1.000000
      4          3.874033   1.000000
      5          4.567657   1.000000
      6          4.914737   1.000000
      7          6.179701   1.000000