PROCAR lm decomposed
# of k-points:  110         # of bands:   24         # of ions:    1

 k-point     1 :    0.05000000 0.05000000 0.05000000     weight = 0.00200000

band     1 # energy  -44.21194525 # occ.  2.00000000
 
ion      s     py     pz     px    dxy    dyz    dz2    dxz  x2-y2    tot
    1  0.000  0.331  0.331  0.331  0.000  0.000  0.000  0.000  0.000  0.994
 
band     2 # energy  -44.20847271 # occ.  2.00000000
 
ion      s     py     pz     px    dxy    dyz    dz2    dxz  x2-y2    tot
    1  0.000  0.262  0.096  0.636  0.000  0.000  0.000  0.000  0.000  0.994
 
band     3 # energy  -44.20847271 # occ.  2.00000000
 
ion      s     py     pz     px    dxy    dyz    dz2    dxz  x2-y2    tot
    1  0.000  0.401  0.567  0.027  0.000  0.000  0.000  0.000  0.000  0.994
 
band     4 # energy    0.01579123 # occ.  2.00000000
 
ion      s     py     pz     px    dxy    dyz    dz2    dxz  x2-y2    tot
    1  0.322  0.000  0.000  0.000  0.000  0.000  0.000  0.000  0.000  0.323
 
band     5 # energy    5.09233004 # occ.  2.00000000
 
ion      s     py     pz     px    dxy    dyz    dz2    dxz  x2-y2    tot
    1  0.000  0.000  0.000  0.000  0.274  0.274  0.000  0.274  0.000  0.822
 
band     6 # energy    5.14751707 # occ.  2.00000000
 
ion      s     py     pz     px    dxy    dyz    dz2    dxz  x2-y2    tot
    1  0.000  0.000  0.000  0.000  0.000  0.413  0.000  0.413  0.000  0.827
 
band     7 # energy    5.14751707 # occ.  2.00000000
 
ion      s     py     pz     px    dxy    dyz    dz2    dxz  x2-y2    tot
    1  0.000  0.000  0.000  0.000  0.551  0.138  0.000  0.137  0.000  0.827
 
band     8 # energy    6.51731237 # occ.  2.00000000
 
ion      s     py     pz     px    dxy    dyz    dz2    dxz  x2-y2    tot
    1  0.000  0.000  0.000  0.000  0.000  0.000  0.000  0.000  0.888  0.889
 
band     9 # energy    6.51731237 # occ.  2.00000000
 
ion      s     py     pz     px    dxy    dyz    dz2    dxz  x2-y2    tot
    1  0.000  0.000  0.000  0.000  0.000  0.000  0.888  0.000  0.000  0.889
 
band    10 # energy   22.63706981 # occ.  0.00000000
 
ion      s     py     pz     px    dxy    dyz    dz2    dxz  x2-y2    tot
    1  0.000  0.000  0.000  0.000  0.002  0.002  0.000  0.002  0.000  0.007
 
band    11 # energy   25.54344076 # occ.  0.00000000
 
ion      s     py     pz     px    dxy    dyz    dz2    dxz  x2-y2    tot
    1  0.013  0.030  0.030  0.030  0.003  0.003  0.000  0.003  0.000  0.111
 
band    12 # energy   26.18766847 # occ.  0.00000000
 
ion      s     py     pz     px    dxy    dyz    dz2    dxz  x2-y2    tot
    1  0.000  0.047  0.002  0.050  0.000  0.001  0.000  0.001  0.002  0.103
 
band    13 # energy   26.18766847 # occ.  0.00000000
 
ion      s     py     pz     px    dxy    dyz    dz2    dxz  x2-y2    tot
    1  0.000  0.019  0.063  0.016  0.002  0.000  0.002  0.000  0.000  0.103
 
band    14 # energy   31.06568731 # occ.  0.00000000
 
ion      s     py     pz     px    dxy    dyz    dz2    dxz  x2-y2    tot
    1  0.056  0.009  0.009  0.009  0.002  0.002  0.000  0.002  0.000  0.091
 
band    15 # energy   33.43833824 # occ.  0.00000000
 
ion      s     py     pz     px    dxy    dyz    dz2    dxz  x2-y2    tot
    1  0.016  0.042  0.042  0.042  0.063  0.063  0.000  0.063  0.000  0.331
 
band    16 # energy   34.00886031 # occ.  0.00000000
 
ion      s     py     pz     px    dxy    dyz    dz2    dxz  x2-y2    tot
    1  0.000  0.053  0.001  0.042  0.002  0.116  0.000  0.147  0.002  0.363
 
band    17 # energy   34.00886031 # occ.  0.00000000
 
ion      s     py     pz     px    dxy    dyz    dz2    dxz  x2-y2    tot
    1  0.000  0.011  0.063  0.022  0.175  0.060  0.002  0.030  0.000  0.363
 
band    18 # energy   35.98935855 # occ.  0.00000000
 
ion      s     py     pz     px    dxy    dyz    dz2    dxz  x2-y2    tot
    1  0.000  0.182  0.000  0.167  0.000  0.048  0.000  0.052  0.009  0.458
 
band    19 # energy   35.98935855 # occ.  0.00000000
 
ion      s     py     pz     px    dxy    dyz    dz2    dxz  x2-y2    tot
    1  0.000  0.051  0.232  0.066  0.067  0.019  0.009  0.015  0.000  0.458
 
band    20 # energy   36.75427567 # occ.  0.00000000
 
ion      s     py     pz     px    dxy    dyz    dz2    dxz  x2-y2    tot
    1  0.025  0.093  0.093  0.093  0.056  0.056  0.000  0.056  0.000  0.470
 
band    21 # energy   42.88252680 # occ.  0.00000000
 
ion      s     py     pz     px    dxy    dyz    dz2    dxz  x2-y2    tot
    1  0.000  0.007  0.000  0.007  0.000  0.000  0.004  0.000  0.350  0.368
 
band    22 # energy   42.88252680 # occ.  0.00000000
 
ion      s     py     pz     px    dxy    dyz    dz2    dxz  x2-y2    tot
    1  0.000  0.003  0.009  0.002  0.000  0.000  0.350  0.000  0.004  0.368
 
band    23 # energy   46.53214218 # occ.  0.00000000
 
ion      s     py     pz     px    dxy    dyz    dz2    dxz  x2-y2    tot
    1  0.501  0.013  0.013  0.013  0.000  0.000  0.000  0.000  0.000  0.540
 
band    24 # energy   49.22025499 # occ.  0.00000000
 
ion      s     py     pz     px    dxy    dyz    dz2    dxz  x2-y2    tot
    1  6.272  0.000  0.000  0.000  0.000  0.000  0.000  0.000  0.000  6.272
 

 k-point     2 :    0.15000000 0.05000000 0.05000000     weight = 0.00600000

band     1 # energy  -44.23205421 # occ.  2.00000000
 
ion      s     py     pz     px    dxy    dyz    dz2    dxz  x2-y2    tot
    1  0.000  0.453  0.453  0.087  0.000  0.000  0.000  0.000  0.000  0.993
 
band     2 # energy  -44.21469629 # occ.  2.00000000
 
ion      s     py     pz     px    dxy    dyz    dz2    dxz  x2-y2    tot
    1  0.000  0.043  0.043  0.907  0.000  0.000  0.000  0.000  0.000  0.994
 
band     3 # energy  -44.21067220 # occ.  2.00000000
 
ion      s     py     pz     px    dxy    dyz    dz2    dxz  x2-y2    tot
    1  0.000  0.497  0.497  0.000  0.000  0.000  0.000  0.000  0.000  0.994
 
band     4 # energy    0.42824414 # occ.  2.00000000
 
ion      s     py     pz     px    dxy    dyz    dz2    dxz  x2-y2    tot
    1  0.315  0.002  0.002  0.000  0.000  0.002  0.000  0.000  0.000  0.322
 
band     5 # energy    4.94909628 # occ.  2.00000000
 
ion      s     py     pz     px    dxy    dyz    dz2    dxz  x2-y2    tot
    1  0.000  0.000  0.000  0.001  0.388  0.028  0.000  0.388  0.000  0.806
 
band     6 # energy    5.27153600 # occ.  2.00000000
 
ion      s     py     pz     px    dxy    dyz    dz2    dxz  x2-y2    tot
    1  0.000  0.000  0.000  0.000  0.413  0.000  0.003  0.413  0.001  0.831
 
band     7 # energy    5.29792943 # occ.  2.00000000
 
ion      s     py     pz     px    dxy    dyz    dz2    dxz  x2-y2    tot
    1  0.000  0.000  0.000  0.000  0.014  0.774  0.006  0.014  0.018  0.828
 
band     8 # energy    6.38277371 # occ.  2.00000000
 
ion      s     py     pz     px    dxy    dyz    dz2    dxz  x2-y2    tot
    1  0.000  0.000  0.000  0.000  0.002  0.000  0.655  0.002  0.218  0.878
 
band     9 # energy    6.56032206 # occ.  2.00000000
 
ion      s     py     pz     px    dxy    dyz    dz2    dxz  x2-y2    tot
    1  0.000  0.000  0.000  0.000  0.001  0.024  0.216  0.001  0.647  0.888
 
band    10 # energy   22.98111617 # occ.  0.00000000
 
ion      s     py     pz     px    dxy    dyz    dz2    dxz  x2-y2    tot
    1  0.003  0.003  0.003  0.008  0.027  0.006  0.000  0.027  0.000  0.076
 
band    11 # energy   23.84309356 # occ.  0.00000000
 
ion      s     py     pz     px    dxy    dyz    dz2    dxz  x2-y2    tot
    1  0.042  0.035  0.035  0.007  0.000  0.018  0.001  0.000  0.002  0.142
 
band    12 # energy   25.92028150 # occ.  0.00000000
 
ion      s     py     pz     px    dxy    dyz    dz2    dxz  x2-y2    tot
    1  0.000  0.005  0.005  0.118  0.012  0.005  0.001  0.012  0.002  0.161
 
band    13 # energy   27.03255138 # occ.  0.00000000
 
ion      s     py     pz     px    dxy    dyz    dz2    dxz  x2-y2    tot
    1  0.000  0.050  0.050  0.000  0.001  0.000  0.014  0.001  0.005  0.121
 
band    14 # energy   30.23602341 # occ.  0.00000000
 
ion      s     py     pz     px    dxy    dyz    dz2    dxz  x2-y2    tot
    1  0.006  0.082  0.082  0.004  0.002  0.075  0.001  0.002  0.003  0.256
 
band    15 # energy   32.40472612 # occ.  0.00000000
 
ion      s     py     pz     px    dxy    dyz    dz2    dxz  x2-y2    tot
    1  0.001  0.002  0.002  0.116  0.051  0.015  0.001  0.051  0.004  0.242
 
band    16 # energy   33.20411815 # occ.  0.00000000
 
ion      s     py     pz     px    dxy    dyz    dz2    dxz  x2-y2    tot
    1  0.000  0.101  0.101  0.000  0.066  0.000  0.024  0.066  0.008  0.367
 
band    17 # energy   33.80218806 # occ.  0.00000000
 
ion      s     py     pz     px    dxy    dyz    dz2    dxz  x2-y2    tot
    1  0.086  0.001  0.001  0.002  0.002  0.002  0.001  0.002  0.004  0.100
 
band    18 # energy   34.91226982 # occ.  0.00000000
 
ion      s     py     pz     px    dxy    dyz    dz2    dxz  x2-y2    tot
    1  0.000  0.090  0.090  0.000  0.101  0.000  0.020  0.101  0.007  0.410
 
band    19 # energy   37.27792546 # occ.  0.00000000
 
ion      s     py     pz     px    dxy    dyz    dz2    dxz  x2-y2    tot
    1  0.062  0.073  0.073  0.020  0.000  0.219  0.003  0.000  0.010  0.459
 
band    20 # energy   39.06339385 # occ.  0.00000000
 
ion      s     py     pz     px    dxy    dyz    dz2    dxz  x2-y2    tot
    1  0.026  0.001  0.001  0.249  0.104  0.003  0.002  0.104  0.006  0.498
 
band    21 # energy   42.27573845 # occ.  0.00000000
 
ion      s     py     pz     px    dxy    dyz    dz2    dxz  x2-y2    tot
    1  0.013  0.003  0.003  0.023  0.001  0.003  0.063  0.001  0.188  0.297
 
band    22 # energy   44.04328467 # occ.  0.00000000
 
ion      s     py     pz     px    dxy    dyz    dz2    dxz  x2-y2    tot
    1  0.000  0.035  0.035  0.000  0.000  0.000  0.201  0.000  0.067  0.339
 
band    23 # energy   48.68646131 # occ.  0.00000000
 
ion      s     py     pz     px    dxy    dyz    dz2    dxz  x2-y2    tot
    1  0.526  0.083  0.083  0.011  0.002  0.002  0.000  0.002  0.000  0.708
 
band    24 # energy   49.22168853 # occ.  0.00000000
 
ion      s     py     pz     px    dxy    dyz    dz2    dxz  x2-y2    tot
    1  6.102  0.001  0.001  0.000  0.000  0.000  0.000  0.000  0.000  6.105
 

 k-point     3 :    0.25000000 0.05000000 0.05000000     weight = 0.00600000

band     1 # energy  -44.27789350 # occ.  2.00000000
 
ion      s     py     pz     px    dxy    dyz    dz2    dxz  x2-y2    tot
    1  0.000  0.389  0.389  0.213  0.000  0.000  0.000  0.000  0.000  0.991
 
band     2 # energy  -44.22280240 # occ.  2.00000000
 
ion      s     py     pz     px    dxy    dyz    dz2    dxz  x2-y2    tot
    1  0.000  0.107  0.107  0.780  0.000  0.000  0.000  0.000  0.000  0.993
 
band     3 # energy  -44.21709735 # occ.  2.00000000
 
ion      s     py     pz     px    dxy    dyz    dz2    dxz  x2-y2    tot
    1  0.000  0.497  0.497  0.000  0.000  0.000  0.000  0.000  0.000  0.994
 
band     4 # energy    1.34188695 # occ.  2.00000000
 
ion      s     py     pz     px    dxy    dyz    dz2    dxz  x2-y2    tot
    1  0.288  0.005  0.005  0.002  0.009  0.017  0.000  0.009  0.001  0.335
 
band     5 # energy    4.81307684 # occ.  2.00000000
 
ion      s     py     pz     px    dxy    dyz    dz2    dxz  x2-y2    tot
    1  0.007  0.002  0.002  0.004  0.339  0.063  0.000  0.339  0.000  0.755
 
band     6 # energy    5.40647834 # occ.  2.00000000
 
ion      s     py     pz     px    dxy    dyz    dz2    dxz  x2-y2    tot
    1  0.001  0.001  0.001  0.000  0.032  0.569  0.048  0.032  0.143  0.825
 
band     7 # energy    5.43063157 # occ.  2.00000000
 
ion      s     py     pz     px    dxy    dyz    dz2    dxz  x2-y2    tot
    1  0.000  0.000  0.000  0.000  0.341  0.000  0.114  0.341  0.038  0.835
 
band     8 # energy    6.38568579 # occ.  2.00000000
 
ion      s     py     pz     px    dxy    dyz    dz2    dxz  x2-y2    tot
    1  0.000  0.000  0.000  0.000  0.080  0.000  0.534  0.080  0.178  0.872
 
band     9 # energy    6.74426820 # occ.  2.00000000
 
ion      s     py     pz     px    dxy    dyz    dz2    dxz  x2-y2    tot
    1  0.002  0.000  0.000  0.000  0.011  0.178  0.171  0.011  0.514  0.887
 
band    10 # energy   20.39901615 # occ.  0.00000000
 
ion      s     py     pz     px    dxy    dyz    dz2    dxz  x2-y2    tot
    1  0.093  0.036  0.036  0.034  0.038  0.045  0.000  0.038  0.001  0.321
 
band    11 # energy   23.57584827 # occ.  0.00000000
 
ion      s     py     pz     px    dxy    dyz    dz2    dxz  x2-y2    tot
    1  0.003  0.000  0.000  0.010  0.032  0.001  0.001  0.032  0.002  0.082
 
band    12 # energy   26.13166015 # occ.  0.00000000
 
ion      s     py     pz     px    dxy    dyz    dz2    dxz  x2-y2    tot
    1  0.004  0.029  0.029  0.123  0.012  0.039  0.002  0.012  0.005  0.254
 
band    13 # energy   28.24514750 # occ.  0.00000000
 
ion      s     py     pz     px    dxy    dyz    dz2    dxz  x2-y2    tot
    1  0.025  0.042  0.042  0.011  0.000  0.006  0.004  0.000  0.011  0.142
 
band    14 # energy   28.26521750 # occ.  0.00000000
 
ion      s     py     pz     px    dxy    dyz    dz2    dxz  x2-y2    tot
    1  0.000  0.083  0.083  0.000  0.020  0.000  0.021  0.020  0.007  0.232
 
band    15 # energy   30.41607870 # occ.  0.00000000
 
ion      s     py     pz     px    dxy    dyz    dz2    dxz  x2-y2    tot
    1  0.000  0.062  0.062  0.000  0.018  0.000  0.061  0.018  0.020  0.241
 
band    16 # energy   31.34675337 # occ.  0.00000000
 
ion      s     py     pz     px    dxy    dyz    dz2    dxz  x2-y2    tot
    1  0.003  0.000  0.000  0.066  0.007  0.006  0.009  0.007  0.027  0.125
 
band    17 # energy   35.52056540 # occ.  0.00000000
 
ion      s     py     pz     px    dxy    dyz    dz2    dxz  x2-y2    tot
    1  0.000  0.074  0.074  0.000  0.105  0.000  0.023  0.105  0.008  0.388
 
band    18 # energy   36.63096527 # occ.  0.00000000
 
ion      s     py     pz     px    dxy    dyz    dz2    dxz  x2-y2    tot
    1  0.169  0.003  0.003  0.006  0.000  0.077  0.004  0.000  0.013  0.278
 
band    19 # energy   38.45877743 # occ.  0.00000000
 
ion      s     py     pz     px    dxy    dyz    dz2    dxz  x2-y2    tot
    1  0.000  0.040  0.040  0.071  0.008  0.119  0.005  0.008  0.016  0.306
 
band    20 # energy   40.21388905 # occ.  0.00000000
 
ion      s     py     pz     px    dxy    dyz    dz2    dxz  x2-y2    tot
    1  0.086  0.002  0.002  0.050  0.093  0.006  0.011  0.093  0.034  0.376
 
band    21 # energy   43.08192968 # occ.  0.00000000
 
ion      s     py     pz     px    dxy    dyz    dz2    dxz  x2-y2    tot
    1  0.001  0.008  0.008  0.117  0.012  0.018  0.023  0.012  0.068  0.266
 
band    22 # energy   45.01915060 # occ.  0.00000000
 
ion      s     py     pz     px    dxy    dyz    dz2    dxz  x2-y2    tot
    1  0.000  0.052  0.052  0.000  0.003  0.000  0.111  0.003  0.037  0.257
 
band    23 # energy   49.21045112 # occ.  0.00000000
 
ion      s     py     pz     px    dxy    dyz    dz2    dxz  x2-y2    tot
    1  6.305  0.000  0.000  0.000  0.000  0.000  0.000  0.000  0.000  6.305
 
band    24 # energy   51.70164525 # occ.  0.00000000
 
ion      s     py     pz     px    dxy    dyz    dz2    dxz  x2-y2    tot
    1  0.058  0.081  0.082  0.046  0.024  0.020  0.028  0.023  0.066  0.428
 

 k-point     4 :    0.35000000 0.05000000 0.05000000     weight = 0.00600000

band     1 # energy  -44.33039007 # occ.  2.00000000
 
ion      s     py     pz     px    dxy    dyz    dz2    dxz  x2-y2    tot
    1  0.000  0.360  0.360  0.269  0.000  0.000  0.000  0.000  0.000  0.989
 
band     2 # energy  -44.23147480 # occ.  2.00000000
 
ion      s     py     pz     px    dxy    dyz    dz2    dxz  x2-y2    tot
    1  0.000  0.135  0.135  0.723  0.000  0.000  0.000  0.000  0.000  0.993
 
band     3 # energy  -44.22542168 # occ.  2.00000000
 
ion      s     py     pz     px    dxy    dyz    dz2    dxz  x2-y2    tot
    1  0.000  0.497  0.497  0.000  0.000  0.000  0.000  0.000  0.000  0.993
 
band     4 # energy    2.26414087 # occ.  2.00000000
 
ion      s     py     pz     px    dxy    dyz    dz2    dxz  x2-y2    tot
    1  0.211  0.005  0.005  0.001  0.068  0.081  0.000  0.068  0.001  0.440
 
band     5 # energy    5.20495461 # occ.  2.00000000
 
ion      s     py     pz     px    dxy    dyz    dz2    dxz  x2-y2    tot
    1  0.026  0.004  0.004  0.008  0.266  0.038  0.023  0.266  0.070  0.706
 
band     6 # energy    5.33253851 # occ.  2.00000000
 
ion      s     py     pz     px    dxy    dyz    dz2    dxz  x2-y2    tot
    1  0.000  0.000  0.000  0.000  0.215  0.000  0.298  0.215  0.099  0.827
 
band     7 # energy    5.33885704 # occ.  2.00000000
 
ion      s     py     pz     px    dxy    dyz    dz2    dxz  x2-y2    tot
    1  0.021  0.006  0.006  0.004  0.016  0.339  0.076  0.016  0.227  0.711
 
band     8 # energy    6.81689335 # occ.  2.00000000
 
ion      s     py     pz     px    dxy    dyz    dz2    dxz  x2-y2    tot
    1  0.000  0.000  0.000  0.000  0.215  0.000  0.343  0.215  0.114  0.888
 
band     9 # energy    7.23633786 # occ.  2.00000000
 
ion      s     py     pz     px    dxy    dyz    dz2    dxz  x2-y2    tot
    1  0.007  0.001  0.001  0.000  0.023  0.365  0.117  0.023  0.351  0.890
 
band    10 # energy   16.75308459 # occ.  0.00000000
 
ion      s     py     pz     px    dxy    dyz    dz2    dxz  x2-y2    tot
    1  0.159  0.031  0.031  0.033  0.061  0.058  0.000  0.061  0.001  0.436
 
band    11 # energy   22.99846047 # occ.  0.00000000
 
ion      s     py     pz     px    dxy    dyz    dz2    dxz  x2-y2    tot
    1  0.000  0.000  0.000  0.013  0.020  0.000  0.001  0.020  0.004  0.060
 
band    12 # energy   25.22378776 # occ.  0.00000000
 
ion      s     py     pz     px    dxy    dyz    dz2    dxz  x2-y2    tot
    1  0.010  0.044  0.044  0.124  0.018  0.024  0.000  0.018  0.001  0.284
 
band    13 # energy   27.14169949 # occ.  0.00000000
 
ion      s     py     pz     px    dxy    dyz    dz2    dxz  x2-y2    tot
    1  0.000  0.125  0.125  0.000  0.021  0.000  0.007  0.021  0.002  0.301
 
band    14 # energy   29.33690761 # occ.  0.00000000
 
ion      s     py     pz     px    dxy    dyz    dz2    dxz  x2-y2    tot
    1  0.029  0.007  0.007  0.024  0.004  0.022  0.011  0.004  0.033  0.142
 
band    15 # energy   30.49350163 # occ.  0.00000000
 
ion      s     py     pz     px    dxy    dyz    dz2    dxz  x2-y2    tot
    1  0.000  0.002  0.002  0.000  0.014  0.000  0.120  0.014  0.040  0.194
 
band    16 # energy   31.44888059 # occ.  0.00000000
 
ion      s     py     pz     px    dxy    dyz    dz2    dxz  x2-y2    tot
    1  0.024  0.002  0.002  0.024  0.007  0.000  0.017  0.007  0.052  0.136
 
band    17 # energy   36.22791633 # occ.  0.00000000
 
ion      s     py     pz     px    dxy    dyz    dz2    dxz  x2-y2    tot
    1  0.000  0.086  0.086  0.000  0.072  0.000  0.012  0.072  0.004  0.333
 
band    18 # energy   37.64751083 # occ.  0.00000000
 
ion      s     py     pz     px    dxy    dyz    dz2    dxz  x2-y2    tot
    1  0.146  0.008  0.008  0.060  0.000  0.143  0.008  0.000  0.023  0.397
 
band    19 # energy   39.89249626 # occ.  0.00000000
 
ion      s     py     pz     px    dxy    dyz    dz2    dxz  x2-y2    tot
    1  0.093  0.028  0.028  0.056  0.066  0.003  0.007  0.066  0.022  0.369
 
band    20 # energy   42.56476707 # occ.  0.00000000
 
ion      s     py     pz     px    dxy    dyz    dz2    dxz  x2-y2    tot
    1  0.002  0.019  0.019  0.019  0.012  0.000  0.005  0.012  0.015  0.102
 
band    21 # energy   44.37397185 # occ.  0.00000000
 
ion      s     py     pz     px    dxy    dyz    dz2    dxz  x2-y2    tot
    1  0.001  0.007  0.007  0.067  0.008  0.049  0.003  0.008  0.009  0.157
 
band    22 # energy   45.91985155 # occ.  0.00000000
 
ion      s     py     pz     px    dxy    dyz    dz2    dxz  x2-y2    tot
    1  0.000  0.055  0.055  0.000  0.010  0.000  0.045  0.010  0.015  0.192
 
band    23 # energy   49.20904563 # occ.  0.00000000
 
ion      s     py     pz     px    dxy    dyz    dz2    dxz  x2-y2    tot
    1  6.301  0.000  0.000  0.000  0.000  0.000  0.000  0.000  0.000  6.301
 
band    24 # energy   50.31072142 # occ.  0.00000000
 
ion      s     py     pz     px    dxy    dyz    dz2    dxz  x2-y2    tot
    1  0.000  0.001  0.001  0.000  0.050  0.000  0.062  0.050  0.021  0.184
 

 k-point     5 :    0.45000000 0.05000000 0.05000000     weight = 0.00600000

band     1 # energy  -44.36901451 # occ.  2.00000000
 
ion      s     py     pz     px    dxy    dyz    dz2    dxz  x2-y2    tot
    1  0.000  0.341  0.341  0.306  0.000  0.000  0.000  0.000  0.000  0.987
 
band     2 # energy  -44.23695665 # occ.  2.00000000
 
ion      s     py     pz     px    dxy    dyz    dz2    dxz  x2-y2    tot
    1  0.000  0.154  0.154  0.686  0.000  0.000  0.000  0.000  0.000  0.993
 
band     3 # energy  -44.23271235 # occ.  2.00000000
 
ion      s     py     pz     px    dxy    dyz    dz2    dxz  x2-y2    tot
    1  0.000  0.497  0.497  0.000  0.000  0.000  0.000  0.000  0.000  0.993
 
band     4 # energy    2.59261169 # occ.  2.00000000
 
ion      s     py     pz     px    dxy    dyz    dz2    dxz  x2-y2    tot
    1  0.130  0.001  0.001  0.000  0.142  0.149  0.000  0.142  0.000  0.567
 
band     5 # energy    5.11961905 # occ.  2.00000000
 
ion      s     py     pz     px    dxy    dyz    dz2    dxz  x2-y2    tot
    1  0.000  0.000  0.000  0.000  0.056  0.243  0.114  0.056  0.343  0.813
 
band     6 # energy    5.18388988 # occ.  2.00000000
 
ion      s     py     pz     px    dxy    dyz    dz2    dxz  x2-y2    tot
    1  0.000  0.000  0.000  0.000  0.172  0.000  0.356  0.172  0.119  0.818
 
band     7 # energy    6.61732296 # occ.  2.00000000
 
ion      s     py     pz     px    dxy    dyz    dz2    dxz  x2-y2    tot
    1  0.040  0.019  0.019  0.020  0.134  0.022  0.029  0.134  0.086  0.503
 
band     8 # energy    7.35123254 # occ.  2.00000000
 
ion      s     py     pz     px    dxy    dyz    dz2    dxz  x2-y2    tot
    1  0.000  0.000  0.000  0.000  0.268  0.000  0.284  0.268  0.095  0.915
 
band     9 # energy    7.92218333 # occ.  0.00000000
 
ion      s     py     pz     px    dxy    dyz    dz2    dxz  x2-y2    tot
    1  0.031  0.010  0.010  0.007  0.009  0.396  0.071  0.009  0.214  0.756
 
band    10 # energy   13.32236514 # occ.  0.00000000
 
ion      s     py     pz     px    dxy    dyz    dz2    dxz  x2-y2    tot
    1  0.243  0.016  0.016  0.019  0.098  0.078  0.001  0.098  0.002  0.571
 
band    11 # energy   22.31468605 # occ.  0.00000000
 
ion      s     py     pz     px    dxy    dyz    dz2    dxz  x2-y2    tot
    1  0.000  0.001  0.001  0.008  0.006  0.000  0.001  0.006  0.004  0.028
 
band    12 # energy   24.31972774 # occ.  0.00000000
 
ion      s     py     pz     px    dxy    dyz    dz2    dxz  x2-y2    tot
    1  0.008  0.039  0.039  0.133  0.012  0.003  0.001  0.012  0.002  0.246
 
band    13 # energy   25.27973081 # occ.  0.00000000
 
ion      s     py     pz     px    dxy    dyz    dz2    dxz  x2-y2    tot
    1  0.000  0.111  0.111  0.000  0.004  0.000  0.009  0.004  0.003  0.240
 
band    14 # energy   31.17860284 # occ.  0.00000000
 
ion      s     py     pz     px    dxy    dyz    dz2    dxz  x2-y2    tot
    1  0.019  0.001  0.001  0.007  0.000  0.073  0.034  0.000  0.102  0.237
 
band    15 # energy   31.59983209 # occ.  0.00000000
 
ion      s     py     pz     px    dxy    dyz    dz2    dxz  x2-y2    tot
    1  0.000  0.002  0.002  0.000  0.043  0.000  0.154  0.043  0.051  0.294
 
band    16 # energy   32.48699706 # occ.  0.00000000
 
ion      s     py     pz     px    dxy    dyz    dz2    dxz  x2-y2    tot
    1  0.100  0.002  0.002  0.013  0.051  0.010  0.009  0.051  0.027  0.266
 
band    17 # energy   37.28116296 # occ.  0.00000000
 
ion      s     py     pz     px    dxy    dyz    dz2    dxz  x2-y2    tot
    1  0.000  0.110  0.110  0.000  0.022  0.000  0.000  0.022  0.000  0.264
 
band    18 # energy   38.09658718 # occ.  0.00000000
 
ion      s     py     pz     px    dxy    dyz    dz2    dxz  x2-y2    tot
    1  0.065  0.008  0.008  0.134  0.000  0.060  0.007  0.000  0.020  0.303
 
band    19 # energy   39.82065181 # occ.  0.00000000
 
ion      s     py     pz     px    dxy    dyz    dz2    dxz  x2-y2    tot
    1  0.049  0.056  0.056  0.015  0.025  0.007  0.002  0.025  0.005  0.240
 
band    20 # energy   44.30263365 # occ.  0.00000000
 
ion      s     py     pz     px    dxy    dyz    dz2    dxz  x2-y2    tot
    1  0.004  0.015  0.015  0.030  0.012  0.056  0.001  0.012  0.003  0.147
 
band    21 # energy   46.83164145 # occ.  0.00000000
 
ion      s     py     pz     px    dxy    dyz    dz2    dxz  x2-y2    tot
    1  0.000  0.046  0.046  0.000  0.011  0.000  0.011  0.011  0.004  0.129
 
band    22 # energy   46.92590675 # occ.  0.00000000
 
ion      s     py     pz     px    dxy    dyz    dz2    dxz  x2-y2    tot
    1  0.099  0.000  0.000  0.017  0.002  0.002  0.000  0.002  0.000  0.123
 
band    23 # energy   47.65427233 # occ.  0.00000000
 
ion      s     py     pz     px    dxy    dyz    dz2    dxz  x2-y2    tot
    1  0.000  0.001  0.001  0.000  0.084  0.000  0.016  0.084  0.005  0.193
 
band    24 # energy   48.91482294 # occ.  0.00000000
 
ion      s     py     pz     px    dxy    dyz    dz2    dxz  x2-y2    tot
    1  0.046  0.002  0.002  0.063  0.036  0.015  0.005  0.036  0.014  0.219
 

 k-point     6 :   -0.45000000 0.05000000 0.05000000     weight = 0.00600000

band     1 # energy  -44.37995741 # occ.  2.00000000
 
ion      s     py     pz     px    dxy    dyz    dz2    dxz  x2-y2    tot
    1  0.000  0.325  0.325  0.337  0.000  0.000  0.000  0.000  0.000  0.987
 
band     2 # energy  -44.23736633 # occ.  2.00000000
 
ion      s     py     pz     px    dxy    dyz    dz2    dxz  x2-y2    tot
    1  0.000  0.169  0.169  0.654  0.000  0.000  0.000  0.000  0.000  0.993
 
band     3 # energy  -44.23584963 # occ.  2.00000000
 
ion      s     py     pz     px    dxy    dyz    dz2    dxz  x2-y2    tot
    1  0.000  0.496  0.496  0.000  0.000  0.000  0.000  0.000  0.000  0.993
 
band     4 # energy    2.62341912 # occ.  2.00000000
 
ion      s     py     pz     px    dxy    dyz    dz2    dxz  x2-y2    tot
    1  0.113  0.000  0.000  0.001  0.157  0.166  0.000  0.157  0.000  0.594
 
band     5 # energy    5.06068284 # occ.  2.00000000
 
ion      s     py     pz     px    dxy    dyz    dz2    dxz  x2-y2    tot
    1  0.000  0.000  0.000  0.000  0.058  0.209  0.121  0.058  0.364  0.810
 
band     6 # energy    5.14860425 # occ.  2.00000000
 
ion      s     py     pz     px    dxy    dyz    dz2    dxz  x2-y2    tot
    1  0.000  0.000  0.000  0.000  0.168  0.000  0.359  0.168  0.120  0.816
 
band     7 # energy    7.08807516 # occ.  2.00000000
 
ion      s     py     pz     px    dxy    dyz    dz2    dxz  x2-y2    tot
    1  0.002  0.013  0.013  0.012  0.052  0.298  0.058  0.052  0.175  0.676
 
band     8 # energy    7.60670557 # occ.  0.90581666
 
ion      s     py     pz     px    dxy    dyz    dz2    dxz  x2-y2    tot
    1  0.000  0.000  0.000  0.000  0.276  0.000  0.284  0.276  0.095  0.930
 
band     9 # energy    8.58826907 # occ.  0.00000000
 
ion      s     py     pz     px    dxy    dyz    dz2    dxz  x2-y2    tot
    1  0.006  0.030  0.030  0.033  0.050  0.072  0.034  0.050  0.101  0.407
 
band    10 # energy   11.80753846 # occ.  0.00000000
 
ion      s     py     pz     px    dxy    dyz    dz2    dxz  x2-y2    tot
    1  0.329  0.002  0.002  0.001  0.127  0.139  0.000  0.127  0.000  0.726
 
band    11 # energy   22.12682708 # occ.  0.00000000
 
ion      s     py     pz     px    dxy    dyz    dz2    dxz  x2-y2    tot
    1  0.000  0.002  0.002  0.005  0.000  0.004  0.001  0.000  0.004  0.019
 
band    12 # energy   24.34024182 # occ.  0.00000000
 
ion      s     py     pz     px    dxy    dyz    dz2    dxz  x2-y2    tot
    1  0.008  0.035  0.035  0.138  0.004  0.004  0.002  0.004  0.005  0.235
 
band    13 # energy   24.44470824 # occ.  0.00000000
 
ion      s     py     pz     px    dxy    dyz    dz2    dxz  x2-y2    tot
    1  0.000  0.107  0.107  0.000  0.001  0.000  0.005  0.001  0.002  0.224
 
band    14 # energy   31.78952069 # occ.  0.00000000
 
ion      s     py     pz     px    dxy    dyz    dz2    dxz  x2-y2    tot
    1  0.000  0.000  0.000  0.000  0.044  0.000  0.153  0.044  0.051  0.292
 
band    15 # energy   31.89550588 # occ.  0.00000000
 
ion      s     py     pz     px    dxy    dyz    dz2    dxz  x2-y2    tot
    1  0.002  0.000  0.000  0.000  0.009  0.076  0.052  0.009  0.156  0.303
 
band    16 # energy   33.03120385 # occ.  0.00000000
 
ion      s     py     pz     px    dxy    dyz    dz2    dxz  x2-y2    tot
    1  0.161  0.002  0.002  0.001  0.066  0.050  0.000  0.066  0.001  0.350
 
band    17 # energy   37.67313621 # occ.  0.00000000
 
ion      s     py     pz     px    dxy    dyz    dz2    dxz  x2-y2    tot
    1  0.015  0.051  0.051  0.119  0.000  0.003  0.001  0.000  0.003  0.243
 
band    18 # energy   38.44447042 # occ.  0.00000000
 
ion      s     py     pz     px    dxy    dyz    dz2    dxz  x2-y2    tot
    1  0.000  0.125  0.125  0.000  0.001  0.000  0.009  0.001  0.003  0.265
 
band    19 # energy   39.41725412 # occ.  0.00000000
 
ion      s     py     pz     px    dxy    dyz    dz2    dxz  x2-y2    tot
    1  0.002  0.016  0.016  0.066  0.005  0.001  0.000  0.005  0.001  0.113
 
band    20 # energy   45.38309058 # occ.  0.00000000
 
ion      s     py     pz     px    dxy    dyz    dz2    dxz  x2-y2    tot
    1  0.000  0.015  0.015  0.000  0.054  0.000  0.001  0.054  0.000  0.140
 
band    21 # energy   46.05047954 # occ.  0.00000000
 
ion      s     py     pz     px    dxy    dyz    dz2    dxz  x2-y2    tot
    1  0.003  0.005  0.005  0.016  0.009  0.090  0.001  0.009  0.004  0.145
 
band    22 # energy   46.26627100 # occ.  0.00000000
 
ion      s     py     pz     px    dxy    dyz    dz2    dxz  x2-y2    tot
    1  0.202  0.002  0.002  0.001  0.003  0.022  0.000  0.003  0.000  0.234
 