<?xml version="1.0" encoding="ISO-8859-1"?>
<modeling>
 <generator>
  <i name="program" type="string">vasp </i>
  <i name="version" type="string">6.3.2  </i>
  <i name="subversion" type="string">27Jun22 (build Aug 12 2022 00:53:59) complex                          parallel </i>
  <i name="platform" type="string">tv2STD </i>
  <i name="date" type="string">2024 12 03 </i>
  <i name="time" type="string">01:39:35 </i>
 </generator>
 <incar>
  <i type="string" name="SYSTEM">Pt-fcc</i>
  <i type="int" name="ISTART">     0</i>
  <i type="string" name="PREC">accurate      normal | accurate</i>
  <i type="string" name="ALGO">Normal     Normal, Fast, Very_Fast</i>
  <i type="logical" name="ADDGRID"> F  </i>
  <i type="int" name="ICHARG">     2</i>
  <i type="int" name="INIWAV">     1</i>
  <i type="int" name="NELM">   100</i>
  <i type="int" name="IBRION">     2</i>
  <i name="EDIFF">      0.00000100</i>
  <i name="EDIFFG">     -0.02000000</i>
  <i type="int" name="NSW">   100</i>
  <i type="int" name="ISIF">     2</i>
  <i type="int" name="ISYM">     1</i>
  <i name="ENCUT">    425.00000000</i>
  <i type="logical" name="LREAL"> F  </i>
  <i type="int" name="ISMEAR">     0</i>
  <i name="SIGMA">      0.05000000</i>
  <i type="int" name="NWRITE">     2</i>
  <i type="logical" name="LWAVE"> T  </i>
  <i type="logical" name="LCHARG"> T  </i>
  <i type="int" name="LORBIT">    11</i>
 </incar>
 <primitive_cell>
  <structure name="primitive_cell" >
   <crystal>
    <varray name="basis" >
     <v>       0.00000000       2.13715652       2.13715652 </v>
     <v>       2.13715652       0.00000000       2.13715652 </v>
     <v>       2.13715652       2.13715652       0.00000000 </v>
    </varray>
    <i name="volume">     19.52265976 </i>
    <varray name="rec_basis" >
     <v>      -0.23395572       0.23395572       0.23395572 </v>
     <v>       0.23395572      -0.23395572       0.23395572 </v>
     <v>       0.23395572       0.23395572      -0.23395572 </v>
    </varray>
   </crystal>
   <varray name="positions" >
    <v>       0.00000000       0.00000000       0.00000000 </v>
   </varray>
  </structure>
  <varray name="primitive_index" >
   <v type="int" >        1 </v>
  </varray>
 </primitive_cell>
 <kpoints>
  <generation param="Monkhorst-Pack">
   <v type="int" name="divisions">      10       10       10 </v>
   <v name="usershift">      0.00000000       0.00000000       0.00000000 </v>
   <v name="genvec1">      0.10000000       0.00000000       0.00000000 </v>
   <v name="genvec2">      0.00000000       0.10000000       0.00000000 </v>
   <v name="genvec3">      0.00000000       0.00000000       0.10000000 </v>
   <v name="shift">      0.50000000       0.50000000       0.50000000 </v>
  </generation>
  <varray name="kpointlist" >
   <v>       0.05000000       0.05000000       0.05000000 </v>
   <v>       0.15000000       0.05000000       0.05000000 </v>
   <v>       0.25000000       0.05000000       0.05000000 </v>
   <v>       0.35000000       0.05000000       0.05000000 </v>
   <v>       0.45000000       0.05000000       0.05000000 </v>
   <v>      -0.45000000       0.05000000       0.05000000 </v>
   <v>      -0.35000000       0.05000000       0.05000000 </v>
   <v>      -0.25000000       0.05000000       0.05000000 </v>
   <v>      -0.15000000       0.05000000       0.05000000 </v>
   <v>      -0.05000000       0.05000000       0.05000000 </v>
   <v>       0.15000000       0.15000000       0.05000000 </v>
   <v>       0.25000000       0.15000000       0.05000000 </v>
   <v>       0.35000000       0.15000000       0.05000000 </v>
   <v>       0.45000000       0.15000000       0.05000000 </v>
   <v>      -0.45000000       0.15000000       0.05000000 </v>
   <v>      -0.35000000       0.15000000       0.05000000 </v>
   <v>      -0.25000000       0.15000000       0.05000000 </v>
   <v>      -0.15000000       0.15000000       0.05000000 </v>
   <v>      -0.05000000       0.15000000       0.05000000 </v>
   <v>       0.25000000       0.25000000       0.05000000 </v>
   <v>       0.35000000       0.25000000       0.05000000 </v>
   <v>       0.45000000       0.25000000       0.05000000 </v>
   <v>      -0.45000000       0.25000000       0.05000000 </v>
   <v>      -0.35000000       0.25000000       0.05000000 </v>
   <v>      -0.25000000       0.25000000       0.05000000 </v>
   <v>      -0.15000000       0.25000000       0.05000000 </v>
   <v>      -0.05000000       0.25000000       0.05000000 </v>
   <v>       0.35000000       0.35000000       0.05000000 </v>
   <v>       0.45000000       0.35000000       0.05000000 </v>
   <v>      -0.45000000       0.35000000       0.05000000 </v>
   <v>      -0.35000000       0.35000000       0.05000000 </v>
   <v>      -0.25000000       0.35000000       0.05000000 </v>
   <v>      -0.15000000       0.35000000       0.05000000 </v>
   <v>      -0.05000000       0.35000000       0.05000000 </v>
   <v>       0.45000000       0.45000000       0.05000000 </v>
   <v>      -0.45000000       0.45000000       0.05000000 </v>
   <v>      -0.35000000       0.45000000       0.05000000 </v>
   <v>      -0.25000000       0.45000000       0.05000000 </v>
   <v>      -0.15000000       0.45000000       0.05000000 </v>
   <v>      -0.05000000       0.45000000       0.05000000 </v>
   <v>      -0.45000000      -0.45000000       0.05000000 </v>
   <v>      -0.35000000      -0.45000000       0.05000000 </v>
   <v>      -0.25000000      -0.45000000       0.05000000 </v>
   <v>      -0.15000000      -0.45000000       0.05000000 </v>
   <v>      -0.35000000      -0.35000000       0.05000000 </v>
   <v>      -0.25000000      -0.35000000       0.05000000 </v>
   <v>      -0.15000000      -0.35000000       0.05000000 </v>
   <v>      -0.25000000      -0.25000000       0.05000000 </v>
   <v>      -0.15000000      -0.25000000       0.05000000 </v>
   <v>      -0.15000000      -0.15000000       0.05000000 </v>
   <v>       0.15000000       0.15000000       0.15000000 </v>
   <v>       0.25000000       0.15000000       0.15000000 </v>
   <v>       0.35000000       0.15000000       0.15000000 </v>
   <v>       0.45000000       0.15000000       0.15000000 </v>
   <v>      -0.45000000       0.15000000       0.15000000 </v>
   <v>      -0.35000000       0.15000000       0.15000000 </v>
   <v>      -0.25000000       0.15000000       0.15000000 </v>
   <v>      -0.15000000       0.15000000       0.15000000 </v>
   <v>       0.25000000       0.25000000       0.15000000 </v>
   <v>       0.35000000       0.25000000       0.15000000 </v>
   <v>       0.45000000       0.25000000       0.15000000 </v>
   <v>      -0.45000000       0.25000000       0.15000000 </v>
   <v>      -0.35000000       0.25000000       0.15000000 </v>
   <v>      -0.25000000       0.25000000       0.15000000 </v>
   <v>      -0.15000000       0.25000000       0.15000000 </v>
   <v>       0.35000000       0.35000000       0.15000000 </v>
   <v>       0.45000000       0.35000000       0.15000000 </v>
   <v>      -0.45000000       0.35000000       0.15000000 </v>
   <v>      -0.35000000       0.35000000       0.15000000 </v>
   <v>      -0.25000000       0.35000000       0.15000000 </v>
   <v>      -0.15000000       0.35000000       0.15000000 </v>
   <v>       0.45000000       0.45000000       0.15000000 </v>
   <v>      -0.45000000       0.45000000       0.15000000 </v>
   <v>      -0.35000000       0.45000000       0.15000000 </v>
   <v>      -0.25000000       0.45000000       0.15000000 </v>
   <v>      -0.15000000       0.45000000       0.15000000 </v>
   <v>      -0.45000000      -0.45000000       0.15000000 </v>
   <v>      -0.35000000      -0.45000000       0.15000000 </v>
   <v>      -0.25000000      -0.45000000       0.15000000 </v>
   <v>      -0.35000000      -0.35000000       0.15000000 </v>
   <v>      -0.25000000      -0.35000000       0.15000000 </v>
   <v>      -0.25000000      -0.25000000       0.15000000 </v>
   <v>       0.25000000       0.25000000       0.25000000 </v>
   <v>       0.35000000       0.25000000       0.25000000 </v>
   <v>       0.45000000       0.25000000       0.25000000 </v>
   <v>      -0.45000000       0.25000000       0.25000000 </v>
   <v>      -0.35000000       0.25000000       0.25000000 </v>
   <v>      -0.25000000       0.25000000       0.25000000 </v>
   <v>       0.35000000       0.35000000       0.25000000 </v>
   <v>       0.45000000       0.35000000       0.25000000 </v>
   <v>      -0.45000000       0.35000000       0.25000000 </v>
   <v>      -0.35000000       0.35000000       0.25000000 </v>
   <v>      -0.25000000       0.35000000       0.25000000 </v>
   <v>       0.45000000       0.45000000       0.25000000 </v>
   <v>      -0.45000000       0.45000000       0.25000000 </v>
   <v>      -0.35000000       0.45000000       0.25000000 </v>
   <v>      -0.25000000       0.45000000       0.25000000 </v>
   <v>      -0.45000000      -0.45000000       0.25000000 </v>
   <v>      -0.35000000      -0.45000000       0.25000000 </v>
   <v>      -0.35000000      -0.35000000       0.25000000 </v>
   <v>       0.35000000       0.35000000       0.35000000 </v>
   <v>       0.45000000       0.35000000       0.35000000 </v>
   <v>      -0.45000000       0.35000000       0.35000000 </v>
   <v>      -0.35000000       0.35000000       0.35000000 </v>
   <v>       0.45000000       0.45000000       0.35000000 </v>
   <v>      -0.45000000       0.45000000       0.35000000 </v>
   <v>      -0.35000000       0.45000000       0.35000000 </v>
   <v>      -0.45000000      -0.45000000       0.35000000 </v>
   <v>       0.45000000       0.45000000       0.45000000 </v>
   <v>      -0.45000000       0.45000000       0.45000000 </v>
  </varray>
  <varray name="weights" >
   <v>       0.00200000 </v>
   <v>       0.00600000 </v>
   <v>       0.00600000 </v>
   <v>       0.00600000 </v>
   <v>       0.00600000 </v>
   <v>       0.00600000 </v>
   <v>       0.00600000 </v>
   <v>       0.00600000 </v>
   <v>       0.00600000 </v>
   <v>       0.00600000 </v>
   <v>       0.00600000 </v>
   <v>       0.01200000 </v>
   <v>       0.01200000 </v>
   <v>       0.01200000 </v>
   <v>       0.01200000 </v>
   <v>       0.01200000 </v>
   <v>       0.01200000 </v>
   <v>       0.01200000 </v>
   <v>       0.01200000 </v>
   <v>       0.00600000 </v>
   <v>       0.01200000 </v>
   <v>       0.01200000 </v>
   <v>       0.01200000 </v>
   <v>       0.01200000 </v>
   <v>       0.01200000 </v>
   <v>       0.01200000 </v>
   <v>       0.01200000 </v>
   <v>       0.00600000 </v>
   <v>       0.01200000 </v>
   <v>       0.01200000 </v>
   <v>       0.01200000 </v>
   <v>       0.01200000 </v>
   <v>       0.01200000 </v>
   <v>       0.01200000 </v>
   <v>       0.00600000 </v>
   <v>       0.01200000 </v>
   <v>       0.01200000 </v>
   <v>       0.01200000 </v>
   <v>       0.01200000 </v>
   <v>       0.01200000 </v>
   <v>       0.00600000 </v>
   <v>       0.01200000 </v>
   <v>       0.01200000 </v>
   <v>       0.01200000 </v>
   <v>       0.00600000 </v>
   <v>       0.01200000 </v>
   <v>       0.01200000 </v>
   <v>       0.00600000 </v>
   <v>       0.01200000 </v>
   <v>       0.00600000 </v>
   <v>       0.00200000 </v>
   <v>       0.00600000 </v>
   <v>       0.00600000 </v>
   <v>       0.00600000 </v>
   <v>       0.00600000 </v>
   <v>       0.00600000 </v>
   <v>       0.00600000 </v>
   <v>       0.00600000 </v>
   <v>       0.00600000 </v>
   <v>       0.01200000 </v>
   <v>       0.01200000 </v>
   <v>       0.01200000 </v>
   <v>       0.01200000 </v>
   <v>       0.01200000 </v>
   <v>       0.01200000 </v>
   <v>       0.00600000 </v>
   <v>       0.01200000 </v>
   <v>       0.01200000 </v>
   <v>       0.01200000 </v>
   <v>       0.01200000 </v>
   <v>       0.01200000 </v>
   <v>       0.00600000 </v>
   <v>       0.01200000 </v>
   <v>       0.01200000 </v>
   <v>       0.01200000 </v>
   <v>       0.01200000 </v>
   <v>       0.00600000 </v>
   <v>       0.01200000 </v>
   <v>       0.01200000 </v>
   <v>       0.00600000 </v>
   <v>       0.01200000 </v>
   <v>       0.00600000 </v>
   <v>       0.00200000 </v>
   <v>       0.00600000 </v>
   <v>       0.00600000 </v>
   <v>       0.00600000 </v>
   <v>       0.00600000 </v>
   <v>       0.00600000 </v>
   <v>       0.00600000 </v>
   <v>       0.01200000 </v>
   <v>       0.01200000 </v>
   <v>       0.01200000 </v>
   <v>       0.01200000 </v>
   <v>       0.00600000 </v>
   <v>       0.01200000 </v>
   <v>       0.01200000 </v>
   <v>       0.01200000 </v>
   <v>       0.00600000 </v>
   <v>       0.01200000 </v>
   <v>       0.00600000 </v>
   <v>       0.00200000 </v>
   <v>       0.00600000 </v>
   <v>       0.00600000 </v>
   <v>       0.00600000 </v>
   <v>       0.00600000 </v>
   <v>       0.01200000 </v>
   <v>       0.01200000 </v>
   <v>       0.00600000 </v>
   <v>       0.00200000 </v>
   <v>       0.00600000 </v>
  </varray>
 </kpoints>
 <parameters>
  <separator name="general" >
   <i type="string" name="SYSTEM">Pt-fcc</i>
   <i type="logical" name="LCOMPAT"> F  </i>
  </separator>
  <separator name="electronic" >
   <i type="string" name="PREC">accura</i>
   <i name="ENMAX">    425.00000000</i>
   <i name="ENAUG">    527.01400000</i>
   <i name="EDIFF">      0.00000100</i>
   <i type="int" name="IALGO">    38</i>
   <i type="int" name="IWAVPR">    11</i>
   <i type="int" name="NBANDS">    24</i>
   <i type="int" name="NBANDSLOW">    -1</i>
   <i type="int" name="NBANDSHIGH">    -1</i>
   <i name="NELECT">     16.00000000</i>
   <i type="int" name="TURBO">     0</i>
   <i type="int" name="IRESTART">     0</i>
   <i type="int" name="NREBOOT">     0</i>
   <i type="int" name="NMIN">     0</i>
   <i name="EREF">      0.00000000</i>
   <separator name="electronic smearing" >
    <i type="int" name="ISMEAR">     0</i>
    <i name="SIGMA">      0.05000000</i>
    <i name="KSPACING">      0.50000000</i>
    <i type="logical" name="KGAMMA"> T  </i>
    <i type="logical" name="KBLOWUP"> T  </i>
   </separator>
   <separator name="electronic projectors" >
    <i type="logical" name="LREAL"> F  </i>
    <v name="ROPT">      0.00000000</v>
    <i type="int" name="LMAXPAW">  -100</i>
    <i type="int" name="LMAXMIX">     2</i>
    <i type="logical" name="NLSPLINE"> F  </i>
   </separator>
   <separator name="electronic startup" >
    <i type="int" name="ISTART">     0</i>
    <i type="int" name="ICHARG">     2</i>
    <i type="int" name="INIWAV">     1</i>
   </separator>
   <separator name="electronic spin" >
    <i type="int" name="ISPIN">     1</i>
    <i type="logical" name="LNONCOLLINEAR"> F  </i>
    <v name="MAGMOM">      1.00000000</v>
    <i name="NUPDOWN">     -1.00000000</i>
    <i type="logical" name="LSORBIT"> F  </i>
    <v name="SAXIS">      0.00000000      0.00000000      1.00000000</v>
    <i type="logical" name="LSPIRAL"> F  </i>
    <v name="QSPIRAL">      0.00000000      0.00000000      0.00000000</v>
    <i type="logical" name="LZEROZ"> F  </i>
   </separator>
   <separator name="electronic exchange-correlation" >
    <i type="logical" name="LASPH"> F  </i>
    <i type="logical" name="LMETAGGA"> F  </i>
   </separator>
   <separator name="electronic convergence" >
    <i type="int" name="NELM">   100</i>
    <i type="int" name="NELMDL">    -5</i>
    <i type="int" name="NELMIN">     2</i>
    <i name="ENINI">    425.00000000</i>
    <separator name="electronic convergence detail" >
     <i type="logical" name="LDIAG"> T  </i>
     <i type="logical" name="LSUBROT"> F  </i>
     <i name="WEIMIN">      0.00100000</i>
     <i name="EBREAK">      0.00000001</i>
     <i name="DEPER">      0.30000000</i>
     <i type="int" name="NRMM">     4</i>
     <i name="TIME">      0.40000000</i>
    </separator>
   </separator>
   <separator name="electronic mixer" >
    <i name="AMIX">      0.40000000</i>
    <i name="BMIX">      1.00000000</i>
    <i name="AMIN">      0.10000000</i>
    <i name="AMIX_MAG">      1.60000000</i>
    <i name="BMIX_MAG">      1.00000000</i>
    <separator name="electronic mixer details" >
     <i type="int" name="IMIX">     4</i>
     <i type="logical" name="MIXFIRST"> F  </i>
     <i type="int" name="MAXMIX">   -45</i>
     <i name="WC">    100.00000000</i>
     <i type="int" name="INIMIX">     1</i>
     <i type="int" name="MIXPRE">     1</i>
     <i type="int" name="MREMOVE">     5</i>
    </separator>
   </separator>
   <separator name="electronic dipolcorrection" >
    <i type="logical" name="LDIPOL"> F  </i>
    <i type="logical" name="LMONO"> F  </i>
    <i type="int" name="IDIPOL">     0</i>
    <i name="EPSILON">      1.00000000</i>
    <v name="DIPOL">   -100.00000000   -100.00000000   -100.00000000</v>
    <i name="EFIELD">      0.00000000</i>
   </separator>
  </separator>
  <separator name="grids" >
   <i type="int" name="NGX">    20</i>
   <i type="int" name="NGY">    20</i>
   <i type="int" name="NGZ">    20</i>
   <i type="int" name="NGXF">    40</i>
   <i type="int" name="NGYF">    40</i>
   <i type="int" name="NGZF">    40</i>
   <i type="logical" name="ADDGRID"> F  </i>
  </separator>
  <separator name="ionic" >
   <i type="int" name="NSW">   100</i>
   <i type="int" name="IBRION">     2</i>
   <i type="int" name="MDALGO">     0</i>
   <i type="int" name="ISIF">     2</i>
   <i name="PSTRESS">      0.00000000</i>
   <i name="EDIFFG">     -0.02000000</i>
   <i type="int" name="NFREE">     1</i>
   <i name="POTIM">      0.50000000</i>
   <i name="SMASS">     -3.00000000</i>
   <i name="SCALEE">      1.00000000</i>
  </separator>
  <separator name="ionic md" >
   <i name="TEBEG">      0.00010000</i>
   <i name="TEEND">      0.00010000</i>
   <i type="int" name="NBLOCK">     1</i>
   <i type="int" name="KBLOCK">   100</i>
   <i type="int" name="NPACO">   256</i>
   <i name="APACO">     10.00000000</i>
  </separator>
  <separator name="symmetry" >
   <i type="int" name="ISYM">     1</i>
   <i name="SYMPREC">      0.00001000</i>
  </separator>
  <separator name="dos" >
   <i type="int" name="LORBIT">    11</i>
   <v name="RWIGS">     -1.00000000</v>
   <i type="int" name="NEDOS">   301</i>
   <i name="EMIN">     10.00000000</i>
   <i name="EMAX">    -10.00000000</i>
   <i name="EFERMI">      0.00000000</i>
  </separator>
  <separator name="writing" >
   <i type="int" name="NWRITE">     2</i>
   <i type="logical" name="LWAVE"> T  </i>
   <i type="logical" name="LDOWNSAMPLE"> F  </i>
   <i type="logical" name="LCHARG"> T  </i>
   <i type="logical" name="LPARD"> F  </i>
   <i type="logical" name="LVTOT"> F  </i>
   <i type="logical" name="LVHAR"> F  </i>
   <i type="logical" name="LELF"> F  </i>
   <i type="logical" name="LOPTICS"> F  </i>
   <v name="STM">      0.00000000      0.00000000      0.00000000      0.00000000      0.00000000      0.00000000      0.00000000</v>
  </separator>
  <separator name="performance" >
   <i type="int" name="NPAR">    24</i>
   <i type="int" name="NSIM">     4</i>
   <i type="int" name="NBLK">    -1</i>
   <i type="logical" name="LPLANE"> T  </i>
   <i type="logical" name="LSCALAPACK"> T  </i>
   <i type="logical" name="LSCAAWARE"> T  </i>
   <i type="logical" name="LSCALU"> F  </i>
   <i type="logical" name="LASYNC"> F  </i>
   <i type="logical" name="LORBITALREAL"> F  </i>
  </separator>
  <separator name="miscellaneous" >
   <i type="int" name="IDIOT">     3</i>
   <i type="int" name="PHON_NSTRUCT">    -1</i>
   <i type="logical" name="LMUSIC"> F  </i>
   <v name="POMASS">    195.08000000</v>
   <v name="DARWINR">      0.00000000</v>
   <v name="DARWINV">      1.00000000</v>
   <i type="logical" name="LCORR"> T  </i>
  </separator>
  <i type="logical" name="GGA_COMPAT"> T  </i>
  <i type="logical" name="LBERRY"> F  </i>
  <i type="int" name="ICORELEVEL">     0</i>
  <i type="logical" name="LDAU"> F  </i>
  <i type="int" name="I_CONSTRAINED_M">     0</i>
  <separator name="electronic exchange-correlation" >
   <i type="string" name="GGA">--</i>
   <i type="int" name="VOSKOWN">     0</i>
   <i type="logical" name="LHFCALC"> F  </i>
   <i type="string" name="PRECFOCK"></i>
   <i type="logical" name="LSYMGRAD"> F  </i>
   <i type="logical" name="LHFONE"> F  </i>
   <i type="logical" name="LRHFCALC"> F  </i>
   <i type="logical" name="LTHOMAS"> F  </i>
   <i type="logical" name="LMODELHF"> F  </i>
   <i type="logical" name="LFOCKACE"> F  </i>
   <i name="ENCUT4O">     -1.00000000</i>
   <i type="int" name="EXXOEP">     0</i>
   <i type="int" name="FOURORBIT">     0</i>
   <i name="AEXX">      0.00000000</i>
   <i name="HFALPHA">      0.00000000</i>
   <i name="MCALPHA">      0.00000000</i>
   <i name="ALDAX">      1.00000000</i>
   <i name="AGGAX">      1.00000000</i>
   <i name="ALDAC">      1.00000000</i>
   <i name="AGGAC">      1.00000000</i>
   <i type="int" name="NKREDX">     1</i>
   <i type="int" name="NKREDY">     1</i>
   <i type="int" name="NKREDZ">     1</i>
   <i type="logical" name="SHIFTRED"> F  </i>
   <i type="logical" name="ODDONLY"> F  </i>
   <i type="logical" name="EVENONLY"> F  </i>
   <i type="int" name="LMAXFOCK">     0</i>
   <i type="int" name="NMAXFOCKAE">     0</i>
   <i type="logical" name="LFOCKAEDFT"> F  </i>
   <i name="HFSCREEN">      0.00000000</i>
   <i name="HFSCREENC">      0.00000000</i>
   <i type="int" name="NBANDSGWLOW">     0</i>
  </separator>
  <separator name="vdW DFT" >
   <i type="logical" name="LUSE_VDW"> F  </i>
   <i name="Zab_VDW">     -0.84910000</i>
   <i name="PARAM1">      0.12340000</i>
   <i name="PARAM2">      1.00000000</i>
   <i name="PARAM3">      0.00000000</i>
  </separator>
  <separator name="model GW" >
   <i type="int" name="MODEL_GW">     0</i>
   <i name="MODEL_EPS0">     11.71359586</i>
   <i name="MODEL_ALPHA">      1.00000000</i>
  </separator>
  <separator name="linear response parameters" >
   <i type="logical" name="LEPSILON"> F  </i>
   <i type="logical" name="LRPA"> F  </i>
   <i type="logical" name="LNABLA"> F  </i>
   <i type="logical" name="LVEL"> F  </i>
   <i name="CSHIFT">      0.10000000</i>
   <i name="OMEGAMAX">     -1.00000000</i>
   <i name="DEG_THRESHOLD">      0.00200000</i>
   <i name="RTIME">     -0.10000000</i>
   <i name="WPLASMAI">      0.00000000</i>
   <v name="DFIELD">      0.00000000      0.00000000      0.00000000</v>
   <v name="WPLASMA">      0.00000000      0.00000000      0.00000000      0.00000000      0.00000000      0.00000000      0.00000000      0.00000000      0.00000000</v>
  </separator>
  <separator name="orbital magnetization" >
   <i type="logical" name="NUCIND"> F  </i>
   <v name="MAGPOS">      0.00000000      0.00000000      0.00000000</v>
   <i type="logical" name="LNICSALL"> T  </i>
   <i type="logical" name="ORBITALMAG"> F  </i>
   <i type="logical" name="LMAGBLOCH"> F  </i>
   <i type="logical" name="LCHIMAG"> F  </i>
   <i type="logical" name="LGAUGE"> T  </i>
   <i type="int" name="MAGATOM">     0</i>
   <v name="MAGDIPOL">      0.00000000      0.00000000      0.00000000</v>
   <v name="AVECCONST">      0.00000000      0.00000000      0.00000000</v>
  </separator>
  <separator name="response functions" >
   <i type="logical" name="LFINITE_TEMPERATURE"> F  </i>
   <i type="logical" name="LADDER"> F  </i>
   <i type="logical" name="LRPAFORCE"> F  </i>
   <i type="logical" name="LFXC"> F  </i>
   <i type="logical" name="LHARTREE"> T  </i>
   <i type="int" name="IBSE">     0</i>
   <v type="int" name="KPOINT">    -1     0     0     0</v>
   <i type="logical" name="LTCTC"> F  </i>
   <i type="logical" name="LTCTE"> F  </i>
   <i type="logical" name="LTETE"> F  </i>
   <i type="logical" name="LTRIPLET"> F  </i>
   <i type="logical" name="LFXCEPS"> F  </i>
   <i type="logical" name="LFXHEG"> F  </i>
   <i type="int" name="NATURALO">     2</i>
   <i type="logical" name="LHOLEGF"> F  </i>
   <i type="logical" name="L2ORDER"> F  </i>
   <i type="logical" name="LDMP1"> F  </i>
   <i type="logical" name="LMP2LT"> F  </i>
   <i type="logical" name="LSMP2LT"> F  </i>
   <i type="logical" name="LGWLF"> F  </i>
   <i name="ENCUTGW">     -2.00000000</i>
   <i name="ENCUTGWSOFT">     -2.00000000</i>
   <i name="ENCUTLF">     -1.00000000</i>
   <i type="logical" name="LESF_SPLINES"> F  </i>
   <i type="int" name="LMAXMP2">    -1</i>
   <i name="SCISSOR">      0.00000000</i>
   <i type="int" name="NOMEGA">     0</i>
   <i type="int" name="NOMEGAR">     0</i>
   <i type="int" name="NBANDSGW">    -1</i>
   <i type="int" name="NBANDSO">    -1</i>
   <i type="int" name="NBANDSV">    -1</i>
   <i type="int" name="NELMGW">     1</i>
   <i type="int" name="NELMHF">     1</i>
   <i type="int" name="DIM">     3</i>
   <i type="int" name="IESPILON">     4</i>
   <i type="int" name="ANTIRES">     0</i>
   <i name="OMEGAMAX">    -30.00000000</i>
   <i name="OMEGAMIN">    -30.00000000</i>
   <i name="OMEGATL">   -200.00000000</i>
   <i type="int" name="OMEGAGRID">     0</i>
   <i name="CSHIFT">     -0.10000000</i>
   <i type="logical" name="LSELFENERGY"> F  </i>
   <i type="logical" name="LSPECTRAL"> F  </i>
   <i type="logical" name="LSPECTRALGW"> F  </i>
   <i type="logical" name="LSINGLES"> F  </i>
   <i type="logical" name="LFERMIGW"> F  </i>
   <i type="logical" name="ODDONLYGW"> F  </i>
   <i type="logical" name="EVENONLYGW"> F  </i>
   <i type="int" name="NKREDLFX">     1</i>
   <i type="int" name="NKREDLFY">     1</i>
   <i type="int" name="NKREDLFZ">     1</i>
   <i type="int" name="MAXMEM">  2800</i>
   <i type="int" name="TELESCOPE">     0</i>
   <i type="int" name="NTAUPAR">    -1</i>
   <i type="int" name="NOMEGAPAR">    -1</i>
   <i name="DAMP_NEWTON">      0.80000001</i>
   <i name="LAMBDA">      1.00000000</i>
  </separator>
  <separator name="External order field" >
   <i name="OFIELD_KAPPA">      0.00000000</i>
   <v name="OFIELD_K">      0.00000000      0.00000000      0.00000000</v>
   <i name="OFIELD_Q6_NEAR">      0.00000000</i>
   <i name="OFIELD_Q6_FAR">      0.00000000</i>
   <i name="OFIELD_A">      0.00000000</i>
  </separator>
  <separator name="optional k-points parameters" >
   <i type="int" name="KPOINTS_OPT_MODE">     1</i>
   <i type="logical" name="LKPOINTS_OPT"> F  </i>
  </separator>
 </parameters>
 <atominfo>
  <atoms>       1 </atoms>
  <types>       1 </types>
  <array name="atoms" >
   <dimension dim="1">ion</dimension>
   <field type="string">element</field>
   <field type="int">atomtype</field>
   <set>
    <rc><c>Pt</c><c>   1</c></rc>
   </set>
  </array>
  <array name="atomtypes" >
   <dimension dim="1">type</dimension>
   <field type="int">atomspertype</field>
   <field type="string">element</field>
   <field>mass</field>
   <field>valence</field>
   <field type="string">pseudopotential</field>
   <set>
    <rc><c>   1</c><c>Pt</c><c>    195.08000000</c><c>     16.00000000</c><c>  PAW_PBE Pt_pv 12Dec2005               </c></rc>
   </set>
  </array>
 </atominfo>
 <structure name="initialpos" >
  <crystal>
   <varray name="basis" >
    <v>       0.00000000       2.13715652       2.13715652 </v>
    <v>       2.13715652       0.00000000       2.13715652 </v>
    <v>       2.13715652       2.13715652       0.00000000 </v>
   </varray>
   <i name="volume">     19.52265976 </i>
   <varray name="rec_basis" >
    <v>      -0.23395572       0.23395572       0.23395572 </v>
    <v>       0.23395572      -0.23395572       0.23395572 </v>
    <v>       0.23395572       0.23395572      -0.23395572 </v>
   </varray>
  </crystal>
  <varray name="positions" >
   <v>       0.00000000       0.00000000       0.00000000 </v>
  </varray>
 </structure>
 <calculation>
  <scstep>
   <time name="dav">    0.46    0.47</time>
   <time name="total">    0.47    0.47</time>
   <energy>
    <i name="alphaZ">    122.89916383 </i>
    <i name="ewald">  -1977.08796519 </i>
    <i name="hartreedc">   -480.57286823 </i>
    <i name="XCdc">     62.76780474 </i>
    <i name="pawpsdc">   2065.75261637 </i>
    <i name="pawaedc">  -2030.83594803 </i>
    <i name="eentropy">     -0.00182288 </i>
    <i name="bandstr">   -167.27384893 </i>
    <i name="atom">   2428.19501064 </i>
    <i name="e_fr_energy">     23.84214232 </i>
    <i name="e_wo_entrp">     23.84396519 </i>
    <i name="e_0_energy">     23.84305376 </i>
   </energy>
  </scstep>
  <scstep>
   <time name="dav">    0.66    0.67</time>
   <time name="total">    0.66    0.67</time>
   <energy>
    <i name="e_fr_energy">     -5.92246664 </i>
    <i name="e_wo_entrp">     -5.91920649 </i>
    <i name="e_0_energy">     -5.92083656 </i>
   </energy>
  </scstep>
  <scstep>
   <time name="dav">    0.62    0.62</time>
   <time name="total">    0.62    0.62</time>
   <energy>
    <i name="e_fr_energy">     -5.97431779 </i>
    <i name="e_wo_entrp">     -5.97105393 </i>
    <i name="e_0_energy">     -5.97268586 </i>
   </energy>
  </scstep>
  <scstep>
   <time name="dav">    1.01    1.02</time>
   <time name="total">    1.01    1.02</time>
   <energy>
    <i name="e_fr_energy">     -5.97437018 </i>
    <i name="e_wo_entrp">     -5.97110633 </i>
    <i name="e_0_energy">     -5.97273826 </i>
   </energy>
  </scstep>
  <scstep>
   <time name="dav">    0.62    0.62</time>
   <time name="total">    0.64    0.65</time>
   <energy>
    <i name="e_fr_energy">     -5.97437018 </i>
    <i name="e_wo_entrp">     -5.97110633 </i>
    <i name="e_0_energy">     -5.97273826 </i>
   </energy>
  </scstep>
  <scstep>
   <time name="dav">    0.60    0.60</time>
   <time name="total">    0.62    0.62</time>
   <energy>
    <i name="e_fr_energy">     -5.63239650 </i>
    <i name="e_wo_entrp">     -5.62877937 </i>
    <i name="e_0_energy">     -5.63058793 </i>
   </energy>
  </scstep>
  <scstep>
   <time name="dav">    0.85    0.85</time>
   <time name="total">    0.87    0.88</time>
   <energy>
    <i name="e_fr_energy">     -5.62656163 </i>
    <i name="e_wo_entrp">     -5.62287702 </i>
    <i name="e_0_energy">     -5.62471933 </i>
   </energy>
  </scstep>
  <scstep>
   <time name="dav">    0.60    0.60</time>
   <time name="total">    0.62    0.63</time>
   <energy>
    <i name="e_fr_energy">     -5.62576883 </i>
    <i name="e_wo_entrp">     -5.62202731 </i>
    <i name="e_0_energy">     -5.62389807 </i>
   </energy>
  </scstep>
  <scstep>
   <time name="dav">    0.79    0.80</time>
   <time name="total">    0.82    0.82</time>
   <energy>
    <i name="e_fr_energy">     -5.62577800 </i>
    <i name="e_wo_entrp">     -5.62203944 </i>
    <i name="e_0_energy">     -5.62390872 </i>
   </energy>
  </scstep>
  <scstep>
   <time name="dav">    0.74    0.74</time>
   <time name="total">    0.76    0.76</time>
   <energy>
    <i name="e_fr_energy">     -5.62578836 </i>
    <i name="e_wo_entrp">     -5.62205071 </i>
    <i name="e_0_energy">     -5.62391954 </i>
   </energy>
  </scstep>
  <scstep>
   <time name="dav">    0.51    0.52</time>
   <time name="total">    0.52    0.52</time>
   <energy>
    <i name="alphaZ">    122.89916383 </i>
    <i name="ewald">  -1977.08796519 </i>
    <i name="hartreedc">   -461.28283052 </i>
    <i name="XCdc">     61.93531853 </i>
    <i name="pawpsdc">   2111.48494250 </i>
    <i name="pawaedc">  -2078.11563721 </i>
    <i name="eentropy">     -0.00373758 </i>
    <i name="bandstr">   -213.65005325 </i>
    <i name="atom">   2428.19501064 </i>
    <i name="e_fr_energy">     -5.62578826 </i>
    <i name="e_wo_entrp">     -5.62205068 </i>
    <i name="e_0_energy">     -5.62391947 </i>
   </energy>
  </scstep>
  <structure>
   <crystal>
    <varray name="basis" >
     <v>       0.00000000       2.13715652       2.13715652 </v>
     <v>       2.13715652       0.00000000       2.13715652 </v>
     <v>       2.13715652       2.13715652       0.00000000 </v>
    </varray>
    <i name="volume">     19.52265976 </i>
    <varray name="rec_basis" >
     <v>      -0.23395572       0.23395572       0.23395572 </v>
     <v>       0.23395572      -0.23395572       0.23395572 </v>
     <v>       0.23395572       0.23395572      -0.23395572 </v>
    </varray>
   </crystal>
   <varray name="positions" >
    <v>       0.00000000       0.00000000       0.00000000 </v>
   </varray>
  </structure>
  <varray name="forces" >
   <v>       0.00000000       0.00000000       0.00000000 </v>
  </varray>
  <varray name="stress" >
   <v>    -316.61421935       0.00000000      -0.00000000 </v>
   <v>       0.00000000    -316.61421935      -0.00000000 </v>
   <v>      -0.00000000      -0.00000000    -316.61421935 </v>
  </varray>
  <energy>
   <i name="e_fr_energy">     -5.62578826 </i>
   <i name="e_wo_entrp">     -5.62205068 </i>
   <i name="e_0_energy">     -5.62391947 </i>
  </energy>
  <time name="totalsc">    7.90    8.04</time>
  <eigenvalues>
   <array>
    <dimension dim="1">band</dimension>
    <dimension dim="2">kpoint</dimension>
    <dimension dim="3">spin</dimension>
    <field>eigene</field>
    <field>occ</field>
    <set>
     <set comment="spin 1">
      <set comment="kpoint 1">
       <r>  -44.2119    1.0000 </r>
       <r>  -44.2085    1.0000 </r>
       <r>  -44.2085    1.0000 </r>
       <r>    0.0158    1.0000 </r>
       <r>    5.0923    1.0000 </r>
       <r>    5.1475    1.0000 </r>
       <r>    5.1475    1.0000 </r>
       <r>    6.5173    1.0000 </r>
       <r>    6.5173    1.0000 </r>
       <r>   22.6371    0.0000 </r>
       <r>   25.5434    0.0000 </r>
       <r>   26.1877    0.0000 </r>
       <r>   26.1877    0.0000 </r>
       <r>   31.0657    0.0000 </r>
       <r>   33.4383    0.0000 </r>
       <r>   34.0089    0.0000 </r>
       <r>   34.0089    0.0000 </r>
       <r>   35.9894    0.0000 </r>
       <r>   35.9894    0.0000 </r>
       <r>   36.7543    0.0000 </r>
       <r>   42.8825    0.0000 </r>
       <r>   42.8825    0.0000 </r>
       <r>   46.5321    0.0000 </r>
       <r>   49.2203    0.0000 </r>
      </set>
      <set comment="kpoint 2">
       <r>  -44.2321    1.0000 </r>
       <r>  -44.2147    1.0000 </r>
       <r>  -44.2107    1.0000 </r>
       <r>    0.4282    1.0000 </r>
       <r>    4.9491    1.0000 </r>
       <r>    5.2715    1.0000 </r>
       <r>    5.2979    1.0000 </r>
       <r>    6.3828    1.0000 </r>
       <r>    6.5603    1.0000 </r>
       <r>   22.9811    0.0000 </r>
       <r>   23.8431    0.0000 </r>
       <r>   25.9203    0.0000 </r>
       <r>   27.0326    0.0000 </r>
       <r>   30.2360    0.0000 </r>
       <r>   32.4047    0.0000 </r>
       <r>   33.2041    0.0000 </r>
       <r>   33.8022    0.0000 </r>
       <r>   34.9123    0.0000 </r>
       <r>   37.2779    0.0000 </r>
       <r>   39.0634    0.0000 </r>
       <r>   42.2757    0.0000 </r>
       <r>   44.0433    0.0000 </r>
       <r>   48.6865    0.0000 </r>
       <r>   49.2217    0.0000 </r>
      </set>
      <set comment="kpoint 3">
       <r>  -44.2779    1.0000 </r>
       <r>  -44.2228    1.0000 </r>
       <r>  -44.2171    1.0000 </r>
       <r>    1.3419    1.0000 </r>
       <r>    4.8131    1.0000 </r>
       <r>    5.4065    1.0000 </r>
       <r>    5.4306    1.0000 </r>
       <r>    6.3857    1.0000 </r>
       <r>    6.7443    1.0000 </r>
       <r>   20.3990    0.0000 </r>
       <r>   23.5758    0.0000 </r>
       <r>   26.1317    0.0000 </r>
       <r>   28.2451    0.0000 </r>
       <r>   28.2652    0.0000 </r>
       <r>   30.4161    0.0000 </r>
       <r>   31.3468    0.0000 </r>
       <r>   35.5206    0.0000 </r>
       <r>   36.6310    0.0000 </r>
       <r>   38.4588    0.0000 </r>
       <r>   40.2139    0.0000 </r>
       <r>   43.0819    0.0000 </r>
       <r>   45.0192    0.0000 </r>
       <r>   49.2105    0.0000 </r>
       <r>   51.7016    0.0000 </r>
      </set>
      <set comment="kpoint 4">
       <r>  -44.3304    1.0000 </r>
       <r>  -44.2315    1.0000 </r>
       <r>  -44.2254    1.0000 </r>
       <r>    2.2641    1.0000 </r>
       <r>    5.2050    1.0000 </r>
       <r>    5.3325    1.0000 </r>
       <r>    5.3389    1.0000 </r>
       <r>    6.8169    1.0000 </r>
       <r>    7.2363    1.0000 </r>
       <r>   16.7531    0.0000 </r>
       <r>   22.9985    0.0000 </r>
       <r>   25.2238    0.0000 </r>
       <r>   27.1417    0.0000 </r>
       <r>   29.3369    0.0000 </r>
       <r>   30.4935    0.0000 </r>
       <r>   31.4489    0.0000 </r>
       <r>   36.2279    0.0000 </r>
       <r>   37.6475    0.0000 </r>
       <r>   39.8925    0.0000 </r>
       <r>   42.5648    0.0000 </r>
       <r>   44.3740    0.0000 </r>
       <r>   45.9199    0.0000 </r>
       <r>   49.2090    0.0000 </r>
       <r>   50.3107    0.0000 </r>
      </set>
      <set comment="kpoint 5">
       <r>  -44.3690    1.0000 </r>
       <r>  -44.2370    1.0000 </r>
       <r>  -44.2327    1.0000 </r>
       <r>    2.5926    1.0000 </r>
       <r>    5.1196    1.0000 </r>
       <r>    5.1839    1.0000 </r>
       <r>    6.6173    1.0000 </r>
       <r>    7.3512    1.0000 </r>
       <r>    7.9222    0.0000 </r>
       <r>   13.3224    0.0000 </r>
       <r>   22.3147    0.0000 </r>
       <r>   24.3197    0.0000 </r>
       <r>   25.2797    0.0000 </r>
       <r>   31.1786    0.0000 </r>
       <r>   31.5998    0.0000 </r>
       <r>   32.4870    0.0000 </r>
       <r>   37.2812    0.0000 </r>
       <r>   38.0966    0.0000 </r>
       <r>   39.8207    0.0000 </r>
       <r>   44.3026    0.0000 </r>
       <r>   46.8316    0.0000 </r>
       <r>   46.9259    0.0000 </r>
       <r>   47.6543    0.0000 </r>
       <r>   48.9148    0.0000 </r>
      </set>
      <set comment="kpoint 6">
       <r>  -44.3800    1.0000 </r>
       <r>  -44.2374    1.0000 </r>
       <r>  -44.2358    1.0000 </r>
       <r>    2.6234    1.0000 </r>
       <r>    5.0607    1.0000 </r>
       <r>    5.1486    1.0000 </r>
       <r>    7.0881    1.0000 </r>
       <r>    7.6067    0.4529 </r>
       <r>    8.5883    0.0000 </r>
       <r>   11.8075    0.0000 </r>
       <r>   22.1268    0.0000 </r>
       <r>   24.3402    0.0000 </r>
       <r>   24.4447    0.0000 </r>
       <r>   31.7895    0.0000 </r>
       <r>   31.8955    0.0000 </r>
       <r>   33.0312    0.0000 </r>
       <r>   37.6731    0.0000 </r>
       <r>   38.4445    0.0000 </r>
       <r>   39.4173    0.0000 </r>
       <r>   45.3831    0.0000 </r>
       <r>   46.0505    0.0000 </r>
       <r>   46.2663    0.0000 </r>
       <r>   47.6801    0.0000 </r>
       <r>   48.0576    0.0000 </r>
      </set>
      <set comment="kpoint 7">
       <r>  -44.3586    1.0000 </r>
       <r>  -44.2336    1.0000 </r>
       <r>  -44.2324    1.0000 </r>
       <r>    2.5392    1.0000 </r>
       <r>    5.1475    1.0000 </r>
       <r>    5.2460    1.0000 </r>
       <r>    6.0939    1.0000 </r>
       <r>    7.4256    1.0000 </r>
       <r>    7.4651    0.9999 </r>
       <r>   14.3879    0.0000 </r>
       <r>   22.5241    0.0000 </r>
       <r>   24.7628    0.0000 </r>
       <r>   25.4729    0.0000 </r>
       <r>   31.1519    0.0000 </r>
       <r>   31.1860    0.0000 </r>
       <r>   31.8094    0.0000 </r>
       <r>   36.3645    0.0000 </r>
       <r>   38.8774    0.0000 </r>
       <r>   39.6342    0.0000 </r>
       <r>   44.0923    0.0000 </r>
       <r>   45.6881    0.0000 </r>
       <r>   46.8597    0.0000 </r>
       <r>   48.0346    0.0000 </r>
       <r>   49.2114    0.0000 </r>
      </set>
      <set comment="kpoint 8">
       <r>  -44.3133    1.0000 </r>
       <r>  -44.2273    1.0000 </r>
       <r>  -44.2240    1.0000 </r>
       <r>    2.0077    1.0000 </r>
       <r>    4.9742    1.0000 </r>
       <r>    5.3386    1.0000 </r>
       <r>    5.3972    1.0000 </r>
       <r>    6.7250    1.0000 </r>
       <r>    6.9773    1.0000 </r>
       <r>   17.9781    0.0000 </r>
       <r>   23.3248    0.0000 </r>
       <r>   25.7184    0.0000 </r>
       <r>   27.2790    0.0000 </r>
       <r>   29.0848    0.0000 </r>
       <r>   30.5508    0.0000 </r>
       <r>   30.7851    0.0000 </r>
       <r>   35.6211    0.0000 </r>
       <r>   38.6425    0.0000 </r>
       <r>   38.8399    0.0000 </r>
       <r>   41.8204    0.0000 </r>
       <r>   43.2601    0.0000 </r>
       <r>   45.9295    0.0000 </r>
       <r>   49.2115    0.0000 </r>
       <r>   50.6787    0.0000 </r>
      </set>
      <set comment="kpoint 9">
       <r>  -44.2604    1.0000 </r>
       <r>  -44.2189    1.0000 </r>
       <r>  -44.2156    1.0000 </r>
       <r>    1.0008    1.0000 </r>
       <r>    4.8197    1.0000 </r>
       <r>    5.3996    1.0000 </r>
       <r>    5.4117    1.0000 </r>
       <r>    6.3461    1.0000 </r>
       <r>    6.6391    1.0000 </r>
       <r>   21.5529    0.0000 </r>
       <r>   23.6293    0.0000 </r>
       <r>   26.1498    0.0000 </r>
       <r>   27.4928    0.0000 </r>
       <r>   28.9195    0.0000 </r>
       <r>   31.0959    0.0000 </r>
       <r>   31.6144    0.0000 </r>
       <r>   35.0823    0.0000 </r>
       <r>   36.1863    0.0000 </r>
       <r>   38.2941    0.0000 </r>
       <r>   39.6040    0.0000 </r>
       <r>   42.5228    0.0000 </r>
       <r>   44.7794    0.0000 </r>
       <r>   49.2135    0.0000 </r>
       <r>   51.0395    0.0000 </r>
      </set>
      <set comment="kpoint 10">
       <r>  -44.2211    1.0000 </r>
       <r>  -44.2118    1.0000 </r>
       <r>  -44.2108    1.0000 </r>
       <r>    0.2251    1.0000 </r>
       <r>    4.9937    1.0000 </r>
       <r>    5.2316    1.0000 </r>
       <r>    5.2366    1.0000 </r>
       <r>    6.4043    1.0000 </r>
       <r>    6.5681    1.0000 </r>
       <r>   22.8674    0.0000 </r>
       <r>   24.7709    0.0000 </r>
       <r>   26.0000    0.0000 </r>
       <r>   26.3259    0.0000 </r>
       <r>   31.4422    0.0000 </r>
       <r>   32.6672    0.0000 </r>
       <r>   33.0021    0.0000 </r>
       <r>   33.8066    0.0000 </r>
       <r>   34.7249    0.0000 </r>
       <r>   37.6819    0.0000 </r>
       <r>   38.0252    0.0000 </r>
       <r>   42.1853    0.0000 </r>
       <r>   43.6183    0.0000 </r>
       <r>   47.7941    0.0000 </r>
       <r>   49.2168    0.0000 </r>
      </set>
      <set comment="kpoint 11">
       <r>  -44.2366    1.0000 </r>
       <r>  -44.2180    1.0000 </r>
       <r>  -44.2170    1.0000 </r>
       <r>    0.6333    1.0000 </r>
       <r>    4.7973    1.0000 </r>
       <r>    5.4088    1.0000 </r>
       <r>    5.4124    1.0000 </r>
       <r>    6.2047    1.0000 </r>
       <r>    6.6665    1.0000 </r>
       <r>   23.2573    0.0000 </r>
       <r>   24.0126    0.0000 </r>
       <r>   25.4695    0.0000 </r>
       <r>   26.0306    0.0000 </r>
       <r>   30.3864    0.0000 </r>
       <r>   31.8226    0.0000 </r>
       <r>   32.2469    0.0000 </r>
       <r>   34.4942    0.0000 </r>
       <r>   34.8200    0.0000 </r>
       <r>   39.3121    0.0000 </r>
       <r>   39.4991    0.0000 </r>
       <r>   41.1221    0.0000 </r>
       <r>   44.0628    0.0000 </r>
       <r>   49.2067    0.0000 </r>
       <r>   50.0479    0.0000 </r>
      </set>
      <set comment="kpoint 12">
       <r>  -44.2685    1.0000 </r>
       <r>  -44.2297    1.0000 </r>
       <r>  -44.2216    1.0000 </r>
       <r>    1.3863    1.0000 </r>
       <r>    4.5678    1.0000 </r>
       <r>    5.5004    1.0000 </r>
       <r>    5.6607    1.0000 </r>
       <r>    6.1417    1.0000 </r>
       <r>    6.8582    1.0000 </r>
       <r>   21.7816    0.0000 </r>
       <r>   23.3738    0.0000 </r>
       <r>   25.0895    0.0000 </r>
       <r>   26.2687    0.0000 </r>
       <r>   28.5263    0.0000 </r>
       <r>   31.1121    0.0000 </r>
       <r>   32.1324    0.0000 </r>
       <r>   34.6654    0.0000 </r>
       <r>   37.3285    0.0000 </r>
       <r>   39.2113    0.0000 </r>
       <r>   40.2583    0.0000 </r>
       <r>   42.0876    0.0000 </r>
       <r>   45.3699    0.0000 </r>
       <r>   49.2115    0.0000 </r>
       <r>   51.1186    0.0000 </r>
      </set>
      <set comment="kpoint 13">
       <r>  -44.3148    1.0000 </r>
       <r>  -44.2403    1.0000 </r>
       <r>  -44.2296    1.0000 </r>
       <r>    2.3795    1.0000 </r>
       <r>    4.5920    1.0000 </r>
       <r>    5.2342    1.0000 </r>
       <r>    5.6741    1.0000 </r>
       <r>    6.7102    1.0000 </r>
       <r>    7.3479    1.0000 </r>
       <r>   18.1757    0.0000 </r>
       <r>   22.9195    0.0000 </r>
       <r>   24.1673    0.0000 </r>
       <r>   26.0720    0.0000 </r>
       <r>   29.3061    0.0000 </r>
       <r>   30.9255    0.0000 </r>
       <r>   32.6091    0.0000 </r>
       <r>   34.2831    0.0000 </r>
       <r>   39.1649    0.0000 </r>
       <r>   40.2576    0.0000 </r>
       <r>   41.6447    0.0000 </r>
       <r>   43.0307    0.0000 </r>
       <r>   47.2296    0.0000 </r>
       <r>   49.2091    0.0000 </r>
       <r>   49.4231    0.0000 </r>
      </set>
      <set comment="kpoint 14">
       <r>  -44.3541    1.0000 </r>
       <r>  -44.2485    1.0000 </r>
       <r>  -44.2377    1.0000 </r>
       <r>    2.8907    1.0000 </r>
       <r>    4.9627    1.0000 </r>
       <r>    5.3481    1.0000 </r>
       <r>    5.5444    1.0000 </r>
       <r>    7.3996    1.0000 </r>
       <r>    8.2892    0.0000 </r>
       <r>   14.5597    0.0000 </r>
       <r>   22.4629    0.0000 </r>
       <r>   23.0177    0.0000 </r>
       <r>   24.8907    0.0000 </r>
       <r>   30.9801    0.0000 </r>
       <r>   32.1858    0.0000 </r>
       <r>   33.3928    0.0000 </r>
       <r>   34.3883    0.0000 </r>
       <r>   39.8404    0.0000 </r>
       <r>   41.3051    0.0000 </r>
       <r>   41.8406    0.0000 </r>
       <r>   45.8911    0.0000 </r>
       <r>   46.6621    0.0000 </r>
       <r>   48.4764    0.0000 </r>
       <r>   49.2108    0.0000 </r>
      </set>
      <set comment="kpoint 15">
       <r>  -44.3723    1.0000 </r>
       <r>  -44.2536    1.0000 </r>
       <r>  -44.2407    1.0000 </r>
       <r>    2.9632    1.0000 </r>
       <r>    4.8475    1.0000 </r>
       <r>    5.4136    1.0000 </r>
       <r>    6.1427    1.0000 </r>
       <r>    7.5631    0.8679 </r>
       <r>    9.8913    0.0000 </r>
       <r>   11.7849    0.0000 </r>
       <r>   22.0381    0.0000 </r>
       <r>   22.6929    0.0000 </r>
       <r>   24.1805    0.0000 </r>
       <r>   31.6203    0.0000 </r>
       <r>   32.4868    0.0000 </r>
       <r>   34.3726    0.0000 </r>
       <r>   36.4601    0.0000 </r>
       <r>   38.5702    0.0000 </r>
       <r>   40.0363    0.0000 </r>
       <r>   43.7276    0.0000 </r>
       <r>   44.8911    0.0000 </r>
       <r>   47.4658    0.0000 </r>
       <r>   49.0902    0.0000 </r>
       <r>   49.2040    0.0000 </r>
      </set>
      <set comment="kpoint 16">
       <r>  -44.3625    1.0000 </r>
       <r>  -44.2542    1.0000 </r>
       <r>  -44.2366    1.0000 </r>
       <r>    2.9511    1.0000 </r>
       <r>    4.9202    1.0000 </r>
       <r>    5.4348    1.0000 </r>
       <r>    5.8160    1.0000 </r>
       <r>    7.2740    1.0000 </r>
       <r>    8.8815    0.0000 </r>
       <r>   13.5309    0.0000 </r>
       <r>   21.7549    0.0000 </r>
       <r>   23.0926    0.0000 </r>
       <r>   25.0294    0.0000 </r>
       <r>   30.7536    0.0000 </r>
       <r>   32.2226    0.0000 </r>
       <r>   34.2490    0.0000 </r>
       <r>   35.7912    0.0000 </r>
       <r>   38.7160    0.0000 </r>
       <r>   40.5119    0.0000 </r>
       <r>   42.3869    0.0000 </r>
       <r>   46.1883    0.0000 </r>
       <r>   47.8645    0.0000 </r>
       <r>   48.4727    0.0000 </r>
       <r>   49.2064    0.0000 </r>
      </set>
      <set comment="kpoint 17">
       <r>  -44.3290    1.0000 </r>
       <r>  -44.2483    1.0000 </r>
       <r>  -44.2279    1.0000 </r>
       <r>    2.6494    1.0000 </r>
       <r>    4.8225    1.0000 </r>
       <r>    5.1725    1.0000 </r>
       <r>    5.6001    1.0000 </r>
       <r>    6.6501    1.0000 </r>
       <r>    7.7948    0.0000 </r>
       <r>   16.9635    0.0000 </r>
       <r>   22.0119    0.0000 </r>
       <r>   24.0727    0.0000 </r>
       <r>   26.8427    0.0000 </r>
       <r>   28.9505    0.0000 </r>
       <r>   31.3742    0.0000 </r>
       <r>   33.6503    0.0000 </r>
       <r>   34.2583    0.0000 </r>
       <r>   37.9104    0.0000 </r>
       <r>   40.3477    0.0000 </r>
       <r>   42.7390    0.0000 </r>
       <r>   44.6801    0.0000 </r>
       <r>   47.4750    0.0000 </r>
       <r>   48.5882    0.0000 </r>
       <r>   49.2070    0.0000 </r>
      </set>
      <set comment="kpoint 18">
       <r>  -44.2843    1.0000 </r>
       <r>  -44.2362    1.0000 </r>
       <r>  -44.2191    1.0000 </r>
       <r>    1.7191    1.0000 </r>
       <r>    4.5977    1.0000 </r>
       <r>    5.4036    1.0000 </r>
       <r>    5.6843    1.0000 </r>
       <r>    6.1454    1.0000 </r>
       <r>    7.0758    1.0000 </r>
       <r>   20.5104    0.0000 </r>
       <r>   22.5835    0.0000 </r>
       <r>   25.5685    0.0000 </r>
       <r>   26.4738    0.0000 </r>
       <r>   29.5893    0.0000 </r>
       <r>   30.1978    0.0000 </r>
       <r>   32.8356    0.0000 </r>
       <r>   33.9531    0.0000 </r>
       <r>   37.2835    0.0000 </r>
       <r>   38.6830    0.0000 </r>
       <r>   41.0508    0.0000 </r>
       <r>   43.5785    0.0000 </r>
       <r>   46.1672    0.0000 </r>
       <r>   49.2120    0.0000 </r>
       <r>   50.0205    0.0000 </r>
      </set>
      <set comment="kpoint 19">
       <r>  -44.2482    1.0000 </r>
       <r>  -44.2211    1.0000 </r>
       <r>  -44.2139    1.0000 </r>
       <r>    0.8240    1.0000 </r>
       <r>    4.7966    1.0000 </r>
       <r>    5.4113    1.0000 </r>
       <r>    5.4218    1.0000 </r>
       <r>    6.2410    1.0000 </r>
       <r>    6.6722    1.0000 </r>
       <r>   22.6553    0.0000 </r>
       <r>   23.4305    0.0000 </r>
       <r>   25.5474    0.0000 </r>
       <r>   27.1861    0.0000 </r>
       <r>   29.2178    0.0000 </r>
       <r>   31.8594    0.0000 </r>
       <r>   32.3637    0.0000 </r>
       <r>   34.3581    0.0000 </r>
       <r>   35.3153    0.0000 </r>
       <r>   38.1843    0.0000 </r>
       <r>   40.3625    0.0000 </r>
       <r>   41.6445    0.0000 </r>
       <r>   44.7817    0.0000 </r>
       <r>   49.2113    0.0000 </r>
       <r>   50.1464    0.0000 </r>
      </set>
      <set comment="kpoint 20">
       <r>  -44.2814    1.0000 </r>
       <r>  -44.2363    1.0000 </r>
       <r>  -44.2359    1.0000 </r>
       <r>    1.9043    1.0000 </r>
       <r>    4.2502    1.0000 </r>
       <r>    5.6206    1.0000 </r>
       <r>    5.9984    1.0000 </r>
       <r>    6.1576    1.0000 </r>
       <r>    6.9713    1.0000 </r>
       <r>   22.2015    0.0000 </r>
       <r>   23.2234    0.0000 </r>
       <r>   24.2502    0.0000 </r>
       <r>   24.9239    0.0000 </r>
       <r>   25.8638    0.0000 </r>
       <r>   32.2203    0.0000 </r>
       <r>   32.2836    0.0000 </r>
       <r>   36.0921    0.0000 </r>
       <r>   38.3842    0.0000 </r>
       <r>   39.0894    0.0000 </r>
       <r>   41.8664    0.0000 </r>
       <r>   42.3391    0.0000 </r>
       <r>   44.3739    0.0000 </r>
       <r>   49.2137    0.0000 </r>
       <r>   53.1726    0.0000 </r>
      </set>
      <set comment="kpoint 21">
       <r>  -44.3124    1.0000 </r>
       <r>  -44.2508    1.0000 </r>
       <r>  -44.2432    1.0000 </r>
       <r>    2.7082    1.0000 </r>
       <r>    4.0402    1.0000 </r>
       <r>    5.3578    1.0000 </r>
       <r>    6.3086    1.0000 </r>
       <r>    6.7273    1.0000 </r>
       <r>    7.3700    1.0000 </r>
       <r>   19.6976    0.0000 </r>
       <r>   21.5162    0.0000 </r>
       <r>   22.9908    0.0000 </r>
       <r>   25.3324    0.0000 </r>
       <r>   26.5632    0.0000 </r>
       <r>   32.3707    0.0000 </r>
       <r>   33.4646    0.0000 </r>
       <r>   36.5268    0.0000 </r>
       <r>   37.9062    0.0000 </r>
       <r>   40.5564    0.0000 </r>
       <r>   42.7222    0.0000 </r>
       <r>   44.0598    0.0000 </r>
       <r>   45.2665    0.0000 </r>
       <r>   49.2128    0.0000 </r>
       <r>   51.5991    0.0000 </r>
      </set>
      <set comment="kpoint 22">
       <r>  -44.3422    1.0000 </r>
       <r>  -44.2656    1.0000 </r>
       <r>  -44.2505    1.0000 </r>
       <r>    3.2983    1.0000 </r>
       <r>    4.2329    1.0000 </r>
       <r>    5.1048    1.0000 </r>
       <r>    6.1960    1.0000 </r>
       <r>    7.4797    0.9997 </r>
       <r>    8.5077    0.0000 </r>
       <r>   16.0138    0.0000 </r>
       <r>   20.8602    0.0000 </r>
       <r>   21.4536    0.0000 </r>
       <r>   25.0140    0.0000 </r>
       <r>   29.4161    0.0000 </r>
       <r>   32.4120    0.0000 </r>
       <r>   33.9257    0.0000 </r>
       <r>   36.3443    0.0000 </r>
       <r>   39.2975    0.0000 </r>
       <r>   41.3341    0.0000 </r>
       <r>   42.4895    0.0000 </r>
       <r>   45.6934    0.0000 </r>
       <r>   46.2962    0.0000 </r>
       <r>   49.2064    0.0000 </r>
       <r>   50.0948    0.0000 </r>
      </set>
      <set comment="kpoint 23">
       <r>  -44.3566    1.0000 </r>
       <r>  -44.2802    1.0000 </r>
       <r>  -44.2519    1.0000 </r>
       <r>    3.4670    1.0000 </r>
       <r>    4.5010    1.0000 </r>
       <r>    5.2767    1.0000 </r>
       <r>    6.0227    1.0000 </r>
       <r>    7.5926    0.6107 </r>
       <r>   10.6061    0.0000 </r>
       <r>   12.7993    0.0000 </r>
       <r>   19.7242    0.0000 </r>
       <r>   21.4734    0.0000 </r>
       <r>   24.6332    0.0000 </r>
       <r>   31.6584    0.0000 </r>
       <r>   32.9734    0.0000 </r>
       <r>   33.6222    0.0000 </r>
       <r>   36.7229    0.0000 </r>
       <r>   39.6808    0.0000 </r>
       <r>   41.3202    0.0000 </r>
       <r>   42.1385    0.0000 </r>
       <r>   45.4612    0.0000 </r>
       <r>   47.3958    0.0000 </r>
       <r>   49.2052    0.0000 </r>
       <r>   49.7651    0.0000 </r>
      </set>
      <set comment="kpoint 24">
       <r>  -44.3524    1.0000 </r>
       <r>  -44.2881    1.0000 </r>
       <r>  -44.2463    1.0000 </r>
       <r>    3.6022    1.0000 </r>
       <r>    4.5669    1.0000 </r>
       <r>    5.2998    1.0000 </r>
       <r>    5.9336    1.0000 </r>
       <r>    7.2320    1.0000 </r>
       <r>   10.4252    0.0000 </r>
       <r>   13.3216    0.0000 </r>
       <r>   18.7505    0.0000 </r>
       <r>   22.5550    0.0000 </r>
       <r>   24.7705    0.0000 </r>
       <r>   30.9655    0.0000 </r>
       <r>   32.8689    0.0000 </r>
       <r>   34.7321    0.0000 </r>
       <r>   37.0907    0.0000 </r>
       <r>   39.1342    0.0000 </r>
       <r>   40.0545    0.0000 </r>
       <r>   42.9585    0.0000 </r>
       <r>   44.6523    0.0000 </r>
       <r>   47.2773    0.0000 </r>
       <r>   49.2044    0.0000 </r>
       <r>   49.3284    0.0000 </r>
      </set>
      <set comment="kpoint 25">
       <r>  -44.3359    1.0000 </r>
       <r>  -44.2811    1.0000 </r>
       <r>  -44.2364    1.0000 </r>
       <r>    3.5580    1.0000 </r>
       <r>    4.6050    1.0000 </r>
       <r>    4.8459    1.0000 </r>
       <r>    6.0037    1.0000 </r>
       <r>    6.6135    1.0000 </r>
       <r>    8.9506    0.0000 </r>
       <r>   16.3177    0.0000 </r>
       <r>   18.7156    0.0000 </r>
       <r>   23.6641    0.0000 </r>
       <r>   26.0774    0.0000 </r>
       <r>   28.9425    0.0000 </r>
       <r>   32.7312    0.0000 </r>
       <r>   34.3838    0.0000 </r>
       <r>   36.3145    0.0000 </r>
       <r>   38.3404    0.0000 </r>
       <r>   39.2396    0.0000 </r>
       <r>   43.1874    0.0000 </r>
       <r>   46.7468    0.0000 </r>
       <r>   47.3087    0.0000 </r>
       <r>   47.8235    0.0000 </r>
       <r>   49.2051    0.0000 </r>
      </set>
      <set comment="kpoint 26">
       <r>  -44.3167    1.0000 </r>
       <r>  -44.2568    1.0000 </r>
       <r>  -44.2266    1.0000 </r>
       <r>    2.7301    1.0000 </r>
       <r>    4.5088    1.0000 </r>
       <r>    5.1560    1.0000 </r>
       <r>    5.8930    1.0000 </r>
       <r>    6.2600    1.0000 </r>
       <r>    7.8725    0.0000 </r>
       <r>   18.2530    0.0000 </r>
       <r>   20.7366    0.0000 </r>
       <r>   24.5223    0.0000 </r>
       <r>   27.1863    0.0000 </r>
       <r>   28.2010    0.0000 </r>
       <r>   31.7636    0.0000 </r>
       <r>   33.1535    0.0000 </r>
       <r>   35.1712    0.0000 </r>
       <r>   37.3390    0.0000 </r>
       <r>   38.9338    0.0000 </r>
       <r>   43.6203    0.0000 </r>
       <r>   45.4708    0.0000 </r>
       <r>   46.9018    0.0000 </r>
       <r>   48.4320    0.0000 </r>
       <r>   49.2101    0.0000 </r>
      </set>
      <set comment="kpoint 27">
       <r>  -44.2965    1.0000 </r>
       <r>  -44.2306    1.0000 </r>
       <r>  -44.2211    1.0000 </r>
       <r>    1.8193    1.0000 </r>
       <r>    4.7302    1.0000 </r>
       <r>    5.3816    1.0000 </r>
       <r>    5.5169    1.0000 </r>
       <r>    6.4294    1.0000 </r>
       <r>    7.0157    1.0000 </r>
       <r>   19.2770    0.0000 </r>
       <r>   23.3807    0.0000 </r>
       <r>   25.2419    0.0000 </r>
       <r>   27.3537    0.0000 </r>
       <r>   28.9782    0.0000 </r>
       <r>   30.2086    0.0000 </r>
       <r>   31.9533    0.0000 </r>
       <r>   34.5930    0.0000 </r>
       <r>   37.8043    0.0000 </r>
       <r>   39.8431    0.0000 </r>
       <r>   40.5590    0.0000 </r>
       <r>   42.9846    0.0000 </r>
       <r>   46.2451    0.0000 </r>
       <r>   49.2119    0.0000 </r>
       <r>   50.5479    0.0000 </r>
      </set>
      <set comment="kpoint 28">
       <r>  -44.3301    1.0000 </r>
       <r>  -44.2575    1.0000 </r>
       <r>  -44.2561    1.0000 </r>
       <r>    2.9666    1.0000 </r>
       <r>    3.7048    1.0000 </r>
       <r>    6.0206    1.0000 </r>
       <r>    6.7858    1.0000 </r>
       <r>    7.1002    1.0000 </r>
       <r>    7.3385    1.0000 </r>
       <r>   19.5848    0.0000 </r>
       <r>   20.5943    0.0000 </r>
       <r>   20.8027    0.0000 </r>
       <r>   24.4113    0.0000 </r>
       <r>   26.1396    0.0000 </r>
       <r>   34.3145    0.0000 </r>
       <r>   34.5767    0.0000 </r>
       <r>   36.4621    0.0000 </r>
       <r>   38.3287    0.0000 </r>
       <r>   40.6950    0.0000 </r>
       <r>   44.2262    0.0000 </r>
       <r>   44.4350    0.0000 </r>
       <r>   46.1392    0.0000 </r>
       <r>   49.2160    0.0000 </r>
       <r>   50.8278    0.0000 </r>
      </set>
      <set comment="kpoint 29">
       <r>  -44.3490    1.0000 </r>
       <r>  -44.2711    1.0000 </r>
       <r>  -44.2634    1.0000 </r>
       <r>    3.2005    1.0000 </r>
       <r>    3.6003    1.0000 </r>
       <r>    6.1143    1.0000 </r>
       <r>    7.0519    1.0000 </r>
       <r>    7.4908    0.9992 </r>
       <r>    8.5198    0.0000 </r>
       <r>   16.9947    0.0000 </r>
       <r>   19.0831    0.0000 </r>
       <r>   19.6642    0.0000 </r>
       <r>   25.3317    0.0000 </r>
       <r>   27.0580    0.0000 </r>
       <r>   33.8626    0.0000 </r>
       <r>   35.9730    0.0000 </r>
       <r>   37.3499    0.0000 </r>
       <r>   39.4603    0.0000 </r>
       <r>   40.5940    0.0000 </r>
       <r>   43.4378    0.0000 </r>
       <r>   45.4863    0.0000 </r>
       <r>   47.7698    0.0000 </r>
       <r>   48.6372    0.0000 </r>
       <r>   49.2115    0.0000 </r>
      </set>
      <set comment="kpoint 30">
       <r>  -44.3531    1.0000 </r>
       <r>  -44.2921    1.0000 </r>
       <r>  -44.2647    1.0000 </r>
       <r>    3.4077    1.0000 </r>
       <r>    3.8647    1.0000 </r>
       <r>    5.8236    1.0000 </r>
       <r>    6.7920    1.0000 </r>
       <r>    7.6774    0.0171 </r>
       <r>   10.7817    0.0000 </r>
       <r>   14.1354    0.0000 </r>
       <r>   17.5439    0.0000 </r>
       <r>   19.7422    0.0000 </r>
       <r>   25.5410    0.0000 </r>
       <r>   29.4013    0.0000 </r>
       <r>   33.0136    0.0000 </r>
       <r>   35.3863    0.0000 </r>
       <r>   38.8067    0.0000 </r>
       <r>   39.9311    0.0000 </r>
       <r>   40.8571    0.0000 </r>
       <r>   43.4032    0.0000 </r>
       <r>   44.8174    0.0000 </r>
       <r>   47.3991    0.0000 </r>
       <r>   48.6922    0.0000 </r>
       <r>   49.2079    0.0000 </r>
      </set>
      <set comment="kpoint 31">
       <r>  -44.3376    1.0000 </r>
       <r>  -44.3169    1.0000 </r>
       <r>  -44.2583    1.0000 </r>
       <r>    3.6784    1.0000 </r>
       <r>    4.3015    1.0000 </r>
       <r>    5.3586    1.0000 </r>
       <r>    6.5004    1.0000 </r>
       <r>    7.3833    1.0000 </r>
       <r>   11.7078    0.0000 </r>
       <r>   13.8132    0.0000 </r>
       <r>   16.0178    0.0000 </r>
       <r>   20.9465    0.0000 </r>
       <r>   25.2945    0.0000 </r>
       <r>   31.9452    0.0000 </r>
       <r>   32.3493    0.0000 </r>
       <r>   33.8852    0.0000 </r>
       <r>   37.8632    0.0000 </r>
       <r>   40.3693    0.0000 </r>
       <r>   41.6272    0.0000 </r>
       <r>   43.7734    0.0000 </r>
       <r>   44.2362    0.0000 </r>
       <r>   46.3171    0.0000 </r>
       <r>   49.2044    0.0000 </r>
       <r>   49.2833    0.0000 </r>
      </set>
      <set comment="kpoint 32">
       <r>  -44.3385    1.0000 </r>
       <r>  -44.3057    1.0000 </r>
       <r>  -44.2475    1.0000 </r>
       <r>    3.8740    1.0000 </r>
       <r>    4.5677    1.0000 </r>
       <r>    4.9147    1.0000 </r>
       <r>    6.1797    1.0000 </r>
       <r>    7.0142    1.0000 </r>
       <r>   10.2575    0.0000 </r>
       <r>   14.9874    0.0000 </r>
       <r>   16.9166    0.0000 </r>
       <r>   22.5686    0.0000 </r>
       <r>   25.1360    0.0000 </r>
       <r>   30.5840    0.0000 </r>
       <r>   32.9489    0.0000 </r>
       <r>   34.6800    0.0000 </r>
       <r>   36.7500    0.0000 </r>
       <r>   39.8422    0.0000 </r>
       <r>   40.8866    0.0000 </r>
       <r>   42.3033    0.0000 </r>
       <r>   45.1046    0.0000 </r>
       <r>   45.9880    0.0000 </r>
       <r>   49.2007    0.0000 </r>
       <r>   49.4415    0.0000 </r>
      </set>
      <set comment="kpoint 33">
       <r>  -44.3482    1.0000 </r>
       <r>  -44.2685    1.0000 </r>
       <r>  -44.2364    1.0000 </r>
       <r>    3.2521    1.0000 </r>
       <r>    4.8241    1.0000 </r>
       <r>    5.1569    1.0000 </r>
       <r>    5.7252    1.0000 </r>
       <r>    6.9401    1.0000 </r>
       <r>    8.9334    0.0000 </r>
       <r>   14.9065    0.0000 </r>
       <r>   20.2466    0.0000 </r>
       <r>   23.3986    0.0000 </r>
       <r>   25.5757    0.0000 </r>
       <r>   29.7500    0.0000 </r>
       <r>   32.4689    0.0000 </r>
       <r>   34.8556    0.0000 </r>
       <r>   35.4681    0.0000 </r>
       <r>   38.4286    0.0000 </r>
       <r>   40.4389    0.0000 </r>
       <r>   42.1179    0.0000 </r>
       <r>   46.4775    0.0000 </r>
       <r>   47.7433    0.0000 </r>
       <r>   48.7001    0.0000 </r>
       <r>   49.1745    0.0000 </r>
      </set>
      <set comment="kpoint 34">
       <r>  -44.3448    1.0000 </r>
       <r>  -44.2388    1.0000 </r>
       <r>  -44.2299    1.0000 </r>
       <r>    2.5664    1.0000 </r>
       <r>    5.1448    1.0000 </r>
       <r>    5.3565    1.0000 </r>
       <r>    5.4400    1.0000 </r>
       <r>    7.0511    1.0000 </r>
       <r>    7.6438    0.1213 </r>
       <r>   15.6142    0.0000 </r>
       <r>   22.7441    0.0000 </r>
       <r>   24.1391    0.0000 </r>
       <r>   26.1273    0.0000 </r>
       <r>   30.1087    0.0000 </r>
       <r>   31.2297    0.0000 </r>
       <r>   32.4423    0.0000 </r>
       <r>   35.2410    0.0000 </r>
       <r>   38.5335    0.0000 </r>
       <r>   40.8421    0.0000 </r>
       <r>   42.5229    0.0000 </r>
       <r>   44.9105    0.0000 </r>
       <r>   47.3176    0.0000 </r>
       <r>   48.2828    0.0000 </r>
       <r>   49.2078    0.0000 </r>
      </set>
      <set comment="kpoint 35">
       <r>  -44.3641    1.0000 </r>
       <r>  -44.2730    1.0000 </r>
       <r>  -44.2711    1.0000 </r>
       <r>    3.0054    1.0000 </r>
       <r>    3.3455    1.0000 </r>
       <r>    7.3456    1.0000 </r>
       <r>    7.4161    1.0000 </r>
       <r>    7.7051    0.0019 </r>
       <r>    8.8553    0.0000 </r>
       <r>   15.7220    0.0000 </r>
       <r>   18.4268    0.0000 </r>
       <r>   18.7061    0.0000 </r>
       <r>   24.7818    0.0000 </r>
       <r>   26.9740    0.0000 </r>
       <r>   34.5187    0.0000 </r>
       <r>   37.7061    0.0000 </r>
       <r>   38.3274    0.0000 </r>
       <r>   39.6724    0.0000 </r>
       <r>   41.2702    0.0000 </r>
       <r>   44.9104    0.0000 </r>
       <r>   45.1076    0.0000 </r>
       <r>   46.0484    0.0000 </r>
       <r>   46.1325    0.0000 </r>
       <r>   49.2096    0.0000 </r>
      </set>
      <set comment="kpoint 36">
       <r>  -44.3663    1.0000 </r>
       <r>  -44.2821    1.0000 </r>
       <r>  -44.2735    1.0000 </r>
       <r>    3.0917    1.0000 </r>
       <r>    3.3859    1.0000 </r>
       <r>    7.0019    1.0000 </r>
       <r>    7.3734    1.0000 </r>
       <r>    7.8337    0.0000 </r>
       <r>   10.6808    0.0000 </r>
       <r>   14.0041    0.0000 </r>
       <r>   17.5211    0.0000 </r>
       <r>   18.3620    0.0000 </r>
       <r>   25.6176    0.0000 </r>
       <r>   27.4465    0.0000 </r>
       <r>   33.8846    0.0000 </r>
       <r>   37.6617    0.0000 </r>
       <r>   39.8915    0.0000 </r>
       <r>   40.0753    0.0000 </r>
       <r>   41.8876    0.0000 </r>
       <r>   43.7722    0.0000 </r>
       <r>   44.7684    0.0000 </r>
       <r>   45.0735    0.0000 </r>
       <r>   45.8420    0.0000 </r>
       <r>   49.2146    0.0000 </r>
      </set>
      <set comment="kpoint 37">
       <r>  -44.3538    1.0000 </r>
       <r>  -44.2995    1.0000 </r>
       <r>  -44.2676    1.0000 </r>
       <r>    3.3729    1.0000 </r>
       <r>    3.7839    1.0000 </r>
       <r>    6.1001    1.0000 </r>
       <r>    6.9500    1.0000 </r>
       <r>    7.6708    0.0268 </r>
       <r>   12.0516    0.0000 </r>
       <r>   13.2914    0.0000 </r>
       <r>   16.3918    0.0000 </r>
       <r>   19.4263    0.0000 </r>
       <r>   25.7426    0.0000 </r>
       <r>   29.4182    0.0000 </r>
       <r>   33.0423    0.0000 </r>
       <r>   35.6917    0.0000 </r>
       <r>   38.9874    0.0000 </r>
       <r>   40.4440    0.0000 </r>
       <r>   42.0582    0.0000 </r>
       <r>   43.0680    0.0000 </r>
       <r>   44.2981    0.0000 </r>
       <r>   46.6072    0.0000 </r>
       <r>   48.5140    0.0000 </r>
       <r>   49.2096    0.0000 </r>
      </set>
      <set comment="kpoint 38">
       <r>  -44.3489    1.0000 </r>
       <r>  -44.2992    1.0000 </r>
       <r>  -44.2561    1.0000 </r>
       <r>    3.6249    1.0000 </r>
       <r>    4.3564    1.0000 </r>
       <r>    5.3120    1.0000 </r>
       <r>    6.2990    1.0000 </r>
       <r>    7.4978    0.9985 </r>
       <r>   11.8122    0.0000 </r>
       <r>   12.4756    0.0000 </r>
       <r>   17.8118    0.0000 </r>
       <r>   21.1206    0.0000 </r>
       <r>   25.0174    0.0000 </r>
       <r>   31.7649    0.0000 </r>
       <r>   32.6803    0.0000 </r>
       <r>   33.8395    0.0000 </r>
       <r>   37.8918    0.0000 </r>
       <r>   39.4114    0.0000 </r>
       <r>   41.3651    0.0000 </r>
       <r>   43.0473    0.0000 </r>
       <r>   45.0936    0.0000 </r>
       <r>   47.0296    0.0000 </r>
       <r>   49.2056    0.0000 </r>
       <r>   49.5267    0.0000 </r>
      </set>
      <set comment="kpoint 39">
       <r>  -44.3647    1.0000 </r>
       <r>  -44.2693    1.0000 </r>
       <r>  -44.2441    1.0000 </r>
       <r>    3.2640    1.0000 </r>
       <r>    4.6847    1.0000 </r>
       <r>    5.6501    1.0000 </r>
       <r>    5.7303    1.0000 </r>
       <r>    7.4477    1.0000 </r>
       <r>   10.5999    0.0000 </r>
       <r>   11.9422    0.0000 </r>
       <r>   20.5694    0.0000 </r>
       <r>   22.5441    0.0000 </r>
       <r>   24.3364    0.0000 </r>
       <r>   31.4074    0.0000 </r>
       <r>   32.7223    0.0000 </r>
       <r>   34.7664    0.0000 </r>
       <r>   37.4106    0.0000 </r>
       <r>   37.7700    0.0000 </r>
       <r>   40.1960    0.0000 </r>
       <r>   43.5296    0.0000 </r>
       <r>   44.3225    0.0000 </r>
       <r>   47.9998    0.0000 </r>
       <r>   49.1923    0.0000 </r>
       <r>   49.2073    0.0000 </r>
      </set>
      <set comment="kpoint 40">
       <r>  -44.3737    1.0000 </r>
       <r>  -44.2428    1.0000 </r>
       <r>  -44.2362    1.0000 </r>
       <r>    2.7348    1.0000 </r>
       <r>    5.0051    1.0000 </r>
       <r>    5.2518    1.0000 </r>
       <r>    6.5007    1.0000 </r>
       <r>    7.5224    0.9883 </r>
       <r>    8.7616    0.0000 </r>
       <r>   12.4343    0.0000 </r>
       <r>   22.2616    0.0000 </r>
       <r>   23.6078    0.0000 </r>
       <r>   24.6116    0.0000 </r>
       <r>   31.5179    0.0000 </r>
       <r>   32.0517    0.0000 </r>
       <r>   33.3908    0.0000 </r>
       <r>   36.7049    0.0000 </r>
       <r>   38.8078    0.0000 </r>
       <r>   39.7589    0.0000 </r>
       <r>   43.9516    0.0000 </r>
       <r>   46.0377    0.0000 </r>
       <r>   47.1071    0.0000 </r>
       <r>   47.9871    0.0000 </r>
       <r>   49.0479    0.0000 </r>
      </set>
      <set comment="kpoint 41">
       <r>  -44.3710    1.0000 </r>
       <r>  -44.2767    1.0000 </r>
       <r>  -44.2743    1.0000 </r>
       <r>    2.9550    1.0000 </r>
       <r>    3.2690    1.0000 </r>
       <r>    7.5260    0.9848 </r>
       <r>    7.6323    0.2000 </r>
       <r>    7.8451    0.0000 </r>
       <r>    9.9303    0.0000 </r>
       <r>   14.2209    0.0000 </r>
       <r>   17.9640    0.0000 </r>
       <r>   18.2764    0.0000 </r>
       <r>   24.9177    0.0000 </r>
       <r>   27.1502    0.0000 </r>
       <r>   34.2894    0.0000 </r>
       <r>   38.5597    0.0000 </r>
       <r>   39.9944    0.0000 </r>
       <r>   40.0319    0.0000 </r>
       <r>   42.2533    0.0000 </r>
       <r>   43.7158    0.0000 </r>
       <r>   44.1624    0.0000 </r>
       <r>   45.1142    0.0000 </r>
       <r>   45.6468    0.0000 </r>
       <r>   49.2102    0.0000 </r>
      </set>
      <set comment="kpoint 42">
       <r>  -44.3609    1.0000 </r>
       <r>  -44.2785    1.0000 </r>
       <r>  -44.2702    1.0000 </r>
       <r>    3.1453    1.0000 </r>
       <r>    3.4589    1.0000 </r>
       <r>    6.6540    1.0000 </r>
       <r>    7.3037    1.0000 </r>
       <r>    7.6967    0.0039 </r>
       <r>    9.5882    0.0000 </r>
       <r>   15.3955    0.0000 </r>
       <r>   18.0588    0.0000 </r>
       <r>   18.7898    0.0000 </r>
       <r>   25.4951    0.0000 </r>
       <r>   27.3121    0.0000 </r>
       <r>   33.9542    0.0000 </r>
       <r>   37.0771    0.0000 </r>
       <r>   38.4588    0.0000 </r>
       <r>   40.1077    0.0000 </r>
       <r>   41.0854    0.0000 </r>
       <r>   43.6249    0.0000 </r>
       <r>   45.2647    0.0000 </r>
       <r>   46.1975    0.0000 </r>
       <r>   47.1665    0.0000 </r>
       <r>   49.2080    0.0000 </r>
      </set>
      <set comment="kpoint 43">
       <r>  -44.3498    1.0000 </r>
       <r>  -44.2800    1.0000 </r>
       <r>  -44.2587    1.0000 </r>
       <r>    3.4224    1.0000 </r>
       <r>    4.0241    1.0000 </r>
       <r>    5.4217    1.0000 </r>
       <r>    6.5127    1.0000 </r>
       <r>    7.6358    0.1736 </r>
       <r>    9.5437    0.0000 </r>
       <r>   15.0194    0.0000 </r>
       <r>   19.2248    0.0000 </r>
       <r>   20.3753    0.0000 </r>
       <r>   25.2409    0.0000 </r>
       <r>   29.3949    0.0000 </r>
       <r>   32.8392    0.0000 </r>
       <r>   34.7670    0.0000 </r>
       <r>   37.6199    0.0000 </r>
       <r>   39.7304    0.0000 </r>
       <r>   40.8412    0.0000 </r>
       <r>   42.7140    0.0000 </r>
       <r>   45.4674    0.0000 </r>
       <r>   47.6411    0.0000 </r>
       <r>   49.2052    0.0000 </r>
       <r>   49.7864    0.0000 </r>
      </set>
      <set comment="kpoint 44">
       <r>  -44.3584    1.0000 </r>
       <r>  -44.2623    1.0000 </r>
       <r>  -44.2457    1.0000 </r>
       <r>    3.2059    1.0000 </r>
       <r>    4.7243    1.0000 </r>
       <r>    5.2919    1.0000 </r>
       <r>    5.7549    1.0000 </r>
       <r>    7.5788    0.7491 </r>
       <r>    9.3138    0.0000 </r>
       <r>   13.6045    0.0000 </r>
       <r>   21.5489    0.0000 </r>
       <r>   21.9777    0.0000 </r>
       <r>   24.4275    0.0000 </r>
       <r>   31.4651    0.0000 </r>
       <r>   33.0745    0.0000 </r>
       <r>   33.3199    0.0000 </r>
       <r>   35.1664    0.0000 </r>
       <r>   40.6689    0.0000 </r>
       <r>   41.0628    0.0000 </r>
       <r>   41.4935    0.0000 </r>
       <r>   45.6924    0.0000 </r>
       <r>   47.0345    0.0000 </r>
       <r>   49.2061    0.0000 </r>
       <r>   49.5912    0.0000 </r>
      </set>
      <set comment="kpoint 45">
       <r>  -44.3499    1.0000 </r>
       <r>  -44.2669    1.0000 </r>
       <r>  -44.2647    1.0000 </r>
       <r>    3.0548    1.0000 </r>
       <r>    3.4937    1.0000 </r>
       <r>    6.7488    1.0000 </r>
       <r>    7.1586    1.0000 </r>
       <r>    7.5198    0.9903 </r>
       <r>    7.8043    0.0000 </r>
       <r>   17.6962    0.0000 </r>
       <r>   19.3304    0.0000 </r>
       <r>   19.5077    0.0000 </r>
       <r>   24.5764    0.0000 </r>
       <r>   26.6294    0.0000 </r>
       <r>   34.8194    0.0000 </r>
       <r>   36.1159    0.0000 </r>
       <r>   36.7748    0.0000 </r>
       <r>   39.7360    0.0000 </r>
       <r>   40.1925    0.0000 </r>
       <r>   44.7954    0.0000 </r>
       <r>   44.8412    0.0000 </r>
       <r>   47.8403    0.0000 </r>
       <r>   48.4999    0.0000 </r>
       <r>   48.9916    0.0000 </r>
      </set>
      <set comment="kpoint 46">
       <r>  -44.3328    1.0000 </r>
       <r>  -44.2616    1.0000 </r>
       <r>  -44.2541    1.0000 </r>
       <r>    3.1143    1.0000 </r>
       <r>    3.7991    1.0000 </r>
       <r>    5.5861    1.0000 </r>
       <r>    6.6883    1.0000 </r>
       <r>    7.1766    1.0000 </r>
       <r>    7.7795    0.0000 </r>
       <r>   18.4339    0.0000 </r>
       <r>   20.2981    0.0000 </r>
       <r>   21.1418    0.0000 </r>
       <r>   25.2529    0.0000 </r>
       <r>   26.7371    0.0000 </r>
       <r>   33.2827    0.0000 </r>
       <r>   34.6455    0.0000 </r>
       <r>   37.2332    0.0000 </r>
       <r>   37.9479    0.0000 </r>
       <r>   40.7862    0.0000 </r>
       <r>   43.5832    0.0000 </r>
       <r>   45.1850    0.0000 </r>
       <r>   46.0662    0.0000 </r>
       <r>   49.2100    0.0000 </r>
       <r>   50.5973    0.0000 </r>
      </set>
      <set comment="kpoint 47">
       <r>  -44.3305    1.0000 </r>
       <r>  -44.2518    1.0000 </r>
       <r>  -44.2404    1.0000 </r>
       <r>    2.9242    1.0000 </r>
       <r>    4.4289    1.0000 </r>
       <r>    5.0667    1.0000 </r>
       <r>    5.9051    1.0000 </r>
       <r>    7.1476    1.0000 </r>
       <r>    7.7831    0.0000 </r>
       <r>   17.0817    0.0000 </r>
       <r>   22.0183    0.0000 </r>
       <r>   22.9940    0.0000 </r>
       <r>   25.1468    0.0000 </r>
       <r>   29.4258    0.0000 </r>
       <r>   31.7465    0.0000 </r>
       <r>   33.1472    0.0000 </r>
       <r>   35.0922    0.0000 </r>
       <r>   39.5130    0.0000 </r>
       <r>   40.5394    0.0000 </r>
       <r>   43.0037    0.0000 </r>
       <r>   43.9037    0.0000 </r>
       <r>   46.3974    0.0000 </r>
       <r>   49.2068    0.0000 </r>
       <r>   49.8841    0.0000 </r>
      </set>
      <set comment="kpoint 48">
       <r>  -44.3069    1.0000 </r>
       <r>  -44.2472    1.0000 </r>
       <r>  -44.2464    1.0000 </r>
       <r>    2.5644    1.0000 </r>
       <r>    3.9635    1.0000 </r>
       <r>    5.6255    1.0000 </r>
       <r>    6.3807    1.0000 </r>
       <r>    6.5742    1.0000 </r>
       <r>    7.1535    1.0000 </r>
       <r>   21.0326    0.0000 </r>
       <r>   21.8700    0.0000 </r>
       <r>   22.9044    0.0000 </r>
       <r>   24.4453    0.0000 </r>
       <r>   25.5722    0.0000 </r>
       <r>   33.1697    0.0000 </r>
       <r>   33.2658    0.0000 </r>
       <r>   37.0900    0.0000 </r>
       <r>   37.2691    0.0000 </r>
       <r>   40.6487    0.0000 </r>
       <r>   43.2438    0.0000 </r>
       <r>   43.3914    0.0000 </r>
       <r>   44.6425    0.0000 </r>
       <r>   49.2120    0.0000 </r>
       <r>   52.5427    0.0000 </r>
      </set>
      <set comment="kpoint 49">
       <r>  -44.2904    1.0000 </r>
       <r>  -44.2398    1.0000 </r>
       <r>  -44.2317    1.0000 </r>
       <r>    2.0578    1.0000 </r>
       <r>    4.3049    1.0000 </r>
       <r>    5.4230    1.0000 </r>
       <r>    5.9602    1.0000 </r>
       <r>    6.3243    1.0000 </r>
       <r>    7.0908    1.0000 </r>
       <r>   20.8096    0.0000 </r>
       <r>   22.6606    0.0000 </r>
       <r>   24.5583    0.0000 </r>
       <r>   25.4324    0.0000 </r>
       <r>   27.2035    0.0000 </r>
       <r>   31.4957    0.0000 </r>
       <r>   32.5861    0.0000 </r>
       <r>   35.4399    0.0000 </r>
       <r>   38.6814    0.0000 </r>
       <r>   39.8575    0.0000 </r>
       <r>   40.4832    0.0000 </r>
       <r>   43.1715    0.0000 </r>
       <r>   45.5232    0.0000 </r>
       <r>   49.2132    0.0000 </r>
       <r>   51.5629    0.0000 </r>
      </set>
      <set comment="kpoint 50">
       <r>  -44.2573    1.0000 </r>
       <r>  -44.2260    1.0000 </r>
       <r>  -44.2257    1.0000 </r>
       <r>    1.2135    1.0000 </r>
       <r>    4.5386    1.0000 </r>
       <r>    5.6257    1.0000 </r>
       <r>    5.6698    1.0000 </r>
       <r>    6.0087    1.0000 </r>
       <r>    6.8045    1.0000 </r>
       <r>   23.0767    0.0000 </r>
       <r>   23.9694    0.0000 </r>
       <r>   24.4963    0.0000 </r>
       <r>   25.3822    0.0000 </r>
       <r>   28.2279    0.0000 </r>
       <r>   31.7045    0.0000 </r>
       <r>   31.7976    0.0000 </r>
       <r>   35.3376    0.0000 </r>
       <r>   36.7193    0.0000 </r>
       <r>   39.5645    0.0000 </r>
       <r>   40.7993    0.0000 </r>
       <r>   41.1191    0.0000 </r>
       <r>   44.2601    0.0000 </r>
       <r>   49.2140    0.0000 </r>
       <r>   52.2315    0.0000 </r>
      </set>
      <set comment="kpoint 51">
       <r>  -44.2434    1.0000 </r>
       <r>  -44.2137    1.0000 </r>
       <r>  -44.2137    1.0000 </r>
       <r>    0.6228    1.0000 </r>
       <r>    4.9279    1.0000 </r>
       <r>    5.3156    1.0000 </r>
       <r>    5.3156    1.0000 </r>
       <r>    6.4730    1.0000 </r>
       <r>    6.4730    1.0000 </r>
       <r>   22.5062    0.0000 </r>
       <r>   23.5112    0.0000 </r>
       <r>   26.8062    0.0000 </r>
       <r>   26.8062    0.0000 </r>
       <r>   29.8058    0.0000 </r>
       <r>   31.8314    0.0000 </r>
       <r>   31.8314    0.0000 </r>
       <r>   34.6462    0.0000 </r>
       <r>   36.6647    0.0000 </r>
       <r>   36.6647    0.0000 </r>
       <r>   38.8302    0.0000 </r>
       <r>   43.4519    0.0000 </r>
       <r>   43.4519    0.0000 </r>
       <r>   49.2037    0.0000 </r>
       <r>   49.8498    0.0000 </r>
      </set>
      <set comment="kpoint 52">
       <r>  -44.2653    1.0000 </r>
       <r>  -44.2273    1.0000 </r>
       <r>  -44.2148    1.0000 </r>
       <r>    1.1945    1.0000 </r>
       <r>    4.7400    1.0000 </r>
       <r>    5.4257    1.0000 </r>
       <r>    5.5013    1.0000 </r>
       <r>    6.1931    1.0000 </r>
       <r>    6.8073    1.0000 </r>
       <r>   21.5736    0.0000 </r>
       <r>   23.1379    0.0000 </r>
       <r>   25.6123    0.0000 </r>
       <r>   27.6069    0.0000 </r>
       <r>   28.6164    0.0000 </r>
       <r>   31.4227    0.0000 </r>
       <r>   32.4820    0.0000 </r>
       <r>   33.9823    0.0000 </r>
       <r>   36.1193    0.0000 </r>
       <r>   38.0113    0.0000 </r>
       <r>   41.0368    0.0000 </r>
       <r>   42.4437    0.0000 </r>
[...]
       </set>
       <set comment="band 3">
        <r>  0.0000  0.4964  0.0000  0.4964  0.0000  0.0000  0.0000  0.0000  0.0000 </r>
       </set>
       <set comment="band 4">
        <r>  0.1223  0.0000  0.0042  0.0000  0.1735  0.1342  0.0044  0.1342  0.0000 </r>
       </set>
       <set comment="band 5">
        <r>  0.0001  0.0005  0.0000  0.0005  0.1362  0.0729  0.5139  0.0729  0.0000 </r>
       </set>
       <set comment="band 6">
        <r>  0.0000  0.0004  0.0000  0.0004  0.0000  0.1809  0.0000  0.1809  0.4596 </r>
       </set>
       <set comment="band 7">
        <r>  0.0279  0.0134  0.0132  0.0134  0.3972  0.0084  0.1152  0.0084  0.0000 </r>
       </set>
       <set comment="band 8">
        <r>  0.0000  0.0000  0.0000  0.0000  0.0000  0.2614  0.0000  0.2614  0.4060 </r>
       </set>
       <set comment="band 9">
        <r>  0.0539  0.0111  0.0202  0.0111  0.0433  0.1605  0.2003  0.1605  0.0000 </r>
       </set>
       <set comment="band 10">
        <r>  0.2372  0.0208  0.0145  0.0208  0.1094  0.0710  0.0050  0.0710  0.0000 </r>
       </set>
       <set comment="band 11">
        <r>  0.0010  0.0003  0.0153  0.0003  0.0123  0.0007  0.0308  0.0007  0.0000 </r>
       </set>
       <set comment="band 12">
        <r>  0.0000  0.1062  0.0000  0.1062  0.0000  0.0121  0.0000  0.0121  0.0157 </r>
       </set>
       <set comment="band 13">
        <r>  0.0313  0.0318  0.1228  0.0318  0.0358  0.0066  0.0192  0.0066  0.0000 </r>
       </set>
       <set comment="band 14">
        <r>  0.0000  0.0001  0.0000  0.0001  0.0000  0.0252  0.0000  0.0252  0.1408 </r>
       </set>
       <set comment="band 15">
        <r>  0.0046  0.0017  0.0017  0.0017  0.0686  0.0064  0.1781  0.0064  0.0000 </r>
       </set>
       <set comment="band 16">
        <r>  0.0799  0.0288  0.0055  0.0288  0.0376  0.0318  0.0007  0.0318  0.0000 </r>
       </set>
       <set comment="band 17">
        <r>  0.0844  0.0301  0.0550  0.0301  0.0164  0.0209  0.0009  0.0209  0.0000 </r>
       </set>
       <set comment="band 18">
        <r>  0.0000  0.1222  0.0000  0.1222  0.0000  0.0197  0.0000  0.0197  0.0489 </r>
       </set>
       <set comment="band 19">
        <r>  0.0388  0.0011  0.0995  0.0011  0.0109  0.0222  0.0018  0.0222  0.0000 </r>
       </set>
       <set comment="band 20">
        <r>  0.0000  0.0302  0.0000  0.0302  0.0000  0.0308  0.0000  0.0308  0.0002 </r>
       </set>
       <set comment="band 21">
        <r>  0.0555  0.0162  0.0071  0.0162  0.0987  0.0011  0.0216  0.0011  0.0000 </r>
       </set>
       <set comment="band 22">
        <r>  0.0189  0.0000  0.0613  0.0000  0.0399  0.0096  0.0096  0.0096  0.0000 </r>
       </set>
       <set comment="band 23">
        <r>  0.0526  0.0002  0.0039  0.0002  0.0055  0.0000  0.0019  0.0000  0.0000 </r>
       </set>
       <set comment="band 24">
        <r>  6.2867  0.0000  0.0000  0.0000  0.0000  0.0000  0.0000  0.0000  0.0000 </r>
       </set>
      </set>
      <set comment="kpoint 106">
       <set comment="band 1">
        <r>  0.0000  0.2979  0.4073  0.2825  0.0000  0.0000  0.0000  0.0000  0.0000 </r>
       </set>
       <set comment="band 2">
        <r>  0.0000  0.0044  0.3624  0.6250  0.0000  0.0000  0.0000  0.0000  0.0000 </r>
       </set>
       <set comment="band 3">
        <r>  0.0000  0.6889  0.2206  0.0831  0.0000  0.0000  0.0000  0.0000  0.0000 </r>
       </set>
       <set comment="band 4">
        <r>  0.0916  0.0003  0.0048  0.0018  0.2092  0.1877  0.0063  0.1040  0.0010 </r>
       </set>
       <set comment="band 5">
        <r>  0.0000  0.0029  0.0000  0.0001  0.0726  0.1354  0.4312  0.0010  0.1181 </r>
       </set>
       <set comment="band 6">
        <r>  0.0045  0.0050  0.0035  0.0096  0.1082  0.1552  0.2029  0.1271  0.1117 </r>
       </set>
       <set comment="band 7">
        <r>  0.0051  0.0055  0.0093  0.0027  0.2530  0.0205  0.0031  0.1193  0.3194 </r>
       </set>
       <set comment="band 8">
        <r>  0.0004  0.0001  0.0006  0.0002  0.0747  0.0893  0.0622  0.4351  0.2532 </r>
       </set>
       <set comment="band 9">
        <r>  0.0976  0.0149  0.0279  0.0125  0.0058  0.2633  0.1086  0.0298  0.0367 </r>
       </set>
       <set comment="band 10">
        <r>  0.2389  0.0155  0.0110  0.0258  0.1293  0.0280  0.0125  0.0745  0.0176 </r>
       </set>
       <set comment="band 11">
        <r>  0.0405  0.0148  0.0293  0.1169  0.0420  0.0001  0.0012  0.0316  0.0384 </r>
       </set>
       <set comment="band 12">
        <r>  0.0144  0.0183  0.0724  0.0003  0.0017  0.0273  0.0876  0.0028  0.0022 </r>
       </set>
       <set comment="band 13">
        <r>  0.0017  0.1115  0.0238  0.0070  0.0122  0.0001  0.0038  0.0000  0.0000 </r>
       </set>
       <set comment="band 14">
        <r>  0.0068  0.0029  0.0022  0.0062  0.0496  0.0450  0.0120  0.0085  0.0776 </r>
       </set>
       <set comment="band 15">
        <r>  0.0008  0.0018  0.0000  0.0020  0.0474  0.0107  0.0921  0.0062  0.0039 </r>
       </set>
       <set comment="band 16">
        <r>  0.1882  0.0031  0.0092  0.0008  0.0015  0.0224  0.0111  0.0303  0.0064 </r>
       </set>
       <set comment="band 17">
        <r>  0.0006  0.0739  0.0289  0.0319  0.0282  0.0049  0.0107  0.0193  0.0235 </r>
       </set>
       <set comment="band 18">
        <r>  0.0040  0.1113  0.0238  0.0568  0.0004  0.0108  0.0038  0.0197  0.0482 </r>
       </set>
       <set comment="band 19">
        <r>  0.0121  0.0179  0.0819  0.0299  0.0007  0.0539  0.0331  0.0000  0.0078 </r>
       </set>
       <set comment="band 20">
        <r>  0.0001  0.0005  0.0000  0.0168  0.0019  0.0316  0.0027  0.0070  0.0000 </r>
       </set>
       <set comment="band 21">
        <r>  0.0078  0.0000  0.0098  0.0091  0.0564  0.0000  0.0070  0.0000  0.0099 </r>
       </set>
       <set comment="band 22">
        <r>  0.0274  0.0086  0.0277  0.0116  0.0282  0.0012  0.0007  0.0217  0.0174 </r>
       </set>
       <set comment="band 23">
        <r>  0.0631  0.0003  0.0372  0.0255  0.0207  0.0398  0.0002  0.0144  0.0256 </r>
       </set>
       <set comment="band 24">
        <r>  6.2440  0.0000  0.0000  0.0005  0.0002  0.0003  0.0000  0.0003  0.0003 </r>
       </set>
      </set>
      <set comment="kpoint 107">
       <set comment="band 1">
        <r>  0.0000  0.2479  0.3564  0.3841  0.0000  0.0000  0.0000  0.0000  0.0000 </r>
       </set>
       <set comment="band 2">
        <r>  0.0000  0.0533  0.3574  0.5797  0.0000  0.0000  0.0000  0.0000  0.0000 </r>
       </set>
       <set comment="band 3">
        <r>  0.0000  0.6900  0.2764  0.0259  0.0000  0.0000  0.0000  0.0000  0.0000 </r>
       </set>
       <set comment="band 4">
        <r>  0.0497  0.0000  0.0046  0.0035  0.1008  0.3990  0.0131  0.0426  0.0489 </r>
       </set>
       <set comment="band 5">
        <r>  0.0026  0.0074  0.0028  0.0005  0.0933  0.0000  0.3602  0.0142  0.2100 </r>
       </set>
       <set comment="band 6">
        <r>  0.0001  0.0046  0.0063  0.0136  0.3742  0.2137  0.0207  0.0314  0.0188 </r>
       </set>
       <set comment="band 7">
        <r>  0.0011  0.0001  0.0020  0.0010  0.0070  0.0005  0.2829  0.1439  0.4004 </r>
       </set>
       <set comment="band 8">
        <r>  0.0033  0.0000  0.0000  0.0002  0.1420  0.0284  0.0610  0.5947  0.0841 </r>
       </set>
       <set comment="band 9">
        <r>  0.2825  0.0084  0.0220  0.0017  0.0082  0.1938  0.0361  0.0302  0.0008 </r>
       </set>
       <set comment="band 10">
        <r>  0.0880  0.0193  0.0217  0.0544  0.1291  0.0077  0.0417  0.0428  0.0668 </r>
       </set>
       <set comment="band 11">
        <r>  0.0774  0.0120  0.0355  0.0907  0.0514  0.0077  0.0071  0.0333  0.0718 </r>
       </set>
       <set comment="band 12">
        <r>  0.0094  0.0557  0.0784  0.0006  0.0027  0.0334  0.1209  0.0015  0.0054 </r>
       </set>
       <set comment="band 13">
        <r>  0.0041  0.0799  0.0055  0.0035  0.0029  0.0449  0.0000  0.0000  0.0146 </r>
       </set>
       <set comment="band 14">
        <r>  0.0014  0.0005  0.0013  0.0095  0.0673  0.0366  0.0049  0.0049  0.0257 </r>
       </set>
       <set comment="band 15">
        <r>  0.0815  0.0200  0.0048  0.0058  0.0269  0.0197  0.0101  0.0007  0.0148 </r>
       </set>
       <set comment="band 16">
        <r>  0.0711  0.0103  0.0038  0.0018  0.0020  0.0023  0.0107  0.0136  0.0320 </r>
       </set>
       <set comment="band 17">
        <r>  0.0532  0.1287  0.0014  0.0021  0.0032  0.0506  0.0341  0.0003  0.0150 </r>
       </set>
       <set comment="band 18">
        <r>  0.0007  0.0022  0.0348  0.0281  0.0046  0.0003  0.0009  0.0316  0.0406 </r>
       </set>
       <set comment="band 19">
        <r>  0.0109  0.0347  0.1076  0.0031  0.0000  0.0568  0.0882  0.0004  0.0005 </r>
       </set>
       <set comment="band 20">
        <r>  0.0033  0.0092  0.0007  0.0415  0.0321  0.0072  0.0013  0.0031  0.0218 </r>
       </set>
       <set comment="band 21">
        <r>  0.0000  0.0014  0.0001  0.0021  0.0018  0.0050  0.0001  0.0006  0.0007 </r>
       </set>
       <set comment="band 22">
        <r>  0.0054  0.0011  0.0297  0.0537  0.0208  0.0153  0.0005  0.0187  0.0135 </r>
       </set>
       <set comment="band 23">
        <r>  0.0545  0.0034  0.0291  0.0045  0.0045  0.0008  0.0147  0.0182  0.0246 </r>
       </set>
       <set comment="band 24">
        <r>  6.2517  0.0000  0.0002  0.0000  0.0000  0.0000  0.0001  0.0001  0.0001 </r>
       </set>
      </set>
      <set comment="kpoint 108">
       <set comment="band 1">
        <r>  0.0000  0.2835  0.4207  0.2835  0.0000  0.0000  0.0000  0.0000  0.0000 </r>
       </set>
       <set comment="band 2">
        <r>  0.0000  0.2111  0.5691  0.2111  0.0000  0.0000  0.0000  0.0000  0.0000 </r>
       </set>
       <set comment="band 3">
        <r>  0.0000  0.4963  0.0000  0.4963  0.0000  0.0000  0.0000  0.0000  0.0000 </r>
       </set>
       <set comment="band 4">
        <r>  0.0748  0.0008  0.0043  0.0008  0.3221  0.0986  0.0306  0.0986  0.0000 </r>
       </set>
       <set comment="band 5">
        <r>  0.0007  0.0036  0.0003  0.0036  0.0125  0.0651  0.5763  0.0651  0.0000 </r>
       </set>
       <set comment="band 6">
        <r>  0.0054  0.0077  0.0143  0.0077  0.3244  0.1249  0.0562  0.1249  0.0000 </r>
       </set>
       <set comment="band 7">
        <r>  0.0000  0.0008  0.0000  0.0008  0.0000  0.1413  0.0000  0.1413  0.5495 </r>
       </set>
       <set comment="band 8">
        <r>  0.0000  0.0000  0.0000  0.0000  0.0000  0.3083  0.0000  0.3083  0.3086 </r>
       </set>
       <set comment="band 9">
        <r>  0.0332  0.0237  0.0463  0.0237  0.0322  0.0868  0.1457  0.0868  0.0000 </r>
       </set>
       <set comment="band 10">
        <r>  0.3211  0.0098  0.0011  0.0098  0.1547  0.0623  0.0030  0.0623  0.0000 </r>
       </set>
       <set comment="band 11">
        <r>  0.0514  0.0179  0.0970  0.0179  0.0019  0.0307  0.0946  0.0307  0.0000 </r>
       </set>
       <set comment="band 12">
        <r>  0.0000  0.1022  0.0000  0.1022  0.0000  0.0037  0.0000  0.0037  0.0577 </r>
       </set>
       <set comment="band 13">
        <r>  0.0213  0.0159  0.0101  0.0159  0.0725  0.0002  0.0182  0.0002  0.0000 </r>
       </set>
       <set comment="band 14">
        <r>  0.0000  0.0002  0.0000  0.0002  0.0000  0.0387  0.0000  0.0387  0.0716 </r>
       </set>
       <set comment="band 15">
        <r>  0.0042  0.0018  0.0135  0.0018  0.0854  0.0009  0.0657  0.0009  0.0000 </r>
       </set>
       <set comment="band 16">
        <r>  0.1517  0.0179  0.0066  0.0179  0.0030  0.0111  0.0349  0.0111  0.0000 </r>
       </set>
       <set comment="band 17">
        <r>  0.0336  0.0402  0.0164  0.0402  0.0187  0.0224  0.0193  0.0224  0.0000 </r>
       </set>
       <set comment="band 18">
        <r>  0.0138  0.0070  0.0532  0.0070  0.0524  0.0129  0.0324  0.0129  0.0000 </r>
       </set>
       <set comment="band 19">
        <r>  0.0000  0.1344  0.0000  0.1344  0.0000  0.0000  0.0000  0.0000  0.0921 </r>
       </set>
       <set comment="band 20">
        <r>  0.0000  0.0010  0.0000  0.0010  0.0000  0.0176  0.0000  0.0176  0.0000 </r>
       </set>
       <set comment="band 21">
        <r>  0.0050  0.0024  0.0290  0.0024  0.0437  0.0021  0.0068  0.0021  0.0000 </r>
       </set>
       <set comment="band 22">
        <r>  0.0359  0.0059  0.0171  0.0059  0.0390  0.0166  0.0029  0.0166  0.0000 </r>
       </set>
       <set comment="band 23">
        <r>  6.2949  0.0000  0.0001  0.0000  0.0000  0.0000  0.0000  0.0000  0.0000 </r>
       </set>
       <set comment="band 24">
        <r>  0.0000  0.0238  0.0000  0.0238  0.0000  0.0172  0.0000  0.0172  0.0432 </r>
       </set>
      </set>
      <set comment="kpoint 109">
       <set comment="band 1">
        <r>  0.0000  0.3290  0.3290  0.3290  0.0000  0.0000  0.0000  0.0000  0.0000 </r>
       </set>
       <set comment="band 2">
        <r>  0.0000  0.1617  0.4246  0.4068  0.0000  0.0000  0.0000  0.0000  0.0000 </r>
       </set>
       <set comment="band 3">
        <r>  0.0000  0.5003  0.2375  0.2553  0.0000  0.0000  0.0000  0.0000  0.0000 </r>
       </set>
       <set comment="band 4">
        <r>  0.1208  0.0002  0.0002  0.0002  0.1542  0.1542  0.0000  0.1542  0.0000 </r>
       </set>
       <set comment="band 5">
        <r>  0.0000  0.0000  0.0000  0.0000  0.0000  0.1722  0.0000  0.1718  0.4718 </r>
       </set>
       <set comment="band 6">
        <r>  0.0000  0.0000  0.0000  0.0000  0.2293  0.0572  0.4718  0.0575  0.0000 </r>
       </set>
       <set comment="band 7">
        <r>  0.0000  0.0000  0.0000  0.0000  0.0000  0.2718  0.0000  0.2691  0.3851 </r>
       </set>
       <set comment="band 8">
        <r>  0.0000  0.0000  0.0001  0.0000  0.3606  0.0888  0.3851  0.0915  0.0000 </r>
       </set>
       <set comment="band 9">
        <r>  0.0406  0.0368  0.0368  0.0368  0.0289  0.0289  0.0000  0.0289  0.0000 </r>
       </set>
       <set comment="band 10">
        <r>  0.2870  0.0088  0.0088  0.0088  0.1133  0.1133  0.0000  0.1133  0.0000 </r>
       </set>
       <set comment="band 11">
        <r>  0.0000  0.0027  0.0027  0.0027  0.0006  0.0006  0.0000  0.0006  0.0000 </r>
       </set>
       <set comment="band 12">
        <r>  0.0000  0.0880  0.0516  0.0781  0.0012  0.0018  0.0000  0.0020  0.0001 </r>
       </set>
       <set comment="band 13">
        <r>  0.0000  0.0571  0.0935  0.0670  0.0022  0.0016  0.0001  0.0013  0.0000 </r>
       </set>
       <set comment="band 14">
        <r>  0.0000  0.0003  0.0000  0.0003  0.0000  0.0427  0.0002  0.0419  0.2151 </r>
       </set>
       <set comment="band 15">
        <r>  0.0000  0.0001  0.0004  0.0001  0.0564  0.0137  0.2151  0.0145  0.0002 </r>
       </set>
       <set comment="band 16">
        <r>  0.1498  0.0029  0.0029  0.0029  0.0579  0.0579  0.0000  0.0579  0.0000 </r>
       </set>
       <set comment="band 17">
        <r>  0.0000  0.0768  0.0337  0.1290  0.0027  0.0102  0.0009  0.0061  0.0032 </r>
       </set>
       <set comment="band 18">
        <r>  0.0000  0.0829  0.1260  0.0306  0.0100  0.0024  0.0032  0.0066  0.0009 </r>
       </set>
       <set comment="band 19">
        <r>  0.0505  0.0248  0.0248  0.0248  0.0108  0.0108  0.0000  0.0108  0.0000 </r>
       </set>
       <set comment="band 20">
        <r>  0.0000  0.0379  0.0020  0.0275  0.0028  0.0398  0.0000  0.0548  0.0002 </r>
       </set>
       <set comment="band 21">
        <r>  0.0000  0.0070  0.0430  0.0174  0.0621  0.0251  0.0002  0.0102  0.0000 </r>
       </set>
       <set comment="band 22">
        <r>  0.1937  0.0028  0.0028  0.0028  0.0051  0.0051  0.0000  0.0051  0.0000 </r>
       </set>
       <set comment="band 23">
        <r>  0.0000  0.0037  0.0050  0.0073  0.0450  0.0655  0.0090  0.0338  0.0102 </r>
       </set>
       <set comment="band 24">
        <r>  0.0000  0.0069  0.0057  0.0034  0.0512  0.0307  0.0102  0.0624  0.0090 </r>
       </set>
      </set>
      <set comment="kpoint 110">
       <set comment="band 1">
        <r>  0.0000  0.3294  0.3294  0.3285  0.0000  0.0000  0.0000  0.0000  0.0000 </r>
       </set>
       <set comment="band 2">
        <r>  0.0000  0.1651  0.1651  0.6623  0.0000  0.0000  0.0000  0.0000  0.0000 </r>
       </set>
       <set comment="band 3">
        <r>  0.0000  0.4965  0.4965  0.0000  0.0000  0.0000  0.0000  0.0000  0.0000 </r>
       </set>
       <set comment="band 4">
        <r>  0.1059  0.0006  0.0006  0.0012  0.1516  0.1871  0.0001  0.1516  0.0002 </r>
       </set>
       <set comment="band 5">
        <r>  0.0000  0.0005  0.0005  0.0001  0.0571  0.1826  0.1243  0.0571  0.3729 </r>
       </set>
       <set comment="band 6">
        <r>  0.0000  0.0002  0.0002  0.0000  0.1602  0.0000  0.3738  0.1602  0.1246 </r>
       </set>
       <set comment="band 7">
        <r>  0.0008  0.0142  0.0142  0.0141  0.0866  0.2305  0.0467  0.0866  0.1402 </r>
       </set>
       <set comment="band 8">
        <r>  0.0000  0.0000  0.0000  0.0000  0.2845  0.0000  0.2666  0.2845  0.0889 </r>
       </set>
       <set comment="band 9">
        <r>  0.0136  0.0297  0.0297  0.0293  0.0098  0.1790  0.0400  0.0098  0.1201 </r>
       </set>
       <set comment="band 10">
        <r>  0.3261  0.0012  0.0012  0.0052  0.1347  0.1013  0.0011  0.1347  0.0032 </r>
       </set>
       <set comment="band 11">
        <r>  0.0036  0.0007  0.0007  0.0371  0.0104  0.0048  0.0081  0.0104  0.0242 </r>
       </set>
       <set comment="band 12">
        <r>  0.0224  0.0353  0.0353  0.0947  0.0089  0.0092  0.0010  0.0089  0.0030 </r>
       </set>
       <set comment="band 13">
        <r>  0.0000  0.1069  0.1069  0.0000  0.0004  0.0000  0.0205  0.0004  0.0068 </r>
       </set>
       <set comment="band 14">
        <r>  0.0139  0.0000  0.0000  0.0043  0.0000  0.0903  0.0362  0.0000  0.1086 </r>
       </set>
       <set comment="band 15">
        <r>  0.0000  0.0002  0.0002  0.0000  0.0487  0.0000  0.1282  0.0487  0.0427 </r>
       </set>
       <set comment="band 16">
        <r>  0.1500  0.0002  0.0002  0.0043  0.0607  0.0167  0.0026  0.0607  0.0077 </r>
       </set>
       <set comment="band 17">
        <r>  0.0255  0.0435  0.0435  0.1118  0.0025  0.0001  0.0093  0.0025  0.0279 </r>
       </set>
       <set comment="band 18">
        <r>  0.0000  0.1239  0.1239  0.0000  0.0009  0.0000  0.0204  0.0009  0.0068 </r>
       </set>
       <set comment="band 19">
        <r>  0.0092  0.0278  0.0278  0.0333  0.0014  0.0373  0.0011  0.0014  0.0032 </r>
       </set>
       <set comment="band 20">
        <r>  0.0003  0.0023  0.0023  0.0140  0.0056  0.0619  0.0000  0.0056  0.0001 </r>
       </set>
       <set comment="band 21">
        <r>  0.0000  0.0040  0.0040  0.0000  0.0397  0.0000  0.0049  0.0397  0.0016 </r>
       </set>
       <set comment="band 22">
        <r>  0.1600  0.0050  0.0050  0.0169  0.0004  0.0359  0.0014  0.0004  0.0042 </r>
       </set>
       <set comment="band 23">
        <r>  0.0000  0.0329  0.0329  0.0000  0.0445  0.0000  0.0034  0.0445  0.0011 </r>
       </set>
       <set comment="band 24">
        <r>  0.0623  0.0037  0.0037  0.0939  0.0489  0.0374  0.0010  0.0489  0.0029 </r>
       </set>
      </set>
     </set>
    </set>
   </array>
  </projected>
 </calculation>
 <structure name="finalpos" >
  <crystal>
   <varray name="basis" >
    <v>       0.00000000       2.13715652       2.13715652 </v>
    <v>       2.13715652       0.00000000       2.13715652 </v>
    <v>       2.13715652       2.13715652       0.00000000 </v>
   </varray>
   <i name="volume">     19.52265976 </i>
   <varray name="rec_basis" >
    <v>      -0.23395572       0.23395572       0.23395572 </v>
    <v>       0.23395572      -0.23395572       0.23395572 </v>
    <v>       0.23395572       0.23395572      -0.23395572 </v>
   </varray>
  </crystal>
  <varray name="positions" >
   <v>       0.00000000       0.00000000       0.00000000 </v>
  </varray>
 </structure>
</modeling>
