   2   2   1   0
  0.9566424E+01  0.2392585E-09  0.2392585E-09  0.3859352E-09  0.5000000E-15
  1.000000000000000E-004
  CAR 
 Co-hcc                                  
     55.06099667     -0.00499708  301     12.17307354      1.00000000
     -0.005  0.0000E+00  0.0000E+00  0.0000E+00  0.0000E+00
      0.179  0.0000E+00  0.0000E+00  0.0000E+00  0.0000E+00
      0.362  0.0000E+00  0.0000E+00  0.0000E+00  0.0000E+00
      0.546  0.0000E+00  0.0000E+00  0.0000E+00  0.0000E+00
      0.729  0.0000E+00  0.0000E+00  0.0000E+00  0.0000E+00
      0.913  0.0000E+00  0.0000E+00  0.0000E+00  0.0000E+00
      1.096  0.0000E+00  0.0000E+00  0.0000E+00  0.0000E+00
      1.280  0.0000E+00  0.0000E+00  0.0000E+00  0.0000E+00
      1.463  0.0000E+00  0.0000E+00  0.0000E+00  0.0000E+00
      1.647  0.0000E+00  0.0000E+00  0.0000E+00  0.0000E+00
      1.831  0.0000E+00  0.0000E+00  0.0000E+00  0.0000E+00
      2.014  0.0000E+00  0.0000E+00  0.0000E+00  0.0000E+00
      2.198  0.0000E+00  0.0000E+00  0.0000E+00  0.0000E+00
      2.381  0.2256E-07  0.9971E-08  0.4140E-08  0.1830E-08
      2.565  0.4598E-04  0.4506E-04  0.8444E-05  0.8273E-05
      2.748  0.1828E-03  0.1586E-03  0.4200E-04  0.3738E-04
      2.932  0.4470E-03  0.4104E-03  0.1241E-03  0.1127E-03
      3.115  0.3201E-03  0.3803E-03  0.1828E-03  0.1825E-03
      3.299  0.2755E-03  0.2351E-03  0.2334E-03  0.2257E-03
      3.483  0.1096E-02  0.9945E-03  0.4347E-03  0.4082E-03
      3.666  0.5393E-03  0.6127E-03  0.5336E-03  0.5207E-03
      3.850  0.4579E-03  0.5221E-03  0.6177E-03  0.6165E-03
      4.033  0.6488E-03  0.6348E-03  0.7368E-03  0.7330E-03
      4.217  0.9010E-03  0.5711E-03  0.9022E-03  0.8379E-03
      4.400  0.1385E-02  0.1314E-02  0.1156E-02  0.1079E-02
      4.584  0.5612E-03  0.9788E-03  0.1259E-02  0.1259E-02
      4.767  0.9992E-03  0.7400E-03  0.1443E-02  0.1395E-02
      4.951  0.2170E-02  0.2130E-02  0.1841E-02  0.1786E-02
      5.134  0.2444E-03  0.3458E-03  0.1886E-02  0.1849E-02
      5.318  0.1021E-02  0.1023E-02  0.2073E-02  0.2037E-02
      5.502  0.2207E-02  0.5107E-03  0.2479E-02  0.2131E-02
      5.685  0.2036E-02  0.2708E-02  0.2852E-02  0.2628E-02
      5.869  0.2783E-02  0.1494E-02  0.3363E-02  0.2902E-02
      6.052  0.1622E-02  0.2133E-02  0.3661E-02  0.3293E-02
      6.236  0.2323E-02  0.1286E-02  0.4087E-02  0.3529E-02
      6.419  0.4352E-02  0.1301E-02  0.4886E-02  0.3768E-02
      6.603  0.1191E-01  0.2641E-02  0.7073E-02  0.4253E-02
      6.786  0.8123E-02  0.2314E-02  0.8564E-02  0.4678E-02
      6.970  0.1219E-01  0.3597E-02  0.1080E-01  0.5338E-02
      7.154  0.1135E-01  0.3994E-02  0.1289E-01  0.6071E-02
      7.337  0.2013E-01  0.6018E-02  0.1658E-01  0.7176E-02
      7.521  0.1330E-01  0.6877E-02  0.1902E-01  0.8438E-02
      7.704  0.1270E-01  0.5883E-02  0.2135E-01  0.9518E-02
      7.888  0.1508E-01  0.1172E-01  0.2412E-01  0.1167E-01
      8.071  0.1355E-01  0.9399E-02  0.2661E-01  0.1339E-01
      8.255  0.1820E-01  0.8091E-02  0.2995E-01  0.1488E-01
      8.438  0.1708E-01  0.1619E-01  0.3308E-01  0.1785E-01
      8.622  0.1922E-01  0.1185E-01  0.3661E-01  0.2003E-01
      8.806  0.7746E-02  0.1066E-01  0.3803E-01  0.2198E-01
      8.989  0.1171E-01  0.1106E-01  0.4018E-01  0.2401E-01
      9.173  0.2458E-01  0.1231E-01  0.4469E-01  0.2627E-01
      9.356  0.2358E-01  0.1534E-01  0.4902E-01  0.2909E-01
      9.540  0.2096E-01  0.1424E-01  0.5287E-01  0.3170E-01
      9.723  0.2579E-01  0.2003E-01  0.5760E-01  0.3538E-01
      9.907  0.2608E-01  0.1024E-01  0.6239E-01  0.3726E-01
     10.090  0.2288E-01  0.6662E-02  0.6659E-01  0.3848E-01
     10.274  0.1962E-01  0.8367E-02  0.7019E-01  0.4002E-01
     10.458  0.1416E-01  0.1789E-01  0.7279E-01  0.4330E-01
     10.641  0.1659E-01  0.1970E-01  0.7584E-01  0.4692E-01
     10.825  0.1565E-01  0.1902E-01  0.7871E-01  0.5041E-01
     11.008  0.1142E-01  0.2236E-01  0.8081E-01  0.5451E-01
     11.192  0.1668E-01  0.2348E-01  0.8387E-01  0.5882E-01
     11.375  0.2094E-01  0.2546E-01  0.8771E-01  0.6349E-01
     11.559  0.2681E-01  0.2173E-01  0.9263E-01  0.6748E-01
     11.742  0.3720E-01  0.1295E-01  0.9946E-01  0.6986E-01
     11.926  0.2622E-01  0.1505E-01  0.1043E+00  0.7262E-01
     12.110  0.1894E-02  0.1061E-01  0.1046E+00  0.7457E-01
     12.293  0.3475E-02  0.1374E-01  0.1053E+00  0.7709E-01
     12.477  0.5879E-02  0.1241E-01  0.1063E+00  0.7937E-01
     12.660  0.2813E-02  0.1052E-01  0.1069E+00  0.8130E-01
     12.844  0.2297E-02  0.1268E-01  0.1073E+00  0.8363E-01
     13.027  0.1520E-02  0.2019E-01  0.1076E+00  0.8733E-01
     13.211  0.6049E-03  0.2020E-01  0.1077E+00  0.9104E-01
     13.394  0.2566E-02  0.2768E-01  0.1081E+00  0.9612E-01
     13.578  0.3263E-02  0.3793E-01  0.1087E+00  0.1031E+00
     13.762  0.6065E-02  0.1120E-01  0.1099E+00  0.1051E+00
     13.945  0.2448E-02  0.7468E-02  0.1103E+00  0.1065E+00
     14.129  0.2388E-02  0.3155E-02  0.1107E+00  0.1071E+00
     14.312  0.1150E-02  0.2831E-02  0.1109E+00  0.1076E+00
     14.496  0.2734E-02  0.2543E-02  0.1115E+00  0.1081E+00
     14.679  0.1822E-02  0.4069E-02  0.1118E+00  0.1088E+00
     14.863  0.1413E-02  0.2787E-02  0.1120E+00  0.1093E+00
     15.046  0.2259E-02  0.3860E-02  0.1125E+00  0.1100E+00
     15.230  0.2850E-02  0.4315E-02  0.1130E+00  0.1108E+00
     15.413  0.1408E-02  0.1770E-02  0.1132E+00  0.1112E+00
     15.597  0.3480E-02  0.3588E-02  0.1139E+00  0.1118E+00
     15.781  0.7592E-03  0.1614E-02  0.1140E+00  0.1121E+00
     15.964  0.1590E-02  0.1169E-02  0.1143E+00  0.1123E+00
     16.148  0.2172E-02  0.3949E-02  0.1147E+00  0.1131E+00
     16.331  0.3816E-02  0.1569E-02  0.1154E+00  0.1133E+00
     16.515  0.2880E-02  0.2429E-02  0.1159E+00  0.1138E+00
     16.698  0.7146E-03  0.1836E-02  0.1161E+00  0.1141E+00
     16.882  0.2362E-02  0.2193E-02  0.1165E+00  0.1145E+00
     17.065  0.2744E-02  0.3694E-02  0.1170E+00  0.1152E+00
     17.249  0.6163E-03  0.3126E-02  0.1171E+00  0.1158E+00
     17.433  0.1285E-02  0.1125E-02  0.1174E+00  0.1160E+00
     17.616  0.1257E-02  0.9890E-03  0.1176E+00  0.1162E+00
     17.800  0.1161E-02  0.3069E-02  0.1178E+00  0.1167E+00
     17.983  0.6244E-03  0.2479E-02  0.1179E+00  0.1172E+00
     18.167  0.1515E-02  0.1104E-02  0.1182E+00  0.1174E+00
     18.350  0.4318E-02  0.1289E-02  0.1190E+00  0.1176E+00
     18.534  0.2419E-02  0.1339E-02  0.1194E+00  0.1179E+00
     18.717  0.8038E-03  0.2752E-03  0.1196E+00  0.1179E+00
     18.901  0.5084E-03  0.2293E-02  0.1197E+00  0.1183E+00
     19.085  0.1630E-06  0.4381E-02  0.1197E+00  0.1191E+00
     19.268  0.1876E-03  0.2060E-02  0.1197E+00  0.1195E+00
     19.452  0.6640E-03  0.4839E-03  0.1198E+00  0.1196E+00
     19.635  0.7517E-03  0.3162E-03  0.1200E+00  0.1197E+00
     19.819  0.2400E-03  0.6113E-08  0.1200E+00  0.1197E+00
     20.002  0.7015E-03  0.2874E-03  0.1201E+00  0.1197E+00
     20.186  0.1063E-02  0.1290E-02  0.1203E+00  0.1200E+00
     20.369  0.1095E-02  0.3039E-04  0.1205E+00  0.1200E+00
     20.553  0.5487E-03  0.6287E-07  0.1206E+00  0.1200E+00
     20.737  0.2490E-02  0.4169E-03  0.1211E+00  0.1200E+00
     20.920  0.6161E-02  0.1647E-02  0.1222E+00  0.1203E+00
     21.104  0.4440E-02  0.1288E-02  0.1230E+00  0.1206E+00
     21.287  0.3406E-02  0.1503E-02  0.1237E+00  0.1209E+00
     21.471  0.3576E-02  0.3055E-02  0.1243E+00  0.1214E+00
     21.654  0.3549E-02  0.3274E-02  0.1250E+00  0.1220E+00
     21.838  0.3307E-02  0.4358E-02  0.1256E+00  0.1228E+00
     22.021  0.2512E-02  0.4842E-02  0.1260E+00  0.1237E+00
     22.205  0.3760E-02  0.4905E-02  0.1267E+00  0.1246E+00
     22.389  0.1510E-02  0.2442E-02  0.1270E+00  0.1251E+00
     22.572  0.4403E-02  0.4284E-02  0.1278E+00  0.1258E+00
     22.756  0.1103E-02  0.4366E-02  0.1280E+00  0.1266E+00
     22.939  0.3142E-02  0.9803E-03  0.1286E+00  0.1268E+00
     23.123  0.2509E-02  0.3494E-02  0.1291E+00  0.1275E+00
     23.306  0.2702E-02  0.2840E-02  0.1295E+00  0.1280E+00
     23.490  0.4813E-02  0.3222E-02  0.1304E+00  0.1286E+00
     23.673  0.2413E-02  0.2249E-02  0.1309E+00  0.1290E+00
     23.857  0.6185E-02  0.2236E-02  0.1320E+00  0.1294E+00
     24.040  0.2947E-02  0.5081E-02  0.1326E+00  0.1303E+00
     24.224  0.1452E-02  0.4260E-02  0.1328E+00  0.1311E+00
     24.408  0.7414E-02  0.5751E-02  0.1342E+00  0.1322E+00
     24.591  0.2603E-02  0.2153E-02  0.1347E+00  0.1326E+00
     24.775  0.3104E-02  0.3121E-02  0.1352E+00  0.1331E+00
     24.958  0.1204E-02  0.6555E-02  0.1354E+00  0.1343E+00
     25.142  0.2731E-02  0.2489E-02  0.1359E+00  0.1348E+00
     25.325  0.4899E-02  0.3121E-02  0.1368E+00  0.1354E+00
     25.509  0.3359E-02  0.2406E-02  0.1375E+00  0.1358E+00
     25.692  0.2766E-02  0.3255E-02  0.1380E+00  0.1364E+00
     25.876  0.1726E-02  0.3160E-02  0.1383E+00  0.1370E+00
     26.060  0.1971E-02  0.3993E-02  0.1387E+00  0.1377E+00
     26.243  0.3679E-02  0.2344E-02  0.1393E+00  0.1382E+00
     26.427  0.2147E-02  0.1568E-02  0.1397E+00  0.1384E+00
     26.610  0.1738E-02  0.2945E-02  0.1400E+00  0.1390E+00
     26.794  0.4895E-02  0.3149E-02  0.1409E+00  0.1396E+00
     26.977  0.3217E-02  0.1501E-02  0.1415E+00  0.1398E+00
     27.161  0.2240E-02  0.2845E-02  0.1419E+00  0.1404E+00
     27.344  0.1402E-02  0.6251E-02  0.1422E+00  0.1415E+00
     27.528  0.4076E-02  0.8389E-03  0.1429E+00  0.1417E+00
     27.712  0.5043E-02  0.2708E-02  0.1439E+00  0.1422E+00
     27.895  0.2969E-02  0.3855E-02  0.1444E+00  0.1429E+00
     28.079  0.1307E-02  0.3690E-02  0.1447E+00  0.1435E+00
     28.262  0.3717E-02  0.3942E-02  0.1453E+00  0.1443E+00
     28.446  0.3432E-02  0.1856E-02  0.1460E+00  0.1446E+00
     28.629  0.1317E-02  0.3680E-02  0.1462E+00  0.1453E+00
     28.813  0.8091E-02  0.3338E-02  0.1477E+00  0.1459E+00
     28.996  0.2862E-02  0.2498E-02  0.1482E+00  0.1464E+00
     29.180  0.6578E-02  0.7039E-02  0.1494E+00  0.1476E+00
     29.364  0.3948E-02  0.4352E-02  0.1502E+00  0.1484E+00
     29.547  0.2543E-02  0.6006E-02  0.1506E+00  0.1495E+00
     29.731  0.3119E-02  0.3158E-02  0.1512E+00  0.1501E+00
     29.914  0.3060E-02  0.2855E-02  0.1518E+00  0.1506E+00
     30.098  0.5556E-02  0.3562E-02  0.1528E+00  0.1513E+00
     30.281  0.3690E-02  0.4245E-02  0.1534E+00  0.1521E+00
     30.465  0.2255E-02  0.6198E-02  0.1539E+00  0.1532E+00
     30.648  0.6332E-02  0.2171E-02  0.1550E+00  0.1536E+00
     30.832  0.4073E-02  0.4441E-02  0.1558E+00  0.1544E+00
     31.016  0.3512E-02  0.3961E-02  0.1564E+00  0.1552E+00
     31.199  0.5528E-02  0.4295E-02  0.1574E+00  0.1559E+00
     31.383  0.3377E-02  0.5047E-02  0.1581E+00  0.1569E+00
     31.566  0.3926E-02  0.5790E-02  0.1588E+00  0.1579E+00
     31.750  0.2690E-02  0.1612E-02  0.1593E+00  0.1582E+00
     31.933  0.3267E-02  0.4437E-02  0.1599E+00  0.1590E+00
     32.117  0.3265E-02  0.3113E-02  0.1605E+00  0.1596E+00
     32.300  0.5528E-02  0.3572E-02  0.1615E+00  0.1603E+00
     32.484  0.3793E-02  0.3677E-02  0.1622E+00  0.1610E+00
     32.667  0.4570E-02  0.5190E-02  0.1630E+00  0.1619E+00
     32.851  0.3990E-02  0.4682E-02  0.1637E+00  0.1628E+00
     33.035  0.3865E-02  0.3947E-02  0.1645E+00  0.1635E+00
     33.218  0.3230E-02  0.4343E-02  0.1651E+00  0.1643E+00
     33.402  0.4906E-02  0.3318E-02  0.1660E+00  0.1649E+00
     33.585  0.3678E-02  0.3812E-02  0.1666E+00  0.1656E+00
     33.769  0.4984E-02  0.6797E-02  0.1675E+00  0.1668E+00
     33.952  0.4258E-02  0.4075E-02  0.1683E+00  0.1676E+00
     34.136  0.4394E-02  0.3996E-02  0.1691E+00  0.1683E+00
     34.319  0.2861E-02  0.3332E-02  0.1697E+00  0.1689E+00
     34.503  0.2917E-02  0.4051E-02  0.1702E+00  0.1697E+00
     34.687  0.3000E-02  0.2141E-02  0.1707E+00  0.1701E+00
     34.870  0.3739E-02  0.4126E-02  0.1714E+00  0.1708E+00
     35.054  0.4723E-02  0.3671E-02  0.1723E+00  0.1715E+00
     35.237  0.3594E-02  0.3871E-02  0.1730E+00  0.1722E+00
     35.421  0.3767E-02  0.4619E-02  0.1736E+00  0.1731E+00
     35.604  0.4482E-02  0.3590E-02  0.1745E+00  0.1737E+00
     35.788  0.5144E-02  0.4705E-02  0.1754E+00  0.1746E+00
     35.971  0.3354E-02  0.4167E-02  0.1760E+00  0.1753E+00
     36.155  0.2719E-02  0.4241E-02  0.1765E+00  0.1761E+00
     36.339  0.5629E-02  0.3116E-02  0.1776E+00  0.1767E+00
     36.522  0.3888E-02  0.4213E-02  0.1783E+00  0.1775E+00
     36.706  0.2333E-02  0.4970E-02  0.1787E+00  0.1784E+00
     36.889  0.4971E-02  0.2227E-02  0.1796E+00  0.1788E+00
     37.073  0.3979E-02  0.2098E-02  0.1803E+00  0.1792E+00
     37.256  0.1662E-02  0.4606E-02  0.1806E+00  0.1800E+00
     37.440  0.2658E-02  0.3687E-02  0.1811E+00  0.1807E+00
     37.623  0.4042E-02  0.2054E-02  0.1819E+00  0.1811E+00
     37.807  0.4428E-02  0.3962E-02  0.1827E+00  0.1818E+00
     37.991  0.3417E-02  0.4305E-02  0.1833E+00  0.1826E+00
     38.174  0.3219E-02  0.4275E-02  0.1839E+00  0.1834E+00
     38.358  0.6343E-02  0.2993E-02  0.1851E+00  0.1839E+00
     38.541  0.7856E-02  0.6131E-02  0.1865E+00  0.1851E+00
     38.725  0.5813E-02  0.5125E-02  0.1876E+00  0.1860E+00
     38.908  0.3491E-02  0.6764E-02  0.1882E+00  0.1872E+00
     39.092  0.5744E-02  0.4706E-02  0.1893E+00  0.1881E+00
     39.275  0.4139E-02  0.6295E-02  0.1900E+00  0.1893E+00
     39.459  0.3273E-02  0.3516E-02  0.1906E+00  0.1899E+00
     39.643  0.4331E-02  0.3929E-02  0.1914E+00  0.1906E+00
     39.826  0.2509E-02  0.3308E-02  0.1919E+00  0.1912E+00
     40.010  0.3204E-02  0.3225E-02  0.1925E+00  0.1918E+00
     40.193  0.2066E-02  0.4289E-02  0.1929E+00  0.1926E+00
     40.377  0.3161E-02  0.1686E-02  0.1934E+00  0.1929E+00
     40.560  0.2681E-02  0.1718E-02  0.1939E+00  0.1932E+00
     40.744  0.4590E-02  0.4622E-02  0.1948E+00  0.1941E+00
     40.927  0.4221E-02  0.4926E-02  0.1956E+00  0.1950E+00
     41.111  0.2681E-02  0.2939E-02  0.1960E+00  0.1955E+00
     41.294  0.3151E-02  0.3222E-02  0.1966E+00  0.1961E+00
     41.478  0.5844E-02  0.1604E-02  0.1977E+00  0.1964E+00
     41.662  0.3288E-02  0.6347E-02  0.1983E+00  0.1976E+00
     41.845  0.4503E-02  0.4153E-02  0.1991E+00  0.1983E+00
     42.029  0.4158E-02  0.2966E-02  0.1999E+00  0.1989E+00
     42.212  0.2528E-02  0.3211E-02  0.2004E+00  0.1995E+00
     42.396  0.6839E-02  0.3297E-02  0.2016E+00  0.2001E+00
     42.579  0.2281E-02  0.5205E-02  0.2020E+00  0.2010E+00
     42.763  0.4674E-02  0.5378E-02  0.2029E+00  0.2020E+00
     42.946  0.4631E-02  0.5629E-02  0.2037E+00  0.2031E+00
     43.130  0.3645E-02  0.3382E-02  0.2044E+00  0.2037E+00
     43.314  0.6349E-02  0.4087E-02  0.2056E+00  0.2044E+00
     43.497  0.4057E-02  0.4419E-02  0.2063E+00  0.2052E+00
     43.681  0.6233E-02  0.5731E-02  0.2075E+00  0.2063E+00
     43.864  0.1318E-02  0.5067E-02  0.2077E+00  0.2072E+00
     44.048  0.1570E-02  0.2619E-02  0.2080E+00  0.2077E+00
     44.231  0.4563E-02  0.3844E-02  0.2088E+00  0.2084E+00
     44.415  0.3125E-02  0.2002E-02  0.2094E+00  0.2088E+00
     44.598  0.8364E-02  0.2672E-02  0.2109E+00  0.2093E+00
     44.782  0.5202E-02  0.6713E-02  0.2119E+00  0.2105E+00
     44.966  0.5399E-02  0.6686E-02  0.2129E+00  0.2117E+00
     45.149  0.4775E-02  0.4194E-02  0.2138E+00  0.2125E+00
     45.333  0.4813E-02  0.6910E-02  0.2146E+00  0.2138E+00
     45.516  0.3823E-02  0.4443E-02  0.2153E+00  0.2146E+00
     45.700  0.3238E-02  0.3215E-02  0.2159E+00  0.2152E+00
     45.883  0.5429E-02  0.3235E-02  0.2169E+00  0.2158E+00
     46.067  0.4606E-02  0.4688E-02  0.2178E+00  0.2166E+00
     46.250  0.2008E-02  0.5345E-02  0.2181E+00  0.2176E+00
     46.434  0.9401E-03  0.3297E-02  0.2183E+00  0.2182E+00
     46.618  0.2862E-02  0.6389E-03  0.2188E+00  0.2183E+00
     46.801  0.6820E-02  0.1957E-02  0.2201E+00  0.2187E+00
     46.985  0.4985E-02  0.5388E-02  0.2210E+00  0.2197E+00
     47.168  0.8584E-02  0.3960E-02  0.2226E+00  0.2204E+00
     47.352  0.6471E-02  0.5790E-02  0.2238E+00  0.2215E+00
     47.535  0.4787E-02  0.4978E-02  0.2247E+00  0.2224E+00
     47.719  0.5978E-02  0.5687E-02  0.2258E+00  0.2234E+00
     47.902  0.4890E-02  0.5297E-02  0.2266E+00  0.2244E+00
     48.086  0.8436E-02  0.4519E-02  0.2282E+00  0.2252E+00
     48.270  0.1047E-01  0.5561E-02  0.2301E+00  0.2262E+00
     48.453  0.9692E-02  0.4944E-02  0.2319E+00  0.2271E+00
     48.637  0.1290E-01  0.6921E-02  0.2343E+00  0.2284E+00
     48.820  0.8941E-02  0.4715E-02  0.2359E+00  0.2293E+00
     49.004  0.1075E-01  0.5849E-02  0.2379E+00  0.2304E+00
     49.187  0.4973E-02  0.2773E-02  0.2388E+00  0.2309E+00
     49.371  0.2537E-02  0.1506E-02  0.2393E+00  0.2311E+00
     49.554  0.1771E-02  0.2051E-02  0.2396E+00  0.2315E+00
     49.738  0.6664E-03  0.2791E-02  0.2397E+00  0.2320E+00
     49.922  0.2465E-03  0.5659E-02  0.2398E+00  0.2331E+00
     50.105  0.3210E-03  0.4388E-02  0.2398E+00  0.2339E+00
     50.289  0.2143E-09  0.2074E-02  0.2398E+00  0.2343E+00
     50.472  0.2933E-03  0.2702E-02  0.2399E+00  0.2348E+00
     50.656  0.5560E-03  0.2362E-02  0.2400E+00  0.2352E+00
     50.839  0.1892E-05  0.4028E-02  0.2400E+00  0.2359E+00
     51.023  0.0000E+00  0.4528E-02  0.2400E+00  0.2368E+00
     51.206  0.5250E-19  0.2409E-02  0.2400E+00  0.2372E+00
     51.390  0.3403E-06  0.4492E-02  0.2400E+00  0.2380E+00
     51.573  0.1867E-03  0.3115E-02  0.2400E+00  0.2386E+00
     51.757  0.2137E-05  0.2795E-02  0.2400E+00  0.2391E+00
     51.941  0.0000E+00  0.3431E-02  0.2400E+00  0.2397E+00
     52.124  0.0000E+00  0.3087E-03  0.2400E+00  0.2398E+00
     52.308  0.0000E+00  0.5356E-03  0.2400E+00  0.2399E+00
     52.491  0.0000E+00  0.3603E-04  0.2400E+00  0.2399E+00
     52.675  0.0000E+00  0.5505E-03  0.2400E+00  0.2400E+00
     52.858  0.0000E+00  0.2707E-06  0.2400E+00  0.2400E+00
     53.042  0.0000E+00  0.0000E+00  0.2400E+00  0.2400E+00
     53.225  0.0000E+00  0.0000E+00  0.2400E+00  0.2400E+00
     53.409  0.0000E+00  0.0000E+00  0.2400E+00  0.2400E+00
     53.593  0.0000E+00  0.0000E+00  0.2400E+00  0.2400E+00
     53.776  0.0000E+00  0.0000E+00  0.2400E+00  0.2400E+00
     53.960  0.0000E+00  0.0000E+00  0.2400E+00  0.2400E+00
     54.143  0.0000E+00  0.0000E+00  0.2400E+00  0.2400E+00
     54.327  0.0000E+00  0.0000E+00  0.2400E+00  0.2400E+00
     54.510  0.0000E+00  0.0000E+00  0.2400E+00  0.2400E+00
     54.694  0.0000E+00  0.0000E+00  0.2400E+00  0.2400E+00
     54.877  0.0000E+00  0.0000E+00  0.2400E+00  0.2400E+00
     55.061  0.0000E+00  0.0000E+00  0.2400E+00  0.2400E+00
     55.06099667     -0.00499708  301     12.17307354      1.00000000
     -0.005  0.0000E+00  0.0000E+00  0.0000E+00  0.0000E+00  0.0000E+00  0.0000E+00  0.0000E+00  0.0000E+00  0.0000E+00  0.0000E+00  0.0000E+00  0.0000E+00  0.0000E+00  0.0000E+00  0.0000E+00  0.0000E+00  0.0000E+00  0.0000E+00
      0.179  0.0000E+00  0.0000E+00  0.0000E+00  0.0000E+00  0.0000E+00  0.0000E+00  0.0000E+00  0.0000E+00  0.0000E+00  0.0000E+00  0.0000E+00  0.0000E+00  0.0000E+00  0.0000E+00  0.0000E+00  0.0000E+00  0.0000E+00  0.0000E+00
      0.362  0.0000E+00  0.0000E+00  0.0000E+00  0.0000E+00  0.0000E+00  0.0000E+00  0.0000E+00  0.0000E+00  0.0000E+00  0.0000E+00  0.0000E+00  0.0000E+00  0.0000E+00  0.0000E+00  0.0000E+00  0.0000E+00  0.0000E+00  0.0000E+00
      0.546  0.0000E+00  0.0000E+00  0.0000E+00  0.0000E+00  0.0000E+00  0.0000E+00  0.0000E+00  0.0000E+00  0.0000E+00  0.0000E+00  0.0000E+00  0.0000E+00  0.0000E+00  0.0000E+00  0.0000E+00  0.0000E+00  0.0000E+00  0.0000E+00
      0.729  0.0000E+00  0.0000E+00  0.0000E+00  0.0000E+00  0.0000E+00  0.0000E+00  0.0000E+00  0.0000E+00  0.0000E+00  0.0000E+00  0.0000E+00  0.0000E+00  0.0000E+00  0.0000E+00  0.0000E+00  0.0000E+00  0.0000E+00  0.0000E+00
      0.913  0.0000E+00  0.0000E+00  0.0000E+00  0.0000E+00  0.0000E+00  0.0000E+00  0.0000E+00  0.0000E+00  0.0000E+00  0.0000E+00  0.0000E+00  0.0000E+00  0.0000E+00  0.0000E+00  0.0000E+00  0.0000E+00  0.0000E+00  0.0000E+00
      1.096  0.0000E+00  0.0000E+00  0.0000E+00  0.0000E+00  0.0000E+00  0.0000E+00  0.0000E+00  0.0000E+00  0.0000E+00  0.0000E+00  0.0000E+00  0.0000E+00  0.0000E+00  0.0000E+00  0.0000E+00  0.0000E+00  0.0000E+00  0.0000E+00
      1.280  0.0000E+00  0.0000E+00  0.0000E+00  0.0000E+00  0.0000E+00  0.0000E+00  0.0000E+00  0.0000E+00  0.0000E+00  0.0000E+00  0.0000E+00  0.0000E+00  0.0000E+00  0.0000E+00  0.0000E+00  0.0000E+00  0.0000E+00  0.0000E+00
      1.463  0.0000E+00  0.0000E+00  0.0000E+00  0.0000E+00  0.0000E+00  0.0000E+00  0.0000E+00  0.0000E+00  0.0000E+00  0.0000E+00  0.0000E+00  0.0000E+00  0.0000E+00  0.0000E+00  0.0000E+00  0.0000E+00  0.0000E+00  0.0000E+00
      1.647  0.0000E+00  0.0000E+00  0.0000E+00  0.0000E+00  0.0000E+00  0.0000E+00  0.0000E+00  0.0000E+00  0.0000E+00  0.0000E+00  0.0000E+00  0.0000E+00  0.0000E+00  0.0000E+00  0.0000E+00  0.0000E+00  0.0000E+00  0.0000E+00
      1.831  0.0000E+00  0.0000E+00  0.0000E+00  0.0000E+00  0.0000E+00  0.0000E+00  0.0000E+00  0.0000E+00  0.0000E+00  0.0000E+00  0.0000E+00  0.0000E+00  0.0000E+00  0.0000E+00  0.0000E+00  0.0000E+00  0.0000E+00  0.0000E+00
      2.014  0.0000E+00  0.0000E+00  0.0000E+00  0.0000E+00  0.0000E+00  0.0000E+00  0.0000E+00  0.0000E+00  0.0000E+00  0.0000E+00  0.0000E+00  0.0000E+00  0.0000E+00  0.0000E+00  0.0000E+00  0.0000E+00  0.0000E+00  0.0000E+00
      2.198  0.0000E+00  0.0000E+00  0.0000E+00  0.0000E+00  0.0000E+00  0.0000E+00  0.0000E+00  0.0000E+00  0.0000E+00  0.0000E+00  0.0000E+00  0.0000E+00  0.0000E+00  0.0000E+00  0.0000E+00  0.0000E+00  0.0000E+00  0.0000E+00
      2.381  0.9473E-06  0.4205E-06  0.4104E-21  0.1154E-21  0.7285E-20  0.2503E-20  0.4104E-21  0.1154E-21  0.1786E-19  0.1870E-19  0.7016E-22  0.4476E-24  0.4455E-11  0.1576E-11  0.7016E-22  0.4476E-24  0.1786E-19  0.1870E-19
      2.565  0.1931E-02  0.1900E-02  0.9724E-12  0.2109E-12  0.7367E-07  0.3221E-07  0.9724E-12  0.2109E-12  0.1678E-13  0.2919E-14  0.1428E-18  0.2293E-20  0.9910E-08  0.7402E-08  0.1428E-18  0.2293E-20  0.1678E-13  0.2919E-14
      2.748  0.7525E-02  0.6558E-02  0.4566E-04  0.3351E-04  0.6290E-04  0.6250E-04  0.4566E-04  0.3351E-04  0.7862E-06  0.4505E-06  0.5520E-12  0.8693E-13  0.1490E-05  0.9894E-06  0.5520E-12  0.8693E-13  0.7862E-06  0.4505E-06
      2.932  0.1815E-01  0.1675E-01  0.2286E-03  0.2109E-03  0.1679E-03  0.1282E-03  0.2286E-03  0.2109E-03  0.4016E-05  0.2870E-05  0.5244E-05  0.3131E-05  0.1714E-05  0.1499E-05  0.5244E-05  0.3131E-05  0.4016E-05  0.2870E-05
      3.115  0.1289E-01  0.1538E-01  0.1621E-03  0.1951E-03  0.2188E-03  0.2574E-03  0.1621E-03  0.1951E-03  0.2891E-05  0.2693E-05  0.6649E-05  0.6299E-05  0.5149E-06  0.1750E-06  0.6649E-05  0.6299E-05  0.2891E-05  0.2693E-05
      3.299  0.1076E-01  0.9224E-02  0.2733E-03  0.2130E-03  0.2367E-03  0.2431E-03  0.2733E-03  0.2130E-03  0.1422E-04  0.8560E-05  0.2579E-08  0.3148E-09  0.2801E-04  0.1931E-04  0.2579E-08  0.3148E-09  0.1422E-04  0.8560E-05
      3.483  0.4198E-01  0.3828E-01  0.1124E-02  0.1033E-02  0.1599E-02  0.1425E-02  0.1124E-02  0.1033E-02  0.5337E-04  0.3697E-04  0.7676E-04  0.5166E-04  0.7601E-04  0.5211E-04  0.7676E-04  0.5166E-04  0.5337E-04  0.3697E-04
      3.666  0.2039E-01  0.2338E-01  0.9072E-03  0.9489E-03  0.2840E-03  0.4333E-03  0.9072E-03  0.9489E-03  0.7197E-04  0.5176E-04  0.2413E-04  0.2077E-04  0.4619E-04  0.3839E-04  0.2413E-04  0.2077E-04  0.7197E-04  0.5176E-04
      3.850  0.1700E-01  0.1949E-01  0.8644E-03  0.1005E-02  0.3014E-03  0.3336E-03  0.8644E-03  0.1005E-02  0.7757E-04  0.6609E-04  0.4864E-04  0.4052E-04  0.2776E-04  0.2336E-04  0.4864E-04  0.4052E-04  0.7757E-04  0.6609E-04
      4.033  0.2340E-01  0.2305E-01  0.7893E-03  0.8025E-03  0.1843E-02  0.1796E-02  0.7893E-03  0.8025E-03  0.5007E-04  0.3745E-04  0.1635E-03  0.1235E-03  0.1126E-03  0.6861E-04  0.1635E-03  0.1235E-03  0.5007E-04  0.3745E-04
      4.217  0.3143E-01  0.2014E-01  0.1348E-02  0.8986E-03  0.2770E-02  0.1704E-02  0.1348E-02  0.8986E-03  0.1475E-03  0.6673E-04  0.2802E-03  0.1513E-03  0.2929E-03  0.8371E-04  0.2802E-03  0.1513E-03  0.1475E-03  0.6673E-04
      4.400  0.4763E-01  0.4593E-01  0.3510E-02  0.2750E-02  0.1891E-02  0.2914E-02  0.3510E-02  0.2750E-02  0.5385E-03  0.2808E-03  0.1960E-03  0.1350E-03  0.5925E-03  0.4792E-03  0.1960E-03  0.1350E-03  0.5385E-03  0.2808E-03
      4.584  0.1902E-01  0.3352E-01  0.1720E-02  0.3091E-02  0.3380E-03  0.5780E-03  0.1720E-02  0.3091E-02  0.2809E-03  0.3609E-03  0.1261E-03  0.1538E-03  0.1511E-03  0.1859E-03  0.1261E-03  0.1538E-03  0.2809E-03  0.3609E-03
      4.767  0.3229E-01  0.2436E-01  0.2267E-02  0.1556E-02  0.3064E-02  0.2677E-02  0.2267E-02  0.1556E-02  0.5019E-03  0.2112E-03  0.4821E-03  0.2564E-03  0.5043E-03  0.2918E-03  0.4821E-03  0.2564E-03  0.5019E-03  0.2112E-03
      4.951  0.6816E-01  0.6838E-01  0.5704E-02  0.6310E-02  0.5749E-02  0.4866E-02  0.5704E-02  0.6310E-02  0.1321E-02  0.9953E-03  0.1660E-02  0.1105E-02  0.8458E-03  0.3822E-03  0.1660E-02  0.1105E-02  0.1321E-02  0.9953E-03
      5.134  0.7225E-02  0.1099E-01  0.2801E-03  0.4888E-03  0.1432E-02  0.1913E-02  0.2801E-03  0.4888E-03  0.8854E-04  0.5577E-04  0.1414E-03  0.1706E-03  0.7639E-03  0.3596E-03  0.1414E-03  0.1706E-03  0.8854E-04  0.5577E-04
      5.318  0.2975E-01  0.3084E-01  0.2214E-02  0.1895E-02  0.4127E-02  0.5375E-02  0.2214E-02  0.1895E-02  0.8103E-03  0.4266E-03  0.8371E-03  0.5762E-03  0.2058E-02  0.1606E-02  0.8371E-03  0.5762E-03  0.8103E-03  0.4266E-03
      5.502  0.6153E-01  0.1515E-01  0.8009E-02  0.2211E-02  0.4857E-02  0.5720E-03  0.8009E-02  0.2211E-02  0.2798E-02  0.4661E-03  0.2457E-02  0.1743E-03  0.1441E-02  0.3482E-03  0.2457E-02  0.1743E-03  0.2798E-02  0.4661E-03
      5.685  0.5471E-01  0.7740E-01  0.6794E-02  0.9868E-02  0.5339E-02  0.7684E-02  0.6794E-02  0.9868E-02  0.3374E-02  0.2403E-02  0.1845E-02  0.2098E-02  0.3365E-02  0.1700E-02  0.1845E-02  0.2098E-02  0.3374E-02  0.2403E-02
      5.869  0.6802E-01  0.4142E-01  0.8261E-02  0.5383E-02  0.8925E-02  0.4607E-02  0.8261E-02  0.5383E-02  0.4946E-02  0.1632E-02  0.6287E-02  0.1091E-02  0.4226E-02  0.1662E-02  0.6287E-02  0.1091E-02  0.4946E-02  0.1632E-02
      6.052  0.3524E-01  0.5584E-01  0.4223E-02  0.7376E-02  0.3959E-02  0.7558E-02  0.4223E-02  0.7376E-02  0.5213E-02  0.2451E-02  0.2019E-02  0.3380E-02  0.9178E-02  0.1578E-02  0.2019E-02  0.3380E-02  0.5213E-02  0.2451E-02
      6.236  0.4619E-01  0.3209E-01  0.5772E-02  0.5481E-02  0.8666E-02  0.1803E-02  0.5772E-02  0.5481E-02  0.5685E-02  0.3250E-02  0.1023E-01  0.1033E-02  0.3208E-02  0.2201E-02  0.1023E-01  0.1033E-02  0.5685E-02  0.3250E-02
      6.419  0.6412E-01  0.3066E-01  0.6314E-02  0.2610E-02  0.1191E-01  0.8360E-02  0.6314E-02  0.2610E-02  0.1816E-01  0.1234E-02  0.2525E-01  0.2044E-02  0.1952E-01  0.5437E-02  0.2525E-01  0.2044E-02  0.1816E-01  0.1234E-02
      6.603  0.1432E+00  0.5897E-01  0.2163E-01  0.8675E-02  0.9891E-02  0.1113E-01  0.2163E-01  0.8675E-02  0.6833E-01  0.4487E-02  0.6775E-01  0.8145E-02  0.7327E-01  0.1155E-02  0.6775E-01  0.8145E-02  0.6833E-01  0.4487E-02
      6.786  0.7780E-01  0.4996E-01  0.1113E-01  0.8598E-02  0.1269E-01  0.9476E-02  0.1113E-01  0.8598E-02  0.4993E-01  0.4472E-02  0.6673E-01  0.3968E-02  0.2317E-01  0.6850E-02  0.6673E-01  0.3968E-02  0.4993E-01  0.4472E-02
      6.970  0.7637E-01  0.7116E-01  0.1159E-01  0.1490E-01  0.1336E-01  0.7078E-02  0.1159E-01  0.1490E-01  0.9395E-01  0.1360E-01  0.8034E-01  0.5557E-02  0.1016E+00  0.1146E-01  0.8034E-01  0.5557E-02  0.9395E-01  0.1360E-01
      7.154  0.6675E-01  0.6732E-01  0.1173E-01  0.1231E-01  0.1893E-01  0.9626E-02  0.1173E-01  0.1231E-01  0.9696E-01  0.1396E-01  0.7817E-01  0.1507E-01  0.6323E-01  0.1717E-01  0.7817E-01  0.1507E-01  0.9696E-01  0.1396E-01
      7.337  0.6872E-01  0.8310E-01  0.2150E-01  0.1278E-01  0.2113E-01  0.1588E-01  0.2150E-01  0.1278E-01  0.1323E+00  0.2875E-01  0.1920E+00  0.3588E-01  0.1527E+00  0.1488E-01  0.1920E+00  0.3588E-01  0.1323E+00  0.2875E-01
      7.521  0.3963E-01  0.7363E-01  0.1578E-01  0.7417E-02  0.1808E-01  0.1465E-01  0.1578E-01  0.7417E-02  0.9988E-01  0.3346E-01  0.1048E+00  0.4624E-01  0.1203E+00  0.5045E-01  0.1048E+00  0.4624E-01  0.9988E-01  0.3346E-01
      7.704  0.2689E-01  0.5738E-01  0.1826E-01  0.9983E-02  0.2032E-01  0.9083E-02  0.1826E-01  0.9983E-02  0.8433E-01  0.3856E-01  0.1252E+00  0.3909E-01  0.9128E-01  0.2607E-01  0.1252E+00  0.3909E-01  0.8433E-01  0.3856E-01
      7.888  0.2618E-01  0.1039E+00  0.2551E-01  0.2420E-01  0.1661E-01  0.2102E-01  0.2551E-01  0.2420E-01  0.1137E+00  0.7180E-01  0.1093E+00  0.7733E-01  0.1702E+00  0.5982E-01  0.1093E+00  0.7733E-01  0.1137E+00  0.7180E-01
      8.071  0.1227E-01  0.5784E-01  0.1641E-01  0.1518E-01  0.1496E-01  0.1424E-01  0.1641E-01  0.1518E-01  0.1079E+00  0.8002E-01  0.9688E-01  0.5317E-01  0.1729E+00  0.6056E-01  0.9688E-01  0.5317E-01  0.1079E+00  0.8002E-01
      8.255  0.1238E-01  0.4068E-01  0.2808E-01  0.1188E-01  0.1861E-01  0.1791E-01  0.2808E-01  0.1188E-01  0.1933E+00  0.5795E-01  0.1018E+00  0.6412E-01  0.1832E+00  0.4236E-01  0.1018E+00  0.6412E-01  0.1933E+00  0.5795E-01
      8.438  0.1092E-01  0.4760E-01  0.2430E-01  0.2011E-01  0.1654E-01  0.2538E-01  0.2430E-01  0.2011E-01  0.1750E+00  0.1059E+00  0.1047E+00  0.1497E+00  0.1758E+00  0.1215E+00  0.1047E+00  0.1497E+00  0.1750E+00  0.1059E+00
      8.622  0.1461E-01  0.2484E-01  0.3052E-01  0.1530E-01  0.2590E-01  0.2418E-01  0.3052E-01  0.1530E-01  0.2088E+00  0.6180E-01  0.1091E+00  0.1382E+00  0.1724E+00  0.6797E-01  0.1091E+00  0.1382E+00  0.2088E+00  0.6180E-01
      8.806  0.6225E-02  0.1766E-01  0.1287E-01  0.2387E-01  0.8684E-02  0.1421E-01  0.1287E-01  0.2387E-01  0.9253E-01  0.7928E-01  0.3391E-01  0.8391E-01  0.7349E-01  0.8790E-01  0.3391E-01  0.8391E-01  0.9253E-01  0.7928E-01
      8.989  0.4134E-02  0.1074E-01  0.8675E-02  0.2010E-01  0.1615E-01  0.1934E-01  0.8675E-02  0.2010E-01  0.1073E+00  0.9492E-01  0.8474E-01  0.7129E-01  0.1404E+00  0.1157E+00  0.8474E-01  0.7129E-01  0.1073E+00  0.9492E-01
      9.173  0.1163E-01  0.1106E-01  0.2553E-01  0.2818E-01  0.2382E-01  0.1183E-01  0.2553E-01  0.2818E-01  0.1449E+00  0.1050E+00  0.2457E+00  0.6767E-01  0.3128E+00  0.1546E+00  0.2457E+00  0.6767E-01  0.1449E+00  0.1050E+00