    2    2  100    2
  0.9566424E+01  0.2392585E-09  0.2392585E-09  0.3859352E-09  0.5000000E-15
  1.000000000000000E-004
  CAR 
 Co-hcc                                  
     18     95     24
 
  0.0000000E+00  0.0000000E+00  0.0000000E+00  0.8680556E-03
      1          2.498003        2.505864   1.000000   1.000000
      2          6.408101        7.282042   1.000000   1.000000
      3          9.385529       10.900069   1.000000   1.000000
      4          9.402903       10.900070   1.000000   1.000000
      5          9.402904       10.905551   1.000000   1.000000
      6          9.792955       11.345151   1.000000   1.000000
      7          9.792955       11.345151   1.000000   1.000000
      8         10.206736       11.836210   1.000000   1.000000
      9         10.206736       11.836211   1.000000   1.000000
     10         11.554285       12.035346   1.000000   0.999951
     11         11.554285       13.300362   1.000000   0.000000
     12         12.067146       13.300363   0.998633   0.000000
     13         19.772911       20.739341   0.000000   0.000000
     14         35.166020       34.922573   0.000000   0.000000
     15         38.688316       38.560517   0.000000   0.000000
     16         39.038232       38.836730   0.000000   0.000000
     17         39.067699       39.414568   0.000000   0.000000
     18         39.067700       39.414571   0.000000   0.000000
     19         40.286563       40.580561   0.000000   0.000000
     20         40.286564       40.580570   0.000000   0.000000
     21         44.527685       44.495600   0.000000   0.000000
     22         44.527685       44.495605   0.000000   0.000000
     23         46.079687       45.795852   0.000000   0.000000
     24         46.225799       46.486849   0.000000   0.000000
 
  0.8333333E-01  0.6938894E-17  0.0000000E+00  0.5208333E-02
      1          2.765653        2.774739   1.000000   1.000000
      2          6.573155        7.465292   1.000000   1.000000
      3          9.114271       10.572936   1.000000   1.000000
      4          9.539408       11.047747   1.000000   1.000000
      5          9.625572       11.162229   1.000000   1.000000
      6          9.735702       11.181201   1.000000   1.000000
      7          9.913936       11.273332   1.000000   1.000000
      8         10.012144       11.476058   1.000000   1.000000
      9         10.119003       11.736217   1.000000   1.000000
     10         10.559063       11.782157   1.000000   1.000000
     11         11.592663       13.344811   1.000000   0.000000
     12         13.422594       14.358268   0.000000   0.000000
     13         19.805637       20.751522   0.000000   0.000000
     14         33.718109       33.755986   0.000000   0.000000
     15         36.274444       36.380543   0.000000   0.000000
     16         36.692073       37.018151   0.000000   0.000000
     17         39.067196       38.885348   0.000000   0.000000
     18         39.821691       39.805762   0.000000   0.000000
     19         41.215705       41.116230   0.000000   0.000000
     20         42.850972       43.141415   0.000000   0.000000
     21         43.612285       43.847124   0.000000   0.000000
     22         44.122126       44.152340   0.000000   0.000000
     23         45.802801       46.083737   0.000000   0.000000
     24         46.126940       46.402324   0.000000   0.000000
 
  0.1666667E+00  0.1387779E-16  0.0000000E+00  0.5208333E-02
      1          3.535442        3.552761   1.000000   1.000000
      2          6.978587        7.929709   1.000000   1.000000
      3          8.776179       10.140648   1.000000   1.000000
      4          9.135864       10.152954   1.000000   1.000000
      5          9.526256       11.013681   1.000000   1.000000
      6          9.903580       11.468103   1.000000   1.000000
      7          9.926104       11.492237   1.000000   1.000000
      8          9.993796       11.558886   1.000000   1.000000
      9         10.147739       11.592373   1.000000   1.000000
     10         10.253379       11.844119   1.000000   1.000000
     11         11.674317       13.438406   1.000000   0.000000
     12         15.221201       16.054149   0.000000   0.000000
     13         19.923896       20.805266   0.000000   0.000000
     14         29.980981       30.302562   0.000000   0.000000
     15         34.075610       34.382834   0.000000   0.000000
     16         35.214589       35.315530   0.000000   0.000000
     17         37.161734       37.182594   0.000000   0.000000
     18         39.192675       39.010957   0.000000   0.000000
     19         40.700274       40.768030   0.000000   0.000000
     20         43.413874       43.546051   0.000000   0.000000
     21         43.426683       43.803200   0.000000   0.000000
     22         44.645056       44.904201   0.000000   0.000000
     23         45.070580       45.322363   0.000000   0.000000
     24         47.046126       47.507512   0.000000   0.000000
 
  0.2500000E+00  0.2775558E-16  0.0000000E+00  0.5208333E-02
      1          4.682808        4.740078   1.000000   1.000000
      2          7.290375        8.353218   1.000000   1.000000
      3          8.269315        9.301290   1.000000   1.000000
      4          8.571763        9.808785   1.000000   1.000000
      5          9.416783       10.848374   1.000000   1.000000
      6          9.645858       11.202260   1.000000   1.000000
      7          9.911965       11.341511   1.000000   1.000000
      8         10.488203       12.085102   1.000000   0.993581
      9         10.510144       12.088756   1.000000   0.991457
     10         10.741802       12.375762   1.000000   0.000000
     11         11.751299       13.525529   1.000000   0.000000
     12         17.211892       17.962474   0.000000   0.000000
     13         20.147192       20.914444   0.000000   0.000000
     14         26.146042       26.612269   0.000000   0.000000
     15         31.789273       32.060811   0.000000   0.000000
     16         33.713231       33.849535   0.000000   0.000000
     17         34.057463       34.281689   0.000000   0.000000
     18         38.221379       38.101431   0.000000   0.000000
     19         38.982153       39.420035   0.000000   0.000000
     20         42.847492       43.037269   0.000000   0.000000
     21         43.199309       43.553646   0.000000   0.000000
     22         43.632527       43.736163   0.000000   0.000000
     23         45.103516       45.289374   0.000000   0.000000
     24         47.768835       48.492862   0.000000   0.000000
 
  0.3333333E+00  0.0000000E+00  0.0000000E+00  0.5208333E-02
      1          5.889282        6.109656   1.000000   1.000000
      2          7.193081        8.328894   1.000000   1.000000
      3          7.634559        8.698438   1.000000   1.000000
      4          8.709685        9.734652   1.000000   1.000000
      5          9.414734       10.943456   1.000000   1.000000
      6          9.565005       10.979506   1.000000   1.000000
      7          9.701582       11.097356   1.000000   1.000000
      8         11.090392       12.756279   1.000000   0.000000
      9         11.273132       12.874389   1.000000   0.000000
     10         11.328686       12.957420   1.000000   0.000000
     11         11.803984       13.584442   1.000000   0.000000
     12         19.350907       20.011838   0.000000   0.000000
     13         20.043138       20.677176   0.000000   0.000000
     14         23.231219       23.817776   0.000000   0.000000
     15         29.957212       30.177186   0.000000   0.000000
     16         30.543036       30.813242   0.000000   0.000000
     17         31.901431       32.264741   0.000000   0.000000
     18         37.046749       36.939405   0.000000   0.000000
     19         37.354024       37.807247   0.000000   0.000000
     20         41.236825       41.564858   0.000000   0.000000
     21         42.452917       42.693153   0.000000   0.000000
     22         44.591760       44.774213   0.000000   0.000000
     23         46.968288       47.128737   0.000000   0.000000
     24         48.242418       49.404529   0.000000   0.000000
 
  0.4166667E+00  0.5551115E-16  0.0000000E+00  0.5208333E-02
      1          6.614528        7.224183   1.000000   1.000000
      2          6.983442        8.075105   1.000000   1.000000
      3          7.251297        8.337549   1.000000   1.000000
      4          9.143633        9.874956   1.000000   1.000000
      5          9.257729       10.768229   1.000000   1.000000
      6          9.553748       10.922590   1.000000   1.000000
      7          9.806640       11.247380   1.000000   1.000000
      8         11.543864       13.266787   1.000000   0.000000
      9         11.714181       13.448205   1.000000   0.000000
     10         11.832196       13.615661   1.000000   0.000000
     11         12.612537       14.003771   0.000000   0.000000
     12         18.002411       18.744552   0.000000   0.000000
     13         21.534454       22.083885   0.000000   0.000000
     14         23.096896       23.589036   0.000000   0.000000
     15         27.761380       28.177923   0.000000   0.000000
     16         28.740785       28.908200   0.000000   0.000000
     17         29.292321       29.758336   0.000000   0.000000
     18         36.211877       36.093017   0.000000   0.000000
     19         36.759625       37.213846   0.000000   0.000000
     20         39.934735       40.227998   0.000000   0.000000
     21         42.231515       42.502031   0.000000   0.000000
     22         45.211059       45.494574   0.000000   0.000000
     23         48.464396       49.730557   0.000000   0.000000
     24         48.970838       49.818883   0.000000   0.000000
 
  0.5000000E+00  0.5551115E-16  0.0000000E+00  0.2604167E-02
      1          6.775592        7.710087   1.000000   1.000000
      2          6.908520        7.857940   1.000000   1.000000
      3          7.123126        8.217329   1.000000   1.000000
      4          9.202105       10.035226   1.000000   1.000000
      5          9.426856       10.706220   1.000000   1.000000
      6          9.500520       10.859304   1.000000   1.000000
      7          9.899419       11.353331   1.000000   1.000000
      8         11.708012       13.450673   1.000000   0.000000
      9         11.840693       13.624989   1.000000   0.000000
     10         11.893359       13.652250   1.000000   0.000000
     11         13.868569       15.057011   0.000000   0.000000
     12         16.185130       17.099225   0.000000   0.000000
     13         22.948630       23.384048   0.000000   0.000000
     14         23.763902       24.147013   0.000000   0.000000
     15         26.151998       26.695579   0.000000   0.000000
     16         27.879959       28.420030   0.000000   0.000000
     17         28.308954       28.452745   0.000000   0.000000
     18         35.917155       35.791736   0.000000   0.000000
     19         36.617911       37.076530   0.000000   0.000000
     20         39.478591       39.757078   0.000000   0.000000
     21         42.159297       42.440082   0.000000   0.000000
     22         45.437734       45.767790   0.000000   0.000000
     23         48.532522       49.855284   0.000000   0.000000
     24         48.973034       52.083095   0.000000   0.000000
 
  0.8333333E-01  0.8333333E-01  0.0000000E+00  0.5208333E-02
      1          3.285554        3.298958   1.000000   1.000000
      2          6.865552        7.794945   1.000000   1.000000
      3          8.848018       10.253534   1.000000   1.000000
      4          9.429804       10.417204   1.000000   1.000000
      5          9.607963       11.109162   1.000000   1.000000
      6          9.814967       11.350062   1.000000   1.000000
      7          9.818931       11.372808   1.000000   1.000000
      8          9.869048       11.444527   1.000000   1.000000
      9         10.181029       11.762702   1.000000   1.000000
     10         10.291900       11.767224   1.000000   1.000000
     11         11.640424       13.399324   1.000000   0.000000
     12         14.721410       15.579435   0.000000   0.000000
     13         19.883631       20.787070   0.000000   0.000000
     14         31.660874       31.866822   0.000000   0.000000
     15         32.754298       33.089234   0.000000   0.000000
     16         37.954488       38.030893   0.000000   0.000000
     17         38.637683       38.555390   0.000000   0.000000
     18         38.758699       38.666750   0.000000   0.000000
     19         39.155331       39.212852   0.000000   0.000000
     20         42.765144       42.917765   0.000000   0.000000
     21         44.302038       44.711253   0.000000   0.000000
     22         44.906780       45.345157   0.000000   0.000000
     23         46.539106       46.677020   0.000000   0.000000
     24         47.075062       47.247820   0.000000   0.000000
 
  0.1666667E+00  0.8333333E-01  0.0000000E+00  0.1041667E-01
      1          4.255510        4.288523   1.000000   1.000000
      2          7.278128        8.286011   1.000000   1.000000
      3          8.513986        9.600964   1.000000   1.000000
      4          8.588697        9.828974   1.000000   1.000000
      5          9.463321       10.914539   1.000000   1.000000
      6          9.595371       11.121591   1.000000   1.000000
      7         10.113288       11.601720   1.000000   1.000000
      8         10.122712       11.703775   1.000000   1.000000
      9         10.329547       11.903088   1.000000   1.000000
     10         10.682093       12.290864   1.000000   0.000432
     11         11.699247       13.466054   1.000000   0.000000
     12         16.498359       17.282345   0.000000   0.000000
     13         20.081450       20.896040   0.000000   0.000000
     14         28.094143       28.481686   0.000000   0.000000
     15         30.481339       30.815666   0.000000   0.000000
     16         35.405729       35.440596   0.000000   0.000000
     17         36.691238       36.849554   0.000000   0.000000
     18         37.602875       37.636322   0.000000   0.000000
     19         39.632102       39.775877   0.000000   0.000000
     20         41.678258       42.130772   0.000000   0.000000
     21         42.784256       42.841693   0.000000   0.000000
     22         45.570387       46.115426   0.000000   0.000000
     23         46.715005       46.897006   0.000000   0.000000
     24         47.196142       47.438311   0.000000   0.000000
 
  0.2500000E+00  0.8333333E-01  0.0000000E+00  0.1041667E-01
      1          5.479021        5.594340   1.000000   1.000000
      2          7.395461        8.514045   1.000000   1.000000
      3          7.895484        8.947382   1.000000   1.000000
      4          8.430685        9.587336   1.000000   1.000000
      5          9.367921       10.855335   1.000000   1.000000
      6          9.479223       10.891211   1.000000   1.000000
      7          9.878943       11.336696   1.000000   1.000000
      8         10.608020       12.214475   1.000000   0.120796
      9         10.937380       12.573271   1.000000   0.000000
     10         11.360973       12.976409   1.000000   0.000000
     11         11.748772       13.521812   1.000000   0.000000
     12         18.519056       19.224219   0.000000   0.000000
     13         20.349850       21.030088   0.000000   0.000000
     14         24.527598       25.048106   0.000000   0.000000
     15         28.802195       29.125127   0.000000   0.000000
     16         32.186142       32.369850   0.000000   0.000000
     17         34.061438       34.359255   0.000000   0.000000
     18         36.273378       36.321299   0.000000   0.000000
     19         39.224097       39.522689   0.000000   0.000000
     20         39.760946       40.147290   0.000000   0.000000
     21         43.431907       43.481463   0.000000   0.000000
     22         46.656773       46.848920   0.000000   0.000000
     23         46.937985       47.134301   0.000000   0.000000
     24         47.670723       48.318666   0.000000   0.000000
 
  0.3333333E+00  0.8333333E-01  0.0000000E+00  0.1041667E-01
      1          6.496693        6.890579   1.000000   1.000000
      2          7.184299        8.314349   1.000000   1.000000
      3          7.420890        8.504613   1.000000   1.000000
      4          8.718912        9.635965   1.000000   1.000000
      5          9.222047       10.692263   1.000000   1.000000
      6          9.646654       11.060342   1.000000   1.000000
      7          9.708376       11.135880   1.000000   1.000000
      8         11.217480       12.869354   1.000000   0.000000
      9         11.459320       13.155966   1.000000   0.000000
     10         11.779475       13.555968   1.000000   0.000000
     11         12.296205       13.813379   0.000248   0.000000
     12         19.436502       20.079033   0.000000   0.000000
     13         20.687460       21.298837   0.000000   0.000000
     14         22.892723       23.447649   0.000000   0.000000
     15         27.474497       27.766137   0.000000   0.000000
     16         29.221798       29.555207   0.000000   0.000000
     17         31.063087       31.451408   0.000000   0.000000
     18         35.261543       35.287559   0.000000   0.000000
     19         38.466180       38.770137   0.000000   0.000000
     20         38.690433       39.084483   0.000000   0.000000
     21         43.596360       43.706880   0.000000   0.000000
     22         46.944478       47.207042   0.000000   0.000000
     23         48.388409       48.835051   0.000000   0.000000
     24         48.663354       49.696188   0.000000   0.000000
 
  0.4166667E+00  0.8333333E-01  0.0000000E+00  0.1041667E-01
      1          6.875626        7.694365   1.000000   1.000000
      2          7.036906        8.063120   1.000000   1.000000
      3          7.181402        8.282684   1.000000   1.000000
      4          9.149901        9.836656   1.000000   1.000000
      5          9.164546       10.645533   1.000000   1.000000
      6          9.492575       10.860422   1.000000   1.000000
      7          9.894363       11.349407   1.000000   1.000000
      8         11.656914       13.383848   1.000000   0.000000
      9         11.743784       13.476607   1.000000   0.000000
     10         11.792966       13.570792   1.000000   0.000000
     11         13.704476       14.932161   0.000000   0.000000
     12         16.995395       17.842873   0.000000   0.000000
     13         22.743496       23.231588   0.000000   0.000000
     14         23.688004       24.104001   0.000000   0.000000
     15         26.595735       26.892328   0.000000   0.000000
     16         26.774937       27.262165   0.000000   0.000000
     17         28.773163       29.207533   0.000000   0.000000
     18         34.726863       34.735576   0.000000   0.000000
     19         37.825638       38.119776   0.000000   0.000000
     20         38.362552       38.762291   0.000000   0.000000
     21         43.548016       43.693810   0.000000   0.000000
     22         47.153043       47.527477   0.000000   0.000000
     23         48.519087       49.906821   0.000000   0.000000
     24         49.001682       51.368091   0.000000   0.000000
 
  0.1666667E+00  0.1666667E+00  0.0000000E+00  0.5208333E-02
      1          5.335647        5.415999   1.000000   1.000000
      2          7.614426        8.689252   1.000000   1.000000
      3          8.032487        9.076489   1.000000   1.000000
      4          8.156976        9.399192   1.000000   1.000000
      5          9.282036       10.759913   1.000000   1.000000
      6          9.475479       10.890174   1.000000   1.000000
      7          9.992915       11.470147   1.000000   1.000000
      8         10.324297       11.931553   1.000000   1.000000
      9         10.922091       12.546367   1.000000   0.000000
     10         11.386155       12.993138   1.000000   0.000000
     11         11.701334       13.467971   1.000000   0.000000
     12         18.238467       18.963030   0.000000   0.000000
     13         20.432202       21.137448   0.000000   0.000000
     14         26.179332       26.606620   0.000000   0.000000
     15         26.886154       27.305164   0.000000   0.000000
     16         33.577279       33.601329   0.000000   0.000000
     17         34.906704       35.167974   0.000000   0.000000
     18         36.256490       36.551315   0.000000   0.000000
     19         37.135149       37.392819   0.000000   0.000000
     20         42.162820       42.443814   0.000000   0.000000
     21         43.755990       43.723174   0.000000   0.000000
     22         45.146526       45.720370   0.000000   0.000000
     23         48.167798       48.781490   0.000000   0.000000
     24         49.195614       49.909345   0.000000   0.000000
 
  0.2500000E+00  0.1666667E+00  0.0000000E+00  0.1041667E-01
      1          6.489642        6.724399   1.000000   1.000000
      2          7.581265        8.674585   1.000000   1.000000
      3          7.589313        8.721964   1.000000   1.000000
      4          8.135150        9.230588   1.000000   1.000000
      5          9.094864       10.532931   1.000000   1.000000
      6          9.647554       11.060983   1.000000   1.000000
      7          9.761594       11.202415   1.000000   1.000000
      8         10.696362       12.332394   1.000000   0.000003
      9         11.458879       13.147377   1.000000   0.000000
     10         11.698681       13.464817   1.000000   0.000000
     11         12.331059       13.862609   0.000004   0.000000
     12         20.265930       20.918380   0.000000   0.000000
     13         20.695229       21.277850   0.000000   0.000000
     14         23.321464       23.858822   0.000000   0.000000
     15         25.295699       25.704073   0.000000   0.000000
     16         31.000574       31.211368   0.000000   0.000000
     17         33.159689       33.510408   0.000000   0.000000
     18         33.287690       33.518868   0.000000   0.000000
     19         35.845844       36.163154   0.000000   0.000000
     20         42.342012       42.648163   0.000000   0.000000
     21         45.165700       45.114749   0.000000   0.000000
     22         47.159852       47.768426   0.000000   0.000000
     23         48.471738       49.382550   0.000000   0.000000
     24         49.384125       49.927565   0.000000   0.000000
 
  0.3333333E+00  0.1666667E+00  0.0000000E+00  0.1041667E-01
      1          7.159924        7.778207   1.000000   1.000000
      2          7.311776        8.429312   1.000000   1.000000
      3          7.347627        8.455293   1.000000   1.000000
      4          8.523512        9.388160   1.000000   1.000000
      5          9.044995       10.469867   1.000000   1.000000
      6          9.510147       10.904041   1.000000   1.000000
      7          9.888049       11.337522   1.000000   1.000000
      8         11.189443       12.861667   1.000000   0.000000
      9         11.695407       13.459537   1.000000   0.000000
     10         11.727652       13.460839   1.000000   0.000000
     11         13.652119       14.951013   0.000000   0.000000
     12         18.760531       19.456740   0.000000   0.000000
     13         22.443331       23.003579   0.000000   0.000000
     14         23.185979       23.662292   0.000000   0.000000
     15         24.468021       24.848234   0.000000   0.000000
     16         28.277167       28.663771   0.000000   0.000000
     17         30.174046       30.584966   0.000000   0.000000
     18         32.516959       32.695747   0.000000   0.000000
     19         35.049862       35.369158   0.000000   0.000000
     20         42.011373       42.347092   0.000000   0.000000
     21         46.057032       46.033906   0.000000   0.000000
     22         48.426891       49.382169   0.000000   0.000000
     23         48.659528       50.990391   0.000000   0.000000
     24         49.927341       51.056292   0.000000   0.000000
 
  0.4166667E+00  0.1666667E+00  0.0000000E+00  0.5208333E-02
      1          7.218025        8.169049   1.000000   1.000000
      2          7.219599        8.300882   1.000000   1.000000
      3          7.330874        8.347619   1.000000   1.000000
      4          8.783969        9.537270   1.000000   1.000000
      5          9.066726       10.509175   1.000000   1.000000
      6          9.378985       10.732765   1.000000   1.000000
      7          9.991178       11.460685   1.000000   1.000000
      8         11.524920       13.229765   1.000000   0.000000
      9         11.693815       13.440717   1.000000   0.000000
     10         11.701622       13.458885   1.000000   0.000000
     11         14.980766       15.985150   0.000000   0.000000
     12         16.841829       17.761761   0.000000   0.000000
     13         23.620196       24.018656   0.000000   0.000000
     14         23.987583       24.445256   0.000000   0.000000
     15         24.484879       24.858631   0.000000   0.000000
     16         26.540993       27.054028   0.000000   0.000000
     17         28.677970       29.129050   0.000000   0.000000
     18         32.269644       32.437419   0.000000   0.000000
     19         34.762028       35.077404   0.000000   0.000000
     20         41.876555       42.218649   0.000000   0.000000
     21         46.263070       46.261624   0.000000   0.000000
     22         48.631072       50.010814   0.000000   0.000000
     23         48.669757       50.622310   0.000000   0.000000
     24         50.568224       52.168282   0.000000   0.000000
 
  0.2500000E+00  0.2500000E+00  0.0000000E+00  0.5208333E-02
      1          7.343278        7.849209   1.000000   1.000000
      2          7.386553        8.513708   1.000000   1.000000
      3          7.828541        8.876432   1.000000   1.000000
      4          7.873898        8.931743   1.000000   1.000000
      5          8.966702       10.365879   1.000000   1.000000
      6          9.529483       10.932602   1.000000   1.000000
      7          9.895350       11.335618   1.000000   1.000000
      8         10.913472       12.579490   1.000000   0.000000
      9         11.645191       13.404660   1.000000   0.000000
     10         11.734376       13.466534   1.000000   0.000000
     11         13.672944       14.996068   0.000000   0.000000
     12         20.639094       21.168323   0.000000   0.000000
     13         21.434269       22.011567   0.000000   0.000000
     14         22.325296       22.913480   0.000000   0.000000
     15         23.996397       24.440515   0.000000   0.000000
     16         30.109412       30.301371   0.000000   0.000000
     17         30.426311       30.821699   0.000000   0.000000
     18         31.868058       32.259591   0.000000   0.000000
     19         32.857254       33.187174   0.000000   0.000000
     20         45.324701       45.534916   0.000000   0.000000
     21         47.198571       47.196067   0.000000   0.000000
     22         47.277272       47.985694   0.000000   0.000000
     23         48.613283       50.533595   0.000000   0.000000
     24         49.581305       52.254962   0.000000   0.000000
 
  0.3333333E+00  0.2500000E+00  0.0000000E+00  0.1041667E-01
      1          7.288231        8.445868   1.000000   1.000000
      2          7.597238        8.477026   1.000000   1.000000
      3          7.674381        8.704953   1.000000   1.000000
      4          8.265883        9.116564   1.000000   1.000000
      5          8.991231       10.376305   1.000000   1.000000
      6          9.288944       10.653731   1.000000   1.000000
      7         10.096250       11.566058   1.000000   1.000000
      8         11.246343       12.939507   1.000000   0.000000
      9         11.613674       13.369203   1.000000   0.000000
     10         11.667422       13.402564   1.000000   0.000000
     11         15.465130       16.471108   0.000000   0.000000
     12         18.297239       19.039268   0.000000   0.000000
     13         20.750799       21.292070   0.000000   0.000000
     14         24.514955       25.019436   0.000000   0.000000
     15         24.989828       25.375642   0.000000   0.000000
     16         27.669401       28.098546   0.000000   0.000000
     17         29.640012       30.052573   0.000000   0.000000
     18         29.831988       30.118488   0.000000   0.000000
     19         32.003753       32.348638   0.000000   0.000000
     20         45.799894       46.089995   0.000000   0.000000
     21         48.504748       48.889211   0.000000   0.000000
     22         48.702723       49.856657   0.000000   0.000000
     23         48.974334       51.739809   0.000000   0.000000
     24         50.470811       52.557997   0.000000   0.000000
 
  0.3333333E+00  0.3333333E+00  0.0000000E+00  0.1736111E-02
      1          7.291621        8.469225   1.000000   1.000000
      2          7.813935        8.791650   1.000000   1.000000
      3          7.813936        8.791651   1.000000   1.000000
      4          8.103351        8.988519   1.000000   1.000000
      5          9.084223       10.443365   1.000000   1.000000
      6          9.084223       10.443366   1.000000   1.000000
      7         10.214550       11.689090   1.000000   1.000000
      8         11.422961       13.138522   1.000000   0.000000
      9         11.422961       13.138523   1.000000   0.000000
     10         11.581076       13.332754   1.000000   0.000000
     11         17.249004       18.015133   0.000000   0.000000
     12         18.329665       19.062194   0.000000   0.000000
     13         18.329667       19.062199   0.000000   0.000000
     14         25.833588       26.200506   0.000000   0.000000
     15         26.675406       27.133890   0.000000   0.000000