PROCAR lm decomposed
# of k-points:   95         # of bands:   24         # of ions:    2

 k-point     1 :    0.00000000 0.00000000 0.00000000     weight = 0.00086806

band     1 # energy    2.49800264 # occ.  1.00000000
 
ion      s     py     pz     px    dxy    dyz    dz2    dxz  x2-y2    tot
    1  0.420  0.000  0.000  0.000  0.000  0.000  0.000  0.000  0.000  0.420
    2  0.420  0.000  0.000  0.000  0.000  0.000  0.000  0.000  0.000  0.420
tot    0.840  0.000  0.000  0.000  0.000  0.000  0.000  0.000  0.000  0.840
 
band     2 # energy    6.40810134 # occ.  1.00000000
 
ion      s     py     pz     px    dxy    dyz    dz2    dxz  x2-y2    tot
    1  0.092  0.000  0.000  0.000  0.000  0.000  0.381  0.000  0.000  0.472
    2  0.092  0.000  0.000  0.000  0.000  0.000  0.381  0.000  0.000  0.472
tot    0.184  0.000  0.000  0.000  0.000  0.000  0.761  0.000  0.000  0.945
 
band     3 # energy    9.38552893 # occ.  1.00000000
 
ion      s     py     pz     px    dxy    dyz    dz2    dxz  x2-y2    tot
    1  0.000  0.000  0.000  0.000  0.000  0.000  0.492  0.000  0.000  0.492
    2  0.000  0.000  0.000  0.000  0.000  0.000  0.492  0.000  0.000  0.492
tot    0.000  0.000  0.000  0.000  0.000  0.000  0.984  0.000  0.000  0.984
 
band     4 # energy    9.40290338 # occ.  1.00000000
 
ion      s     py     pz     px    dxy    dyz    dz2    dxz  x2-y2    tot
    1  0.000  0.000  0.000  0.001  0.487  0.000  0.000  0.000  0.000  0.488
    2  0.000  0.000  0.000  0.001  0.487  0.000  0.000  0.000  0.000  0.488
tot    0.000  0.000  0.000  0.002  0.975  0.000  0.000  0.000  0.000  0.976
 
band     5 # energy    9.40290368 # occ.  1.00000000
 
ion      s     py     pz     px    dxy    dyz    dz2    dxz  x2-y2    tot
    1  0.000  0.001  0.000  0.000  0.000  0.000  0.000  0.000  0.487  0.488
    2  0.000  0.001  0.000  0.000  0.000  0.000  0.000  0.000  0.487  0.488
tot    0.000  0.002  0.000  0.000  0.000  0.000  0.000  0.000  0.975  0.976
 
band     6 # energy    9.79295451 # occ.  1.00000000
 
ion      s     py     pz     px    dxy    dyz    dz2    dxz  x2-y2    tot
    1  0.000  0.000  0.000  0.001  0.491  0.000  0.000  0.000  0.000  0.492
    2  0.000  0.000  0.000  0.001  0.491  0.000  0.000  0.000  0.000  0.492
tot    0.000  0.000  0.000  0.002  0.982  0.000  0.000  0.000  0.000  0.984
 
band     7 # energy    9.79295470 # occ.  1.00000000
 
ion      s     py     pz     px    dxy    dyz    dz2    dxz  x2-y2    tot
    1  0.000  0.001  0.000  0.000  0.000  0.000  0.000  0.000  0.491  0.492
    2  0.000  0.001  0.000  0.000  0.000  0.000  0.000  0.000  0.491  0.492
tot    0.000  0.002  0.000  0.000  0.000  0.000  0.000  0.000  0.982  0.984
 
band     8 # energy   10.20673585 # occ.  1.00000000
 
ion      s     py     pz     px    dxy    dyz    dz2    dxz  x2-y2    tot
    1  0.000  0.000  0.000  0.000  0.000  0.000  0.000  0.493  0.000  0.493
    2  0.000  0.000  0.000  0.000  0.000  0.000  0.000  0.493  0.000  0.493
tot    0.000  0.000  0.000  0.000  0.000  0.000  0.000  0.986  0.000  0.986
 
band     9 # energy   10.20673590 # occ.  1.00000000
 
ion      s     py     pz     px    dxy    dyz    dz2    dxz  x2-y2    tot
    1  0.000  0.000  0.000  0.000  0.000  0.493  0.000  0.000  0.000  0.493
    2  0.000  0.000  0.000  0.000  0.000  0.493  0.000  0.000  0.000  0.493
tot    0.000  0.000  0.000  0.000  0.000  0.986  0.000  0.000  0.000  0.986
 
band    10 # energy   11.55428528 # occ.  1.00000000
 
ion      s     py     pz     px    dxy    dyz    dz2    dxz  x2-y2    tot
    1  0.000  0.000  0.000  0.000  0.000  0.000  0.000  0.493  0.000  0.493
    2  0.000  0.000  0.000  0.000  0.000  0.000  0.000  0.493  0.000  0.493
tot    0.000  0.000  0.000  0.000  0.000  0.000  0.000  0.985  0.000  0.985
 
band    11 # energy   11.55428544 # occ.  1.00000000
 
ion      s     py     pz     px    dxy    dyz    dz2    dxz  x2-y2    tot
    1  0.000  0.000  0.000  0.000  0.000  0.493  0.000  0.000  0.000  0.493
    2  0.000  0.000  0.000  0.000  0.000  0.493  0.000  0.000  0.000  0.493
tot    0.000  0.000  0.000  0.000  0.000  0.985  0.000  0.000  0.000  0.985
 
band    12 # energy   12.06714614 # occ.  0.99863262
 
ion      s     py     pz     px    dxy    dyz    dz2    dxz  x2-y2    tot
    1  0.000  0.000  0.405  0.000  0.000  0.000  0.000  0.000  0.000  0.405
    2  0.000  0.000  0.405  0.000  0.000  0.000  0.000  0.000  0.000  0.405
tot    0.000  0.000  0.809  0.000  0.000  0.000  0.000  0.000  0.000  0.809
 
band    13 # energy   19.77291112 # occ.  0.00000000
 
ion      s     py     pz     px    dxy    dyz    dz2    dxz  x2-y2    tot
    1  0.232  0.000  0.000  0.000  0.000  0.000  0.257  0.000  0.000  0.489
    2  0.232  0.000  0.000  0.000  0.000  0.000  0.257  0.000  0.000  0.489
tot    0.464  0.000  0.000  0.000  0.000  0.000  0.514  0.000  0.000  0.978
 
band    14 # energy   35.16602022 # occ.  0.00000000
 
ion      s     py     pz     px    dxy    dyz    dz2    dxz  x2-y2    tot
    1  0.007  0.000  0.000  0.000  0.000  0.000  0.033  0.000  0.000  0.040
    2  0.007  0.000  0.000  0.000  0.000  0.000  0.033  0.000  0.000  0.040
tot    0.014  0.000  0.000  0.000  0.000  0.000  0.067  0.000  0.000  0.081
 
band    15 # energy   38.68831583 # occ.  0.00000000
 
ion      s     py     pz     px    dxy    dyz    dz2    dxz  x2-y2    tot
    1  0.022  0.000  0.000  0.000  0.000  0.000  0.078  0.000  0.000  0.099
    2  0.022  0.000  0.000  0.000  0.000  0.000  0.078  0.000  0.000  0.099
tot    0.044  0.000  0.000  0.000  0.000  0.000  0.155  0.000  0.000  0.199
 
band    16 # energy   39.03823238 # occ.  0.00000000
 
ion      s     py     pz     px    dxy    dyz    dz2    dxz  x2-y2    tot
    1  0.000  0.000  0.021  0.000  0.000  0.000  0.000  0.000  0.000  0.021
    2  0.000  0.000  0.021  0.000  0.000  0.000  0.000  0.000  0.000  0.021
tot    0.000  0.000  0.043  0.000  0.000  0.000  0.000  0.000  0.000  0.043
 
band    17 # energy   39.06769878 # occ.  0.00000000
 
ion      s     py     pz     px    dxy    dyz    dz2    dxz  x2-y2    tot
    1  0.000  0.265  0.000  0.000  0.000  0.000  0.000  0.000  0.157  0.422
    2  0.000  0.265  0.000  0.000  0.000  0.000  0.000  0.000  0.157  0.422
tot    0.000  0.529  0.000  0.000  0.000  0.000  0.000  0.000  0.314  0.844
 
band    18 # energy   39.06769965 # occ.  0.00000000
 
ion      s     py     pz     px    dxy    dyz    dz2    dxz  x2-y2    tot
    1  0.000  0.000  0.000  0.265  0.157  0.000  0.000  0.000  0.000  0.422
    2  0.000  0.000  0.000  0.265  0.157  0.000  0.000  0.000  0.000  0.422
tot    0.000  0.000  0.000  0.529  0.314  0.000  0.000  0.000  0.000  0.844
 
band    19 # energy   40.28656258 # occ.  0.00000000
 
ion      s     py     pz     px    dxy    dyz    dz2    dxz  x2-y2    tot
    1  0.000  0.000  0.000  0.080  0.465  0.000  0.000  0.000  0.000  0.546
    2  0.000  0.000  0.000  0.080  0.465  0.000  0.000  0.000  0.000  0.546
tot    0.000  0.000  0.000  0.161  0.930  0.000  0.000  0.000  0.000  1.091
 
band    20 # energy   40.28656429 # occ.  0.00000000
 
ion      s     py     pz     px    dxy    dyz    dz2    dxz  x2-y2    tot
    1  0.000  0.080  0.000  0.000  0.000  0.000  0.000  0.000  0.465  0.546
    2  0.000  0.080  0.000  0.000  0.000  0.000  0.000  0.000  0.465  0.546
tot    0.000  0.161  0.000  0.000  0.000  0.000  0.000  0.000  0.930  1.091
 
band    21 # energy   44.52768485 # occ.  0.00000000
 
ion      s     py     pz     px    dxy    dyz    dz2    dxz  x2-y2    tot
    1  0.000  0.000  0.000  0.000  0.000  0.000  0.000  0.154  0.000  0.154
    2  0.000  0.000  0.000  0.000  0.000  0.000  0.000  0.154  0.000  0.154
tot    0.000  0.000  0.000  0.000  0.000  0.000  0.000  0.307  0.000  0.307
 
band    22 # energy   44.52768525 # occ.  0.00000000
 
ion      s     py     pz     px    dxy    dyz    dz2    dxz  x2-y2    tot
    1  0.000  0.000  0.000  0.000  0.000  0.154  0.000  0.000  0.000  0.154
    2  0.000  0.000  0.000  0.000  0.000  0.154  0.000  0.000  0.000  0.154
tot    0.000  0.000  0.000  0.000  0.000  0.307  0.000  0.000  0.000  0.307
 
band    23 # energy   46.07968691 # occ.  0.00000000
 
ion      s     py     pz     px    dxy    dyz    dz2    dxz  x2-y2    tot
    1  0.000  0.000  0.051  0.000  0.000  0.000  0.000  0.000  0.000  0.051
    2  0.000  0.000  0.051  0.000  0.000  0.000  0.000  0.000  0.000  0.051
tot    0.000  0.000  0.102  0.000  0.000  0.000  0.000  0.000  0.000  0.102
 
band    24 # energy   46.22579906 # occ.  0.00000000
 
ion      s     py     pz     px    dxy    dyz    dz2    dxz  x2-y2    tot
    1  0.014  0.000  0.000  0.000  0.000  0.000  0.734  0.000  0.000  0.747
    2  0.014  0.000  0.000  0.000  0.000  0.000  0.734  0.000  0.000  0.747
tot    0.027  0.000  0.000  0.000  0.000  0.000  1.467  0.000  0.000  1.494
 

 k-point     2 :    0.08333333 0.00000000 0.00000000     weight = 0.00520833

band     1 # energy    2.76565278 # occ.  1.00000000
 
ion      s     py     pz     px    dxy    dyz    dz2    dxz  x2-y2    tot
    1  0.410  0.003  0.000  0.008  0.000  0.000  0.000  0.000  0.000  0.420
    2  0.410  0.003  0.000  0.008  0.000  0.000  0.000  0.000  0.000  0.420
tot    0.819  0.005  0.000  0.015  0.000  0.000  0.000  0.000  0.000  0.841
 
band     2 # energy    6.57315472 # occ.  1.00000000
 
ion      s     py     pz     px    dxy    dyz    dz2    dxz  x2-y2    tot
    1  0.083  0.002  0.000  0.005  0.002  0.000  0.380  0.000  0.001  0.473
    2  0.083  0.002  0.000  0.005  0.002  0.000  0.380  0.000  0.001  0.473
tot    0.166  0.003  0.000  0.010  0.004  0.000  0.760  0.000  0.001  0.945
 
band     3 # energy    9.11427101 # occ.  1.00000000
 
ion      s     py     pz     px    dxy    dyz    dz2    dxz  x2-y2    tot
    1  0.000  0.000  0.000  0.001  0.239  0.000  0.167  0.000  0.080  0.487
    2  0.000  0.000  0.000  0.001  0.239  0.000  0.167  0.000  0.080  0.487
tot    0.000  0.001  0.000  0.002  0.477  0.000  0.334  0.000  0.159  0.974
 
band     4 # energy    9.53940825 # occ.  1.00000000
 
ion      s     py     pz     px    dxy    dyz    dz2    dxz  x2-y2    tot
    1  0.000  0.001  0.000  0.000  0.122  0.000  0.000  0.000  0.365  0.488
    2  0.000  0.001  0.000  0.000  0.122  0.000  0.000  0.000  0.365  0.488
tot    0.000  0.002  0.000  0.001  0.243  0.000  0.000  0.000  0.730  0.976
 
band     5 # energy    9.62557183 # occ.  1.00000000
 
ion      s     py     pz     px    dxy    dyz    dz2    dxz  x2-y2    tot
    1  0.000  0.000  0.000  0.000  0.150  0.000  0.290  0.000  0.050  0.491
    2  0.000  0.000  0.000  0.000  0.150  0.000  0.290  0.000  0.050  0.491
tot    0.000  0.000  0.000  0.001  0.299  0.000  0.581  0.000  0.100  0.982
 
band     6 # energy    9.73570150 # occ.  1.00000000
 
ion      s     py     pz     px    dxy    dyz    dz2    dxz  x2-y2    tot
    1  0.001  0.000  0.000  0.001  0.340  0.000  0.036  0.000  0.113  0.491
    2  0.001  0.000  0.000  0.001  0.340  0.000  0.036  0.000  0.113  0.491
tot    0.003  0.000  0.000  0.001  0.679  0.000  0.071  0.000  0.226  0.981
 
band     7 # energy    9.91393621 # occ.  1.00000000
 
ion      s     py     pz     px    dxy    dyz    dz2    dxz  x2-y2    tot
    1  0.000  0.001  0.000  0.000  0.123  0.000  0.000  0.000  0.368  0.492
    2  0.000  0.001  0.000  0.000  0.123  0.000  0.000  0.000  0.368  0.492
tot    0.000  0.002  0.000  0.001  0.245  0.000  0.000  0.000  0.735  0.983
 
band     8 # energy   10.01214441 # occ.  1.00000000
 
ion      s     py     pz     px    dxy    dyz    dz2    dxz  x2-y2    tot
    1  0.000  0.000  0.020  0.000  0.000  0.116  0.000  0.349  0.000  0.485
    2  0.000  0.000  0.020  0.000  0.000  0.116  0.000  0.349  0.000  0.485
tot    0.000  0.000  0.041  0.000  0.000  0.233  0.000  0.698  0.000  0.971
 
band     9 # energy   10.11900286 # occ.  1.00000000
 
ion      s     py     pz     px    dxy    dyz    dz2    dxz  x2-y2    tot
    1  0.000  0.000  0.000  0.000  0.000  0.369  0.000  0.123  0.000  0.492
    2  0.000  0.000  0.000  0.000  0.000  0.369  0.000  0.123  0.000  0.492
tot    0.000  0.000  0.000  0.000  0.000  0.738  0.000  0.246  0.000  0.984
 
band    10 # energy   10.55906341 # occ.  1.00000000
 
ion      s     py     pz     px    dxy    dyz    dz2    dxz  x2-y2    tot
    1  0.000  0.000  0.120  0.000  0.000  0.086  0.000  0.258  0.000  0.464
    2  0.000  0.000  0.120  0.000  0.000  0.086  0.000  0.258  0.000  0.464
tot    0.000  0.000  0.239  0.000  0.000  0.172  0.000  0.516  0.000  0.927
 
band    11 # energy   11.59266316 # occ.  1.00000000
 
ion      s     py     pz     px    dxy    dyz    dz2    dxz  x2-y2    tot
    1  0.000  0.000  0.000  0.000  0.000  0.370  0.000  0.123  0.000  0.493
    2  0.000  0.000  0.000  0.000  0.000  0.370  0.000  0.123  0.000  0.493
tot    0.000  0.000  0.000  0.000  0.000  0.740  0.000  0.247  0.000  0.987
 
band    12 # energy   13.42259426 # occ.  0.00000000
 
ion      s     py     pz     px    dxy    dyz    dz2    dxz  x2-y2    tot
    1  0.000  0.000  0.260  0.000  0.000  0.045  0.000  0.136  0.000  0.442
    2  0.000  0.000  0.260  0.000  0.000  0.045  0.000  0.136  0.000  0.442
tot    0.000  0.000  0.520  0.000  0.000  0.091  0.000  0.273  0.000  0.884
 
band    13 # energy   19.80563736 # occ.  0.00000000
 
ion      s     py     pz     px    dxy    dyz    dz2    dxz  x2-y2    tot
    1  0.228  0.002  0.000  0.006  0.000  0.000  0.251  0.000  0.000  0.487
    2  0.228  0.002  0.000  0.006  0.000  0.000  0.251  0.000  0.000  0.487
tot    0.455  0.004  0.000  0.012  0.000  0.000  0.501  0.000  0.000  0.974
 
band    14 # energy   33.71810872 # occ.  0.00000000
 
ion      s     py     pz     px    dxy    dyz    dz2    dxz  x2-y2    tot
    1  0.012  0.016  0.000  0.049  0.120  0.000  0.028  0.000  0.040  0.266
    2  0.012  0.016  0.000  0.049  0.120  0.000  0.028  0.000  0.040  0.266
tot    0.025  0.033  0.000  0.098  0.240  0.000  0.056  0.000  0.080  0.532
 
band    15 # energy   36.27444408 # occ.  0.00000000
 
ion      s     py     pz     px    dxy    dyz    dz2    dxz  x2-y2    tot
    1  0.024  0.025  0.000  0.074  0.082  0.000  0.045  0.000  0.027  0.278
    2  0.024  0.025  0.000  0.074  0.082  0.000  0.045  0.000  0.027  0.278
tot    0.048  0.050  0.000  0.149  0.164  0.000  0.091  0.000  0.055  0.555
 
band    16 # energy   36.69207294 # occ.  0.00000000
 
ion      s     py     pz     px    dxy    dyz    dz2    dxz  x2-y2    tot
    1  0.000  0.173  0.000  0.058  0.053  0.000  0.000  0.000  0.160  0.444
    2  0.000  0.173  0.000  0.058  0.053  0.000  0.000  0.000  0.160  0.444
tot    0.000  0.346  0.000  0.115  0.107  0.000  0.000  0.000  0.320  0.888
 
band    17 # energy   39.06719581 # occ.  0.00000000
 
ion      s     py     pz     px    dxy    dyz    dz2    dxz  x2-y2    tot
    1  0.000  0.000  0.009  0.000  0.000  0.013  0.000  0.038  0.000  0.059
    2  0.000  0.000  0.009  0.000  0.000  0.013  0.000  0.038  0.000  0.059
tot    0.000  0.000  0.017  0.000  0.000  0.025  0.000  0.076  0.000  0.119
 
band    18 # energy   39.82169070 # occ.  0.00000000
 
ion      s     py     pz     px    dxy    dyz    dz2    dxz  x2-y2    tot
    1  0.002  0.019  0.000  0.057  0.047  0.000  0.032  0.000  0.016  0.173
    2  0.002  0.019  0.000  0.057  0.047  0.000  0.032  0.000  0.016  0.173
tot    0.004  0.038  0.000  0.114  0.094  0.000  0.064  0.000  0.031  0.346
 
band    19 # energy   41.21570467 # occ.  0.00000000
 
ion      s     py     pz     px    dxy    dyz    dz2    dxz  x2-y2    tot
    1  0.000  0.000  0.028  0.000  0.000  0.031  0.000  0.094  0.000  0.153
    2  0.000  0.000  0.028  0.000  0.000  0.031  0.000  0.094  0.000  0.153
tot    0.000  0.000  0.056  0.000  0.000  0.063  0.000  0.188  0.000  0.307
 
band    20 # energy   42.85097233 # occ.  0.00000000
 
ion      s     py     pz     px    dxy    dyz    dz2    dxz  x2-y2    tot
    1  0.000  0.074  0.000  0.025  0.108  0.000  0.000  0.000  0.324  0.530
    2  0.000  0.074  0.000  0.025  0.108  0.000  0.000  0.000  0.324  0.530
tot    0.000  0.147  0.000  0.049  0.216  0.000  0.000  0.000  0.648  1.061
 
band    21 # energy   43.61228540 # occ.  0.00000000
 
ion      s     py     pz     px    dxy    dyz    dz2    dxz  x2-y2    tot
    1  0.010  0.032  0.000  0.096  0.192  0.000  0.004  0.000  0.064  0.398
    2  0.010  0.032  0.000  0.096  0.192  0.000  0.004  0.000  0.064  0.398
tot    0.020  0.064  0.000  0.192  0.384  0.000  0.008  0.000  0.128  0.797
 
band    22 # energy   44.12212641 # occ.  0.00000000
 
ion      s     py     pz     px    dxy    dyz    dz2    dxz  x2-y2    tot
    1  0.000  0.000  0.000  0.000  0.000  0.201  0.000  0.067  0.000  0.268
    2  0.000  0.000  0.000  0.000  0.000  0.201  0.000  0.067  0.000  0.268
tot    0.000  0.000  0.000  0.000  0.000  0.402  0.000  0.134  0.000  0.537
 
band    23 # energy   45.80280129 # occ.  0.00000000
 
ion      s     py     pz     px    dxy    dyz    dz2    dxz  x2-y2    tot
    1  0.004  0.008  0.000  0.023  0.039  0.000  0.611  0.000  0.013  0.698
    2  0.004  0.008  0.000  0.023  0.039  0.000  0.611  0.000  0.013  0.698
tot    0.008  0.015  0.000  0.046  0.078  0.000  1.221  0.000  0.026  1.395
 
band    24 # energy   46.12694034 # occ.  0.00000000
 
ion      s     py     pz     px    dxy    dyz    dz2    dxz  x2-y2    tot
    1  0.000  0.000  0.171  0.000  0.000  0.059  0.000  0.177  0.000  0.408
    2  0.000  0.000  0.171  0.000  0.000  0.059  0.000  0.177  0.000  0.408
tot    0.000  0.000  0.342  0.000  0.000  0.118  0.000  0.355  0.000  0.815
 

 k-point     3 :    0.16666667 0.00000000 0.00000000     weight = 0.00520833

band     1 # energy    3.53544156 # occ.  1.00000000
 
ion      s     py     pz     px    dxy    dyz    dz2    dxz  x2-y2    tot
    1  0.379  0.010  0.000  0.029  0.002  0.000  0.001  0.000  0.001  0.421
    2  0.379  0.010  0.000  0.029  0.002  0.000  0.001  0.000  0.001  0.421
tot    0.757  0.019  0.000  0.058  0.005  0.000  0.002  0.000  0.002  0.843
 
band     2 # energy    6.97858718 # occ.  1.00000000
 
ion      s     py     pz     px    dxy    dyz    dz2    dxz  x2-y2    tot
    1  0.059  0.005  0.000  0.015  0.020  0.000  0.367  0.000  0.007  0.474
    2  0.059  0.005  0.000  0.015  0.020  0.000  0.367  0.000  0.007  0.474
tot    0.119  0.010  0.000  0.030  0.041  0.000  0.735  0.000  0.014  0.948
 
band     3 # energy    8.77617940 # occ.  1.00000000
 
ion      s     py     pz     px    dxy    dyz    dz2    dxz  x2-y2    tot
    1  0.000  0.002  0.000  0.006  0.267  0.000  0.117  0.000  0.089  0.482
    2  0.000  0.002  0.000  0.006  0.267  0.000  0.117  0.000  0.089  0.482
tot    0.001  0.004  0.000  0.011  0.535  0.000  0.235  0.000  0.178  0.964
 
band     4 # energy    9.13586437 # occ.  1.00000000
 
ion      s     py     pz     px    dxy    dyz    dz2    dxz  x2-y2    tot
    1  0.000  0.000  0.081  0.000  0.000  0.096  0.000  0.287  0.000  0.463
    2  0.000  0.000  0.081  0.000  0.000  0.096  0.000  0.287  0.000  0.463
tot    0.000  0.000  0.163  0.000  0.000  0.191  0.000  0.573  0.000  0.927
 
band     5 # energy    9.52625564 # occ.  1.00000000
 
ion      s     py     pz     px    dxy    dyz    dz2    dxz  x2-y2    tot
    1  0.005  0.001  0.000  0.002  0.316  0.000  0.059  0.000  0.105  0.488
    2  0.005  0.001  0.000  0.002  0.316  0.000  0.059  0.000  0.105  0.488
tot    0.011  0.001  0.000  0.004  0.632  0.000  0.118  0.000  0.211  0.976
 
band     6 # energy    9.90357974 # occ.  1.00000000
 
ion      s     py     pz     px    dxy    dyz    dz2    dxz  x2-y2    tot
    1  0.000  0.000  0.000  0.000  0.000  0.368  0.000  0.123  0.000  0.491
    2  0.000  0.000  0.000  0.000  0.000  0.368  0.000  0.123  0.000  0.491
tot    0.000  0.000  0.000  0.000  0.000  0.736  0.000  0.245  0.000  0.981
 
band     7 # energy    9.92610375 # occ.  1.00000000
 
ion      s     py     pz     px    dxy    dyz    dz2    dxz  x2-y2    tot
    1  0.000  0.002  0.000  0.001  0.121  0.000  0.000  0.000  0.364  0.487
    2  0.000  0.002  0.000  0.001  0.121  0.000  0.000  0.000  0.364  0.487
tot    0.000  0.004  0.000  0.001  0.242  0.000  0.000  0.000  0.727  0.975
 
band     8 # energy    9.99379643 # occ.  1.00000000
 
ion      s     py     pz     px    dxy    dyz    dz2    dxz  x2-y2    tot
    1  0.002  0.000  0.000  0.001  0.115  0.000  0.333  0.000  0.038  0.490
    2  0.002  0.000  0.000  0.001  0.115  0.000  0.333  0.000  0.038  0.490
tot    0.004  0.001  0.000  0.003  0.230  0.000  0.666  0.000  0.077  0.980
 
band     9 # energy   10.14773878 # occ.  1.00000000
 
ion      s     py     pz     px    dxy    dyz    dz2    dxz  x2-y2    tot
    1  0.000  0.000  0.045  0.000  0.000  0.109  0.000  0.328  0.000  0.482
    2  0.000  0.000  0.045  0.000  0.000  0.109  0.000  0.328  0.000  0.482
tot    0.000  0.000  0.090  0.000  0.000  0.219  0.000  0.656  0.000  0.964
 
band    10 # energy   10.25337855 # occ.  1.00000000
 
ion      s     py     pz     px    dxy    dyz    dz2    dxz  x2-y2    tot
    1  0.000  0.002  0.000  0.001  0.122  0.000  0.000  0.000  0.367  0.491
    2  0.000  0.002  0.000  0.001  0.122  0.000  0.000  0.000  0.367  0.491
tot    0.000  0.004  0.000  0.001  0.244  0.000  0.000  0.000  0.733  0.983
 
band    11 # energy   11.67431682 # occ.  1.00000000
 
ion      s     py     pz     px    dxy    dyz    dz2    dxz  x2-y2    tot
    1  0.000  0.000  0.000  0.000  0.000  0.371  0.000  0.124  0.000  0.495
    2  0.000  0.000  0.000  0.000  0.000  0.371  0.000  0.124  0.000  0.495
tot    0.000  0.000  0.000  0.000  0.000  0.742  0.000  0.247  0.000  0.990
 
band    12 # energy   15.22120134 # occ.  0.00000000
 
ion      s     py     pz     px    dxy    dyz    dz2    dxz  x2-y2    tot
    1  0.000  0.000  0.261  0.000  0.000  0.047  0.000  0.140  0.000  0.448
    2  0.000  0.000  0.261  0.000  0.000  0.047  0.000  0.140  0.000  0.448
tot    0.000  0.000  0.522  0.000  0.000  0.093  0.000  0.280  0.000  0.896
 
band    13 # energy   19.92389562 # occ.  0.00000000
 
ion      s     py     pz     px    dxy    dyz    dz2    dxz  x2-y2    tot
    1  0.211  0.009  0.000  0.027  0.001  0.000  0.232  0.000  0.000  0.480
    2  0.211  0.009  0.000  0.027  0.001  0.000  0.232  0.000  0.000  0.480
tot    0.422  0.018  0.000  0.055  0.001  0.000  0.464  0.000  0.000  0.961
 
band    14 # energy   29.98098112 # occ.  0.00000000
 
ion      s     py     pz     px    dxy    dyz    dz2    dxz  x2-y2    tot
    1  0.042  0.036  0.000  0.107  0.148  0.000  0.026  0.000  0.049  0.407
    2  0.042  0.036  0.000  0.107  0.148  0.000  0.026  0.000  0.049  0.407
tot    0.083  0.071  0.000  0.214  0.296  0.000  0.051  0.000  0.099  0.814
 
band    15 # energy   34.07561037 # occ.  0.00000000
 
ion      s     py     pz     px    dxy    dyz    dz2    dxz  x2-y2    tot
    1  0.000  0.194  0.000  0.065  0.041  0.000  0.000  0.000  0.122  0.421
    2  0.000  0.194  0.000  0.065  0.041  0.000  0.000  0.000  0.122  0.421
tot    0.000  0.388  0.000  0.129  0.081  0.000  0.000  0.000  0.244  0.842
 
band    16 # energy   35.21458949 # occ.  0.00000000
 
ion      s     py     pz     px    dxy    dyz    dz2    dxz  x2-y2    tot
    1  0.023  0.007  0.000  0.020  0.162  0.000  0.054  0.000  0.054  0.320
    2  0.023  0.007  0.000  0.020  0.162  0.000  0.054  0.000  0.054  0.320
tot    0.046  0.013  0.000  0.040  0.325  0.000  0.107  0.000  0.108  0.640
 
band    17 # energy   37.16173382 # occ.  0.00000000
 
ion      s     py     pz     px    dxy    dyz    dz2    dxz  x2-y2    tot
    1  0.000  0.000  0.037  0.000  0.000  0.061  0.000  0.182  0.000  0.279
    2  0.000  0.000  0.037  0.000  0.000  0.061  0.000  0.182  0.000  0.279
tot    0.000  0.000  0.074  0.000  0.000  0.121  0.000  0.363  0.000  0.558
 
band    18 # energy   39.19267470 # occ.  0.00000000
 
ion      s     py     pz     px    dxy    dyz    dz2    dxz  x2-y2    tot
    1  0.000  0.000  0.009  0.000  0.000  0.015  0.000  0.045  0.000  0.069
    2  0.000  0.000  0.009  0.000  0.000  0.015  0.000  0.045  0.000  0.069
tot    0.000  0.000  0.017  0.000  0.000  0.030  0.000  0.091  0.000  0.138
 
band    19 # energy   40.70027417 # occ.  0.00000000
 
ion      s     py     pz     px    dxy    dyz    dz2    dxz  x2-y2    tot
    1  0.021  0.029  0.000  0.088  0.050  0.000  0.023  0.000  0.017  0.228
    2  0.021  0.029  0.000  0.088  0.050  0.000  0.023  0.000  0.017  0.228
tot    0.042  0.059  0.000  0.176  0.100  0.000  0.045  0.000  0.033  0.456
 
band    20 # energy   43.41387353 # occ.  0.00000000
 
ion      s     py     pz     px    dxy    dyz    dz2    dxz  x2-y2    tot
    1  0.083  0.045  0.000  0.136  0.002  0.000  0.191  0.000  0.001  0.458
    2  0.083  0.045  0.000  0.136  0.002  0.000  0.191  0.000  0.001  0.458
tot    0.167  0.091  0.000  0.272  0.004  0.000  0.381  0.000  0.001  0.916
 
band    21 # energy   43.42668273 # occ.  0.00000000
 
ion      s     py     pz     px    dxy    dyz    dz2    dxz  x2-y2    tot
    1  0.000  0.000  0.000  0.000  0.000  0.316  0.000  0.105  0.000  0.421
    2  0.000  0.000  0.000  0.000  0.000  0.316  0.000  0.105  0.000  0.421
tot    0.000  0.000  0.000  0.000  0.000  0.631  0.000  0.210  0.000  0.842
 
band    22 # energy   44.64505577 # occ.  0.00000000
 
ion      s     py     pz     px    dxy    dyz    dz2    dxz  x2-y2    tot
    1  0.000  0.000  0.224  0.000  0.000  0.015  0.000  0.044  0.000  0.283
    2  0.000  0.000  0.224  0.000  0.000  0.015  0.000  0.044  0.000  0.283
tot    0.000  0.000  0.448  0.000  0.000  0.030  0.000  0.089  0.000  0.566
 
band    23 # energy   45.07058020 # occ.  0.00000000
 
ion      s     py     pz     px    dxy    dyz    dz2    dxz  x2-y2    tot
    1  0.000  0.027  0.000  0.009  0.138  0.000  0.000  0.000  0.413  0.587
    2  0.000  0.027  0.000  0.009  0.138  0.000  0.000  0.000  0.413  0.587
tot    0.000  0.054  0.000  0.018  0.275  0.000  0.000  0.000  0.826  1.173
 
band    24 # energy   47.04612581 # occ.  0.00000000
 
ion      s     py     pz     px    dxy    dyz    dz2    dxz  x2-y2    tot
    1  0.464  0.006  0.000  0.019  0.064  0.000  0.340  0.000  0.021  0.916
    2  0.464  0.006  0.000  0.019  0.064  0.000  0.340  0.000  0.021  0.916
tot    0.928  0.013  0.000  0.039  0.129  0.000  0.680  0.000  0.043  1.832
 

 k-point     4 :    0.25000000 0.00000000 0.00000000     weight = 0.00520833

band     1 # energy    4.68280805 # occ.  1.00000000
 
ion      s     py     pz     px    dxy    dyz    dz2    dxz  x2-y2    tot
    1  0.324  0.018  0.000  0.055  0.017  0.000  0.006  0.000  0.006  0.425
    2  0.324  0.018  0.000  0.055  0.017  0.000  0.006  0.000  0.006  0.425
tot    0.647  0.037  0.000  0.110  0.033  0.000  0.012  0.000  0.011  0.851
 
band     2 # energy    7.29037517 # occ.  1.00000000
 
ion      s     py     pz     px    dxy    dyz    dz2    dxz  x2-y2    tot
    1  0.030  0.005  0.000  0.015  0.109  0.000  0.283  0.000  0.036  0.477
    2  0.030  0.005  0.000  0.015  0.109  0.000  0.283  0.000  0.036  0.477
tot    0.059  0.010  0.000  0.029  0.218  0.000  0.565  0.000  0.073  0.954
 
band     3 # energy    8.26931534 # occ.  1.00000000
 
ion      s     py     pz     px    dxy    dyz    dz2    dxz  x2-y2    tot
    1  0.000  0.000  0.066  0.000  0.000  0.099  0.000  0.297  0.000  0.461
    2  0.000  0.000  0.066  0.000  0.000  0.099  0.000  0.297  0.000  0.461
tot    0.000  0.000  0.132  0.000  0.000  0.198  0.000  0.593  0.000  0.923
 
band     4 # energy    8.57176270 # occ.  1.00000000
 
ion      s     py     pz     px    dxy    dyz    dz2    dxz  x2-y2    tot
    1  0.001  0.009  0.000  0.026  0.231  0.000  0.131  0.000  0.077  0.474
    2  0.001  0.009  0.000  0.026  0.231  0.000  0.131  0.000  0.077  0.474
tot    0.002  0.017  0.000  0.052  0.461  0.000  0.262  0.000  0.154  0.949
 
band     5 # energy    9.41678346 # occ.  1.00000000
 
ion      s     py     pz     px    dxy    dyz    dz2    dxz  x2-y2    tot
    1  0.012  0.002  0.000  0.005  0.251  0.000  0.131  0.000  0.084  0.486
    2  0.012  0.002  0.000  0.005  0.251  0.000  0.131  0.000  0.084  0.486
tot    0.025  0.004  0.000  0.011  0.503  0.000  0.262  0.000  0.168  0.972
 
band     6 # energy    9.64585815 # occ.  1.00000000
 
ion      s     py     pz     px    dxy    dyz    dz2    dxz  x2-y2    tot
    1  0.000  0.000  0.000  0.000  0.000  0.367  0.000  0.122  0.000  0.490
    2  0.000  0.000  0.000  0.000  0.000  0.367  0.000  0.122  0.000  0.490
tot    0.000  0.000  0.000  0.000  0.000  0.734  0.000  0.245  0.000  0.979
 
band     7 # energy    9.91196476 # occ.  1.00000000
 
ion      s     py     pz     px    dxy    dyz    dz2    dxz  x2-y2    tot
    1  0.000  0.000  0.036  0.000  0.000  0.112  0.000  0.335  0.000  0.483
    2  0.000  0.000  0.036  0.000  0.000  0.112  0.000  0.335  0.000  0.483
tot    0.000  0.000  0.073  0.000  0.000  0.224  0.000  0.671  0.000  0.967
 
band     8 # energy   10.48820283 # occ.  1.00000000
 
ion      s     py     pz     px    dxy    dyz    dz2    dxz  x2-y2    tot
    1  0.000  0.002  0.000  0.001  0.121  0.000  0.000  0.000  0.364  0.488
    2  0.000  0.002  0.000  0.001  0.121  0.000  0.000  0.000  0.364  0.488
tot    0.000  0.005  0.000  0.002  0.242  0.000  0.000  0.000  0.727  0.976
 
band     9 # energy   10.51014404 # occ.  1.00000000
 
ion      s     py     pz     px    dxy    dyz    dz2    dxz  x2-y2    tot
    1  0.007  0.002  0.000  0.007  0.101  0.000  0.338  0.000  0.034  0.489
    2  0.007  0.002  0.000  0.007  0.101  0.000  0.338  0.000  0.034  0.489
tot    0.013  0.004  0.000  0.013  0.203  0.000  0.677  0.000  0.068  0.978
 
band    10 # energy   10.74180180 # occ.  1.00000000
 
ion      s     py     pz     px    dxy    dyz    dz2    dxz  x2-y2    tot
    1  0.000  0.003  0.000  0.001  0.122  0.000  0.000  0.000  0.366  0.492
    2  0.000  0.003  0.000  0.001  0.122  0.000  0.000  0.000  0.366  0.492
tot    0.000  0.006  0.000  0.002  0.244  0.000  0.000  0.000  0.732  0.984
 
band    11 # energy   11.75129885 # occ.  1.00000000
 
ion      s     py     pz     px    dxy    dyz    dz2    dxz  x2-y2    tot