<?xml version="1.0" encoding="ISO-8859-1"?>
<modeling>
 <generator>
  <i name="program" type="string">vasp </i>
  <i name="version" type="string">6.3.2  </i>
  <i name="subversion" type="string">27Jun22 (build Aug 12 2022 00:53:59) complex                          parallel </i>
  <i name="platform" type="string">tv2STD </i>
  <i name="date" type="string">2024 12 03 </i>
  <i name="time" type="string">01:28:15 </i>
 </generator>
 <incar>
  <i type="string" name="SYSTEM">Co-hcc</i>
  <i type="int" name="ISTART">     0</i>
  <i type="string" name="PREC">Accurate      normal | accurate</i>
  <i type="string" name="ALGO">Normal     Normal, Fast, Very_Fast</i>
  <i type="logical" name="ADDGRID"> F  </i>
  <i type="int" name="ISPIN">     2</i>
  <i type="int" name="ICHARG">     2</i>
  <i type="int" name="INIWAV">     1</i>
  <i type="int" name="NELM">   100</i>
  <i type="int" name="IBRION">     2</i>
  <i name="EDIFF">      0.00000100</i>
  <i name="EDIFFG">     -0.02000000</i>
  <i type="int" name="NSW">   100</i>
  <i type="int" name="ISIF">     2</i>
  <i type="int" name="ISYM">     1</i>
  <i name="ENCUT">    425.00000000</i>
  <v name="MAGMOM">      3.00000000      3.00000000</v>
  <i type="logical" name="LREAL"> F  </i>
  <i type="int" name="ISMEAR">     0</i>
  <i name="SIGMA">      0.05000000</i>
  <i type="int" name="NWRITE">     2</i>
  <i type="logical" name="LWAVE"> F  </i>
  <i type="logical" name="LCHARG"> F  </i>
  <i type="int" name="LORBIT">    11</i>
 </incar>
 <primitive_cell>
  <structure name="primitive_cell" >
   <crystal>
    <varray name="basis" >
     <v>       1.19629229      -2.07203903       0.00000000 </v>
     <v>       1.19629229       2.07203903       0.00000000 </v>
     <v>       0.00000000       0.00000000       3.85935209 </v>
    </varray>
    <i name="volume">     19.13284855 </i>
    <varray name="rec_basis" >
     <v>       0.41795806      -0.24130820       0.00000000 </v>
     <v>       0.41795806       0.24130820       0.00000000 </v>
     <v>       0.00000000       0.00000000       0.25911085 </v>
    </varray>
   </crystal>
   <varray name="positions" >
    <v>       0.33333333       0.66666667       0.25000000 </v>
    <v>       0.66666667       0.33333333       0.75000000 </v>
   </varray>
  </structure>
  <varray name="primitive_index" >
   <v type="int" >        1 </v>
   <v type="int" >        2 </v>
  </varray>
 </primitive_cell>
 <kpoints>
  <generation param="Gamma">
   <v type="int" name="divisions">      12       12        8 </v>
   <v name="usershift">      0.00000000       0.00000000       0.00000000 </v>
   <v name="genvec1">      0.08333333       0.00000000       0.00000000 </v>
   <v name="genvec2">      0.00000000       0.08333333       0.00000000 </v>
   <v name="genvec3">      0.00000000       0.00000000       0.12500000 </v>
   <v name="shift">      0.00000000       0.00000000       0.00000000 </v>
  </generation>
  <varray name="kpointlist" >
   <v>       0.00000000       0.00000000       0.00000000 </v>
   <v>       0.08333333       0.00000000       0.00000000 </v>
   <v>       0.16666667       0.00000000       0.00000000 </v>
   <v>       0.25000000       0.00000000       0.00000000 </v>
   <v>       0.33333333       0.00000000       0.00000000 </v>
   <v>       0.41666667       0.00000000       0.00000000 </v>
   <v>       0.50000000       0.00000000       0.00000000 </v>
   <v>       0.08333333       0.08333333       0.00000000 </v>
   <v>       0.16666667       0.08333333       0.00000000 </v>
   <v>       0.25000000       0.08333333       0.00000000 </v>
   <v>       0.33333333       0.08333333       0.00000000 </v>
   <v>       0.41666667       0.08333333       0.00000000 </v>
   <v>       0.16666667       0.16666667       0.00000000 </v>
   <v>       0.25000000       0.16666667       0.00000000 </v>
   <v>       0.33333333       0.16666667       0.00000000 </v>
   <v>       0.41666667       0.16666667       0.00000000 </v>
   <v>       0.25000000       0.25000000       0.00000000 </v>
   <v>       0.33333333       0.25000000       0.00000000 </v>
   <v>       0.33333333       0.33333333       0.00000000 </v>
   <v>       0.00000000       0.00000000       0.12500000 </v>
   <v>       0.08333333       0.00000000       0.12500000 </v>
   <v>       0.16666667       0.00000000       0.12500000 </v>
   <v>       0.25000000       0.00000000       0.12500000 </v>
   <v>       0.33333333       0.00000000       0.12500000 </v>
   <v>       0.41666667       0.00000000       0.12500000 </v>
   <v>       0.50000000       0.00000000       0.12500000 </v>
   <v>       0.08333333       0.08333333       0.12500000 </v>
   <v>       0.16666667       0.08333333       0.12500000 </v>
   <v>       0.25000000       0.08333333       0.12500000 </v>
   <v>       0.33333333       0.08333333       0.12500000 </v>
   <v>       0.41666667       0.08333333       0.12500000 </v>
   <v>       0.16666667       0.16666667       0.12500000 </v>
   <v>       0.25000000       0.16666667       0.12500000 </v>
   <v>       0.33333333       0.16666667       0.12500000 </v>
   <v>       0.41666667       0.16666667       0.12500000 </v>
   <v>       0.25000000       0.25000000       0.12500000 </v>
   <v>       0.33333333       0.25000000       0.12500000 </v>
   <v>       0.33333333       0.33333333       0.12500000 </v>
   <v>       0.00000000       0.00000000       0.25000000 </v>
   <v>       0.08333333       0.00000000       0.25000000 </v>
   <v>       0.16666667       0.00000000       0.25000000 </v>
   <v>       0.25000000       0.00000000       0.25000000 </v>
   <v>       0.33333333       0.00000000       0.25000000 </v>
   <v>       0.41666667       0.00000000       0.25000000 </v>
   <v>       0.50000000       0.00000000       0.25000000 </v>
   <v>       0.08333333       0.08333333       0.25000000 </v>
   <v>       0.16666667       0.08333333       0.25000000 </v>
   <v>       0.25000000       0.08333333       0.25000000 </v>
   <v>       0.33333333       0.08333333       0.25000000 </v>
   <v>       0.41666667       0.08333333       0.25000000 </v>
   <v>       0.16666667       0.16666667       0.25000000 </v>
   <v>       0.25000000       0.16666667       0.25000000 </v>
   <v>       0.33333333       0.16666667       0.25000000 </v>
   <v>       0.41666667       0.16666667       0.25000000 </v>
   <v>       0.25000000       0.25000000       0.25000000 </v>
   <v>       0.33333333       0.25000000       0.25000000 </v>
   <v>       0.33333333       0.33333333       0.25000000 </v>
   <v>       0.00000000       0.00000000       0.37500000 </v>
   <v>       0.08333333       0.00000000       0.37500000 </v>
   <v>       0.16666667       0.00000000       0.37500000 </v>
   <v>       0.25000000       0.00000000       0.37500000 </v>
   <v>       0.33333333       0.00000000       0.37500000 </v>
   <v>       0.41666667       0.00000000       0.37500000 </v>
   <v>       0.50000000       0.00000000       0.37500000 </v>
   <v>       0.08333333       0.08333333       0.37500000 </v>
   <v>       0.16666667       0.08333333       0.37500000 </v>
   <v>       0.25000000       0.08333333       0.37500000 </v>
   <v>       0.33333333       0.08333333       0.37500000 </v>
   <v>       0.41666667       0.08333333       0.37500000 </v>
   <v>       0.16666667       0.16666667       0.37500000 </v>
   <v>       0.25000000       0.16666667       0.37500000 </v>
   <v>       0.33333333       0.16666667       0.37500000 </v>
   <v>       0.41666667       0.16666667       0.37500000 </v>
   <v>       0.25000000       0.25000000       0.37500000 </v>
   <v>       0.33333333       0.25000000       0.37500000 </v>
   <v>       0.33333333       0.33333333       0.37500000 </v>
   <v>       0.00000000       0.00000000       0.50000000 </v>
   <v>       0.08333333       0.00000000       0.50000000 </v>
   <v>       0.16666667       0.00000000       0.50000000 </v>
   <v>       0.25000000       0.00000000       0.50000000 </v>
   <v>       0.33333333       0.00000000       0.50000000 </v>
   <v>       0.41666667       0.00000000       0.50000000 </v>
   <v>       0.50000000       0.00000000       0.50000000 </v>
   <v>       0.08333333       0.08333333       0.50000000 </v>
   <v>       0.16666667       0.08333333       0.50000000 </v>
   <v>       0.25000000       0.08333333       0.50000000 </v>
   <v>       0.33333333       0.08333333       0.50000000 </v>
   <v>       0.41666667       0.08333333       0.50000000 </v>
   <v>       0.16666667       0.16666667       0.50000000 </v>
   <v>       0.25000000       0.16666667       0.50000000 </v>
   <v>       0.33333333       0.16666667       0.50000000 </v>
   <v>       0.41666667       0.16666667       0.50000000 </v>
   <v>       0.25000000       0.25000000       0.50000000 </v>
   <v>       0.33333333       0.25000000       0.50000000 </v>
   <v>       0.33333333       0.33333333       0.50000000 </v>
  </varray>
  <varray name="weights" >
   <v>       0.00086806 </v>
   <v>       0.00520833 </v>
   <v>       0.00520833 </v>
   <v>       0.00520833 </v>
   <v>       0.00520833 </v>
   <v>       0.00520833 </v>
   <v>       0.00260417 </v>
   <v>       0.00520833 </v>
   <v>       0.01041667 </v>
   <v>       0.01041667 </v>
   <v>       0.01041667 </v>
   <v>       0.01041667 </v>
   <v>       0.00520833 </v>
   <v>       0.01041667 </v>
   <v>       0.01041667 </v>
   <v>       0.00520833 </v>
   <v>       0.00520833 </v>
   <v>       0.01041667 </v>
   <v>       0.00173611 </v>
   <v>       0.00173611 </v>
   <v>       0.01041667 </v>
   <v>       0.01041667 </v>
   <v>       0.01041667 </v>
   <v>       0.01041667 </v>
   <v>       0.01041667 </v>
   <v>       0.00520833 </v>
   <v>       0.01041667 </v>
   <v>       0.02083333 </v>
   <v>       0.02083333 </v>
   <v>       0.02083333 </v>
   <v>       0.02083333 </v>
   <v>       0.01041667 </v>
   <v>       0.02083333 </v>
   <v>       0.02083333 </v>
   <v>       0.01041667 </v>
   <v>       0.01041667 </v>
   <v>       0.02083333 </v>
   <v>       0.00347222 </v>
   <v>       0.00173611 </v>
   <v>       0.01041667 </v>
   <v>       0.01041667 </v>
   <v>       0.01041667 </v>
   <v>       0.01041667 </v>
   <v>       0.01041667 </v>
   <v>       0.00520833 </v>
   <v>       0.01041667 </v>
   <v>       0.02083333 </v>
   <v>       0.02083333 </v>
   <v>       0.02083333 </v>
   <v>       0.02083333 </v>
   <v>       0.01041667 </v>
   <v>       0.02083333 </v>
   <v>       0.02083333 </v>
   <v>       0.01041667 </v>
   <v>       0.01041667 </v>
   <v>       0.02083333 </v>
   <v>       0.00347222 </v>
   <v>       0.00173611 </v>
   <v>       0.01041667 </v>
   <v>       0.01041667 </v>
   <v>       0.01041667 </v>
   <v>       0.01041667 </v>
   <v>       0.01041667 </v>
   <v>       0.00520833 </v>
   <v>       0.01041667 </v>
   <v>       0.02083333 </v>
   <v>       0.02083333 </v>
   <v>       0.02083333 </v>
   <v>       0.02083333 </v>
   <v>       0.01041667 </v>
   <v>       0.02083333 </v>
   <v>       0.02083333 </v>
   <v>       0.01041667 </v>
   <v>       0.01041667 </v>
   <v>       0.02083333 </v>
   <v>       0.00347222 </v>
   <v>       0.00086806 </v>
   <v>       0.00520833 </v>
   <v>       0.00520833 </v>
   <v>       0.00520833 </v>
   <v>       0.00520833 </v>
   <v>       0.00520833 </v>
   <v>       0.00260417 </v>
   <v>       0.00520833 </v>
   <v>       0.01041667 </v>
   <v>       0.01041667 </v>
   <v>       0.01041667 </v>
   <v>       0.01041667 </v>
   <v>       0.00520833 </v>
   <v>       0.01041667 </v>
   <v>       0.01041667 </v>
   <v>       0.00520833 </v>
   <v>       0.00520833 </v>
   <v>       0.01041667 </v>
   <v>       0.00173611 </v>
  </varray>
 </kpoints>
 <parameters>
  <separator name="general" >
   <i type="string" name="SYSTEM">Co-hcc</i>
   <i type="logical" name="LCOMPAT"> F  </i>
  </separator>
  <separator name="electronic" >
   <i type="string" name="PREC">accura</i>
   <i name="ENMAX">    425.00000000</i>
   <i name="ENAUG">    477.81800000</i>
   <i name="EDIFF">      0.00000100</i>
   <i type="int" name="IALGO">    38</i>
   <i type="int" name="IWAVPR">    11</i>
   <i type="int" name="NBANDS">    24</i>
   <i type="int" name="NBANDSLOW">    -1</i>
   <i type="int" name="NBANDSHIGH">    -1</i>
   <i name="NELECT">     18.00000000</i>
   <i type="int" name="TURBO">     0</i>
   <i type="int" name="IRESTART">     0</i>
   <i type="int" name="NREBOOT">     0</i>
   <i type="int" name="NMIN">     0</i>
   <i name="EREF">      0.00000000</i>
   <separator name="electronic smearing" >
    <i type="int" name="ISMEAR">     0</i>
    <i name="SIGMA">      0.05000000</i>
    <i name="KSPACING">      0.50000000</i>
    <i type="logical" name="KGAMMA"> T  </i>
    <i type="logical" name="KBLOWUP"> T  </i>
   </separator>
   <separator name="electronic projectors" >
    <i type="logical" name="LREAL"> F  </i>
    <v name="ROPT">      0.00000000</v>
    <i type="int" name="LMAXPAW">  -100</i>
    <i type="int" name="LMAXMIX">     2</i>
    <i type="logical" name="NLSPLINE"> F  </i>
   </separator>
   <separator name="electronic startup" >
    <i type="int" name="ISTART">     0</i>
    <i type="int" name="ICHARG">     2</i>
    <i type="int" name="INIWAV">     1</i>
   </separator>
   <separator name="electronic spin" >
    <i type="int" name="ISPIN">     2</i>
    <i type="logical" name="LNONCOLLINEAR"> F  </i>
    <v name="MAGMOM">      3.00000000      3.00000000</v>
    <i name="NUPDOWN">     -1.00000000</i>
    <i type="logical" name="LSORBIT"> F  </i>
    <v name="SAXIS">      0.00000000      0.00000000      1.00000000</v>
    <i type="logical" name="LSPIRAL"> F  </i>
    <v name="QSPIRAL">      0.00000000      0.00000000      0.00000000</v>
    <i type="logical" name="LZEROZ"> F  </i>
   </separator>
   <separator name="electronic exchange-correlation" >
    <i type="logical" name="LASPH"> F  </i>
    <i type="logical" name="LMETAGGA"> F  </i>
   </separator>
   <separator name="electronic convergence" >
    <i type="int" name="NELM">   100</i>
    <i type="int" name="NELMDL">    -5</i>
    <i type="int" name="NELMIN">     2</i>
    <i name="ENINI">    425.00000000</i>
    <separator name="electronic convergence detail" >
     <i type="logical" name="LDIAG"> T  </i>
     <i type="logical" name="LSUBROT"> F  </i>
     <i name="WEIMIN">      0.00100000</i>
     <i name="EBREAK">      0.00000001</i>
     <i name="DEPER">      0.30000000</i>
     <i type="int" name="NRMM">     4</i>
     <i name="TIME">      0.40000000</i>
    </separator>
   </separator>
   <separator name="electronic mixer" >
    <i name="AMIX">      0.40000000</i>
    <i name="BMIX">      1.00000000</i>
    <i name="AMIN">      0.10000000</i>
    <i name="AMIX_MAG">      1.60000000</i>
    <i name="BMIX_MAG">      1.00000000</i>
    <separator name="electronic mixer details" >
     <i type="int" name="IMIX">     4</i>
     <i type="logical" name="MIXFIRST"> F  </i>
     <i type="int" name="MAXMIX">   -45</i>
     <i name="WC">    100.00000000</i>
     <i type="int" name="INIMIX">     1</i>
     <i type="int" name="MIXPRE">     1</i>
     <i type="int" name="MREMOVE">     5</i>
    </separator>
   </separator>
   <separator name="electronic dipolcorrection" >
    <i type="logical" name="LDIPOL"> F  </i>
    <i type="logical" name="LMONO"> F  </i>
    <i type="int" name="IDIPOL">     0</i>
    <i name="EPSILON">      1.00000000</i>
    <v name="DIPOL">   -100.00000000   -100.00000000   -100.00000000</v>
    <i name="EFIELD">      0.00000000</i>
   </separator>
  </separator>
  <separator name="grids" >
   <i type="int" name="NGX">    16</i>
   <i type="int" name="NGY">    16</i>
   <i type="int" name="NGZ">    28</i>
   <i type="int" name="NGXF">    32</i>
   <i type="int" name="NGYF">    32</i>
   <i type="int" name="NGZF">    56</i>
   <i type="logical" name="ADDGRID"> F  </i>
  </separator>
  <separator name="ionic" >
   <i type="int" name="NSW">   100</i>
   <i type="int" name="IBRION">     2</i>
   <i type="int" name="MDALGO">     0</i>
   <i type="int" name="ISIF">     2</i>
   <i name="PSTRESS">      0.00000000</i>
   <i name="EDIFFG">     -0.02000000</i>
   <i type="int" name="NFREE">     1</i>
   <i name="POTIM">      0.50000000</i>
   <i name="SMASS">     -3.00000000</i>
   <i name="SCALEE">      1.00000000</i>
  </separator>
  <separator name="ionic md" >
   <i name="TEBEG">      0.00010000</i>
   <i name="TEEND">      0.00010000</i>
   <i type="int" name="NBLOCK">     1</i>
   <i type="int" name="KBLOCK">   100</i>
   <i type="int" name="NPACO">   256</i>
   <i name="APACO">     10.00000000</i>
  </separator>
  <separator name="symmetry" >
   <i type="int" name="ISYM">     1</i>
   <i name="SYMPREC">      0.00001000</i>
  </separator>
  <separator name="dos" >
   <i type="int" name="LORBIT">    11</i>
   <v name="RWIGS">     -1.00000000</v>
   <i type="int" name="NEDOS">   301</i>
   <i name="EMIN">     10.00000000</i>
   <i name="EMAX">    -10.00000000</i>
   <i name="EFERMI">      0.00000000</i>
  </separator>
  <separator name="writing" >
   <i type="int" name="NWRITE">     2</i>
   <i type="logical" name="LWAVE"> F  </i>
   <i type="logical" name="LDOWNSAMPLE"> F  </i>
   <i type="logical" name="LCHARG"> F  </i>
   <i type="logical" name="LPARD"> F  </i>
   <i type="logical" name="LVTOT"> F  </i>
   <i type="logical" name="LVHAR"> F  </i>
   <i type="logical" name="LELF"> F  </i>
   <i type="logical" name="LOPTICS"> F  </i>
   <v name="STM">      0.00000000      0.00000000      0.00000000      0.00000000      0.00000000      0.00000000      0.00000000</v>
  </separator>
  <separator name="performance" >
   <i type="int" name="NPAR">    24</i>
   <i type="int" name="NSIM">     4</i>
   <i type="int" name="NBLK">    -1</i>
   <i type="logical" name="LPLANE"> T  </i>
   <i type="logical" name="LSCALAPACK"> T  </i>
   <i type="logical" name="LSCAAWARE"> T  </i>
   <i type="logical" name="LSCALU"> F  </i>
   <i type="logical" name="LASYNC"> F  </i>
   <i type="logical" name="LORBITALREAL"> F  </i>
  </separator>
  <separator name="miscellaneous" >
   <i type="int" name="IDIOT">     3</i>
   <i type="int" name="PHON_NSTRUCT">    -1</i>
   <i type="logical" name="LMUSIC"> F  </i>
   <v name="POMASS">     58.93300000</v>
   <v name="DARWINR">      0.00000000</v>
   <v name="DARWINV">      1.00000000</v>
   <i type="logical" name="LCORR"> T  </i>
  </separator>
  <i type="logical" name="GGA_COMPAT"> T  </i>
  <i type="logical" name="LBERRY"> F  </i>
  <i type="int" name="ICORELEVEL">     0</i>
  <i type="logical" name="LDAU"> F  </i>
  <i type="int" name="I_CONSTRAINED_M">     0</i>
  <separator name="electronic exchange-correlation" >
   <i type="string" name="GGA">--</i>
   <i type="int" name="VOSKOWN">     0</i>
   <i type="logical" name="LHFCALC"> F  </i>
   <i type="string" name="PRECFOCK"></i>
   <i type="logical" name="LSYMGRAD"> F  </i>
   <i type="logical" name="LHFONE"> F  </i>
   <i type="logical" name="LRHFCALC"> F  </i>
   <i type="logical" name="LTHOMAS"> F  </i>
   <i type="logical" name="LMODELHF"> F  </i>
   <i type="logical" name="LFOCKACE"> F  </i>
   <i name="ENCUT4O">     -1.00000000</i>
   <i type="int" name="EXXOEP">     0</i>
   <i type="int" name="FOURORBIT">     0</i>
   <i name="AEXX">      0.00000000</i>
   <i name="HFALPHA">      0.00000000</i>
   <i name="MCALPHA">      0.00000000</i>
   <i name="ALDAX">      1.00000000</i>
   <i name="AGGAX">      1.00000000</i>
   <i name="ALDAC">      1.00000000</i>
   <i name="AGGAC">      1.00000000</i>
   <i type="int" name="NKREDX">     1</i>
   <i type="int" name="NKREDY">     1</i>
   <i type="int" name="NKREDZ">     1</i>
   <i type="logical" name="SHIFTRED"> F  </i>
   <i type="logical" name="ODDONLY"> F  </i>
   <i type="logical" name="EVENONLY"> F  </i>
   <i type="int" name="LMAXFOCK">     0</i>
   <i type="int" name="NMAXFOCKAE">     0</i>
   <i type="logical" name="LFOCKAEDFT"> F  </i>
   <i name="HFSCREEN">      0.00000000</i>
   <i name="HFSCREENC">      0.00000000</i>
   <i type="int" name="NBANDSGWLOW">     0</i>
  </separator>
  <separator name="vdW DFT" >
   <i type="logical" name="LUSE_VDW"> F  </i>
   <i name="Zab_VDW">     -0.84910000</i>
   <i name="PARAM1">      0.12340000</i>
   <i name="PARAM2">      1.00000000</i>
   <i name="PARAM3">      0.00000000</i>
  </separator>
  <separator name="model GW" >
   <i type="int" name="MODEL_GW">     0</i>
   <i name="MODEL_EPS0">      5.73985457</i>
   <i name="MODEL_ALPHA">      1.00000000</i>
  </separator>
  <separator name="linear response parameters" >
   <i type="logical" name="LEPSILON"> F  </i>
   <i type="logical" name="LRPA"> F  </i>
   <i type="logical" name="LNABLA"> F  </i>
   <i type="logical" name="LVEL"> F  </i>
   <i name="CSHIFT">      0.10000000</i>
   <i name="OMEGAMAX">     -1.00000000</i>
   <i name="DEG_THRESHOLD">      0.00200000</i>
   <i name="RTIME">     -0.10000000</i>
   <i name="WPLASMAI">      0.00000000</i>
   <v name="DFIELD">      0.00000000      0.00000000      0.00000000</v>
   <v name="WPLASMA">      0.00000000      0.00000000      0.00000000      0.00000000      0.00000000      0.00000000      0.00000000      0.00000000      0.00000000</v>
  </separator>
  <separator name="orbital magnetization" >
   <i type="logical" name="NUCIND"> F  </i>
   <v name="MAGPOS">      0.00000000      0.00000000      0.00000000</v>
   <i type="logical" name="LNICSALL"> T  </i>
   <i type="logical" name="ORBITALMAG"> F  </i>
   <i type="logical" name="LMAGBLOCH"> F  </i>
   <i type="logical" name="LCHIMAG"> F  </i>
   <i type="logical" name="LGAUGE"> T  </i>
   <i type="int" name="MAGATOM">     0</i>
   <v name="MAGDIPOL">      0.00000000      0.00000000      0.00000000</v>
   <v name="AVECCONST">      0.00000000      0.00000000      0.00000000</v>
  </separator>
  <separator name="response functions" >
   <i type="logical" name="LFINITE_TEMPERATURE"> F  </i>
   <i type="logical" name="LADDER"> F  </i>
   <i type="logical" name="LRPAFORCE"> F  </i>
   <i type="logical" name="LFXC"> F  </i>
   <i type="logical" name="LHARTREE"> T  </i>
   <i type="int" name="IBSE">     0</i>
   <v type="int" name="KPOINT">    -1     0     0     0</v>
   <i type="logical" name="LTCTC"> F  </i>
   <i type="logical" name="LTCTE"> F  </i>
   <i type="logical" name="LTETE"> F  </i>
   <i type="logical" name="LTRIPLET"> F  </i>
   <i type="logical" name="LFXCEPS"> F  </i>
   <i type="logical" name="LFXHEG"> F  </i>
   <i type="int" name="NATURALO">     2</i>
   <i type="logical" name="LHOLEGF"> F  </i>
   <i type="logical" name="L2ORDER"> F  </i>
   <i type="logical" name="LDMP1"> F  </i>
   <i type="logical" name="LMP2LT"> F  </i>
   <i type="logical" name="LSMP2LT"> F  </i>
   <i type="logical" name="LGWLF"> F  </i>
   <i name="ENCUTGW">     -2.00000000</i>
   <i name="ENCUTGWSOFT">     -2.00000000</i>
   <i name="ENCUTLF">     -1.00000000</i>
   <i type="logical" name="LESF_SPLINES"> F  </i>
   <i type="int" name="LMAXMP2">    -1</i>
   <i name="SCISSOR">      0.00000000</i>
   <i type="int" name="NOMEGA">     0</i>
   <i type="int" name="NOMEGAR">     0</i>
   <i type="int" name="NBANDSGW">    -1</i>
   <i type="int" name="NBANDSO">    -1</i>
   <i type="int" name="NBANDSV">    -1</i>
   <i type="int" name="NELMGW">     1</i>
   <i type="int" name="NELMHF">     1</i>
   <i type="int" name="DIM">     3</i>
   <i type="int" name="IESPILON">     4</i>
   <i type="int" name="ANTIRES">     0</i>
   <i name="OMEGAMAX">    -30.00000000</i>
   <i name="OMEGAMIN">    -30.00000000</i>
   <i name="OMEGATL">   -200.00000000</i>
   <i type="int" name="OMEGAGRID">     0</i>
   <i name="CSHIFT">     -0.10000000</i>
   <i type="logical" name="LSELFENERGY"> F  </i>
   <i type="logical" name="LSPECTRAL"> F  </i>
   <i type="logical" name="LSPECTRALGW"> F  </i>
   <i type="logical" name="LSINGLES"> F  </i>
   <i type="logical" name="LFERMIGW"> F  </i>
   <i type="logical" name="ODDONLYGW"> F  </i>
   <i type="logical" name="EVENONLYGW"> F  </i>
   <i type="int" name="NKREDLFX">     1</i>
   <i type="int" name="NKREDLFY">     1</i>
   <i type="int" name="NKREDLFZ">     1</i>
   <i type="int" name="MAXMEM">  2800</i>
   <i type="int" name="TELESCOPE">     0</i>
   <i type="int" name="NTAUPAR">    -1</i>
   <i type="int" name="NOMEGAPAR">    -1</i>
   <i name="DAMP_NEWTON">      0.80000001</i>
   <i name="LAMBDA">      1.00000000</i>
  </separator>
  <separator name="External order field" >
   <i name="OFIELD_KAPPA">      0.00000000</i>
   <v name="OFIELD_K">      0.00000000      0.00000000      0.00000000</v>
   <i name="OFIELD_Q6_NEAR">      0.00000000</i>
   <i name="OFIELD_Q6_FAR">      0.00000000</i>
   <i name="OFIELD_A">      0.00000000</i>
  </separator>
  <separator name="optional k-points parameters" >
   <i type="int" name="KPOINTS_OPT_MODE">     1</i>
   <i type="logical" name="LKPOINTS_OPT"> F  </i>
  </separator>
 </parameters>
 <atominfo>
  <atoms>       2 </atoms>
  <types>       1 </types>
  <array name="atoms" >
   <dimension dim="1">ion</dimension>
   <field type="string">element</field>
   <field type="int">atomtype</field>
   <set>
    <rc><c>Co</c><c>   1</c></rc>
    <rc><c>Co</c><c>   1</c></rc>
   </set>
  </array>
  <array name="atomtypes" >
   <dimension dim="1">type</dimension>
   <field type="int">atomspertype</field>
   <field type="string">element</field>
   <field>mass</field>
   <field>valence</field>
   <field type="string">pseudopotential</field>
   <set>
    <rc><c>   2</c><c>Co</c><c>     58.93300000</c><c>      9.00000000</c><c>  PAW_PBE Co 02Aug2007                  </c></rc>
   </set>
  </array>
 </atominfo>
 <structure name="initialpos" >
  <crystal>
   <varray name="basis" >
    <v>       1.19629229      -2.07203903       0.00000000 </v>
    <v>       1.19629229       2.07203903       0.00000000 </v>
    <v>       0.00000000       0.00000000       3.85935209 </v>
   </varray>
   <i name="volume">     19.13284855 </i>
   <varray name="rec_basis" >
    <v>       0.41795806      -0.24130820       0.00000000 </v>
    <v>       0.41795806       0.24130820       0.00000000 </v>
    <v>       0.00000000       0.00000000       0.25911085 </v>
   </varray>
  </crystal>
  <varray name="positions" >
   <v>       0.33333333       0.66666667       0.25000000 </v>
   <v>       0.66666667       0.33333333       0.75000000 </v>
  </varray>
 </structure>
 <calculation>
  <scstep>
   <time name="dav">    0.70    0.71</time>
   <time name="total">    0.72    0.72</time>
   <energy>
    <i name="alphaZ">     88.55490762 </i>
    <i name="ewald">  -1586.84848441 </i>
    <i name="hartreedc">   -273.58894737 </i>
    <i name="XCdc">     36.49494747 </i>
    <i name="pawpsdc">   1439.98163886 </i>
    <i name="pawaedc">  -1545.88690193 </i>
    <i name="eentropy">     -0.00168117 </i>
    <i name="bandstr">    217.34064530 </i>
    <i name="atom">   1626.72322989 </i>
    <i name="e_fr_energy">      2.76935426 </i>
    <i name="e_wo_entrp">      2.77103543 </i>
    <i name="e_0_energy">      2.77019484 </i>
   </energy>
  </scstep>
  <scstep>
   <time name="dav">    0.92    0.93</time>
   <time name="total">    0.92    0.93</time>
   <energy>
    <i name="e_fr_energy">    -15.00622047 </i>
    <i name="e_wo_entrp">    -15.00429603 </i>
    <i name="e_0_energy">    -15.00525825 </i>
   </energy>
  </scstep>
  <scstep>
   <time name="dav">    1.21    1.22</time>
   <time name="total">    1.21    1.22</time>
   <energy>
    <i name="e_fr_energy">    -15.12177422 </i>
    <i name="e_wo_entrp">    -15.11983604 </i>
    <i name="e_0_energy">    -15.12080513 </i>
   </energy>
  </scstep>
  <scstep>
   <time name="dav">    1.30    1.30</time>
   <time name="total">    1.30    1.30</time>
   <energy>
    <i name="e_fr_energy">    -15.12215110 </i>
    <i name="e_wo_entrp">    -15.12021180 </i>
    <i name="e_0_energy">    -15.12118145 </i>
   </energy>
  </scstep>
  <scstep>
   <time name="dav">    1.43    1.43</time>
   <time name="total">    1.45    1.46</time>
   <energy>
    <i name="e_fr_energy">    -15.12215148 </i>
    <i name="e_wo_entrp">    -15.12021217 </i>
    <i name="e_0_energy">    -15.12118182 </i>
   </energy>
  </scstep>
  <scstep>
   <time name="dav">    2.01    2.02</time>
   <time name="total">    2.05    2.06</time>
   <energy>
    <i name="e_fr_energy">    -14.07041629 </i>
    <i name="e_wo_entrp">    -14.06779716 </i>
    <i name="e_0_energy">    -14.06910673 </i>
   </energy>
  </scstep>
  <scstep>
   <time name="dav">    1.90    1.91</time>
   <time name="total">    1.93    1.94</time>
   <energy>
    <i name="e_fr_energy">    -13.87320177 </i>
    <i name="e_wo_entrp">    -13.87141864 </i>
    <i name="e_0_energy">    -13.87231021 </i>
   </energy>
  </scstep>
  <scstep>
   <time name="dav">    2.02    2.03</time>
   <time name="total">    2.06    2.07</time>
   <energy>
    <i name="e_fr_energy">    -13.83822687 </i>
    <i name="e_wo_entrp">    -13.83644578 </i>
    <i name="e_0_energy">    -13.83733633 </i>
   </energy>
  </scstep>
  <scstep>
   <time name="dav">    2.17    2.18</time>
   <time name="total">    2.20    2.21</time>
   <energy>
    <i name="e_fr_energy">    -13.82664975 </i>
    <i name="e_wo_entrp">    -13.82487480 </i>
    <i name="e_0_energy">    -13.82576228 </i>
   </energy>
  </scstep>
  <scstep>
   <time name="dav">    2.16    2.17</time>
   <time name="total">    2.19    2.20</time>
   <energy>
    <i name="e_fr_energy">    -13.82583490 </i>
    <i name="e_wo_entrp">    -13.82402686 </i>
    <i name="e_0_energy">    -13.82493088 </i>
   </energy>
  </scstep>
  <scstep>
   <time name="dav">    1.69    1.69</time>
   <time name="total">    1.72    1.73</time>
   <energy>
    <i name="e_fr_energy">    -13.82582764 </i>
    <i name="e_wo_entrp">    -13.82401279 </i>
    <i name="e_0_energy">    -13.82492022 </i>
   </energy>
  </scstep>
  <scstep>
   <time name="dav">    1.97    1.98</time>
   <time name="total">    1.99    1.99</time>
   <energy>
    <i name="alphaZ">     88.55490762 </i>
    <i name="ewald">  -1586.84848441 </i>
    <i name="hartreedc">   -238.84737457 </i>
    <i name="XCdc">     33.50299316 </i>
    <i name="pawpsdc">   1966.18158340 </i>
    <i name="pawaedc">  -2073.43153511 </i>
    <i name="eentropy">     -0.00181418 </i>
    <i name="bandstr">    170.34066722 </i>
    <i name="atom">   1626.72322989 </i>
    <i name="e_fr_energy">    -13.82582698 </i>
    <i name="e_wo_entrp">    -13.82401281 </i>
    <i name="e_0_energy">    -13.82491990 </i>
   </energy>
  </scstep>
  <structure>
   <crystal>
    <varray name="basis" >
     <v>       1.19629229      -2.07203903       0.00000000 </v>
     <v>       1.19629229       2.07203903       0.00000000 </v>
     <v>       0.00000000       0.00000000       3.85935209 </v>
    </varray>
    <i name="volume">     19.13284855 </i>
    <varray name="rec_basis" >
     <v>       0.41795806      -0.24130820       0.00000000 </v>
     <v>       0.41795806       0.24130820       0.00000000 </v>
     <v>       0.00000000       0.00000000       0.25911085 </v>
    </varray>
   </crystal>
   <varray name="positions" >
    <v>       0.33333333       0.66666667       0.25000000 </v>
    <v>       0.66666667       0.33333333       0.75000000 </v>
   </varray>
  </structure>
  <varray name="forces" >
   <v>       0.00000000       0.00000000      -0.00000000 </v>
   <v>      -0.00000000      -0.00000000       0.00000000 </v>
  </varray>
  <varray name="stress" >
   <v>     338.08066712       0.00000000      -0.00000000 </v>
   <v>      -0.00000000     338.08066712       0.00000000 </v>
   <v>       0.00000000       0.00000000     339.89165248 </v>
  </varray>
  <energy>
   <i name="e_fr_energy">    -13.82582698 </i>
   <i name="e_wo_entrp">    -13.82401281 </i>
   <i name="e_0_energy">    -13.82491990 </i>
  </energy>
  <time name="totalsc">   19.98   20.07</time>
  <eigenvalues>
   <array>
    <dimension dim="1">band</dimension>
    <dimension dim="2">kpoint</dimension>
    <dimension dim="3">spin</dimension>
    <field>eigene</field>
    <field>occ</field>
    <set>
     <set comment="spin 1">
      <set comment="kpoint 1">
       <r>    2.4980    1.0000 </r>
       <r>    6.4081    1.0000 </r>
       <r>    9.3855    1.0000 </r>
       <r>    9.4029    1.0000 </r>
       <r>    9.4029    1.0000 </r>
       <r>    9.7930    1.0000 </r>
       <r>    9.7930    1.0000 </r>
       <r>   10.2067    1.0000 </r>
       <r>   10.2067    1.0000 </r>
       <r>   11.5543    1.0000 </r>
       <r>   11.5543    1.0000 </r>
       <r>   12.0671    0.9986 </r>
       <r>   19.7729    0.0000 </r>
       <r>   35.1660    0.0000 </r>
       <r>   38.6883    0.0000 </r>
       <r>   39.0382    0.0000 </r>
       <r>   39.0677    0.0000 </r>
       <r>   39.0677    0.0000 </r>
       <r>   40.2866    0.0000 </r>
       <r>   40.2866    0.0000 </r>
       <r>   44.5277    0.0000 </r>
       <r>   44.5277    0.0000 </r>
       <r>   46.0797    0.0000 </r>
       <r>   46.2258    0.0000 </r>
      </set>
      <set comment="kpoint 2">
       <r>    2.7657    1.0000 </r>
       <r>    6.5732    1.0000 </r>
       <r>    9.1143    1.0000 </r>
       <r>    9.5394    1.0000 </r>
       <r>    9.6256    1.0000 </r>
       <r>    9.7357    1.0000 </r>
       <r>    9.9139    1.0000 </r>
       <r>   10.0121    1.0000 </r>
       <r>   10.1190    1.0000 </r>
       <r>   10.5591    1.0000 </r>
       <r>   11.5927    1.0000 </r>
       <r>   13.4226    0.0000 </r>
       <r>   19.8056    0.0000 </r>
       <r>   33.7181    0.0000 </r>
       <r>   36.2744    0.0000 </r>
       <r>   36.6921    0.0000 </r>
       <r>   39.0672    0.0000 </r>
       <r>   39.8217    0.0000 </r>
       <r>   41.2157    0.0000 </r>
       <r>   42.8510    0.0000 </r>
       <r>   43.6123    0.0000 </r>
       <r>   44.1221    0.0000 </r>
       <r>   45.8028    0.0000 </r>
       <r>   46.1269    0.0000 </r>
      </set>
      <set comment="kpoint 3">
       <r>    3.5354    1.0000 </r>
       <r>    6.9786    1.0000 </r>
       <r>    8.7762    1.0000 </r>
       <r>    9.1359    1.0000 </r>
       <r>    9.5263    1.0000 </r>
       <r>    9.9036    1.0000 </r>
       <r>    9.9261    1.0000 </r>
       <r>    9.9938    1.0000 </r>
       <r>   10.1477    1.0000 </r>
       <r>   10.2534    1.0000 </r>
       <r>   11.6743    1.0000 </r>
       <r>   15.2212    0.0000 </r>
       <r>   19.9239    0.0000 </r>
       <r>   29.9810    0.0000 </r>
       <r>   34.0756    0.0000 </r>
       <r>   35.2146    0.0000 </r>
       <r>   37.1617    0.0000 </r>
       <r>   39.1927    0.0000 </r>
       <r>   40.7003    0.0000 </r>
       <r>   43.4139    0.0000 </r>
       <r>   43.4267    0.0000 </r>
       <r>   44.6451    0.0000 </r>
       <r>   45.0706    0.0000 </r>
       <r>   47.0461    0.0000 </r>
      </set>
      <set comment="kpoint 4">
       <r>    4.6828    1.0000 </r>
       <r>    7.2904    1.0000 </r>
       <r>    8.2693    1.0000 </r>
       <r>    8.5718    1.0000 </r>
       <r>    9.4168    1.0000 </r>
       <r>    9.6459    1.0000 </r>
       <r>    9.9120    1.0000 </r>
       <r>   10.4882    1.0000 </r>
       <r>   10.5101    1.0000 </r>
       <r>   10.7418    1.0000 </r>
       <r>   11.7513    1.0000 </r>
       <r>   17.2119    0.0000 </r>
       <r>   20.1472    0.0000 </r>
       <r>   26.1460    0.0000 </r>
       <r>   31.7893    0.0000 </r>
       <r>   33.7132    0.0000 </r>
       <r>   34.0575    0.0000 </r>
       <r>   38.2214    0.0000 </r>
       <r>   38.9822    0.0000 </r>
       <r>   42.8475    0.0000 </r>
       <r>   43.1993    0.0000 </r>
       <r>   43.6325    0.0000 </r>
       <r>   45.1035    0.0000 </r>
       <r>   47.7688    0.0000 </r>
      </set>
      <set comment="kpoint 5">
       <r>    5.8893    1.0000 </r>
       <r>    7.1931    1.0000 </r>
       <r>    7.6346    1.0000 </r>
       <r>    8.7097    1.0000 </r>
       <r>    9.4147    1.0000 </r>
       <r>    9.5650    1.0000 </r>
       <r>    9.7016    1.0000 </r>
       <r>   11.0904    1.0000 </r>
       <r>   11.2731    1.0000 </r>
       <r>   11.3287    1.0000 </r>
       <r>   11.8040    1.0000 </r>
       <r>   19.3509    0.0000 </r>
       <r>   20.0431    0.0000 </r>
       <r>   23.2312    0.0000 </r>
       <r>   29.9572    0.0000 </r>
       <r>   30.5430    0.0000 </r>
       <r>   31.9014    0.0000 </r>
       <r>   37.0467    0.0000 </r>
       <r>   37.3540    0.0000 </r>
       <r>   41.2368    0.0000 </r>
       <r>   42.4529    0.0000 </r>
       <r>   44.5918    0.0000 </r>
       <r>   46.9683    0.0000 </r>
       <r>   48.2424    0.0000 </r>
      </set>
      <set comment="kpoint 6">
       <r>    6.6145    1.0000 </r>
       <r>    6.9834    1.0000 </r>
       <r>    7.2513    1.0000 </r>
       <r>    9.1436    1.0000 </r>
       <r>    9.2577    1.0000 </r>
       <r>    9.5537    1.0000 </r>
       <r>    9.8066    1.0000 </r>
       <r>   11.5439    1.0000 </r>
       <r>   11.7142    1.0000 </r>
       <r>   11.8322    1.0000 </r>
       <r>   12.6125    0.0000 </r>
       <r>   18.0024    0.0000 </r>
       <r>   21.5345    0.0000 </r>
       <r>   23.0969    0.0000 </r>
       <r>   27.7614    0.0000 </r>
       <r>   28.7408    0.0000 </r>
       <r>   29.2923    0.0000 </r>
       <r>   36.2119    0.0000 </r>
       <r>   36.7596    0.0000 </r>
       <r>   39.9347    0.0000 </r>
       <r>   42.2315    0.0000 </r>
       <r>   45.2111    0.0000 </r>
       <r>   48.4644    0.0000 </r>
       <r>   48.9708    0.0000 </r>
      </set>
      <set comment="kpoint 7">
       <r>    6.7756    1.0000 </r>
       <r>    6.9085    1.0000 </r>
       <r>    7.1231    1.0000 </r>
       <r>    9.2021    1.0000 </r>
       <r>    9.4269    1.0000 </r>
       <r>    9.5005    1.0000 </r>
       <r>    9.8994    1.0000 </r>
       <r>   11.7080    1.0000 </r>
       <r>   11.8407    1.0000 </r>
       <r>   11.8934    1.0000 </r>
       <r>   13.8686    0.0000 </r>
       <r>   16.1851    0.0000 </r>
       <r>   22.9486    0.0000 </r>
       <r>   23.7639    0.0000 </r>
       <r>   26.1520    0.0000 </r>
       <r>   27.8800    0.0000 </r>
       <r>   28.3090    0.0000 </r>
       <r>   35.9172    0.0000 </r>
       <r>   36.6179    0.0000 </r>
       <r>   39.4786    0.0000 </r>
       <r>   42.1593    0.0000 </r>
       <r>   45.4377    0.0000 </r>
       <r>   48.5325    0.0000 </r>
       <r>   48.9730    0.0000 </r>
      </set>
      <set comment="kpoint 8">
       <r>    3.2856    1.0000 </r>
       <r>    6.8656    1.0000 </r>
       <r>    8.8480    1.0000 </r>
       <r>    9.4298    1.0000 </r>
       <r>    9.6080    1.0000 </r>
       <r>    9.8150    1.0000 </r>
       <r>    9.8189    1.0000 </r>
       <r>    9.8690    1.0000 </r>
       <r>   10.1810    1.0000 </r>
       <r>   10.2919    1.0000 </r>
       <r>   11.6404    1.0000 </r>
       <r>   14.7214    0.0000 </r>
       <r>   19.8836    0.0000 </r>
       <r>   31.6609    0.0000 </r>
       <r>   32.7543    0.0000 </r>
       <r>   37.9545    0.0000 </r>
       <r>   38.6377    0.0000 </r>
       <r>   38.7587    0.0000 </r>
       <r>   39.1553    0.0000 </r>
       <r>   42.7651    0.0000 </r>
       <r>   44.3020    0.0000 </r>
       <r>   44.9068    0.0000 </r>
       <r>   46.5391    0.0000 </r>
       <r>   47.0751    0.0000 </r>
      </set>
      <set comment="kpoint 9">
       <r>    4.2555    1.0000 </r>
       <r>    7.2781    1.0000 </r>
       <r>    8.5140    1.0000 </r>
       <r>    8.5887    1.0000 </r>
       <r>    9.4633    1.0000 </r>
       <r>    9.5954    1.0000 </r>
       <r>   10.1133    1.0000 </r>
       <r>   10.1227    1.0000 </r>
       <r>   10.3295    1.0000 </r>
       <r>   10.6821    1.0000 </r>
       <r>   11.6992    1.0000 </r>
       <r>   16.4984    0.0000 </r>
       <r>   20.0815    0.0000 </r>
       <r>   28.0941    0.0000 </r>
       <r>   30.4813    0.0000 </r>
       <r>   35.4057    0.0000 </r>
       <r>   36.6912    0.0000 </r>
       <r>   37.6029    0.0000 </r>
       <r>   39.6321    0.0000 </r>
       <r>   41.6783    0.0000 </r>
       <r>   42.7843    0.0000 </r>
       <r>   45.5704    0.0000 </r>
       <r>   46.7150    0.0000 </r>
       <r>   47.1961    0.0000 </r>
      </set>
      <set comment="kpoint 10">
       <r>    5.4790    1.0000 </r>
       <r>    7.3955    1.0000 </r>
       <r>    7.8955    1.0000 </r>
       <r>    8.4307    1.0000 </r>
       <r>    9.3679    1.0000 </r>
       <r>    9.4792    1.0000 </r>
       <r>    9.8789    1.0000 </r>
       <r>   10.6080    1.0000 </r>
       <r>   10.9374    1.0000 </r>
       <r>   11.3610    1.0000 </r>
       <r>   11.7488    1.0000 </r>
       <r>   18.5191    0.0000 </r>
       <r>   20.3499    0.0000 </r>
       <r>   24.5276    0.0000 </r>
       <r>   28.8022    0.0000 </r>
       <r>   32.1861    0.0000 </r>
       <r>   34.0614    0.0000 </r>
       <r>   36.2734    0.0000 </r>
       <r>   39.2241    0.0000 </r>
       <r>   39.7609    0.0000 </r>
       <r>   43.4319    0.0000 </r>
       <r>   46.6568    0.0000 </r>
       <r>   46.9380    0.0000 </r>
       <r>   47.6707    0.0000 </r>
      </set>
      <set comment="kpoint 11">
       <r>    6.4967    1.0000 </r>
       <r>    7.1843    1.0000 </r>
       <r>    7.4209    1.0000 </r>
       <r>    8.7189    1.0000 </r>
       <r>    9.2220    1.0000 </r>
       <r>    9.6467    1.0000 </r>
       <r>    9.7084    1.0000 </r>
       <r>   11.2175    1.0000 </r>
       <r>   11.4593    1.0000 </r>
       <r>   11.7795    1.0000 </r>
       <r>   12.2962    0.0002 </r>
       <r>   19.4365    0.0000 </r>
       <r>   20.6875    0.0000 </r>
       <r>   22.8927    0.0000 </r>
       <r>   27.4745    0.0000 </r>
       <r>   29.2218    0.0000 </r>
       <r>   31.0631    0.0000 </r>
       <r>   35.2615    0.0000 </r>
       <r>   38.4662    0.0000 </r>
       <r>   38.6904    0.0000 </r>
       <r>   43.5964    0.0000 </r>
       <r>   46.9445    0.0000 </r>
       <r>   48.3884    0.0000 </r>
       <r>   48.6634    0.0000 </r>
      </set>
      <set comment="kpoint 12">
       <r>    6.8756    1.0000 </r>
       <r>    7.0369    1.0000 </r>
       <r>    7.1814    1.0000 </r>
       <r>    9.1499    1.0000 </r>
       <r>    9.1645    1.0000 </r>
       <r>    9.4926    1.0000 </r>
       <r>    9.8944    1.0000 </r>
       <r>   11.6569    1.0000 </r>
       <r>   11.7438    1.0000 </r>
       <r>   11.7930    1.0000 </r>
       <r>   13.7045    0.0000 </r>
       <r>   16.9954    0.0000 </r>
       <r>   22.7435    0.0000 </r>
       <r>   23.6880    0.0000 </r>
       <r>   26.5957    0.0000 </r>
       <r>   26.7749    0.0000 </r>
       <r>   28.7732    0.0000 </r>
       <r>   34.7269    0.0000 </r>
       <r>   37.8256    0.0000 </r>
       <r>   38.3626    0.0000 </r>
       <r>   43.5480    0.0000 </r>
       <r>   47.1530    0.0000 </r>
       <r>   48.5191    0.0000 </r>
       <r>   49.0017    0.0000 </r>
      </set>
      <set comment="kpoint 13">
       <r>    5.3356    1.0000 </r>
       <r>    7.6144    1.0000 </r>
       <r>    8.0325    1.0000 </r>
       <r>    8.1570    1.0000 </r>
       <r>    9.2820    1.0000 </r>
       <r>    9.4755    1.0000 </r>
       <r>    9.9929    1.0000 </r>
       <r>   10.3243    1.0000 </r>
       <r>   10.9221    1.0000 </r>
       <r>   11.3862    1.0000 </r>
       <r>   11.7013    1.0000 </r>
       <r>   18.2385    0.0000 </r>
       <r>   20.4322    0.0000 </r>
       <r>   26.1793    0.0000 </r>
       <r>   26.8862    0.0000 </r>
       <r>   33.5773    0.0000 </r>
       <r>   34.9067    0.0000 </r>
       <r>   36.2565    0.0000 </r>
       <r>   37.1351    0.0000 </r>
       <r>   42.1628    0.0000 </r>
       <r>   43.7560    0.0000 </r>
       <r>   45.1465    0.0000 </r>
       <r>   48.1678    0.0000 </r>
       <r>   49.1956    0.0000 </r>
      </set>
      <set comment="kpoint 14">
       <r>    6.4896    1.0000 </r>
       <r>    7.5813    1.0000 </r>
       <r>    7.5893    1.0000 </r>
       <r>    8.1351    1.0000 </r>
       <r>    9.0949    1.0000 </r>
       <r>    9.6476    1.0000 </r>
       <r>    9.7616    1.0000 </r>
       <r>   10.6964    1.0000 </r>
       <r>   11.4589    1.0000 </r>
       <r>   11.6987    1.0000 </r>
       <r>   12.3311    0.0000 </r>
       <r>   20.2659    0.0000 </r>
       <r>   20.6952    0.0000 </r>
       <r>   23.3215    0.0000 </r>
       <r>   25.2957    0.0000 </r>
       <r>   31.0006    0.0000 </r>
       <r>   33.1597    0.0000 </r>
       <r>   33.2877    0.0000 </r>
       <r>   35.8458    0.0000 </r>
       <r>   42.3420    0.0000 </r>
       <r>   45.1657    0.0000 </r>
       <r>   47.1599    0.0000 </r>
       <r>   48.4717    0.0000 </r>
       <r>   49.3841    0.0000 </r>
      </set>
      <set comment="kpoint 15">
       <r>    7.1599    1.0000 </r>
       <r>    7.3118    1.0000 </r>
       <r>    7.3476    1.0000 </r>
       <r>    8.5235    1.0000 </r>
       <r>    9.0450    1.0000 </r>
       <r>    9.5101    1.0000 </r>
       <r>    9.8880    1.0000 </r>
       <r>   11.1894    1.0000 </r>
       <r>   11.6954    1.0000 </r>
       <r>   11.7277    1.0000 </r>
       <r>   13.6521    0.0000 </r>
       <r>   18.7605    0.0000 </r>
       <r>   22.4433    0.0000 </r>
       <r>   23.1860    0.0000 </r>
       <r>   24.4680    0.0000 </r>
       <r>   28.2772    0.0000 </r>
       <r>   30.1740    0.0000 </r>
       <r>   32.5170    0.0000 </r>
       <r>   35.0499    0.0000 </r>
       <r>   42.0114    0.0000 </r>
       <r>   46.0570    0.0000 </r>
       <r>   48.4269    0.0000 </r>
       <r>   48.6595    0.0000 </r>
       <r>   49.9273    0.0000 </r>
      </set>
      <set comment="kpoint 16">
       <r>    7.2180    1.0000 </r>
       <r>    7.2196    1.0000 </r>
       <r>    7.3309    1.0000 </r>
       <r>    8.7840    1.0000 </r>
       <r>    9.0667    1.0000 </r>
       <r>    9.3790    1.0000 </r>
       <r>    9.9912    1.0000 </r>
       <r>   11.5249    1.0000 </r>
       <r>   11.6938    1.0000 </r>
       <r>   11.7016    1.0000 </r>
       <r>   14.9808    0.0000 </r>
       <r>   16.8418    0.0000 </r>
       <r>   23.6202    0.0000 </r>
       <r>   23.9876    0.0000 </r>
       <r>   24.4849    0.0000 </r>
       <r>   26.5410    0.0000 </r>
       <r>   28.6780    0.0000 </r>
       <r>   32.2696    0.0000 </r>
       <r>   34.7620    0.0000 </r>
       <r>   41.8766    0.0000 </r>
       <r>   46.2631    0.0000 </r>
       <r>   48.6311    0.0000 </r>
       <r>   48.6698    0.0000 </r>
       <r>   50.5682    0.0000 </r>
      </set>
      <set comment="kpoint 17">
       <r>    7.3433    1.0000 </r>
       <r>    7.3866    1.0000 </r>
       <r>    7.8285    1.0000 </r>
       <r>    7.8739    1.0000 </r>
       <r>    8.9667    1.0000 </r>
       <r>    9.5295    1.0000 </r>
       <r>    9.8954    1.0000 </r>
       <r>   10.9135    1.0000 </r>
       <r>   11.6452    1.0000 </r>
       <r>   11.7344    1.0000 </r>
       <r>   13.6729    0.0000 </r>
       <r>   20.6391    0.0000 </r>
       <r>   21.4343    0.0000 </r>
       <r>   22.3253    0.0000 </r>
       <r>   23.9964    0.0000 </r>
       <r>   30.1094    0.0000 </r>
       <r>   30.4263    0.0000 </r>
       <r>   31.8681    0.0000 </r>
       <r>   32.8573    0.0000 </r>
       <r>   45.3247    0.0000 </r>
       <r>   47.1986    0.0000 </r>
       <r>   47.2773    0.0000 </r>
       <r>   48.6133    0.0000 </r>
       <r>   49.5813    0.0000 </r>
      </set>
      <set comment="kpoint 18">
       <r>    7.2882    1.0000 </r>
       <r>    7.5972    1.0000 </r>
       <r>    7.6744    1.0000 </r>
       <r>    8.2659    1.0000 </r>
       <r>    8.9912    1.0000 </r>
       <r>    9.2889    1.0000 </r>
       <r>   10.0962    1.0000 </r>
       <r>   11.2463    1.0000 </r>
       <r>   11.6137    1.0000 </r>
       <r>   11.6674    1.0000 </r>
       <r>   15.4651    0.0000 </r>
       <r>   18.2972    0.0000 </r>
       <r>   20.7508    0.0000 </r>
       <r>   24.5150    0.0000 </r>
       <r>   24.9898    0.0000 </r>
       <r>   27.6694    0.0000 </r>
       <r>   29.6400    0.0000 </r>
       <r>   29.8320    0.0000 </r>
       <r>   32.0038    0.0000 </r>
       <r>   45.7999    0.0000 </r>
       <r>   48.5047    0.0000 </r>
       <r>   48.7027    0.0000 </r>
       <r>   48.9743    0.0000 </r>
       <r>   50.4708    0.0000 </r>
      </set>
      <set comment="kpoint 19">
       <r>    7.2916    1.0000 </r>
       <r>    7.8139    1.0000 </r>
       <r>    7.8139    1.0000 </r>
       <r>    8.1034    1.0000 </r>
       <r>    9.0842    1.0000 </r>
       <r>    9.0842    1.0000 </r>
       <r>   10.2146    1.0000 </r>
       <r>   11.4230    1.0000 </r>
       <r>   11.4230    1.0000 </r>
       <r>   11.5811    1.0000 </r>
       <r>   17.2490    0.0000 </r>
       <r>   18.3297    0.0000 </r>
       <r>   18.3297    0.0000 </r>
       <r>   25.8336    0.0000 </r>
       <r>   26.6754    0.0000 </r>
       <r>   26.6754    0.0000 </r>
       <r>   28.2585    0.0000 </r>
       <r>   29.9967    0.0000 </r>
       <r>   29.9967    0.0000 </r>
       <r>   48.0830    0.0000 </r>
       <r>   48.5718    0.0000 </r>
       <r>   48.5718    0.0000 </r>
       <r>   51.4929    0.0000 </r>
       <r>   51.4929    0.0000 </r>
      </set>
      <set comment="kpoint 20">
       <r>    2.6725    1.0000 </r>
       <r>    6.3873    1.0000 </r>
       <r>    9.3348    1.0000 </r>
       <r>    9.3514    1.0000 </r>
       <r>    9.3514    1.0000 </r>
       <r>    9.7393    1.0000 </r>
       <r>    9.7393    1.0000 </r>
       <r>   10.3274    1.0000 </r>
       <r>   10.3274    1.0000 </r>
       <r>   11.4449    1.0000 </r>
       <r>   11.5460    1.0000 </r>
       <r>   11.5460    1.0000 </r>
       <r>   20.7108    0.0000 </r>
       <r>   35.0682    0.0000 </r>
       <r>   38.0116    0.0000 </r>
       <r>   38.3141    0.0000 </r>
       <r>   39.2070    0.0000 </r>
       <r>   39.2070    0.0000 </r>
       <r>   40.3275    0.0000 </r>
       <r>   40.3275    0.0000 </r>
       <r>   44.2246    0.0000 </r>
       <r>   44.2246    0.0000 </r>
       <r>   46.4150    0.0000 </r>
       <r>   46.5070    0.0000 </r>
      </set>
      <set comment="kpoint 21">
       <r>    2.9371    1.0000 </r>
       <r>    6.5612    1.0000 </r>
       <r>    9.1116    1.0000 </r>
       <r>    9.4730    1.0000 </r>
       <r>    9.4888    1.0000 </r>
       <r>    9.5993    1.0000 </r>
       <r>    9.8540    1.0000 </r>
       <r>   10.1630    1.0000 </r>
       <r>   10.2639    1.0000 </r>
       <r>   10.4735    1.0000 </r>
       <r>   11.5789    1.0000 </r>
       <r>   12.9097    0.0000 </r>
       <r>   20.7935    0.0000 </r>
       <r>   33.7632    0.0000 </r>
       <r>   36.2092    0.0000 </r>
       <r>   36.8495    0.0000 </r>
       <r>   38.0184    0.0000 </r>
       <r>   39.1129    0.0000 </r>
       <r>   41.4185    0.0000 </r>
       <r>   42.7179    0.0000 </r>
       <r>   43.6872    0.0000 </r>
       <r>   44.0751    0.0000 </r>
       <r>   44.8025    0.0000 </r>
       <r>   46.9356    0.0000 </r>
      </set>
      <set comment="kpoint 22">
       <r>    3.6950    1.0000 </r>
       <r>    6.9934    1.0000 </r>
       <r>    8.7968    1.0000 </r>
       <r>    8.9466    1.0000 </r>
       <r>    9.4537    1.0000 </r>
       <r>    9.7326    1.0000 </r>
       <r>    9.8822    1.0000 </r>
       <r>   10.1113    1.0000 </r>
       <r>   10.2629    1.0000 </r>
       <r>   10.3526    1.0000 </r>
       <r>   11.6482    1.0000 </r>
       <r>   14.4583    0.0000 </r>
       <r>   21.0747    0.0000 </r>
       <r>   30.1113    0.0000 </r>
       <r>   34.2706    0.0000 </r>
       <r>   34.8770    0.0000 </r>
       <r>   36.8746    0.0000 </r>
       <r>   38.1502    0.0000 </r>
       <r>   41.1325    0.0000 </r>
       <r>   42.2214    0.0000 </r>
       <r>   43.1618    0.0000 </r>
       <r>   44.3901    0.0000 </r>
       <r>   45.4837    0.0000 </r>
       <r>   47.9133    0.0000 </r>
      </set>
      <set comment="kpoint 23">
       <r>    4.8108    1.0000 </r>
       <r>    7.3350    1.0000 </r>
       <r>    8.1724    1.0000 </r>
       <r>    8.6104    1.0000 </r>
       <r>    9.2967    1.0000 </r>
       <r>    9.6709    1.0000 </r>
       <r>    9.9274    1.0000 </r>
       <r>   10.5301    1.0000 </r>
       <r>   10.5922    1.0000 </r>
       <r>   10.7004    1.0000 </r>
       <r>   11.7133    1.0000 </r>
       <r>   16.0479    0.0000 </r>
       <r>   21.6100    0.0000 </r>
       <r>   26.2985    0.0000 </r>
       <r>   32.0167    0.0000 </r>
       <r>   32.4241    0.0000 </r>
       <r>   34.9608    0.0000 </r>
       <r>   37.7088    0.0000 </r>
       <r>   39.4346    0.0000 </r>
       <r>   40.8567    0.0000 </r>
       <r>   42.7373    0.0000 </r>
       <r>   44.6880    0.0000 </r>
       <r>   45.1248    0.0000 </r>
       <r>   48.5576    0.0000 </r>
      </set>
      <set comment="kpoint 24">
       <r>    5.9330    1.0000 </r>
       <r>    7.2270    1.0000 </r>
       <r>    7.6755    1.0000 </r>
       <r>    8.5912    1.0000 </r>
       <r>    9.4760    1.0000 </r>
       <r>    9.4783    1.0000 </r>
       <r>    9.9775    1.0000 </r>
       <r>   11.1110    1.0000 </r>
       <r>   11.2046    1.0000 </r>
       <r>   11.2822    1.0000 </r>
       <r>   11.7629    1.0000 </r>
       <r>   17.4970    0.0000 </r>
       <r>   21.8147    0.0000 </r>
       <r>   23.6495    0.0000 </r>
       <r>   29.3814    0.0000 </r>
       <r>   30.2114    0.0000 </r>
       <r>   33.0577    0.0000 </r>
       <r>   36.8156    0.0000 </r>
       <r>   37.5739    0.0000 </r>
       <r>   39.5074    0.0000 </r>
       <r>   43.6382    0.0000 </r>
       <r>   44.2340    0.0000 </r>
       <r>   45.9146    0.0000 </r>
       <r>   48.7984    0.0000 </r>
      </set>
      <set comment="kpoint 25">
       <r>    6.5076    1.0000 </r>
       <r>    6.9529    1.0000 </r>
       <r>    7.5381    1.0000 </r>
       <r>    8.6134    1.0000 </r>
       <r>    9.3352    1.0000 </r>
       <r>    9.7936    1.0000 </r>
       <r>   10.2184    1.0000 </r>
       <r>   11.5360    1.0000 </r>
       <r>   11.6184    1.0000 </r>
       <r>   11.8210    1.0000 </r>
       <r>   12.5011    0.0000 </r>
       <r>   17.4802    0.0000 </r>
       <r>   21.0564    0.0000 </r>
       <r>   23.9069    0.0000 </r>
       <r>   27.1566    0.0000 </r>
       <r>   29.0143    0.0000 </r>
       <r>   30.5476    0.0000 </r>
       <r>   36.0956    0.0000 </r>
       <r>   36.8437    0.0000 </r>
       <r>   38.5073    0.0000 </r>
       <r>   43.7380    0.0000 </r>
       <r>   44.9290    0.0000 </r>
       <r>   46.6287    0.0000 </r>
       <r>   48.7921    0.0000 </r>
      </set>
      <set comment="kpoint 26">
       <r>    6.6172    1.0000 </r>
       <r>    6.8167    1.0000 </r>
       <r>    7.5351    1.0000 </r>
       <r>    8.6422    1.0000 </r>
       <r>    9.2836    1.0000 </r>
       <r>    9.8948    1.0000 </r>
       <r>   10.4109    1.0000 </r>
       <r>   11.6479    1.0000 </r>
       <r>   11.7829    1.0000 </r>
       <r>   11.8879    1.0000 </r>
       <r>   13.7121    0.0000 </r>
       <r>   16.0581    0.0000 </r>
       <r>   22.4117    0.0000 </r>
       <r>   22.8527    0.0000 </r>
       <r>   27.3835    0.0000 </r>
       <r>   28.5900    0.0000 </r>
       <r>   28.7496    0.0000 </r>
       <r>   35.8309    0.0000 </r>
       <r>   36.6751    0.0000 </r>
       <r>   38.1394    0.0000 </r>
       <r>   43.5844    0.0000 </r>
       <r>   45.6789    0.0000 </r>
       <r>   46.7813    0.0000 </r>
       <r>   48.6407    0.0000 </r>
      </set>
      <set comment="kpoint 27">
       <r>    3.4497    1.0000 </r>
       <r>    6.8718    1.0000 </r>
       <r>    8.8653    1.0000 </r>
       <r>    9.1697    1.0000 </r>
       <r>    9.5378    1.0000 </r>
       <r>    9.6672    1.0000 </r>
       <r>    9.8135    1.0000 </r>
       <r>   10.0268    1.0000 </r>
       <r>   10.2659    1.0000 </r>
       <r>   10.3712    1.0000 </r>
       <r>   11.6203    1.0000 </r>
       <r>   14.0387    0.0000 </r>
       <r>   20.9778    0.0000 </r>
       <r>   31.7619    0.0000 </r>
       <r>   32.8978    0.0000 </r>
       <r>   37.2460    0.0000 </r>
       <r>   37.3588    0.0000 </r>
       <r>   38.7324    0.0000 </r>
       <r>   40.2172    0.0000 </r>
       <r>   41.3152    0.0000 </r>
       <r>   44.4910    0.0000 </r>
       <r>   45.3309    0.0000 </r>
       <r>   46.4621    0.0000 </r>
       <r>   46.6740    0.0000 </r>
      </set>
      <set comment="kpoint 28">
       <r>    4.3995    1.0000 </r>
       <r>    7.3187    1.0000 </r>
       <r>    8.4378    1.0000 </r>
       <r>    8.5547    1.0000 </r>
       <r>    9.3763    1.0000 </r>
       <r>    9.6179    1.0000 </r>
       <r>    9.9428    1.0000 </r>
       <r>   10.2228    1.0000 </r>
       <r>   10.4963    1.0000 </r>
       <r>   10.6610    1.0000 </r>
       <r>   11.6739    1.0000 </r>
       <r>   15.5029    0.0000 </r>
       <r>   21.4117    0.0000 </r>
       <r>   28.2390    0.0000 </r>
       <r>   30.6391    0.0000 </r>
       <r>   34.3582    0.0000 </r>
       <r>   36.5580    0.0000 </r>
       <r>   37.6475    0.0000 </r>
       <r>   40.3632    0.0000 </r>
       <r>   40.9670    0.0000 </r>
       <r>   42.3221    0.0000 </r>
       <r>   44.5892    0.0000 </r>
       <r>   47.1928    0.0000 </r>
       <r>   47.9453    0.0000 </r>
      </set>
      <set comment="kpoint 29">
       <r>    5.5711    1.0000 </r>
       <r>    7.4523    1.0000 </r>
       <r>    7.8359    1.0000 </r>
       <r>    8.4640    1.0000 </r>
       <r>    9.2589    1.0000 </r>
       <r>    9.5937    1.0000 </r>
       <r>    9.8649    1.0000 </r>
       <r>   10.6199    1.0000 </r>
       <r>   11.0031    1.0000 </r>
       <r>   11.2646    1.0000 </r>
       <r>   11.7528    1.0000 </r>
       <r>   17.0268    0.0000 </r>
       <r>   22.0660    0.0000 </r>
       <r>   24.7098    0.0000 </r>
       <r>   28.9708    0.0000 </r>
       <r>   31.1414    0.0000 </r>
       <r>   35.0442    0.0000 </r>
       <r>   35.6313    0.0000 </r>
       <r>   39.5246    0.0000 </r>
       <r>   40.3239    0.0000 </r>
       <r>   41.9351    0.0000 </r>
       <r>   45.0626    0.0000 </r>
       <r>   47.9046    0.0000 </r>
       <r>   48.3551    0.0000 </r>
      </set>
      <set comment="kpoint 30">
       <r>    6.4593    1.0000 </r>
       <r>    7.2010    1.0000 </r>
       <r>    7.5680    1.0000 </r>
       <r>    8.5091    1.0000 </r>
       <r>    9.2967    1.0000 </r>
       <r>    9.6933    1.0000 </r>
       <r>    9.9139    1.0000 </r>
       <r>   11.1828    1.0000 </r>
       <r>   11.5019    1.0000 </r>
       <r>   11.6393    1.0000 </r>
       <r>   12.3021    0.0001 </r>
       <r>   18.1101    0.0000 </r>
       <r>   21.2721    0.0000 </r>
       <r>   23.8484    0.0000 </r>
       <r>   27.5241    0.0000 </r>
       <r>   28.4307    0.0000 </r>
       <r>   32.3083    0.0000 </r>
       <r>   34.5790    0.0000 </r>
       <r>   38.7551    0.0000 </r>
       <r>   39.0356    0.0000 </r>
       <r>   42.7560    0.0000 </r>
       <r>   45.7463    0.0000 </r>
       <r>   48.0331    0.0000 </r>
       <r>   48.8563    0.0000 </r>
      </set>
      <set comment="kpoint 31">
       <r>    6.7037    1.0000 </r>
       <r>    6.9751    1.0000 </r>
       <r>    7.5825    1.0000 </r>
       <r>    8.5804    1.0000 </r>
       <r>    9.2083    1.0000 </r>
       <r>    9.9178    1.0000 </r>
       <r>   10.1085    1.0000 </r>
       <r>   11.5912    1.0000 </r>
       <r>   11.7182    1.0000 </r>
       <r>   11.7652    1.0000 </r>
       <r>   13.6452    0.0000 </r>
       <r>   16.8151    0.0000 </r>
       <r>   21.8450    0.0000 </r>
       <r>   23.7218    0.0000 </r>
       <r>   26.7322    0.0000 </r>
       <r>   27.4465    0.0000 </r>
       <r>   29.7901    0.0000 </r>
       <r>   34.0592    0.0000 </r>
       <r>   38.3132    0.0000 </r>
       <r>   38.4308    0.0000 </r>
       <r>   43.1404    0.0000 </r>
       <r>   46.6410    0.0000 </r>
       <r>   47.9583    0.0000 </r>
       <r>   48.8203    0.0000 </r>
      </set>
      <set comment="kpoint 32">
       <r>    5.4444    1.0000 </r>
       <r>    7.6777    1.0000 </r>
       <r>    7.9519    1.0000 </r>
       <r>    8.1937    1.0000 </r>
       <r>    9.2691    1.0000 </r>
       <r>    9.4827    1.0000 </r>
       <r>    9.8969    1.0000 </r>
       <r>   10.3753    1.0000 </r>
       <r>   11.0128    1.0000 </r>
       <r>   11.2637    1.0000 </r>
       <r>   11.7456    1.0000 </r>
       <r>   16.8602    0.0000 </r>
       <r>   22.0800    0.0000 </r>
       <r>   26.3323    0.0000 </r>
       <r>   27.0688    0.0000 </r>
       <r>   32.6399    0.0000 </r>
       <r>   33.8255    0.0000 </r>
       <r>   37.4176    0.0000 </r>
       <r>   38.2103    0.0000 </r>
       <r>   41.6015    0.0000 </r>
       <r>   42.5962    0.0000 </r>
       <r>   45.1026    0.0000 </r>
       <r>   48.1004    0.0000 </r>
       <r>   48.5776    0.0000 </r>
      </set>
      <set comment="kpoint 33">
       <r>    6.5205    1.0000 </r>
       <r>    7.5442    1.0000 </r>
       <r>    7.6616    1.0000 </r>
       <r>    8.1885    1.0000 </r>
       <r>    9.1461    1.0000 </r>
       <r>    9.6573    1.0000 </r>
       <r>    9.6981    1.0000 </r>
       <r>   10.7134    1.0000 </r>
       <r>   11.5251    1.0000 </r>
       <r>   11.5313    1.0000 </r>
       <r>   12.4028    0.0000 </r>
       <r>   18.3043    0.0000 </r>
       <r>   22.5061    0.0000 </r>
       <r>   23.8081    0.0000 </r>
       <r>   25.4913    0.0000 </r>
       <r>   29.9548    0.0000 </r>
       <r>   32.2597    0.0000 </r>
       <r>   34.4531    0.0000 </r>
       <r>   37.0395    0.0000 </r>
       <r>   42.2502    0.0000 </r>
       <r>   43.4924    0.0000 </r>
       <r>   46.7830    0.0000 </r>
       <r>   48.1804    0.0000 </r>
       <r>   49.1517    0.0000 </r>
      </set>
      <set comment="kpoint 34">
       <r>    6.9734    1.0000 </r>
       <r>    7.3807    1.0000 </r>
       <r>    7.5966    1.0000 </r>
       <r>    8.3532    1.0000 </r>
       <r>    9.1114    1.0000 </r>
       <r>    9.6011    1.0000 </r>
       <r>    9.9288    1.0000 </r>
       <r>   11.1802    1.0000 </r>
       <r>   11.5468    1.0000 </r>
       <r>   11.7749    1.0000 </r>
       <r>   13.7033    0.0000 </r>
       <r>   18.4111    0.0000 </r>
       <r>   21.4807    0.0000 </r>
       <r>   24.2636    0.0000 </r>
       <r>   24.7392    0.0000 </r>
       <r>   27.7108    0.0000 </r>
       <r>   31.4535    0.0000 </r>
       <r>   31.5316    0.0000 </r>
       <r>   36.2877    0.0000 </r>
       <r>   42.0449    0.0000 </r>
       <r>   44.6240    0.0000 </r>
       <r>   47.2349    0.0000 </r>
       <r>   48.6322    0.0000 </r>
       <r>   49.2767    0.0000 </r>
      </set>
      <set comment="kpoint 35">
       <r>    6.9738    1.0000 </r>
       <r>    7.2739    1.0000 </r>
       <r>    7.7066    1.0000 </r>
       <r>    8.4508    1.0000 </r>
       <r>    9.0382    1.0000 </r>
       <r>    9.6734    1.0000 </r>
       <r>   10.0367    1.0000 </r>
       <r>   11.5218    1.0000 </r>
       <r>   11.5273    1.0000 </r>
       <r>   11.7464    1.0000 </r>
       <r>   15.0347    0.0000 </r>
       <r>   16.7971    0.0000 </r>
       <r>   22.9586    0.0000 </r>
       <r>   23.4201    0.0000 </r>
       <r>   24.2442    0.0000 </r>
       <r>   27.8901    0.0000 </r>
       <r>   29.6276    0.0000 </r>
       <r>   31.2557    0.0000 </r>
       <r>   36.0159    0.0000 </r>
       <r>   41.9236    0.0000 </r>
       <r>   45.1926    0.0000 </r>
       <r>   47.1726    0.0000 </r>
       <r>   48.6668    0.0000 </r>
       <r>   49.3317    0.0000 </r>
      </set>
      <set comment="kpoint 36">
       <r>    7.3395    1.0000 </r>
       <r>    7.3533    1.0000 </r>
       <r>    7.8675    1.0000 </r>
       <r>    7.9557    1.0000 </r>
       <r>    9.0872    1.0000 </r>
       <r>    9.4257    1.0000 </r>
       <r>    9.8887    1.0000 </r>
       <r>   10.9354    1.0000 </r>
       <r>   11.4893    1.0000 </r>
       <r>   11.7839    1.0000 </r>
       <r>   13.7569    0.0000 </r>
       <r>   19.5499    0.0000 </r>
       <r>   21.6100    0.0000 </r>
       <r>   22.5638    0.0000 </r>
       <r>   25.0494    0.0000 </r>
       <r>   29.1219    0.0000 </r>
       <r>   29.3084    0.0000 </r>
       <r>   33.3154    0.0000 </r>
       <r>   34.1677    0.0000 </r>
       <r>   44.5112    0.0000 </r>
       <r>   46.1127    0.0000 </r>
       <r>   47.2205    0.0000 </r>
       <r>   48.6814    0.0000 </r>
       <r>   49.4423    0.0000 </r>
      </set>
      <set comment="kpoint 37">
       <r>    7.2588    1.0000 </r>
       <r>    7.6687    1.0000 </r>
       <r>    7.7694    1.0000 </r>
       <r>    8.1796    1.0000 </r>
       <r>    9.0282    1.0000 </r>
       <r>    9.2802    1.0000 </r>
       <r>   10.0980    1.0000 </r>
       <r>   11.2615    1.0000 </r>
       <r>   11.4501    1.0000 </r>
       <r>   11.7019    1.0000 </r>
       <r>   15.5883    0.0000 </r>
       <r>   18.3042    0.0000 </r>
       <r>   20.7777    0.0000 </r>
       <r>   23.3396    0.0000 </r>
       <r>   25.2259    0.0000 </r>
       <r>   27.7307    0.0000 </r>
       <r>   29.0477    0.0000 </r>
       <r>   30.9503    0.0000 </r>
       <r>   33.3880    0.0000 </r>
       <r>   45.5224    0.0000 </r>
       <r>   47.1255    0.0000 </r>
       <r>   48.2512    0.0000 </r>
       <r>   48.6750    0.0000 </r>
       <r>   49.5448    0.0000 </r>
      </set>
      <set comment="kpoint 38">
       <r>    7.3582    1.0000 </r>
       <r>    7.8268    1.0000 </r>
       <r>    7.8268    1.0000 </r>
       <r>    8.1170    1.0000 </r>
       <r>    9.0660    1.0000 </r>
       <r>    9.0660    1.0000 </r>
       <r>   10.1940    1.0000 </r>
       <r>   11.4089    1.0000 </r>
       <r>   11.4518    1.0000 </r>
       <r>   11.4518    1.0000 </r>
       <r>   17.5116    0.0000 </r>
       <r>   18.3662    0.0000 </r>
       <r>   18.3662    0.0000 </r>
       <r>   24.7658    0.0000 </r>
       <r>   25.7883    0.0000 </r>
       <r>   25.7883    0.0000 </r>
       <r>   29.5712    0.0000 </r>
       <r>   31.2105    0.0000 </r>
       <r>   31.2105    0.0000 </r>
       <r>   47.0405    0.0000 </r>
       <r>   48.6139    0.0000 </r>
       <r>   48.6139    0.0000 </r>
       <r>   49.3096    0.0000 </r>
       <r>   49.3096    0.0000 </r>
      </set>
      <set comment="kpoint 39">
       <r>    3.1820    1.0000 </r>
       <r>    6.2514    1.0000 </r>
       <r>    9.2013    1.0000 </r>
       <r>    9.2763    1.0000 </r>
       <r>    9.2763    1.0000 </r>
       <r>    9.6051    1.0000 </r>
       <r>    9.6051    1.0000 </r>
       <r>   10.2446    1.0000 </r>
       <r>   10.5987    1.0000 </r>
       <r>   10.5987    1.0000 </r>
       <r>   11.5018    1.0000 </r>
       <r>   11.5018    1.0000 </r>
       <r>   22.9205    0.0000 </r>
       <r>   34.3990    0.0000 </r>
       <r>   36.1155    0.0000 </r>
       <r>   37.4889    0.0000 </r>
       <r>   39.6054    0.0000 </r>
       <r>   39.6054    0.0000 </r>
       <r>   40.4411    0.0000 </r>
       <r>   40.4411    0.0000 </r>
       <r>   43.6091    0.0000 </r>
       <r>   43.6091    0.0000 </r>
       <r>   45.8234    0.0000 </r>
       <r>   45.8234    0.0000 </r>
      </set>
      <set comment="kpoint 40">
       <r>    3.4374    1.0000 </r>
       <r>    6.4479    1.0000 </r>
       <r>    9.1240    1.0000 </r>
       <r>    9.2319    1.0000 </r>
       <r>    9.2796    1.0000 </r>
       <r>    9.3859    1.0000 </r>
       <r>    9.7178    1.0000 </r>
       <r>    9.9775    1.0000 </r>
       <r>   10.5572    1.0000 </r>
       <r>   10.6062    1.0000 </r>
       <r>   11.5207    1.0000 </r>
       <r>   12.1371    0.8458 </r>
       <r>   23.0571    0.0000 </r>
       <r>   33.8099    0.0000 </r>
       <r>   35.3228    0.0000 </r>
       <r>   36.3594    0.0000 </r>
       <r>   37.3188    0.0000 </r>
       <r>   38.2847    0.0000 </r>
       <r>   40.7610    0.0000 </r>
       <r>   41.7310    0.0000 </r>
       <r>   43.6391    0.0000 </r>
       <r>   44.6899    0.0000 </r>
       <r>   44.6952    0.0000 </r>
       <r>   47.1695    0.0000 </r>
      </set>
      <set comment="kpoint 41">
       <r>    4.1598    1.0000 </r>
       <r>    6.9502    1.0000 </r>
       <r>    8.5642    1.0000 </r>
       <r>    8.8725    1.0000 </r>
       <r>    9.1905    1.0000 </r>
       <r>    9.6386    1.0000 </r>
       <r>    9.7726    1.0000 </r>
       <r>   10.0291    1.0000 </r>
       <r>   10.5226    1.0000 </r>
       <r>   10.6759    1.0000 </r>
       <r>   11.5596    1.0000 </r>
       <r>   13.2252    0.0000 </r>
       <r>   23.4816    0.0000 </r>
       <r>   30.4986    0.0000 </r>
       <r>   33.8847    0.0000 </r>
       <r>   34.8485    0.0000 </r>
       <r>   35.8952    0.0000 </r>
       <r>   36.7387    0.0000 </r>
       <r>   39.7680    0.0000 </r>
       <r>   40.3686    0.0000 </r>
       <r>   44.1756    0.0000 </r>
       <r>   45.9631    0.0000 </r>
       <r>   46.0436    0.0000 </r>
       <r>   48.0491    0.0000 </r>
      </set>
      <set comment="kpoint 42">
       <r>    5.1783    1.0000 </r>
       <r>    7.3694    1.0000 </r>
       <r>    7.9694    1.0000 </r>
       <r>    8.6985    1.0000 </r>
       <r>    9.1000    1.0000 </r>
       <r>    9.7500    1.0000 </r>
       <r>    9.8500    1.0000 </r>
       <r>   10.4896    1.0000 </r>
       <r>   10.7440    1.0000 </r>
       <r>   10.8538    1.0000 </r>
       <r>   11.6002    1.0000 </r>
       <r>   14.3869    0.0000 </r>
       <r>   24.1551    0.0000 </r>
       <r>   26.7595    0.0000 </r>
       <r>   30.9371    0.0000 </r>
       <r>   32.6837    0.0000 </r>
       <r>   35.3932    0.0000 </r>
       <r>   36.4156    0.0000 </r>
       <r>   38.7765    0.0000 </r>
       <r>   38.9520    0.0000 </r>
       <r>   42.3105    0.0000 </r>
       <r>   46.2306    0.0000 </r>
       <r>   46.9352    0.0000 </r>
       <r>   48.5809    0.0000 </r>
      </set>
      <set comment="kpoint 43">
       <r>    6.0694    1.0000 </r>
       <r>    7.2241    1.0000 </r>
       <r>    7.7427    1.0000 </r>
       <r>    8.4905    1.0000 </r>
       <r>    9.4593    1.0000 </r>
       <r>    9.6623    1.0000 </r>
       <r>   10.3747    1.0000 </r>
       <r>   10.9864    1.0000 </r>
       <r>   11.1850    1.0000 </r>
       <r>   11.2278    1.0000 </r>
       <r>   11.6623    1.0000 </r>
       <r>   15.5399    0.0000 </r>
       <r>   23.0231    0.0000 </r>
       <r>   25.2294    0.0000 </r>
       <r>   28.1165    0.0000 </r>
       <r>   30.9503    0.0000 </r>
       <r>   34.2384    0.0000 </r>
       <r>   36.2233    0.0000 </r>
       <r>   37.3918    0.0000 </r>
       <r>   37.9313    0.0000 </r>
       <r>   41.3974    0.0000 </r>
       <r>   46.4957    0.0000 </r>
       <r>   47.0790    0.0000 </r>
       <r>   48.6805    0.0000 </r>
      </set>
      <set comment="kpoint 44">
       <r>    6.3894    1.0000 </r>
       <r>    6.9780    1.0000 </r>
       <r>    7.8342    1.0000 </r>
       <r>    8.2287    1.0000 </r>
       <r>    9.5613    1.0000 </r>
       <r>    9.8619    1.0000 </r>
       <r>   11.1362    1.0000 </r>
       <r>   11.2725    1.0000 </r>
       <r>   11.5987    1.0000 </r>
       <r>   11.7908    1.0000 </r>
       <r>   12.1740    0.4894 </r>
       <r>   16.1950    0.0000 </r>
       <r>   20.9324    0.0000 </r>
       <r>   23.8045    0.0000 </r>
       <r>   28.1034    0.0000 </r>
       <r>   29.8035    0.0000 </r>
       <r>   32.3383    0.0000 </r>
       <r>   35.8026    0.0000 </r>
       <r>   36.4343    0.0000 </r>
       <r>   37.0745    0.0000 </r>
       <r>   42.4015    0.0000 </r>
       <r>   46.0584    0.0000 </r>
       <r>   46.6762    0.0000 </r>
       <r>   48.1199    0.0000 </r>
      </set>
      <set comment="kpoint 45">
       <r>    6.4152    1.0000 </r>
       <r>    6.8841    1.0000 </r>
       <r>    7.9905    1.0000 </r>
       <r>    8.0434    1.0000 </r>
       <r>    9.5219    1.0000 </r>
       <r>    9.9923    1.0000 </r>
       <r>   11.3367    1.0000 </r>
       <r>   11.3808    1.0000 </r>
       <r>   11.7736    1.0000 </r>
       <r>   11.8723    1.0000 </r>
       <r>   13.3006    0.0000 </r>
       <r>   15.6518    0.0000 </r>
       <r>   21.5095    0.0000 </r>
       <r>   21.6717    0.0000 </r>
       <r>   29.3982    0.0000 </r>
       <r>   29.5342    0.0000 </r>
       <r>   30.5617    0.0000 </r>
       <r>   35.6127    0.0000 </r>
       <r>   36.0901    0.0000 </r>
       <r>   36.8380    0.0000 </r>
       <r>   43.5134    0.0000 </r>
       <r>   45.4983    0.0000 </r>
       <r>   45.9036    0.0000 </r>
       <r>   47.9969    0.0000 </r>
      </set>
      <set comment="kpoint 46">
       <r>    3.9281    1.0000 </r>
       <r>    6.8058    1.0000 </r>
       <r>    8.7544    1.0000 </r>
       <r>    8.9266    1.0000 </r>
       <r>    9.2195    1.0000 </r>
       <r>    9.5893    1.0000 </r>
       <r>    9.7719    1.0000 </r>
       <r>    9.9278    1.0000 </r>
       <r>   10.5854    1.0000 </r>
       <r>   10.6026    1.0000 </r>
       <r>   11.5466    1.0000 </r>
       <r>   12.9255    0.0000 </r>
       <r>   23.3405    0.0000 </r>
       <r>   32.0566    0.0000 </r>
       <r>   33.2919    0.0000 </r>
       <r>   35.3010    0.0000 </r>
       <r>   36.0038    0.0000 </r>
       <r>   38.3563    0.0000 </r>
       <r>   39.5093    0.0000 </r>
       <r>   40.8154    0.0000 </r>
       <r>   44.4984    0.0000 </r>
       <r>   45.2032    0.0000 </r>
       <r>   46.6318    0.0000 </r>
       <r>   47.3381    0.0000 </r>
      </set>
      <set comment="kpoint 47">
       <r>    4.8164    1.0000 </r>
       <r>    7.3467    1.0000 </r>
       <r>    8.1384    1.0000 </r>
       <r>    8.6452    1.0000 </r>
       <r>    9.1504    1.0000 </r>
       <r>    9.6288    1.0000 </r>
       <r>    9.7850    1.0000 </r>
       <r>   10.2842    1.0000 </r>
       <r>   10.7157    1.0000 </r>
       <r>   10.7831    1.0000 </r>
       <r>   11.5914    1.0000 </r>
       <r>   13.9927    0.0000 </r>
       <r>   23.9271    0.0000 </r>
       <r>   28.6660    0.0000 </r>
       <r>   31.0549    0.0000 </r>
       <r>   32.9730    0.0000 </r>
       <r>   35.0154    0.0000 </r>
       <r>   37.6887    0.0000 </r>
       <r>   38.5177    0.0000 </r>
       <r>   41.6935    0.0000 </r>
       <r>   42.7825    0.0000 </r>
       <r>   44.4481    0.0000 </r>
       <r>   47.6874    0.0000 </r>
       <r>   48.1618    0.0000 </r>
      </set>
      <set comment="kpoint 48">
       <r>    5.8323    1.0000 </r>
       <r>    7.4804    1.0000 </r>
       <r>    7.7605    1.0000 </r>
       <r>    8.5684    1.0000 </r>
       <r>    9.1215    1.0000 </r>
       <r>    9.7354    1.0000 </r>
       <r>    9.8266    1.0000 </r>
       <r>   10.6741    1.0000 </r>
       <r>   11.0954    1.0000 </r>
       <r>   11.1751    1.0000 </r>
       <r>   11.7282    1.0000 </r>
       <r>   15.1648    0.0000 </r>
       <r>   24.3712    0.0000 </r>
       <r>   25.4476    0.0000 </r>
       <r>   29.1268    0.0000 </r>
       <r>   30.0861    0.0000 </r>
       <r>   34.0804    0.0000 </r>
       <r>   36.4501    0.0000 </r>
       <r>   38.4881    0.0000 </r>
       <r>   40.6709    0.0000 </r>
       <r>   41.4399    0.0000 </r>
       <r>   44.4498    0.0000 </r>
       <r>   48.4620    0.0000 </r>
       <r>   49.0002    0.0000 </r>
      </set>
      <set comment="kpoint 49">
       <r>    6.4392    1.0000 </r>
       <r>    7.2125    1.0000 </r>
       <r>    7.7413    1.0000 </r>
       <r>    8.3893    1.0000 </r>
       <r>    9.3390    1.0000 </r>
       <r>    9.8147    1.0000 </r>
       <r>   10.3482    1.0000 </r>
       <r>   11.0594    1.0000 </r>
       <r>   11.3719    1.0000 </r>
       <r>   11.6306    1.0000 </r>
       <r>   12.2975    0.0002 </r>
       <r>   16.2770    0.0000 </r>
       <r>   21.8209    0.0000 </r>
       <r>   25.0385    0.0000 </r>
       <r>   27.5232    0.0000 </r>
       <r>   28.6906    0.0000 </r>
       <r>   33.2047    0.0000 </r>
       <r>   34.1837    0.0000 </r>
       <r>   38.7189    0.0000 </r>
       <r>   39.3667    0.0000 </r>
       <r>   41.3500    0.0000 </r>
       <r>   44.5970    0.0000 </r>
       <r>   48.4462    0.0000 </r>
       <r>   49.0511    0.0000 </r>
      </set>
      <set comment="kpoint 50">
       <r>    6.5287    1.0000 </r>
       <r>    7.0426    1.0000 </r>
       <r>    7.9466    1.0000 </r>
       <r>    8.1641    1.0000 </r>
       <r>    9.2817    1.0000 </r>
       <r>   10.0870    1.0000 </r>
       <r>   10.7572    1.0000 </r>
       <r>   11.2626    1.0000 </r>
       <r>   11.6664    1.0000 </r>
       <r>   11.8414    1.0000 </r>
       <r>   13.5396    0.0000 </r>
       <r>   16.2405    0.0000 </r>
       <r>   21.0024    0.0000 </r>
       <r>   22.7681    0.0000 </r>
       <r>   27.6423    0.0000 </r>
       <r>   29.1768    0.0000 </r>
       <r>   31.7413    0.0000 </r>
       <r>   32.7784    0.0000 </r>
       <r>   38.5601    0.0000 </r>
       <r>   38.6671    0.0000 </r>
       <r>   42.5539    0.0000 </r>
       <r>   43.9987    0.0000 </r>
       <r>   47.7653    0.0000 </r>
       <r>   48.9586    0.0000 </r>
      </set>
      <set comment="kpoint 51">
       <r>    5.7539    1.0000 </r>
       <r>    7.6828    1.0000 </r>
       <r>    7.8746    1.0000 </r>
       <r>    8.3076    1.0000 </r>
       <r>    9.1689    1.0000 </r>
       <r>    9.4539    1.0000 </r>
       <r>    9.7710    1.0000 </r>
       <r>   10.5382    1.0000 </r>
       <r>   11.0778    1.0000 </r>
       <r>   11.1965    1.0000 </r>
       <r>   11.7809    1.0000 </r>
       <r>   15.0543    0.0000 </r>
       <r>   24.6765    0.0000 </r>
       <r>   26.7747    0.0000 </r>
       <r>   27.6036    0.0000 </r>
       <r>   31.2367    0.0000 </r>
       <r>   32.2201    0.0000 </r>
       <r>   37.7948    0.0000 </r>
       <r>   39.4517    0.0000 </r>
       <r>   40.6760    0.0000 </r>
       <r>   42.7744    0.0000 </r>
       <r>   44.8737    0.0000 </r>
       <r>   47.4316    0.0000 </r>
       <r>   47.7240    0.0000 </r>
      </set>
      <set comment="kpoint 52">
       <r>    6.6160    1.0000 </r>
       <r>    7.4352    1.0000 </r>
       <r>    7.8329    1.0000 </r>
       <r>    8.3794    1.0000 </r>
       <r>    9.1450    1.0000 </r>
       <r>    9.5287    1.0000 </r>
       <r>    9.7666    1.0000 </r>
       <r>   10.7939    1.0000 </r>
       <r>   11.2360    1.0000 </r>
       <r>   11.6700    1.0000 </r>
       <r>   12.5260    0.0000 </r>
       <r>   16.3463    0.0000 </r>
       <r>   23.4757    0.0000 </r>
       <r>   25.5489    0.0000 </r>
       <r>   26.0978    0.0000 </r>
       <r>   28.7463    0.0000 </r>
       <r>   30.7222    0.0000 </r>
       <r>   36.3246    0.0000 </r>
       <r>   38.6918    0.0000 </r>
       <r>   40.5929    0.0000 </r>
       <r>   43.0271    0.0000 </r>
       <r>   45.6719    0.0000 </r>
       <r>   48.0216    0.0000 </r>
       <r>   48.9261    0.0000 </r>
      </set>
      <set comment="kpoint 53">
       <r>    6.8529    1.0000 </r>
       <r>    7.4565    1.0000 </r>
       <r>    7.7772    1.0000 </r>
       <r>    8.3683    1.0000 </r>
       <r>    9.0291    1.0000 </r>
       <r>    9.7670    1.0000 </r>
       <r>   10.1010    1.0000 </r>
       <r>   11.0626    1.0000 </r>
       <r>   11.3219    1.0000 </r>
       <r>   11.8696    1.0000 </r>
       <r>   13.8639    0.0000 </r>
       <r>   17.3378    0.0000 </r>
       <r>   21.1716    0.0000 </r>
       <r>   24.3142    0.0000 </r>
[...]
       </set>
       <set comment="band 12">
        <r>  0.0021  0.0214  0.0834  0.0622  0.0240  0.0274  0.0035  0.0319  0.0574 </r>
        <r>  0.0070  0.0709  0.0251  0.2063  0.0795  0.0083  0.0115  0.0096  0.1905 </r>
       </set>
       <set comment="band 13">
        <r>  0.1033  0.0176  0.0248  0.0105  0.0620  0.0399  0.0052  0.1186  0.0217 </r>
        <r>  0.2161  0.0368  0.0118  0.0219  0.1298  0.0191  0.0109  0.0567  0.0453 </r>
       </set>
       <set comment="band 14">
        <r>  0.2161  0.0368  0.0118  0.0219  0.1298  0.0191  0.0109  0.0567  0.0453 </r>
        <r>  0.1033  0.0176  0.0248  0.0105  0.0620  0.0399  0.0052  0.1186  0.0217 </r>
       </set>
       <set comment="band 15">
        <r>  0.0407  0.0556  0.0142  0.0185  0.0200  0.1106  0.0117  0.0447  0.0067 </r>
        <r>  0.1298  0.1773  0.0045  0.0591  0.0639  0.0347  0.0373  0.0140  0.0213 </r>
       </set>
       <set comment="band 16">
        <r>  0.1298  0.1773  0.0045  0.0591  0.0639  0.0347  0.0373  0.0140  0.0213 </r>
        <r>  0.0407  0.0556  0.0142  0.0185  0.0200  0.1106  0.0117  0.0447  0.0067 </r>
       </set>
       <set comment="band 17">
        <r>  0.0000  0.0001  0.2523  0.0002  0.0000  0.0424  0.0000  0.0889  0.0000 </r>
        <r>  0.0029  0.0351  0.0004  0.0946  0.0104  0.0001  0.0076  0.0001  0.0177 </r>
       </set>
       <set comment="band 18">
        <r>  0.0029  0.0351  0.0004  0.0946  0.0104  0.0001  0.0076  0.0001  0.0177 </r>
        <r>  0.0000  0.0001  0.2523  0.0002  0.0000  0.0424  0.0000  0.0889  0.0000 </r>
       </set>
       <set comment="band 19">
        <r>  0.0230  0.0011  0.0151  0.0011  0.0876  0.0541  0.1705  0.1280  0.0292 </r>
        <r>  0.0228  0.0010  0.0152  0.0011  0.0871  0.0544  0.1694  0.1288  0.0290 </r>
       </set>
       <set comment="band 20">
        <r>  0.0228  0.0010  0.0152  0.0011  0.0871  0.0544  0.1694  0.1288  0.0290 </r>
        <r>  0.0230  0.0011  0.0151  0.0011  0.0876  0.0541  0.1705  0.1280  0.0292 </r>
       </set>
       <set comment="band 21">
        <r>  0.0214  0.1358  0.0248  0.0461  0.0042  0.0022  0.0414  0.0016  0.0026 </r>
        <r>  0.0029  0.0186  0.1813  0.0063  0.0006  0.0159  0.0057  0.0116  0.0004 </r>
       </set>
       <set comment="band 22">
        <r>  0.0029  0.0186  0.1813  0.0063  0.0006  0.0159  0.0057  0.0116  0.0004 </r>
        <r>  0.0214  0.1358  0.0248  0.0461  0.0042  0.0022  0.0414  0.0016  0.0026 </r>
       </set>
       <set comment="band 23">
        <r>  0.3349  0.0083  0.0013  0.0030  0.1176  0.0771  0.0564  0.0300  0.0392 </r>
        <r>  0.1227  0.0030  0.0034  0.0011  0.0431  0.2104  0.0207  0.0820  0.0144 </r>
       </set>
       <set comment="band 24">
        <r>  0.1227  0.0030  0.0034  0.0011  0.0431  0.2104  0.0207  0.0820  0.0144 </r>
        <r>  0.3349  0.0083  0.0013  0.0030  0.1176  0.0771  0.0564  0.0300  0.0392 </r>
       </set>
      </set>
      <set comment="kpoint 93">
       <set comment="band 1">
        <r>  0.1014  0.0139  0.0033  0.0585  0.0524  0.0000  0.0507  0.0702  0.0502 </r>
        <r>  0.0166  0.0023  0.0204  0.0096  0.0086  0.0002  0.0083  0.4276  0.0082 </r>
       </set>
       <set comment="band 2">
        <r>  0.0166  0.0023  0.0204  0.0096  0.0086  0.0002  0.0083  0.4276  0.0082 </r>
        <r>  0.1014  0.0139  0.0033  0.0585  0.0524  0.0000  0.0507  0.0702  0.0502 </r>
       </set>
       <set comment="band 3">
        <r>  0.0112  0.0262  0.0246  0.0046  0.2424  0.0572  0.0065  0.0020  0.0130 </r>
        <r>  0.0189  0.0440  0.0146  0.0077  0.4070  0.0341  0.0109  0.0012  0.0218 </r>
       </set>
       <set comment="band 4">
        <r>  0.0189  0.0440  0.0146  0.0077  0.4070  0.0341  0.0109  0.0012  0.0218 </r>
        <r>  0.0112  0.0262  0.0246  0.0046  0.2424  0.0572  0.0065  0.0020  0.0130 </r>
       </set>
       <set comment="band 5">
        <r>  0.0015  0.0000  0.0079  0.0611  0.0044  0.1258  0.1612  0.0105  0.0896 </r>
        <r>  0.0017  0.0000  0.0072  0.0669  0.0048  0.1149  0.1766  0.0096  0.0982 </r>
       </set>
       <set comment="band 6">
        <r>  0.0017  0.0000  0.0072  0.0669  0.0048  0.1149  0.1766  0.0096  0.0982 </r>
        <r>  0.0015  0.0000  0.0079  0.0611  0.0044  0.1258  0.1612  0.0105  0.0896 </r>
       </set>
       <set comment="band 7">
        <r>  0.0035  0.0000  0.0000  0.0006  0.0380  0.3437  0.0127  0.0606  0.0641 </r>
        <r>  0.0078  0.0000  0.0000  0.0013  0.0857  0.1525  0.0287  0.0269  0.1445 </r>
       </set>
       <set comment="band 8">
        <r>  0.0078  0.0000  0.0000  0.0013  0.0857  0.1525  0.0287  0.0269  0.1445 </r>
        <r>  0.0035  0.0000  0.0000  0.0006  0.0380  0.3437  0.0127  0.0606  0.0641 </r>
       </set>
       <set comment="band 9">
        <r>  0.0000  0.0000  0.0027  0.0014  0.0030  0.0598  0.1729  0.1387  0.0560 </r>
        <r>  0.0000  0.0001  0.0014  0.0026  0.0059  0.0309  0.3352  0.0715  0.1086 </r>
       </set>
       <set comment="band 10">
        <r>  0.0000  0.0001  0.0014  0.0026  0.0059  0.0309  0.3352  0.0715  0.1086 </r>
        <r>  0.0000  0.0000  0.0027  0.0014  0.0030  0.0598  0.1729  0.1387  0.0560 </r>
       </set>
       <set comment="band 11">
        <r>  0.0120  0.0006  0.0770  0.0321  0.0027  0.0070  0.0002  0.1221  0.0536 </r>
        <r>  0.0711  0.0036  0.0130  0.1904  0.0162  0.0012  0.0012  0.0206  0.3180 </r>
       </set>
       <set comment="band 12">
        <r>  0.0711  0.0036  0.0130  0.1904  0.0162  0.0012  0.0012  0.0206  0.3180 </r>
        <r>  0.0120  0.0006  0.0770  0.0321  0.0027  0.0070  0.0002  0.1221  0.0536 </r>
       </set>
       <set comment="band 13">
        <r>  0.0000  0.2801  0.0112  0.0078  0.3114  0.0085  0.0026  0.0120  0.0013 </r>
        <r>  0.0000  0.0526  0.0596  0.0015  0.0585  0.0450  0.0005  0.0636  0.0002 </r>
       </set>
       <set comment="band 14">
        <r>  0.0000  0.0526  0.0596  0.0015  0.0585  0.0450  0.0005  0.0636  0.0002 </r>
        <r>  0.0000  0.2801  0.0112  0.0078  0.3114  0.0085  0.0026  0.0120  0.0013 </r>
       </set>
       <set comment="band 15">
        <r>  0.0160  0.0001  0.0043  0.0072  0.0001  0.1391  0.0031  0.1090  0.0000 </r>
        <r>  0.3642  0.0027  0.0002  0.1650  0.0024  0.0061  0.0706  0.0048  0.0003 </r>
       </set>
       <set comment="band 16">
        <r>  0.3642  0.0027  0.0002  0.1650  0.0024  0.0061  0.0706  0.0048  0.0003 </r>
        <r>  0.0160  0.0001  0.0043  0.0072  0.0001  0.1391  0.0031  0.1090  0.0000 </r>
       </set>
       <set comment="band 17">
        <r>  0.0346  0.0003  0.0534  0.0600  0.0015  0.0081  0.0857  0.0229  0.0258 </r>
        <r>  0.0090  0.0001  0.2058  0.0156  0.0004  0.0313  0.0222  0.0885  0.0067 </r>
       </set>
       <set comment="band 18">
        <r>  0.0090  0.0001  0.2058  0.0156  0.0004  0.0313  0.0222  0.0885  0.0067 </r>
        <r>  0.0346  0.0003  0.0534  0.0600  0.0015  0.0081  0.0857  0.0229  0.0258 </r>
       </set>
       <set comment="band 19">
        <r>  0.0106  0.0477  0.0085  0.0170  0.1232  0.0146  0.0841  0.0103  0.0203 </r>
        <r>  0.0013  0.0058  0.0694  0.0021  0.0151  0.1193  0.0103  0.0845  0.0025 </r>
       </set>
       <set comment="band 20">
        <r>  0.0013  0.0058  0.0694  0.0021  0.0151  0.1193  0.0103  0.0845  0.0025 </r>
        <r>  0.0106  0.0477  0.0085  0.0170  0.1232  0.0146  0.0841  0.0103  0.0203 </r>
       </set>
       <set comment="band 21">
        <r>  0.0135  0.0036  0.0496  0.0192  0.0279  0.0008  0.1211  0.1455  0.0178 </r>
        <r>  0.0182  0.0049  0.0368  0.0258  0.0376  0.0006  0.1631  0.1080  0.0240 </r>
       </set>
       <set comment="band 22">
        <r>  0.0182  0.0049  0.0368  0.0258  0.0376  0.0006  0.1631  0.1080  0.0240 </r>
        <r>  0.0135  0.0036  0.0496  0.0192  0.0279  0.0008  0.1211  0.1455  0.0178 </r>
       </set>
       <set comment="band 23">
        <r>  0.0024  0.2400  0.0104  0.0013  0.1693  0.0050  0.0001  0.0018  0.0000 </r>
        <r>  0.0004  0.0400  0.0624  0.0002  0.0282  0.0299  0.0000  0.0110  0.0000 </r>
       </set>
       <set comment="band 24">
        <r>  0.0004  0.0400  0.0624  0.0002  0.0282  0.0299  0.0000  0.0110  0.0000 </r>
        <r>  0.0024  0.2400  0.0104  0.0013  0.1693  0.0050  0.0001  0.0018  0.0000 </r>
       </set>
      </set>
      <set comment="kpoint 94">
       <set comment="band 1">
        <r>  0.0523  0.0250  0.0009  0.0317  0.0921  0.0106  0.0574  0.1137  0.0454 </r>
        <r>  0.0170  0.0081  0.0028  0.0103  0.0299  0.0326  0.0186  0.3501  0.0147 </r>
       </set>
       <set comment="band 2">
        <r>  0.0170  0.0081  0.0028  0.0103  0.0299  0.0326  0.0186  0.3501  0.0147 </r>
        <r>  0.0523  0.0250  0.0009  0.0317  0.0921  0.0106  0.0574  0.1137  0.0454 </r>
       </set>
       <set comment="band 3">
        <r>  0.0099  0.0298  0.0036  0.0025  0.1641  0.1239  0.1012  0.0352  0.0113 </r>
        <r>  0.0086  0.0260  0.0041  0.0021  0.1432  0.1420  0.0883  0.0403  0.0098 </r>
       </set>
       <set comment="band 4">
        <r>  0.0086  0.0260  0.0041  0.0021  0.1432  0.1420  0.0883  0.0403  0.0098 </r>
        <r>  0.0099  0.0298  0.0036  0.0025  0.1641  0.1239  0.1012  0.0352  0.0113 </r>
       </set>
       <set comment="band 5">
        <r>  0.0002  0.0006  0.0485  0.0030  0.0045  0.1598  0.0010  0.0096  0.0061 </r>
        <r>  0.0087  0.0292  0.0011  0.1343  0.2051  0.0035  0.0473  0.0002  0.2737 </r>
       </set>
       <set comment="band 6">
        <r>  0.0087  0.0292  0.0011  0.1343  0.2051  0.0035  0.0473  0.0002  0.2737 </r>
        <r>  0.0002  0.0006  0.0485  0.0030  0.0045  0.1598  0.0010  0.0096  0.0061 </r>
       </set>
       <set comment="band 7">
        <r>  0.0022  0.0020  0.0007  0.0087  0.0971  0.1323  0.0125  0.0530  0.1829 </r>
        <r>  0.0016  0.0014  0.0011  0.0061  0.0679  0.1891  0.0087  0.0758  0.1280 </r>
       </set>
       <set comment="band 8">
        <r>  0.0016  0.0014  0.0011  0.0061  0.0679  0.1891  0.0087  0.0758  0.1280 </r>
        <r>  0.0022  0.0020  0.0007  0.0087  0.0971  0.1323  0.0125  0.0530  0.1829 </r>
       </set>
       <set comment="band 9">
        <r>  0.0007  0.0001  0.0008  0.0010  0.0045  0.0585  0.2843  0.1010  0.0221 </r>
        <r>  0.0009  0.0001  0.0007  0.0012  0.0055  0.0475  0.3500  0.0820  0.0272 </r>
       </set>
       <set comment="band 10">
        <r>  0.0009  0.0001  0.0007  0.0012  0.0055  0.0475  0.3500  0.0820  0.0272 </r>
        <r>  0.0007  0.0001  0.0008  0.0010  0.0045  0.0585  0.2843  0.1010  0.0221 </r>
       </set>
       <set comment="band 11">
        <r>  0.0091  0.0088  0.0903  0.0816  0.0113  0.0086  0.0005  0.0476  0.0868 </r>
        <r>  0.0245  0.0239  0.0334  0.2202  0.0304  0.0032  0.0012  0.0176  0.2343 </r>
       </set>
       <set comment="band 12">
        <r>  0.0245  0.0239  0.0334  0.2202  0.0304  0.0032  0.0012  0.0176  0.2343 </r>
        <r>  0.0091  0.0088  0.0903  0.0816  0.0113  0.0086  0.0005  0.0476  0.0868 </r>
       </set>
       <set comment="band 13">
        <r>  0.0830  0.1778  0.0142  0.0127  0.1982  0.0185  0.0046  0.0354  0.0136 </r>
        <r>  0.0353  0.0757  0.0333  0.0054  0.0844  0.0435  0.0020  0.0831  0.0058 </r>
       </set>
       <set comment="band 14">
        <r>  0.0353  0.0757  0.0333  0.0054  0.0844  0.0435  0.0020  0.0831  0.0058 </r>
        <r>  0.0830  0.1778  0.0142  0.0127  0.1982  0.0185  0.0046  0.0354  0.0136 </r>
       </set>
       <set comment="band 15">
        <r>  0.1154  0.0250  0.0079  0.0218  0.0122  0.1104  0.0160  0.0664  0.0016 </r>
        <r>  0.2625  0.0568  0.0035  0.0496  0.0277  0.0485  0.0364  0.0292  0.0037 </r>
       </set>
       <set comment="band 16">
        <r>  0.2625  0.0568  0.0035  0.0496  0.0277  0.0485  0.0364  0.0292  0.0037 </r>
        <r>  0.1154  0.0250  0.0079  0.0218  0.0122  0.1104  0.0160  0.0664  0.0016 </r>
       </set>
       <set comment="band 17">
        <r>  0.0004  0.0003  0.2338  0.0038  0.0001  0.0587  0.0011  0.1154  0.0017 </r>
        <r>  0.0100  0.0087  0.0090  0.0985  0.0035  0.0023  0.0276  0.0045  0.0436 </r>
       </set>
       <set comment="band 18">
        <r>  0.0100  0.0087  0.0090  0.0985  0.0035  0.0023  0.0276  0.0045  0.0436 </r>
        <r>  0.0004  0.0003  0.2338  0.0038  0.0001  0.0587  0.0011  0.1154  0.0017 </r>
       </set>
       <set comment="band 19">
        <r>  0.0033  0.0103  0.1297  0.0002  0.0203  0.1026  0.0130  0.1479  0.0022 </r>
        <r>  0.0178  0.0553  0.0241  0.0013  0.1095  0.0191  0.0701  0.0275  0.0120 </r>
       </set>
       <set comment="band 20">
        <r>  0.0178  0.0553  0.0241  0.0013  0.1095  0.0191  0.0701  0.0275  0.0120 </r>
        <r>  0.0033  0.0103  0.1297  0.0002  0.0203  0.1026  0.0130  0.1479  0.0022 </r>
       </set>
       <set comment="band 21">
        <r>  0.0495  0.0321  0.0045  0.0260  0.0039  0.0053  0.3479  0.0093  0.0072 </r>
        <r>  0.0048  0.0032  0.0457  0.0025  0.0004  0.0541  0.0341  0.0950  0.0007 </r>
       </set>
       <set comment="band 22">
        <r>  0.0048  0.0032  0.0457  0.0025  0.0004  0.0541  0.0341  0.0950  0.0007 </r>
        <r>  0.0495  0.0321  0.0045  0.0260  0.0039  0.0053  0.3479  0.0093  0.0072 </r>
       </set>
       <set comment="band 23">
        <r>  0.3533  0.1184  0.0081  0.0071  0.1952  0.0268  0.0043  0.0110  0.0320 </r>
        <r>  0.0921  0.0309  0.0310  0.0018  0.0509  0.1027  0.0011  0.0424  0.0083 </r>
       </set>
       <set comment="band 24">
        <r>  0.0921  0.0309  0.0310  0.0018  0.0509  0.1027  0.0011  0.0424  0.0083 </r>
        <r>  0.3533  0.1184  0.0081  0.0071  0.1952  0.0268  0.0043  0.0110  0.0320 </r>
       </set>
      </set>
      <set comment="kpoint 95">
       <set comment="band 1">
        <r>  0.0000  0.0350  0.0000  0.0350  0.0675  0.1189  0.0000  0.1189  0.0675 </r>
        <r>  0.0000  0.0426  0.0000  0.0426  0.0822  0.0977  0.0000  0.0977  0.0822 </r>
       </set>
       <set comment="band 2">
        <r>  0.0000  0.0426  0.0000  0.0426  0.0822  0.0977  0.0000  0.0977  0.0822 </r>
        <r>  0.0000  0.0350  0.0000  0.0350  0.0675  0.1189  0.0000  0.1189  0.0675 </r>
       </set>
       <set comment="band 3">
        <r>  0.0379  0.0000  0.0000  0.0000  0.0000  0.1541  0.1355  0.1541  0.0000 </r>
        <r>  0.0393  0.0000  0.0000  0.0000  0.0000  0.1486  0.1405  0.1486  0.0000 </r>
       </set>
       <set comment="band 4">
        <r>  0.0393  0.0000  0.0000  0.0000  0.0000  0.1486  0.1405  0.1486  0.0000 </r>
        <r>  0.0379  0.0000  0.0000  0.0000  0.0000  0.1541  0.1355  0.1541  0.0000 </r>
       </set>
       <set comment="band 5">
        <r>  0.0000  0.0115  0.0488  0.0115  0.0501  0.0000  0.0000  0.0000  0.0501 </r>
        <r>  0.0000  0.0715  0.0078  0.0715  0.3131  0.0000  0.0000  0.0000  0.3131 </r>
       </set>
       <set comment="band 6">
        <r>  0.0000  0.0715  0.0078  0.0715  0.3131  0.0000  0.0000  0.0000  0.3131 </r>
        <r>  0.0000  0.0115  0.0488  0.0115  0.0501  0.0000  0.0000  0.0000  0.0501 </r>
       </set>
       <set comment="band 7">
        <r>  0.0000  0.0001  0.0000  0.0001  0.0077  0.2127  0.0000  0.2127  0.0077 </r>
        <r>  0.0000  0.0048  0.0000  0.0048  0.2538  0.0065  0.0000  0.0065  0.2538 </r>
       </set>
       <set comment="band 8">
        <r>  0.0000  0.0048  0.0000  0.0048  0.2538  0.0065  0.0000  0.0065  0.2538 </r>
        <r>  0.0000  0.0001  0.0000  0.0001  0.0077  0.2127  0.0000  0.2127  0.0077 </r>
       </set>
       <set comment="band 9">
        <r>  0.0018  0.0000  0.0000  0.0000  0.0000  0.0842  0.2862  0.0842  0.0000 </r>
        <r>  0.0026  0.0000  0.0000  0.0000  0.0000  0.0588  0.4097  0.0588  0.0000 </r>
       </set>
       <set comment="band 10">
        <r>  0.0026  0.0000  0.0000  0.0000  0.0000  0.0588  0.4097  0.0588  0.0000 </r>
        <r>  0.0018  0.0000  0.0000  0.0000  0.0000  0.0842  0.2862  0.0842  0.0000 </r>
       </set>
       <set comment="band 11">
        <r>  0.0000  0.1679  0.0185  0.1679  0.1736  0.0000  0.0000  0.0000  0.1736 </r>
        <r>  0.0000  0.0180  0.1731  0.0180  0.0186  0.0000  0.0000  0.0000  0.0186 </r>
       </set>
       <set comment="band 12">
        <r>  0.0000  0.0180  0.1731  0.0180  0.0186  0.0000  0.0000  0.0000  0.0186 </r>
        <r>  0.0000  0.1679  0.0185  0.1679  0.1736  0.0000  0.0000  0.0000  0.1736 </r>
       </set>
       <set comment="band 13">
        <r>  0.0000  0.0866  0.0000  0.0866  0.0672  0.0564  0.0000  0.0564  0.0672 </r>
        <r>  0.0000  0.1089  0.0000  0.1089  0.0844  0.0449  0.0000  0.0449  0.0844 </r>
       </set>
       <set comment="band 14">
        <r>  0.0000  0.1089  0.0000  0.1089  0.0844  0.0449  0.0000  0.0449  0.0844 </r>
        <r>  0.0000  0.0866  0.0000  0.0866  0.0672  0.0564  0.0000  0.0564  0.0672 </r>
       </set>
       <set comment="band 15">
        <r>  0.0718  0.0000  0.0000  0.0000  0.0000  0.1328  0.0069  0.1328  0.0000 </r>
        <r>  0.4833  0.0000  0.0000  0.0000  0.0000  0.0197  0.0465  0.0197  0.0000 </r>
       </set>
       <set comment="band 16">
        <r>  0.4833  0.0000  0.0000  0.0000  0.0000  0.0197  0.0465  0.0197  0.0000 </r>
        <r>  0.0718  0.0000  0.0000  0.0000  0.0000  0.1328  0.0069  0.1328  0.0000 </r>
       </set>
       <set comment="band 17">
        <r>  0.0000  0.0031  0.0000  0.0031  0.0016  0.2186  0.0000  0.2186  0.0016 </r>
        <r>  0.0000  0.0577  0.0000  0.0577  0.0291  0.0119  0.0000  0.0119  0.0291 </r>
       </set>
       <set comment="band 18">
        <r>  0.0000  0.0577  0.0000  0.0577  0.0291  0.0119  0.0000  0.0119  0.0291 </r>
        <r>  0.0000  0.0031  0.0000  0.0031  0.0016  0.2186  0.0000  0.2186  0.0016 </r>
       </set>
       <set comment="band 19">
        <r>  0.0000  0.0078  0.3774  0.0078  0.0084  0.0000  0.0000  0.0000  0.0084 </r>
        <r>  0.0000  0.0440  0.0673  0.0440  0.0473  0.0000  0.0000  0.0000  0.0473 </r>
       </set>
       <set comment="band 20">
        <r>  0.0000  0.0440  0.0673  0.0440  0.0473  0.0000  0.0000  0.0000  0.0473 </r>
        <r>  0.0000  0.0078  0.3774  0.0078  0.0084  0.0000  0.0000  0.0000  0.0084 </r>
       </set>
       <set comment="band 21">
        <r>  0.0848  0.0000  0.0000  0.0000  0.0000  0.0226  0.4053  0.0226  0.0000 </r>
        <r>  0.0225  0.0000  0.0000  0.0000  0.0000  0.0853  0.1075  0.0853  0.0000 </r>
       </set>
       <set comment="band 22">
        <r>  0.0225  0.0000  0.0000  0.0000  0.0000  0.0853  0.1075  0.0853  0.0000 </r>
        <r>  0.0848  0.0000  0.0000  0.0000  0.0000  0.0226  0.4053  0.0226  0.0000 </r>
       </set>
       <set comment="band 23">
        <r>  1.2357  0.0000  0.0000  0.0000  0.0000  0.0142  0.0015  0.0142  0.0000 </r>
        <r>  4.4348  0.0000  0.0000  0.0000  0.0000  0.0040  0.0054  0.0040  0.0000 </r>
       </set>
       <set comment="band 24">
        <r>  4.4348  0.0000  0.0000  0.0000  0.0000  0.0040  0.0054  0.0040  0.0000 </r>
        <r>  1.2357  0.0000  0.0000  0.0000  0.0000  0.0142  0.0015  0.0142  0.0000 </r>
       </set>
      </set>
     </set>
    </set>
   </array>
  </projected>
 </calculation>
 <structure name="finalpos" >
  <crystal>
   <varray name="basis" >
    <v>       1.19629229      -2.07203903       0.00000000 </v>
    <v>       1.19629229       2.07203903       0.00000000 </v>
    <v>       0.00000000       0.00000000       3.85935209 </v>
   </varray>
   <i name="volume">     19.13284855 </i>
   <varray name="rec_basis" >
    <v>       0.41795806      -0.24130820       0.00000000 </v>
    <v>       0.41795806       0.24130820       0.00000000 </v>
    <v>       0.00000000       0.00000000       0.25911085 </v>
   </varray>
  </crystal>
  <varray name="positions" >
   <v>       0.33333333       0.66666667       0.25000000 </v>
   <v>       0.66666667       0.33333333       0.75000000 </v>
  </varray>
 </structure>
</modeling>
