Co-fcc                                  
   1.00000000000000     
     0.000000    1.763960    1.763960
     1.763960    0.000000    1.763960
     1.763960    1.763960    0.000000
   Co
     1
Direct
  0.000000  0.000000  0.000000
 
   32   32   32
  104.11      101.78      95.109      84.991      72.645      59.367      46.319      34.415      24.295      16.334    
  10.637      7.0373      5.1167      4.2731      3.8650      3.6228      3.5426      3.6228      3.8650      4.2731    
  5.1167      7.0373      10.637      16.334      24.295      34.415      46.319      59.367      72.645      84.991    
  95.109      101.78      101.78      97.278      88.897      77.697      64.943      51.865      39.494      28.598    
  19.681      12.981      8.4649      5.8358      4.5721      4.0288      3.7093      3.5502      3.5502      3.7093    
  4.0288      4.5721      5.8358      8.4649      12.981      19.681      28.598      39.494      51.865      64.943    
  77.697      88.897      97.278      101.78      95.109      88.897      79.458      67.921      55.493      43.265    
  32.108      22.642      15.227      9.9608      6.6727      4.9459      4.1910      3.8029      3.5716      3.4953    
  3.5716      3.8029      4.1910      4.9459      6.6727      9.9608      15.227      22.642      32.108      43.265    
  55.493      67.921      79.458      88.897      95.109      97.278      84.991      77.697      67.921      56.755    
  45.276      34.407      24.856      17.091      11.328      7.5213      5.3676      4.3606      3.8954      3.6026    
  3.4584      3.4584      3.6026      3.8954      4.3606      5.3676      7.5213      11.328      17.091      24.856    
  34.407      45.276      56.755      67.921      77.697      84.991      88.897      88.897      72.645      64.943    
  55.493      45.276      35.207      26.041      18.324      12.373      8.2534      5.7777      4.5360      3.9785    
  3.6378      3.4372      3.3716      3.4372      3.6378      3.9785      4.5360      5.7777      8.2534      12.373    
  18.324      26.041      35.207      45.276      55.493      64.943      72.645      77.697      79.458      77.697    
  59.367      51.865      43.265      34.407      26.041      18.755      12.938      8.7492      6.1045      4.6946    
  4.0461      3.6713      3.4276      3.3096      3.3096      3.4276      3.6713      4.0461      4.6946      6.1045    
  8.7492      12.938      18.755      26.041      34.407      43.265      51.865      59.367      64.943      67.921    
  67.921      64.943      46.319      39.494      32.108      24.856      18.324      12.938      8.9245      6.2859    
  4.8062      4.0958      3.6983      3.4252      3.2685      3.2179      3.2685      3.4252      3.6983      4.0958    
  4.8062      6.2859      8.9245      12.938      18.324      24.856      32.108      39.494      46.319      51.865    
  55.493      56.755      55.493      51.865      34.415      28.598      22.642      17.091      12.373      8.7492    
  6.2859      4.8465      4.1228      3.7157      3.4259      3.2436      3.1570      3.1570      3.2436      3.4259    
  3.7157      4.1228      4.8465      6.2859      8.7492      12.373      17.091      22.642      28.598      34.415    
  39.494      43.265      45.276      45.276      43.265      39.494      24.295      19.681      15.227      11.328    
  8.2534      6.1045      4.8062      4.1228      3.7217      3.4269      3.2306      3.1209      3.0859      3.1209    
  3.2306      3.4269      3.7217      4.1228      4.8062      6.1045      8.2534      11.328      15.227      19.681    
  24.295      28.598      32.108      34.407      35.207      34.407      32.108      28.598      16.334      12.981    
  9.9608      7.5213      5.7777      4.6946      4.0958      3.7157      3.4269      3.2265      3.1042      3.0472    
  3.0472      3.1042      3.2265      3.4269      3.7157      4.0958      4.6946      5.7777      7.5213      9.9608    
  12.981      16.334      19.681      22.642      24.856      26.041      26.041      24.856      22.642      19.681    
  10.637      8.4649      6.6727      5.3676      4.5360      4.0461      3.6983      3.4259      3.2306      3.1042    
  3.0350      3.0131      3.0350      3.1042      3.2306      3.4259      3.6983      4.0461      4.5360      5.3676    
  6.6727      8.4649      10.637      12.981      15.227      17.091      18.324      18.755      18.324      17.091    
  15.227      12.981      7.0373      5.8358      4.9459      4.3606      3.9785      3.6713      3.4252      3.2436    
  3.1209      3.0472      3.0131      3.0131      3.0472      3.1209      3.2436      3.4252      3.6713      3.9785    
  4.3606      4.9459      5.8358      7.0373      8.4649      9.9608      11.328      12.373      12.938      12.938    
  12.373      11.328      9.9608      8.4649      5.1167      4.5721      4.1910      3.8954      3.6378      3.4276    
  3.2685      3.1570      3.0859      3.0472      3.0350      3.0472      3.0859      3.1570      3.2685      3.4276    
  3.6378      3.8954      4.1910      4.5721      5.1167      5.8358      6.6727      7.5213      8.2534      8.7492    
  8.9245      8.7492      8.2534      7.5213      6.6727      5.8358      4.2731      4.0288      3.8029      3.6026    
  3.4372      3.3096      3.2179      3.1570      3.1209      3.1042      3.1042      3.1209      3.1570      3.2179    
  3.3096      3.4372      3.6026      3.8029      4.0288      4.2731      4.5721      4.9459      5.3676      5.7777    
  6.1045      6.2859      6.2859      6.1045      5.7777      5.3676      4.9459      4.5721      3.8650      3.7093    
  3.5716      3.4584      3.3716      3.3096      3.2685      3.2436      3.2306      3.2265      3.2306      3.2436    
  3.2685      3.3096      3.3716      3.4584      3.5716      3.7093      3.8650      4.0288      4.1910      4.3606    
  4.5360      4.6946      4.8062      4.8465      4.8062      4.6946      4.5360      4.3606      4.1910      4.0288    
  3.6228      3.5502      3.4953      3.4584      3.4372      3.4276      3.4252      3.4259      3.4269      3.4269    
  3.4259      3.4252      3.4276      3.4372      3.4584      3.4953      3.5502      3.6228      3.7093      3.8029    
  3.8954      3.9785      4.0461      4.0958      4.1228      4.1228      4.0958      4.0461      3.9785      3.8954    
  3.8029      3.7093      3.5426      3.5502      3.5716      3.6026      3.6378      3.6713      3.6983      3.7157    
  3.7217      3.7157      3.6983      3.6713      3.6378      3.6026      3.5716      3.5502      3.5426      3.5502    
  3.5716      3.6026      3.6378      3.6713      3.6983      3.7157      3.7217      3.7157      3.6983      3.6713    
  3.6378      3.6026      3.5716      3.5502      3.6228      3.7093      3.8029      3.8954      3.9785      4.0461    
  4.0958      4.1228      4.1228      4.0958      4.0461      3.9785      3.8954      3.8029      3.7093      3.6228    
  3.5502      3.4953      3.4584      3.4372      3.4276      3.4252      3.4259      3.4269      3.4269      3.4259    
  3.4252      3.4276      3.4372      3.4584      3.4953      3.5502      3.8650      4.0288      4.1910      4.3606    
  4.5360      4.6946      4.8062      4.8465      4.8062      4.6946      4.5360      4.3606      4.1910      4.0288    
  3.8650      3.7093      3.5716      3.4584      3.3716      3.3096      3.2685      3.2436      3.2306      3.2265    
  3.2306      3.2436      3.2685      3.3096      3.3716      3.4584      3.5716      3.7093      4.2731      4.5721    
  4.9459      5.3676      5.7777      6.1045      6.2859      6.2859      6.1045      5.7777      5.3676      4.9459    
  4.5721      4.2731      4.0288      3.8029      3.6026      3.4372      3.3096      3.2179      3.1570      3.1209    
  3.1042      3.1042      3.1209      3.1570      3.2179      3.3096      3.4372      3.6026      3.8029      4.0288    
  5.1167      5.8358      6.6727      7.5213      8.2534      8.7492      8.9245      8.7492      8.2534      7.5213    
  6.6727      5.8358      5.1167      4.5721      4.1910      3.8954      3.6378      3.4276      3.2685      3.1570    
  3.0859      3.0472      3.0350      3.0472      3.0859      3.1570      3.2685      3.4276      3.6378      3.8954    
  4.1910      4.5721      7.0373      8.4649      9.9608      11.328      12.373      12.938      12.938      12.373    
  11.328      9.9608      8.4649      7.0373      5.8358      4.9459      4.3606      3.9785      3.6713      3.4252    
  3.2436      3.1209      3.0472      3.0131      3.0131      3.0472      3.1209      3.2436      3.4252      3.6713    
  3.9785      4.3606      4.9459      5.8358      10.637      12.981      15.227      17.091      18.324      18.755    
  18.324      17.091      15.227      12.981      10.637      8.4649      6.6727      5.3676      4.5360      4.0461    
  3.6983      3.4259      3.2306      3.1042      3.0350      3.0131      3.0350      3.1042      3.2306      3.4259    
  3.6983      4.0461      4.5360      5.3676      6.6727      8.4649      16.334      19.681      22.642      24.856    
  26.041      26.041      24.856      22.642      19.681      16.334      12.981      9.9608      7.5213      5.7777    
  4.6946      4.0958      3.7157      3.4269      3.2265      3.1042      3.0472      3.0472      3.1042      3.2265    
  3.4269      3.7157      4.0958      4.6946      5.7777      7.5213      9.9608      12.981      24.295      28.598    
  32.108      34.407      35.207      34.407      32.108      28.598      24.295      19.681      15.227      11.328    
  8.2534      6.1045      4.8062      4.1228      3.7217      3.4269      3.2306      3.1209      3.0859      3.1209    
  3.2306      3.4269      3.7217      4.1228      4.8062      6.1045      8.2534      11.328      15.227      19.681    
  34.415      39.494      43.265      45.276      45.276      43.265      39.494      34.415      28.598      22.642    
  17.091      12.373      8.7492      6.2859      4.8465      4.1228      3.7157      3.4259      3.2436      3.1570    
  3.1570      3.2436      3.4259      3.7157      4.1228      4.8465      6.2859      8.7492      12.373      17.091    
  22.642      28.598      46.319      51.865      55.493      56.755      55.493      51.865      46.319      39.494    
  32.108      24.856      18.324      12.938      8.9245      6.2859      4.8062      4.0958      3.6983      3.4252    
  3.2685      3.2179      3.2685      3.4252      3.6983      4.0958      4.8062      6.2859      8.9245      12.938    
  18.324      24.856      32.108      39.494      59.367      64.943      67.921      67.921      64.943      59.367    
  51.865      43.265      34.407      26.041      18.755      12.938      8.7492      6.1045      4.6946      4.0461    
  3.6713      3.4276      3.3096      3.3096      3.4276      3.6713      4.0461      4.6946      6.1045      8.7492    
  12.938      18.755      26.041      34.407      43.265      51.865      72.645      77.697      79.458      77.697    
  72.645      64.943      55.493      45.276      35.207      26.041      18.324      12.373      8.2534      5.7777    
  4.5360      3.9785      3.6378      3.4372      3.3716      3.4372      3.6378      3.9785      4.5360      5.7777    
  8.2534      12.373      18.324      26.041      35.207      45.276      55.493      64.943      84.991      88.897    
  88.897      84.991      77.697      67.921      56.755      45.276      34.407      24.856      17.091      11.328    
  7.5213      5.3676      4.3606      3.8954      3.6026      3.4584      3.4584      3.6026      3.8954      4.3606    
  5.3676      7.5213      11.328      17.091      24.856      34.407      45.276      56.755      67.921      77.697    
  95.109      97.278      95.109      88.897      79.458      67.921      55.493      43.265      32.108      22.642    
  15.227      9.9608      6.6727      4.9459      4.1910      3.8029      3.5716      3.4953      3.5716      3.8029    
  4.1910      4.9459      6.6727      9.9608      15.227      22.642      32.108      43.265      55.493      67.921    
  79.458      88.897      101.78      101.78      97.278      88.897      77.697      64.943      51.865      39.494    
  28.598      19.681      12.981      8.4649      5.8358      4.5721      4.0288      3.7093      3.5502      3.5502    
  3.7093      4.0288      4.5721      5.8358      8.4649      12.981      19.681      28.598      39.494      51.865    
  64.943      77.697      88.897      97.278      101.78      97.278      88.897      77.697      64.943      51.865    
  39.494      28.598      19.681      12.981      8.4649      5.8358      4.5721      4.0288      3.7093      3.5502    
  3.5502      3.7093      4.0288      4.5721      5.8358      8.4649      12.981      19.681      28.598      39.494    
  51.865      64.943      77.697      88.897      97.278      101.78      97.278      90.928      81.280      69.490    
  56.792      44.298      32.894      23.208      15.607      10.194      6.7999      5.0081      4.2239      3.8290    
  3.5938      3.5161      3.5938      3.8290      4.2239      5.0081      6.7999      10.194      15.607      23.208    
  32.894      44.298      56.792      69.490      81.280      90.928      97.278      99.497      88.897      81.280    
  71.075      59.423      47.443      36.093      26.103      17.956      11.880      7.8375      5.5280      4.4390    
  3.9498      3.6475      3.4981      3.4981      3.6475      3.9498      4.4390      5.5280      7.8375      11.880    
  17.956      26.103      36.093      47.443      59.423      71.075      81.280      88.897      92.978      92.978    
  77.697      69.490      59.423      48.538      37.801      28.005      19.724      13.297      8.8051      6.0693    
  4.6766      4.0619      3.7053      3.4941      3.4248      3.4941      3.7053      4.0619      4.6766      6.0693    
  8.8051      13.297      19.724      28.005      37.801      48.538      59.423      69.490      77.697      83.082    
  84.960      83.082      64.943      56.792      47.443      37.801      28.668      20.674      14.241      9.5540    
  6.5460      4.9103      4.1603      3.7603      3.5000      3.3732      3.3732      3.5000      3.7603      4.1603    
  4.9103      6.5460      9.5540      14.241      20.674      28.668      37.801      47.443      56.792      64.943    
  71.002      74.239      74.239      71.002      51.865      44.298      36.093      28.005      20.674      14.572    
  9.9624      6.8733      5.0996      4.2430      3.8065      3.5108      3.3399      3.2844      3.3399      3.5108    
  3.8065      4.2430      5.0996      6.8733      9.9624      14.572      20.674      28.005      36.093      44.298    
  51.865      58.009      62.025      63.423      62.025      58.009      39.494      32.894      26.103      19.724    
  14.241      9.9624      6.9898      5.2058      4.2999      3.8395      3.5220      3.3203      3.2239      3.2239    
  3.3203      3.5220      3.8395      4.2999      5.2058      6.9898      9.9624      14.241      19.724      26.103    
  32.894      39.494      45.239      49.498      51.768      51.768      49.498      45.239      28.598      23.208    
  17.956      13.297      9.5540      6.8733      5.2058      4.3204      3.8566      3.5301      3.3100      3.1862    
  3.1465      3.1862      3.3100      3.5301      3.8566      4.3204      5.2058      6.8733      9.5540      13.297    
  17.956      23.208      28.598      33.593      37.652      40.303      41.226      40.303      37.652      33.593    
  19.681      15.607      11.880      8.8051      6.5460      5.0996      4.2999      3.8566      3.5330      3.3058    
  3.1660      3.1005      3.1005      3.1660      3.3058      3.5330      3.8566      4.2999      5.0996      6.5460    
  8.8051      11.880      15.607      19.681      23.703      27.233      29.860      31.261      31.261      29.860    
  27.233      23.703      12.981      10.194      7.8375      6.0693      4.9103      4.2430      3.8395      3.5301    
  3.3058      3.1597      3.0794      3.0539      3.0794      3.1597      3.3058      3.5301      3.8395      4.2430    
  4.9103      6.0693      7.8375      10.194      12.981      15.935      18.729      21.027      22.539      23.066    
  22.539      21.027      18.729      15.935      8.4649      6.7999      5.5280      4.6766      4.1603      3.8065    
  3.5220      3.3100      3.1660      3.0794      3.0393      3.0393      3.0794      3.1660      3.3100      3.5220    
  3.8065      4.1603      4.6766      5.5280      6.7999      8.4649      10.391      12.367      14.147      15.493    
  16.217      16.217      15.493      14.147      12.367      10.391      5.8358      5.0081      4.4390      4.0619    
  3.7603      3.5108      3.3203      3.1862      3.1005      3.0539      3.0393      3.0539      3.1005      3.1862    
  3.3203      3.5108      3.7603      4.0619      4.4390      5.0081      5.8358      6.9017      8.1077      9.3028    
  10.317      10.996      11.236      10.996      10.317      9.3028      8.1077      6.9017      4.5721      4.2239    
  3.9498      3.7053      3.5000      3.3399      3.2239      3.1465      3.1005      3.0794      3.0794      3.1005    
  3.1465      3.2239      3.3399      3.5000      3.7053      3.9498      4.2239      4.5721      5.0500      5.6516    
  6.3159      6.9475      7.4425      7.7143      7.7143      7.4425      6.9475      6.3159      5.6516      5.0500    
  4.0288      3.8290      3.6475      3.4941      3.3732      3.2844      3.2239      3.1862      3.1660      3.1597    
  3.1660      3.1862      3.2239      3.2844      3.3732      3.4941      3.6475      3.8290      4.0288      4.2384    
  4.4828      4.7720      5.0792      5.3553      5.5475      5.6164      5.5475      5.3553      5.0792      4.7720    
  4.4828      4.2384      3.7093      3.5938      3.4981      3.4248      3.3732      3.3399      3.3203      3.3100    
  3.3058      3.3058      3.3100      3.3203      3.3399      3.3732      3.4248      3.4981      3.5938      3.7093    
  3.8379      3.9703      4.0964      4.2172      4.3313      4.4236      4.4757      4.4757      4.4236      4.3313    
  4.2172      4.0964      3.9703      3.8379      3.5502      3.5161      3.4981      3.4941      3.5000      3.5108    
  3.5220      3.5301      3.5330      3.5301      3.5220      3.5108      3.5000      3.4941      3.4981      3.5161    
  3.5502      3.5997      3.6607      3.7270      3.7915      3.8476      3.8904      3.9170      3.9260      3.9170    
  3.8904      3.8476      3.7915      3.7270      3.6607      3.5997      3.5502      3.5938      3.6475      3.7053    
  3.7603      3.8065      3.8395      3.8566      3.8566      3.8395      3.8065      3.7603      3.7053      3.6475    
  3.5938      3.5502      3.5209      3.5070      3.5070      3.5170      3.5321      3.5475      3.5596      3.5662    
  3.5662      3.5596      3.5475      3.5321      3.5170      3.5070      3.5070      3.5209      3.7093      3.8290    
  3.9498      4.0619      4.1603      4.2430      4.2999      4.3204      4.2999      4.2430      4.1603      4.0619    
  3.9498      3.8290      3.7093      3.5997      3.5070      3.4347      3.3826      3.3480      3.3270      3.3155    
  3.3099      3.3083      3.3099      3.3155      3.3270      3.3480      3.3826      3.4347      3.5070      3.5997    
  4.0288      4.2239      4.4390      4.6766      4.9103      5.0996      5.2058      5.2058      5.0996      4.9103    
  4.6766      4.4390      4.2239      4.0288      3.8379      3.6607      3.5070      3.3826      3.2881      3.2210    
  3.1768      3.1507      3.1387      3.1387      3.1507      3.1768      3.2210      3.2881      3.3826      3.5070    
  3.6607      3.8379      4.5721      5.0081      5.5280      6.0693      6.5460      6.8733      6.9898      6.8733    
  6.5460      6.0693      5.5280      5.0081      4.5721      4.2384      3.9703      3.7270      3.5170      3.3480    
  3.2210      3.1322      3.0755      3.0446      3.0348      3.0446      3.0755      3.1322      3.2210      3.3480    
  3.5170      3.7270      3.9703      4.2384      5.8358      6.7999      7.8375      8.8051      9.5540      9.9624    
  9.9624      9.5540      8.8051      7.8375      6.7999      5.8358      5.0500      4.4828      4.0964      3.7915    
  3.5321      3.3270      3.1768      3.0755      3.0147      2.9866      2.9866      3.0147      3.0755      3.1768    
  3.3270      3.5321      3.7915      4.0964      4.4828      5.0500      8.4649      10.194      11.880      13.297    
  14.241      14.572      14.241      13.297      11.880      10.194      8.4649      6.9017      5.6516      4.7720    
  4.2172      3.8476      3.5475      3.3155      3.1507      3.0446      2.9866      2.9683      2.9866      3.0446    
  3.1507      3.3155      3.5475      3.8476      4.2172      4.7720      5.6516      6.9017      12.981      15.607    
  17.956      19.724      20.674      20.674      19.724      17.956      15.607      12.981      10.391      8.1077    
  6.3159      5.0792      4.3313      3.8904      3.5596      3.3099      3.1387      3.0348      2.9866      2.9866    
  3.0348      3.1387      3.3099      3.5596      3.8904      4.3313      5.0792      6.3159      8.1077      10.391    
  19.681      23.208      26.103      28.005      28.668      28.005      26.103      23.208      19.681      15.935    
  12.367      9.3028      6.9475      5.3553      4.4236      3.9170      3.5662      3.3083      3.1387      3.0446    
  3.0147      3.0446      3.1387      3.3083      3.5662      3.9170      4.4236      5.3553      6.9475      9.3028    
  12.367      15.935      28.598      32.894      36.093      37.801      37.801      36.093      32.894      28.598    
  23.703      18.729      14.147      10.317      7.4425      5.5475      4.4757      3.9260      3.5662      3.3099    
  3.1507      3.0755      3.0755      3.1507      3.3099      3.5662      3.9260      4.4757      5.5475      7.4425    
  10.317      14.147      18.729      23.703      39.494      44.298      47.443      48.538      47.443      44.298    
  39.494      33.593      27.233      21.027      15.493      10.996      7.7143      5.6164      4.4757      3.9170    
  3.5596      3.3155      3.1768      3.1322      3.1768      3.3155      3.5596      3.9170      4.4757      5.6164    
  7.7143      10.996      15.493      21.027      27.233      33.593      51.865      56.792      59.423      59.423    
  56.792      51.865      45.239      37.652      29.860      22.539      16.217      11.236      7.7143      5.5475    
  4.4236      3.8904      3.5475      3.3270      3.2210      3.2210      3.3270      3.5475      3.8904      4.4236    
  5.5475      7.7143      11.236      16.217      22.539      29.860      37.652      45.239      64.943      69.490    
  71.075      69.490      64.943      58.009      49.498      40.303      31.261      23.066      16.217      10.996    
  7.4425      5.3553      4.3313      3.8476      3.5321      3.3480      3.2881      3.3480      3.5321      3.8476    
  4.3313      5.3553      7.4425      10.996      16.217      23.066      31.261      40.303      49.498      58.009    
  77.697      81.280      81.280      77.697      71.002      62.025      51.768      41.226      31.261      22.539    
  15.493      10.317      6.9475      5.0792      4.2172      3.7915      3.5170      3.3826      3.3826      3.5170    
  3.7915      4.2172      5.0792      6.9475      10.317      15.493      22.539      31.261      41.226      51.768    
  62.025      71.002      88.897      90.928      88.897      83.082      74.239      63.423      51.768      40.303    
  29.860      21.027      14.147      9.3028      6.3159      4.7720      4.0964      3.7270      3.5070      3.4347    
  3.5070      3.7270      4.0964      4.7720      6.3159      9.3028      14.147      21.027      29.860      40.303    
  51.768      63.423      74.239      83.082      97.278      97.278      92.978      84.960      74.239      62.025    
  49.498      37.652      27.233      18.729      12.367      8.1077      5.6516      4.4828      3.9703      3.6607    
  3.5070      3.5070      3.6607      3.9703      4.4828      5.6516      8.1077      12.367      18.729      27.233    
  37.652      49.498      62.025      74.239      84.960      92.978      101.78      99.497      92.978      83.082    
  71.002      58.009      45.239      33.593      23.703      15.935      10.391      6.9017      5.0500      4.2384    
  3.8379      3.5997      3.5209      3.5997      3.8379      4.2384      5.0500      6.9017      10.391      15.935    
  23.703      33.593      45.239      58.009      71.002      83.082      92.978      99.497      95.109      88.897    
  79.458      67.921      55.493      43.265      32.108      22.642      15.227      9.9608      6.6727      4.9459    
  4.1910      3.8029      3.5716      3.4953      3.5716      3.8029      4.1910      4.9459      6.6727      9.9608    
  15.227      22.642      32.108      43.265      55.493      67.921      79.458      88.897      95.109      97.278    
  88.897      81.280      71.075      59.423      47.443      36.093      26.103      17.956      11.880      7.8375    
  5.5280      4.4390      3.9498      3.6475      3.4981      3.4981      3.6475      3.9498      4.4390      5.5280    
  7.8375      11.880      17.956      26.103      36.093      47.443      59.423      71.075      81.280      88.897    
  92.978      92.978      79.458      71.075      60.793      49.676      38.707      28.691      20.215      13.622    
  9.0008      6.1734      4.7268      4.0906      3.7285      3.5137      3.4432      3.5137      3.7285      4.0906    
  4.7268      6.1734      9.0008      13.622      20.215      28.691      38.707      49.676      60.793      71.075    
  79.458      84.960      86.879      84.960      67.921      59.423      49.676      39.617      30.078      21.708    
  14.948      9.9944      6.7903      5.0304      4.2216      3.8069      3.5379      3.4065      3.4065      3.5379    
  3.8069      4.2216      5.0304      6.7903      9.9944      14.948      21.708      30.078      39.617      49.676    
  59.423      67.921      74.239      77.614      77.614      74.239      55.493      47.443      38.707      30.078    
  22.230      15.663      10.663      7.2761      5.3031      4.3421      3.8753      3.5653      3.3852      3.3266    
  3.3852      3.5653      3.8753      4.3421      5.3031      7.2761      10.663      15.663      22.230      30.078    
  38.707      47.443      55.493      62.025      66.297      67.783      66.297      62.025      43.265      36.093    
  28.691      21.708      15.663      10.899      7.5437      5.4933      4.4379      3.9280      3.5908      3.3750    
  3.2714      3.2714      3.3750      3.5908      3.9280      4.4379      5.4933      7.5437      10.899      15.663    
  21.708      28.691      36.093      43.265      49.498      54.115      56.575      56.575      54.115      49.498    
  32.108      26.103      20.215      14.948      10.663      7.5437      5.5615      4.4917      3.9609      3.6101    
  3.3714      3.2363      3.1929      3.2363      3.3714      3.6101      3.9609      4.4917      5.5615      7.5437    
  10.663      14.948      20.215      26.103      32.108      37.652      42.145      45.077      46.096      45.077    
  42.145      37.652      22.642      17.956      13.622      9.9944      7.2761      5.4933      4.4917      3.9720    
  3.6204      3.3709      3.2162      3.1435      3.1435      3.2162      3.3708      3.6204      3.9720      4.4917    
  5.4933      7.2761      9.9944      13.622      17.956      22.642      27.233      31.243      34.216      35.800    
  35.800      34.216      31.243      27.233      15.227      11.880      9.0008      6.7903      5.3031      4.4379    
  3.9609      3.6204      3.3709      3.2073      3.1168      3.0882      3.1168      3.2073      3.3709      3.6204    
  3.9609      4.4379      5.3031      6.7903      9.0008      11.880      15.227      18.729      22.011      24.694    
  26.451      27.063      26.451      24.694      22.011      18.729      9.9608      7.8375      6.1734      5.0304    
  4.3421      3.9280      3.6101      3.3709      3.2073      3.1085      3.0627      3.0627      3.1085      3.2073    
  3.3709      3.6101      3.9280      4.3421      5.0304      6.1734      7.8375      9.9608      12.367      14.799    
  16.966      18.593      19.465      19.465      18.593      16.966      14.799      12.367      6.6727      5.5280    
  4.7268      4.2216      3.8753      3.5908      3.3714      3.2162      3.1168      3.0627      3.0457      3.0627    
  3.1168      3.2162      3.3714      3.5908      3.8753      4.2216      4.7268      5.5280      6.6727      8.1077    
  9.6943      11.239      12.534      13.394      13.696      13.394      12.534      11.239      9.6943      8.1077    
  4.9459      4.4390      4.0906      3.8069      3.5653      3.3750      3.2363      3.1435      3.0882      3.0627    
  3.0627      3.0882      3.1435      3.2363      3.3750      3.5653      3.8069      4.0906      4.4390      4.9459    
  5.6516      6.5210      7.4580      8.3317      9.0071      9.3751      9.3751      9.0071      8.3317      7.4581    
  6.5210      5.6516      4.1910      3.9498      3.7285      3.5379      3.3852      3.2714      3.1929      3.1435    
  3.1168      3.1085      3.1168      3.1435      3.1929      3.2714      3.3852      3.5379      3.7285      3.9498    