   1   1   1   0
  0.1097731E+02  0.2494616E-09  0.2494616E-09  0.2494616E-09  0.5000000E-15
  1.000000000000000E-004
  CAR 
 Co-fcc                                  
     53.31615562     -1.07221805  301     10.17062563      1.00000000
     -1.072  0.0000E+00  0.0000E+00  0.0000E+00  0.0000E+00
     -0.891  0.0000E+00  0.0000E+00  0.0000E+00  0.0000E+00
     -0.710  0.0000E+00  0.0000E+00  0.0000E+00  0.0000E+00
     -0.528  0.0000E+00  0.0000E+00  0.0000E+00  0.0000E+00
     -0.347  0.0000E+00  0.0000E+00  0.0000E+00  0.0000E+00
     -0.166  0.0000E+00  0.0000E+00  0.0000E+00  0.0000E+00
      0.016  0.0000E+00  0.0000E+00  0.0000E+00  0.0000E+00
      0.197  0.0000E+00  0.0000E+00  0.0000E+00  0.0000E+00
      0.378  0.0000E+00  0.0000E+00  0.0000E+00  0.0000E+00
      0.559  0.0000E+00  0.0000E+00  0.0000E+00  0.0000E+00
      0.741  0.0000E+00  0.0000E+00  0.0000E+00  0.0000E+00
      0.922  0.0000E+00  0.0000E+00  0.0000E+00  0.0000E+00
      1.103  0.0000E+00  0.0000E+00  0.0000E+00  0.0000E+00
      1.285  0.7072E-07  0.1187E-06  0.1282E-07  0.2152E-07
      1.466  0.2062E-03  0.2086E-03  0.3740E-04  0.3785E-04
      1.647  0.9193E-05  0.6707E-05  0.3906E-04  0.3906E-04
      1.828  0.4625E-03  0.4789E-03  0.1229E-03  0.1259E-03
      2.010  0.1839E-03  0.1675E-03  0.1563E-03  0.1563E-03
      2.191  0.2697E-03  0.2558E-03  0.2051E-03  0.2026E-03
      2.372  0.3767E-03  0.3906E-03  0.2734E-03  0.2734E-03
      2.554  0.2323E-03  0.1623E-03  0.3156E-03  0.3029E-03
      2.735  0.6296E-03  0.6996E-03  0.4297E-03  0.4297E-03
      2.916  0.3257E-03  0.1472E-03  0.4887E-03  0.4564E-03
      3.098  0.9671E-03  0.1146E-02  0.6641E-03  0.6641E-03
      3.279  0.4068E-03  0.1307E-03  0.7378E-03  0.6878E-03
      3.460  0.2396E-03  0.5157E-03  0.7813E-03  0.7812E-03
      3.641  0.1024E-02  0.3088E-03  0.9669E-03  0.8372E-03
      3.823  0.3402E-03  0.9840E-03  0.1029E-02  0.1016E-02
      4.004  0.1853E-02  0.1214E-02  0.1364E-02  0.1236E-02
      4.185  0.3913E-03  0.7259E-03  0.1435E-02  0.1367E-02
      4.367  0.4815E-03  0.6230E-03  0.1523E-02  0.1480E-02
      4.548  0.1284E-02  0.2004E-03  0.1756E-02  0.1517E-02
      4.729  0.1988E-02  0.1326E-02  0.2116E-02  0.1757E-02
      4.911  0.1743E-02  0.1852E-02  0.2432E-02  0.2093E-02
      5.092  0.3135E-02  0.1555E-03  0.3000E-02  0.2121E-02
      5.273  0.4952E-02  0.1824E-02  0.3898E-02  0.2452E-02
      5.454  0.7050E-02  0.9123E-03  0.5176E-02  0.2617E-02
      5.636  0.5422E-02  0.1310E-02  0.6159E-02  0.2854E-02
      5.817  0.9765E-02  0.3370E-02  0.7929E-02  0.3465E-02
      5.998  0.8451E-02  0.1421E-02  0.9461E-02  0.3723E-02
      6.180  0.1037E-01  0.3942E-02  0.1134E-01  0.4438E-02
      6.361  0.7428E-02  0.4480E-02  0.1269E-01  0.5250E-02
      6.542  0.8879E-02  0.4247E-02  0.1430E-01  0.6020E-02
      6.723  0.8337E-02  0.4534E-02  0.1581E-01  0.6842E-02
      6.905  0.8829E-02  0.4782E-02  0.1741E-01  0.7709E-02
      7.086  0.9477E-02  0.7828E-02  0.1913E-01  0.9128E-02
      7.267  0.1233E-01  0.5750E-02  0.2136E-01  0.1017E-01
      7.449  0.1309E-01  0.1021E-01  0.2374E-01  0.1202E-01
      7.630  0.1565E-01  0.5533E-02  0.2658E-01  0.1303E-01
      7.811  0.1576E-01  0.8177E-02  0.2943E-01  0.1451E-01
      7.993  0.1226E-01  0.6671E-02  0.3166E-01  0.1572E-01
      8.174  0.1113E-01  0.6675E-02  0.3367E-01  0.1693E-01
      8.355  0.1041E-01  0.9893E-02  0.3556E-01  0.1872E-01
      8.536  0.1532E-01  0.1062E-01  0.3834E-01  0.2065E-01
      8.718  0.8883E-02  0.8765E-02  0.3995E-01  0.2223E-01
      8.899  0.1481E-01  0.1131E-01  0.4263E-01  0.2429E-01
      9.080  0.7648E-02  0.9988E-02  0.4402E-01  0.2610E-01
      9.262  0.1418E-01  0.1270E-01  0.4659E-01  0.2840E-01
      9.443  0.1854E-01  0.1141E-01  0.4995E-01  0.3047E-01
      9.624  0.1235E-01  0.9316E-02  0.5219E-01  0.3216E-01
      9.805  0.3287E-02  0.8455E-02  0.5279E-01  0.3369E-01
      9.987  0.3498E-03  0.6219E-02  0.5285E-01  0.3482E-01
     10.168  0.6079E-03  0.1208E-01  0.5296E-01  0.3701E-01
     10.349  0.3016E-02  0.1079E-01  0.5351E-01  0.3896E-01
     10.531  0.1347E-02  0.9621E-02  0.5375E-01  0.4071E-01
     10.712  0.1492E-02  0.1197E-01  0.5402E-01  0.4288E-01
     10.893  0.4022E-03  0.7185E-02  0.5410E-01  0.4418E-01
     11.075  0.1617E-02  0.1371E-01  0.5439E-01  0.4667E-01
     11.256  0.2899E-02  0.1850E-01  0.5491E-01  0.5002E-01
     11.437  0.2572E-03  0.1392E-01  0.5496E-01  0.5254E-01
     11.618  0.1276E-02  0.1699E-02  0.5519E-01  0.5285E-01
     11.800  0.1889E-02  0.2704E-02  0.5554E-01  0.5334E-01
     11.981  0.6538E-04  0.4079E-02  0.5555E-01  0.5408E-01
     12.162  0.1722E-02  0.1608E-02  0.5586E-01  0.5437E-01
     12.344  0.8932E-03  0.6571E-03  0.5602E-01  0.5449E-01
     12.525  0.1893E-02  0.1231E-02  0.5636E-01  0.5472E-01
     12.706  0.2324E-02  0.1870E-02  0.5679E-01  0.5505E-01
     12.887  0.1570E-02  0.2155E-02  0.5707E-01  0.5545E-01
     13.069  0.3809E-07  0.2434E-02  0.5707E-01  0.5589E-01
     13.250  0.8362E-04  0.7377E-03  0.5709E-01  0.5602E-01
     13.431  0.1209E-02  0.1910E-02  0.5730E-01  0.5637E-01
     13.613  0.8339E-04  0.8950E-03  0.5732E-01  0.5653E-01
     13.794  0.3750E-02  0.2883E-02  0.5800E-01  0.5705E-01
     13.975  0.4437E-03  0.1039E-03  0.5808E-01  0.5707E-01
     14.157  0.1518E-02  0.4341E-03  0.5836E-01  0.5715E-01
     14.338  0.2219E-04  0.2150E-02  0.5836E-01  0.5754E-01
     14.519  0.4141E-03  0.1650E-02  0.5843E-01  0.5784E-01
     14.700  0.2806E-02  0.9374E-03  0.5894E-01  0.5801E-01
     14.882  0.1187E-04  0.1260E-02  0.5895E-01  0.5824E-01
     15.063  0.3549E-04  0.8781E-03  0.5895E-01  0.5840E-01
     15.244  0.1256E-02  0.4477E-03  0.5918E-01  0.5848E-01
     15.426  0.9873E-06  0.2327E-02  0.5918E-01  0.5890E-01
     15.607  0.6116E-03  0.2625E-03  0.5929E-01  0.5895E-01
     15.788  0.1311E-02  0.1279E-02  0.5953E-01  0.5918E-01
     15.969  0.8041E-03  0.8891E-05  0.5967E-01  0.5918E-01
     16.151  0.5048E-03  0.6998E-05  0.5977E-01  0.5918E-01
     16.332  0.1439E-03  0.1582E-02  0.5979E-01  0.5947E-01
     16.513  0.1288E-02  0.3515E-03  0.6003E-01  0.5953E-01
     16.695  0.1784E-02  0.1255E-02  0.6035E-01  0.5976E-01
     16.876  0.1964E-02  0.3668E-04  0.6070E-01  0.5977E-01
     17.057  0.7119E-03  0.3425E-11  0.6083E-01  0.5977E-01
     17.239  0.2187E-02  0.3172E-03  0.6123E-01  0.5982E-01
     17.420  0.1351E-02  0.2818E-02  0.6148E-01  0.6033E-01
     17.601  0.1279E-02  0.1515E-02  0.6171E-01  0.6061E-01
     17.782  0.1155E-02  0.1874E-02  0.6192E-01  0.6095E-01
     17.964  0.2551E-02  0.1302E-02  0.6238E-01  0.6118E-01
     18.145  0.2134E-04  0.2602E-02  0.6238E-01  0.6166E-01
     18.326  0.1379E-03  0.3493E-03  0.6241E-01  0.6172E-01
     18.508  0.3056E-02  0.2497E-02  0.6296E-01  0.6217E-01
     18.689  0.1431E-02  0.1161E-02  0.6322E-01  0.6238E-01
     18.870  0.5470E-03  0.1122E-04  0.6332E-01  0.6238E-01
     19.051  0.2430E-02  0.2868E-02  0.6376E-01  0.6290E-01
     19.233  0.1547E-03  0.1378E-02  0.6379E-01  0.6315E-01
     19.414  0.3773E-03  0.7340E-03  0.6386E-01  0.6329E-01
     19.595  0.1106E-02  0.1677E-02  0.6406E-01  0.6359E-01
     19.777  0.1102E-02  0.1089E-02  0.6426E-01  0.6379E-01
     19.958  0.1210E-02  0.2149E-03  0.6448E-01  0.6383E-01
     20.139  0.2989E-02  0.1462E-02  0.6502E-01  0.6409E-01
     20.321  0.9819E-03  0.9077E-03  0.6520E-01  0.6426E-01
     20.502  0.1277E-02  0.1513E-02  0.6543E-01  0.6453E-01
     20.683  0.1328E-02  0.1137E-02  0.6567E-01  0.6474E-01
     20.864  0.3682E-02  0.1769E-02  0.6634E-01  0.6506E-01
     21.046  0.2096E-02  0.2030E-02  0.6672E-01  0.6543E-01
     21.227  0.1244E-02  0.2297E-02  0.6694E-01  0.6584E-01
     21.408  0.1359E-02  0.2155E-02  0.6719E-01  0.6623E-01
     21.590  0.1292E-02  0.2591E-02  0.6742E-01  0.6670E-01
     21.771  0.1287E-02  0.1414E-02  0.6766E-01  0.6696E-01
     21.952  0.2205E-03  0.1392E-02  0.6770E-01  0.6721E-01
     22.133  0.2243E-02  0.1778E-02  0.6810E-01  0.6753E-01
     22.315  0.3544E-02  0.7042E-03  0.6875E-01  0.6766E-01
     22.496  0.2609E-02  0.3865E-03  0.6922E-01  0.6773E-01
     22.677  0.1027E-02  0.3668E-02  0.6940E-01  0.6840E-01
     22.859  0.6851E-03  0.3994E-02  0.6953E-01  0.6912E-01
     23.040  0.4758E-02  0.6902E-03  0.7039E-01  0.6925E-01
     23.221  0.1285E-02  0.1133E-02  0.7062E-01  0.6945E-01
     23.403  0.1402E-02  0.4052E-02  0.7088E-01  0.7019E-01
     23.584  0.1710E-02  0.2333E-02  0.7119E-01  0.7061E-01
     23.765  0.7761E-03  0.7087E-03  0.7133E-01  0.7074E-01
     23.946  0.1115E-02  0.2434E-02  0.7153E-01  0.7118E-01
     24.128  0.5117E-02  0.8217E-03  0.7246E-01  0.7133E-01
     24.309  0.1520E-02  0.1107E-02  0.7274E-01  0.7153E-01
     24.490  0.2135E-02  0.3667E-02  0.7312E-01  0.7219E-01
     24.672  0.1196E-02  0.2982E-02  0.7334E-01  0.7273E-01
     24.853  0.2701E-02  0.2217E-02  0.7383E-01  0.7314E-01
     25.034  0.1206E-02  0.2307E-02  0.7405E-01  0.7355E-01
     25.215  0.2272E-02  0.1432E-02  0.7446E-01  0.7381E-01
     25.397  0.1477E-02  0.1816E-02  0.7473E-01  0.7414E-01
     25.578  0.2788E-02  0.3108E-02  0.7523E-01  0.7471E-01
     25.759  0.2162E-02  0.1169E-03  0.7562E-01  0.7473E-01
     25.941  0.3367E-02  0.2868E-02  0.7623E-01  0.7525E-01
     26.122  0.1002E-02  0.2937E-02  0.7642E-01  0.7578E-01
     26.303  0.1678E-02  0.2646E-02  0.7672E-01  0.7626E-01
     26.485  0.3903E-02  0.1310E-02  0.7743E-01  0.7650E-01
     26.666  0.2365E-02  0.2046E-02  0.7786E-01  0.7687E-01
     26.847  0.8325E-03  0.3526E-02  0.7801E-01  0.7751E-01
     27.028  0.2790E-02  0.2654E-02  0.7851E-01  0.7799E-01
     27.210  0.2365E-02  0.5554E-03  0.7894E-01  0.7809E-01
     27.391  0.2081E-02  0.3610E-02  0.7932E-01  0.7874E-01
     27.572  0.5208E-03  0.1131E-02  0.7941E-01  0.7895E-01
     27.754  0.1960E-02  0.2548E-02  0.7977E-01  0.7941E-01
     27.935  0.2134E-02  0.4037E-04  0.8016E-01  0.7942E-01
     28.116  0.1652E-02  0.3793E-02  0.8046E-01  0.8011E-01
     28.298  0.5092E-03  0.3921E-03  0.8055E-01  0.8018E-01
     28.479  0.2996E-02  0.1854E-02  0.8109E-01  0.8051E-01
     28.660  0.1673E-02  0.2035E-02  0.8139E-01  0.8088E-01
     28.841  0.3346E-02  0.1364E-02  0.8200E-01  0.8113E-01
     29.023  0.1277E-02  0.3397E-02  0.8223E-01  0.8175E-01
     29.204  0.1158E-02  0.1888E-02  0.8244E-01  0.8209E-01
     29.385  0.4585E-03  0.1852E-02  0.8253E-01  0.8242E-01
     29.567  0.1296E-02  0.4224E-03  0.8276E-01  0.8250E-01
     29.748  0.2085E-02  0.1219E-02  0.8314E-01  0.8272E-01
     29.929  0.2650E-02  0.2319E-02  0.8362E-01  0.8314E-01
     30.110  0.2711E-02  0.3208E-02  0.8411E-01  0.8372E-01
     30.292  0.8788E-03  0.8194E-03  0.8427E-01  0.8387E-01
     30.473  0.1270E-02  0.2107E-02  0.8450E-01  0.8425E-01
     30.654  0.1468E-02  0.1224E-02  0.8477E-01  0.8448E-01
     30.836  0.1722E-02  0.2761E-03  0.8508E-01  0.8453E-01
     31.017  0.2341E-02  0.4126E-02  0.8550E-01  0.8527E-01
     31.198  0.1631E-02  0.1015E-02  0.8580E-01  0.8546E-01
     31.380  0.1466E-02  0.1940E-02  0.8606E-01  0.8581E-01
     31.561  0.3771E-02  0.2540E-02  0.8675E-01  0.8627E-01
     31.742  0.1630E-02  0.2292E-02  0.8704E-01  0.8669E-01
     31.923  0.2953E-02  0.2890E-02  0.8758E-01  0.8721E-01
     32.105  0.2196E-02  0.5550E-03  0.8798E-01  0.8731E-01
     32.286  0.1208E-02  0.3366E-02  0.8820E-01  0.8792E-01
     32.467  0.1774E-02  0.1564E-02  0.8852E-01  0.8820E-01
     32.649  0.1145E-02  0.2739E-02  0.8872E-01  0.8870E-01
     32.830  0.5814E-02  0.1672E-02  0.8978E-01  0.8900E-01
     33.011  0.2838E-02  0.5494E-02  0.9029E-01  0.9000E-01
     33.192  0.2137E-02  0.1392E-02  0.9068E-01  0.9025E-01
     33.374  0.1756E-02  0.1635E-02  0.9100E-01  0.9055E-01
     33.555  0.2360E-02  0.3404E-02  0.9143E-01  0.9117E-01
     33.736  0.3439E-02  0.1781E-02  0.9205E-01  0.9149E-01
     33.918  0.1781E-02  0.2941E-02  0.9237E-01  0.9202E-01
     34.099  0.2766E-02  0.2404E-02  0.9287E-01  0.9246E-01
     34.280  0.2472E-02  0.4292E-02  0.9332E-01  0.9324E-01
     34.462  0.3199E-02  0.1029E-02  0.9390E-01  0.9342E-01
     34.643  0.1287E-02  0.2466E-02  0.9414E-01  0.9387E-01
     34.824  0.2143E-02  0.7152E-03  0.9452E-01  0.9400E-01
     35.005  0.2679E-02  0.2650E-02  0.9501E-01  0.9448E-01
     35.187  0.4755E-02  0.3742E-02  0.9587E-01  0.9516E-01
     35.368  0.2295E-02  0.3567E-02  0.9629E-01  0.9580E-01
     35.549  0.1669E-02  0.2007E-02  0.9659E-01  0.9617E-01
     35.731  0.1488E-02  0.1947E-02  0.9686E-01  0.9652E-01
     35.912  0.2387E-02  0.3092E-02  0.9729E-01  0.9708E-01
     36.093  0.5346E-02  0.2356E-02  0.9826E-01  0.9751E-01
     36.274  0.8288E-03  0.3086E-02  0.9841E-01  0.9807E-01
     36.456  0.1440E-02  0.2576E-02  0.9867E-01  0.9853E-01
     36.637  0.1189E-02  0.5399E-03  0.9889E-01  0.9863E-01
     36.818  0.1176E-02  0.1717E-03  0.9910E-01  0.9866E-01
     37.000  0.1717E-02  0.2510E-02  0.9941E-01  0.9912E-01
     37.181  0.3171E-02  0.1962E-02  0.9999E-01  0.9947E-01
     37.362  0.1353E-02  0.2855E-02  0.1002E+00  0.9999E-01
     37.544  0.1661E-06  0.8806E-03  0.1002E+00  0.1002E+00
     37.725  0.8041E-03  0.4537E-03  0.1004E+00  0.1002E+00
     37.906  0.9241E-03  0.1094E-04  0.1005E+00  0.1002E+00
     38.087  0.4490E-02  0.1589E-02  0.1014E+00  0.1005E+00
     38.269  0.1330E-02  0.2697E-02  0.1016E+00  0.1010E+00
     38.450  0.9188E-03  0.3424E-02  0.1018E+00  0.1016E+00
     38.631  0.1027E-02  0.8247E-03  0.1020E+00  0.1018E+00
     38.813  0.9110E-03  0.9765E-03  0.1021E+00  0.1020E+00
     38.994  0.2664E-02  0.6208E-03  0.1026E+00  0.1021E+00
     39.175  0.2784E-02  0.3119E-02  0.1031E+00  0.1026E+00
     39.356  0.5161E-03  0.1777E-02  0.1032E+00  0.1030E+00
     39.538  0.8042E-02  0.2261E-02  0.1047E+00  0.1034E+00
     39.719  0.3736E-02  0.2637E-02  0.1053E+00  0.1038E+00
     39.900  0.3922E-02  0.8362E-02  0.1060E+00  0.1054E+00
     40.082  0.1668E-02  0.4670E-02  0.1064E+00  0.1062E+00
     40.263  0.1971E-02  0.1509E-02  0.1067E+00  0.1065E+00
     40.444  0.3801E-02  0.1926E-02  0.1074E+00  0.1068E+00
     40.626  0.1422E-02  0.9334E-03  0.1077E+00  0.1070E+00
     40.807  0.1026E-02  0.2867E-02  0.1078E+00  0.1075E+00
     40.988  0.2375E-02  0.1435E-02  0.1083E+00  0.1078E+00
     41.169  0.3017E-02  0.2870E-02  0.1088E+00  0.1083E+00
     41.351  0.2458E-02  0.3979E-02  0.1093E+00  0.1090E+00
     41.532  0.2526E-02  0.2377E-02  0.1097E+00  0.1095E+00
     41.713  0.3305E-03  0.1692E-02  0.1098E+00  0.1098E+00
     41.895  0.2922E-02  0.2227E-04  0.1103E+00  0.1098E+00
     42.076  0.4857E-02  0.3298E-02  0.1112E+00  0.1104E+00
     42.257  0.2019E-02  0.2281E-02  0.1116E+00  0.1108E+00
     42.438  0.1306E-02  0.5059E-02  0.1118E+00  0.1117E+00
     42.620  0.1020E-04  0.5603E-03  0.1118E+00  0.1118E+00
     42.801  0.2908E-02  0.4844E-03  0.1123E+00  0.1119E+00
     42.982  0.9932E-03  0.2101E-02  0.1125E+00  0.1123E+00
     43.164  0.2493E-02  0.1721E-02  0.1130E+00  0.1126E+00
     43.345  0.3184E-02  0.3357E-02  0.1135E+00  0.1132E+00
     43.526  0.2994E-02  0.2092E-02  0.1141E+00  0.1136E+00
     43.708  0.3578E-03  0.1060E-02  0.1141E+00  0.1138E+00
     43.889  0.1290E-02  0.2495E-02  0.1144E+00  0.1142E+00
     44.070  0.1966E-02  0.9831E-03  0.1147E+00  0.1144E+00
     44.251  0.1266E-02  0.5740E-03  0.1150E+00  0.1145E+00
     44.433  0.2469E-05  0.1223E-02  0.1150E+00  0.1147E+00
     44.614  0.1442E-02  0.1294E-02  0.1152E+00  0.1149E+00
     44.795  0.3413E-02  0.2035E-02  0.1158E+00  0.1153E+00
     44.977  0.1895E-02  0.1904E-02  0.1162E+00  0.1157E+00
     45.158  0.2293E-02  0.1363E-02  0.1166E+00  0.1159E+00
     45.339  0.1195E-02  0.1926E-02  0.1168E+00  0.1163E+00
     45.520  0.1032E-03  0.1836E-02  0.1168E+00  0.1166E+00
     45.702  0.5760E-04  0.1468E-02  0.1168E+00  0.1169E+00
     45.883  0.3232E-02  0.1305E-02  0.1174E+00  0.1171E+00
     46.064  0.2023E-02  0.1644E-02  0.1178E+00  0.1174E+00
     46.246  0.1565E-02  0.1439E-02  0.1181E+00  0.1177E+00
     46.427  0.4942E-03  0.3765E-04  0.1182E+00  0.1177E+00
     46.608  0.2962E-02  0.1914E-02  0.1187E+00  0.1180E+00
     46.790  0.6546E-03  0.1292E-02  0.1188E+00  0.1182E+00
     46.971  0.4301E-04  0.8450E-03  0.1188E+00  0.1184E+00
     47.152  0.4056E-02  0.1100E-02  0.1196E+00  0.1186E+00
     47.333  0.2363E-02  0.1792E-08  0.1200E+00  0.1186E+00
     47.515  0.2734E-05  0.6018E-04  0.1200E+00  0.1186E+00
     47.696  0.0000E+00  0.1232E-02  0.1200E+00  0.1188E+00
     47.877  0.0000E+00  0.3643E-06  0.1200E+00  0.1188E+00
     48.059  0.0000E+00  0.0000E+00  0.1200E+00  0.1188E+00
     48.240  0.0000E+00  0.9947E-10  0.1200E+00  0.1188E+00
     48.421  0.0000E+00  0.3345E-03  0.1200E+00  0.1189E+00
     48.602  0.0000E+00  0.1131E-02  0.1200E+00  0.1191E+00
     48.784  0.0000E+00  0.1120E-02  0.1200E+00  0.1193E+00
     48.965  0.0000E+00  0.3724E-07  0.1200E+00  0.1193E+00
     49.146  0.0000E+00  0.0000E+00  0.1200E+00  0.1193E+00
     49.328  0.0000E+00  0.5121E-15  0.1200E+00  0.1193E+00
     49.509  0.0000E+00  0.1696E-04  0.1200E+00  0.1193E+00
     49.690  0.0000E+00  0.6290E-03  0.1200E+00  0.1194E+00
     49.872  0.0000E+00  0.8483E-03  0.1200E+00  0.1196E+00
     50.053  0.0000E+00  0.4450E-03  0.1200E+00  0.1196E+00
     50.234  0.0000E+00  0.2084E-10  0.1200E+00  0.1196E+00
     50.415  0.0000E+00  0.5375E-08  0.1200E+00  0.1196E+00
     50.597  0.0000E+00  0.5135E-03  0.1200E+00  0.1197E+00
     50.778  0.0000E+00  0.6126E-03  0.1200E+00  0.1199E+00
     50.959  0.0000E+00  0.8127E-03  0.1200E+00  0.1200E+00
     51.141  0.0000E+00  0.3561E-06  0.1200E+00  0.1200E+00
     51.322  0.0000E+00  0.0000E+00  0.1200E+00  0.1200E+00
     51.503  0.0000E+00  0.0000E+00  0.1200E+00  0.1200E+00
     51.685  0.0000E+00  0.0000E+00  0.1200E+00  0.1200E+00
     51.866  0.0000E+00  0.0000E+00  0.1200E+00  0.1200E+00
     52.047  0.0000E+00  0.0000E+00  0.1200E+00  0.1200E+00
     52.228  0.0000E+00  0.0000E+00  0.1200E+00  0.1200E+00
     52.410  0.0000E+00  0.0000E+00  0.1200E+00  0.1200E+00
     52.591  0.0000E+00  0.0000E+00  0.1200E+00  0.1200E+00
     52.772  0.0000E+00  0.0000E+00  0.1200E+00  0.1200E+00
     52.954  0.0000E+00  0.0000E+00  0.1200E+00  0.1200E+00
     53.135  0.0000E+00  0.0000E+00  0.1200E+00  0.1200E+00
     53.316  0.0000E+00  0.0000E+00  0.1200E+00  0.1200E+00
     53.31615562     -1.07221805  301     10.17062563      1.00000000
     -1.072  0.0000E+00  0.0000E+00  0.0000E+00  0.0000E+00  0.0000E+00  0.0000E+00  0.0000E+00  0.0000E+00  0.0000E+00  0.0000E+00  0.0000E+00  0.0000E+00  0.0000E+00  0.0000E+00  0.0000E+00  0.0000E+00  0.0000E+00  0.0000E+00
     -0.891  0.0000E+00  0.0000E+00  0.0000E+00  0.0000E+00  0.0000E+00  0.0000E+00  0.0000E+00  0.0000E+00  0.0000E+00  0.0000E+00  0.0000E+00  0.0000E+00  0.0000E+00  0.0000E+00  0.0000E+00  0.0000E+00  0.0000E+00  0.0000E+00
     -0.710  0.0000E+00  0.0000E+00  0.0000E+00  0.0000E+00  0.0000E+00  0.0000E+00  0.0000E+00  0.0000E+00  0.0000E+00  0.0000E+00  0.0000E+00  0.0000E+00  0.0000E+00  0.0000E+00  0.0000E+00  0.0000E+00  0.0000E+00  0.0000E+00
     -0.528  0.0000E+00  0.0000E+00  0.0000E+00  0.0000E+00  0.0000E+00  0.0000E+00  0.0000E+00  0.0000E+00  0.0000E+00  0.0000E+00  0.0000E+00  0.0000E+00  0.0000E+00  0.0000E+00  0.0000E+00  0.0000E+00  0.0000E+00  0.0000E+00
     -0.347  0.0000E+00  0.0000E+00  0.0000E+00  0.0000E+00  0.0000E+00  0.0000E+00  0.0000E+00  0.0000E+00  0.0000E+00  0.0000E+00  0.0000E+00  0.0000E+00  0.0000E+00  0.0000E+00  0.0000E+00  0.0000E+00  0.0000E+00  0.0000E+00
     -0.166  0.0000E+00  0.0000E+00  0.0000E+00  0.0000E+00  0.0000E+00  0.0000E+00  0.0000E+00  0.0000E+00  0.0000E+00  0.0000E+00  0.0000E+00  0.0000E+00  0.0000E+00  0.0000E+00  0.0000E+00  0.0000E+00  0.0000E+00  0.0000E+00
      0.016  0.0000E+00  0.0000E+00  0.0000E+00  0.0000E+00  0.0000E+00  0.0000E+00  0.0000E+00  0.0000E+00  0.0000E+00  0.0000E+00  0.0000E+00  0.0000E+00  0.0000E+00  0.0000E+00  0.0000E+00  0.0000E+00  0.0000E+00  0.0000E+00
      0.197  0.0000E+00  0.0000E+00  0.0000E+00  0.0000E+00  0.0000E+00  0.0000E+00  0.0000E+00  0.0000E+00  0.0000E+00  0.0000E+00  0.0000E+00  0.0000E+00  0.0000E+00  0.0000E+00  0.0000E+00  0.0000E+00  0.0000E+00  0.0000E+00
      0.378  0.0000E+00  0.0000E+00  0.0000E+00  0.0000E+00  0.0000E+00  0.0000E+00  0.0000E+00  0.0000E+00  0.0000E+00  0.0000E+00  0.0000E+00  0.0000E+00  0.0000E+00  0.0000E+00  0.0000E+00  0.0000E+00  0.0000E+00  0.0000E+00
      0.559  0.0000E+00  0.0000E+00  0.0000E+00  0.0000E+00  0.0000E+00  0.0000E+00  0.0000E+00  0.0000E+00  0.0000E+00  0.0000E+00  0.0000E+00  0.0000E+00  0.0000E+00  0.0000E+00  0.0000E+00  0.0000E+00  0.0000E+00  0.0000E+00
      0.741  0.0000E+00  0.0000E+00  0.0000E+00  0.0000E+00  0.0000E+00  0.0000E+00  0.0000E+00  0.0000E+00  0.0000E+00  0.0000E+00  0.0000E+00  0.0000E+00  0.0000E+00  0.0000E+00  0.0000E+00  0.0000E+00  0.0000E+00  0.0000E+00
      0.922  0.0000E+00  0.0000E+00  0.0000E+00  0.0000E+00  0.0000E+00  0.0000E+00  0.0000E+00  0.0000E+00  0.0000E+00  0.0000E+00  0.0000E+00  0.0000E+00  0.0000E+00  0.0000E+00  0.0000E+00  0.0000E+00  0.0000E+00  0.0000E+00
      1.103  0.0000E+00  0.0000E+00  0.0000E+00  0.0000E+00  0.0000E+00  0.0000E+00  0.0000E+00  0.0000E+00  0.0000E+00  0.0000E+00  0.0000E+00  0.0000E+00  0.0000E+00  0.0000E+00  0.0000E+00  0.0000E+00  0.0000E+00  0.0000E+00
      1.285  0.4984E-05  0.8357E-05  0.2441E-07  0.4116E-07  0.2441E-07  0.4116E-07  0.2441E-07  0.4116E-07  0.3847E-09  0.4785E-09  0.3847E-09  0.4785E-09  0.1061E-24  0.6583E-22  0.3847E-09  0.4785E-09  0.1061E-24  0.6583E-22
      1.466  0.1453E-01  0.1469E-01  0.7117E-04  0.7234E-04  0.7117E-04  0.7234E-04  0.7117E-04  0.7234E-04  0.1122E-05  0.8410E-06  0.1122E-05  0.8410E-06  0.3094E-21  0.1157E-18  0.1122E-05  0.8410E-06  0.3094E-21  0.1157E-18
      1.647  0.6478E-03  0.4721E-03  0.3174E-05  0.2327E-05  0.3174E-05  0.2327E-05  0.3174E-05  0.2327E-05  0.5006E-07  0.2709E-07  0.5006E-07  0.2709E-07  0.8029E-10  0.8505E-10  0.5006E-07  0.2709E-07  0.8029E-10  0.8505E-10
      1.828  0.3131E-01  0.3238E-01  0.5702E-03  0.5940E-03  0.5702E-03  0.5940E-03  0.5702E-03  0.5940E-03  0.1666E-04  0.1252E-04  0.1666E-04  0.1252E-04  0.2228E-04  0.1703E-04  0.1666E-04  0.1252E-04  0.2228E-04  0.1703E-04
      2.010  0.1245E-01  0.1133E-01  0.2267E-03  0.2078E-03  0.2267E-03  0.2078E-03  0.2267E-03  0.2078E-03  0.6625E-05  0.4379E-05  0.6625E-05  0.4379E-05  0.8859E-05  0.5958E-05  0.6625E-05  0.4379E-05  0.8859E-05  0.5958E-05
      2.191  0.1751E-01  0.1660E-01  0.5511E-03  0.5287E-03  0.5511E-03  0.5287E-03  0.5511E-03  0.5287E-03  0.5420E-04  0.3633E-04  0.5420E-04  0.3633E-04  0.1225E-04  0.8616E-05  0.5420E-04  0.3633E-04  0.1225E-04  0.8616E-05
      2.372  0.2446E-01  0.2535E-01  0.7697E-03  0.8076E-03  0.7697E-03  0.8076E-03  0.7697E-03  0.8076E-03  0.7569E-04  0.5548E-04  0.7569E-04  0.5548E-04  0.1710E-04  0.1316E-04  0.7569E-04  0.5548E-04  0.1710E-04  0.1316E-04
      2.554  0.1439E-01  0.1007E-01  0.6540E-03  0.4643E-03  0.6540E-03  0.4643E-03  0.6540E-03  0.4643E-03  0.5986E-04  0.2772E-04  0.5986E-04  0.2772E-04  0.8588E-04  0.4218E-04  0.5986E-04  0.2772E-04  0.8588E-04  0.4218E-04
      2.735  0.3900E-01  0.4341E-01  0.1779E-02  0.2006E-02  0.1779E-02  0.2006E-02  0.1779E-02  0.2006E-02  0.1371E-03  0.1062E-03  0.1371E-03  0.1062E-03  0.2595E-03  0.1966E-03  0.1371E-03  0.1062E-03  0.2595E-03  0.1966E-03
      2.916  0.1925E-01  0.8736E-02  0.1144E-02  0.5285E-03  0.1144E-02  0.5285E-03  0.1144E-02  0.5285E-03  0.1864E-03  0.5719E-04  0.1864E-03  0.5719E-04  0.1303E-03  0.4074E-04  0.1864E-03  0.5719E-04  0.1303E-03  0.4074E-04
      3.098  0.5717E-01  0.6797E-01  0.3397E-02  0.4112E-02  0.3397E-02  0.4112E-02  0.3397E-02  0.4112E-02  0.5536E-03  0.4450E-03  0.5536E-03  0.4450E-03  0.3869E-03  0.3170E-03  0.5536E-03  0.4450E-03  0.3869E-03  0.3170E-03
      3.279  0.2279E-01  0.7408E-02  0.1583E-02  0.5354E-03  0.1583E-02  0.5354E-03  0.1583E-02  0.5354E-03  0.6323E-03  0.1283E-03  0.6323E-03  0.1283E-03  0.9644E-04  0.2125E-04  0.6323E-03  0.1283E-03  0.9644E-04  0.2125E-04
      3.460  0.1342E-01  0.2922E-01  0.9324E-03  0.2112E-02  0.9324E-03  0.2112E-02  0.9324E-03  0.2112E-02  0.3724E-03  0.5060E-03  0.3724E-03  0.5060E-03  0.5683E-04  0.8377E-04  0.3724E-03  0.5060E-03  0.5683E-04  0.8377E-04
      3.641  0.5378E-01  0.1651E-01  0.4788E-02  0.1507E-02  0.4788E-02  0.1507E-02  0.4788E-02  0.1507E-02  0.9040E-03  0.1726E-03  0.9040E-03  0.1726E-03  0.1870E-02  0.3656E-03  0.9040E-03  0.1726E-03  0.1870E-02  0.3656E-03
      3.823  0.1770E-01  0.5267E-01  0.1570E-02  0.4799E-02  0.1570E-02  0.4799E-02  0.1570E-02  0.4799E-02  0.5785E-03  0.6194E-03  0.5785E-03  0.6194E-03  0.3824E-03  0.1050E-02  0.5785E-03  0.6194E-03  0.3824E-03  0.1050E-02
      4.004  0.9123E-01  0.6168E-01  0.9103E-02  0.6327E-02  0.9103E-02  0.6327E-02  0.9103E-02  0.6327E-02  0.3744E-02  0.1772E-02  0.3744E-02  0.1772E-02  0.3376E-02  0.1140E-02  0.3744E-02  0.1772E-02  0.3376E-02  0.1140E-02
      4.185  0.1794E-01  0.3678E-01  0.1968E-02  0.3895E-02  0.1968E-02  0.3895E-02  0.1968E-02  0.3895E-02  0.1264E-02  0.7240E-03  0.1264E-02  0.7240E-03  0.7827E-03  0.9986E-03  0.1264E-02  0.7240E-03  0.7827E-03  0.9986E-03
      4.367  0.2109E-01  0.2986E-01  0.2146E-02  0.3495E-02  0.2146E-02  0.3495E-02  0.2146E-02  0.3495E-02  0.2664E-02  0.1219E-02  0.2664E-02  0.1219E-02  0.5351E-03  0.7811E-03  0.2664E-02  0.1219E-02  0.5351E-03  0.7811E-03
      4.548  0.5469E-01  0.9146E-02  0.7293E-02  0.1008E-02  0.7293E-02  0.1008E-02  0.7293E-02  0.1008E-02  0.4658E-02  0.9083E-03  0.4658E-02  0.9083E-03  0.2877E-02  0.3829E-04  0.4658E-02  0.9083E-03  0.2877E-02  0.3829E-04
      4.729  0.7452E-01  0.6000E-01  0.9394E-02  0.8318E-02  0.9394E-02  0.8318E-02  0.9394E-02  0.8318E-02  0.1098E-01  0.3096E-02  0.1098E-01  0.3096E-02  0.8857E-02  0.1504E-02  0.1098E-01  0.3096E-02  0.8857E-02  0.1504E-02
      4.911  0.5570E-01  0.7697E-01  0.7810E-02  0.1086E-01  0.7810E-02  0.1086E-01  0.7810E-02  0.1086E-01  0.1063E-01  0.5811E-02  0.1063E-01  0.5811E-02  0.1303E-01  0.5440E-02  0.1063E-01  0.5811E-02  0.1303E-01  0.5440E-02
      5.092  0.6280E-01  0.6228E-02  0.7312E-02  0.9575E-03  0.7312E-02  0.9575E-03  0.7312E-02  0.9575E-03  0.2817E-01  0.3789E-03  0.2817E-01  0.3789E-03  0.4638E-01  0.6612E-03  0.2817E-01  0.3789E-03  0.4638E-01  0.6612E-03
      5.273  0.8549E-01  0.6805E-01  0.1048E-01  0.1075E-01  0.1048E-01  0.1075E-01  0.1048E-01  0.1075E-01  0.5466E-01  0.6950E-02  0.5466E-01  0.6950E-02  0.6969E-01  0.8171E-02  0.5466E-01  0.6950E-02  0.6969E-01  0.8171E-02
      5.454  0.1100E+00  0.3262E-01  0.1819E-01  0.5920E-02  0.1819E-01  0.5920E-02  0.1819E-01  0.5920E-02  0.5397E-01  0.3670E-02  0.5397E-01  0.3670E-02  0.1340E+00  0.3689E-02  0.5397E-01  0.3670E-02  0.1340E+00  0.3689E-02
      5.636  0.5302E-01  0.4463E-01  0.8342E-02  0.7542E-02  0.8342E-02  0.7542E-02  0.8342E-02  0.7542E-02  0.7296E-01  0.1037E-01  0.7296E-01  0.1037E-01  0.8938E-01  0.1487E-02  0.7296E-01  0.1037E-01  0.8938E-01  0.1487E-02
      5.817  0.6999E-01  0.9920E-01  0.1782E-01  0.1843E-01  0.1782E-01  0.1843E-01  0.1782E-01  0.1843E-01  0.1301E+00  0.2160E-01  0.1301E+00  0.2160E-01  0.1735E+00  0.2162E-01  0.1301E+00  0.2160E-01  0.1735E+00  0.2162E-01
      5.998  0.4155E-01  0.3615E-01  0.1257E-01  0.5369E-02  0.1257E-01  0.5369E-02  0.1257E-01  0.5369E-02  0.1647E+00  0.1677E-01  0.1647E+00  0.1677E-01  0.9405E-01  0.6472E-02  0.1647E+00  0.1677E-01  0.9405E-01  0.6472E-02
      6.180  0.2381E-01  0.7165E-01  0.1774E-01  0.9694E-02  0.1774E-01  0.9694E-02  0.1774E-01  0.9694E-02  0.1854E+00  0.3883E-01  0.1854E+00  0.3883E-01  0.1523E+00  0.5513E-01  0.1854E+00  0.3883E-01  0.1523E+00  0.5513E-01
      6.361  0.1402E-01  0.8651E-01  0.1443E-01  0.1825E-01  0.1443E-01  0.1825E-01  0.1443E-01  0.1825E-01  0.1659E+00  0.4333E-01  0.1659E+00  0.4333E-01  0.6127E-01  0.4771E-01  0.1659E+00  0.4333E-01  0.6127E-01  0.4771E-01
      6.542  0.6253E-02  0.5286E-01  0.1968E-01  0.1321E-01  0.1968E-01  0.1321E-01  0.1968E-01  0.1321E-01  0.1676E+00  0.2080E-01  0.1676E+00  0.2080E-01  0.1199E+00  0.9806E-01  0.1676E+00  0.2080E-01  0.1199E+00  0.9806E-01
      6.723  0.2513E-02  0.6030E-01  0.1431E-01  0.1176E-01  0.1431E-01  0.1176E-01  0.1431E-01  0.1176E-01  0.1448E+00  0.5718E-01  0.1448E+00  0.5718E-01  0.1425E+00  0.5914E-01  0.1448E+00  0.5718E-01  0.1425E+00  0.5914E-01
      6.905  0.6005E-02  0.3764E-01  0.1649E-01  0.1317E-01  0.1649E-01  0.1317E-01  0.1649E-01  0.1317E-01  0.1772E+00  0.4391E-01  0.1772E+00  0.4391E-01  0.1130E+00  0.9918E-01  0.1772E+00  0.4391E-01  0.1130E+00  0.9918E-01
      7.086  0.7798E-02  0.5006E-01  0.1437E-01  0.1837E-01  0.1437E-01  0.1837E-01  0.1437E-01  0.1837E-01  0.1962E+00  0.1297E+00  0.1962E+00  0.1297E+00  0.1212E+00  0.9540E-01  0.1962E+00  0.1297E+00  0.1212E+00  0.9540E-01
      7.267  0.1046E-01  0.9985E-02  0.2444E-01  0.1234E-01  0.2444E-01  0.1234E-01  0.2444E-01  0.1234E-01  0.2628E+00  0.9229E-01  0.2628E+00  0.9229E-01  0.1382E+00  0.9243E-01  0.2628E+00  0.9229E-01  0.1382E+00  0.9243E-01
      7.449  0.2090E-01  0.1869E-01  0.2506E-01  0.2483E-01  0.2506E-01  0.2483E-01  0.2506E-01  0.2483E-01  0.2610E+00  0.2094E+00  0.2610E+00  0.2094E+00  0.1724E+00  0.9604E-01  0.2610E+00  0.2094E+00  0.1724E+00  0.9604E-01
      7.630  0.1765E-01  0.4350E-02  0.2367E-01  0.1566E-01  0.2367E-01  0.1566E-01  0.2367E-01  0.1566E-01  0.2935E+00  0.1085E+00  0.2935E+00  0.1085E+00  0.2547E+00  0.5862E-01  0.2935E+00  0.1085E+00  0.2547E+00  0.5862E-01
      7.811  0.1201E-01  0.3876E-02  0.2059E-01  0.1823E-01  0.2059E-01  0.1823E-01  0.2059E-01  0.1823E-01  0.3281E+00  0.1765E+00  0.3281E+00  0.1765E+00  0.2203E+00  0.7606E-01  0.3281E+00  0.1765E+00  0.2203E+00  0.7606E-01
      7.993  0.1424E-01  0.8881E-03  0.1325E-01  0.2235E-01  0.1325E-01  0.2235E-01  0.1325E-01  0.2235E-01  0.2218E+00  0.1042E+00  0.2218E+00  0.1042E+00  0.2254E+00  0.1053E+00  0.2218E+00  0.1042E+00  0.2254E+00  0.1053E+00