    1    1  100    2
  0.1097731E+02  0.2494616E-09  0.2494616E-09  0.2494616E-09  0.5000000E-15
  1.000000000000000E-004
  CAR 
 Co-fcc                                  
      9     60     12
 
  0.6250000E-01  0.6250000E-01  0.6250000E-01  0.3906250E-02
      1          1.405072        1.399981   1.000000   1.000000
      2          7.455978        9.010545   1.000000   1.000000
      3          7.535484        9.106402   1.000000   1.000000
      4          7.535484        9.106402   1.000000   1.000000
      5          8.539156       10.431480   1.000000   0.000000
      6          8.539156       10.431480   1.000000   0.000000
      7         32.773284       32.530214   0.000000   0.000000
      8         35.651217       35.742985   0.000000   0.000000
      9         37.118825       37.290784   0.000000   0.000000
     10         37.118825       37.290784   0.000000   0.000000
     11         40.980706       41.215817   0.000000   0.000000
     12         40.980710       41.215879   0.000000   0.000000
 
  0.1875000E+00  0.6250000E-01  0.6250000E-01  0.1171875E-01
      1          2.198470        2.200439   1.000000   1.000000
      2          7.247452        8.741268   1.000000   1.000000
      3          7.690740        9.279921   1.000000   1.000000
      4          7.695838        9.287950   1.000000   1.000000
      5          8.387466       10.247075   1.000000   0.015297
      6          8.627578       10.507683   1.000000   0.000000
      7         29.915763       30.098493   0.000000   0.000000
      8         32.545220       32.614997   0.000000   0.000000
      9         36.047110       36.075356   0.000000   0.000000
     10         38.131719       38.305387   0.000000   0.000000
     11         39.898845       39.859715   0.000000   0.000000
     12         41.113546       41.313106   0.000000   0.000000
 
  0.3125000E+00  0.6250000E-01  0.6250000E-01  0.1171875E-01
      1          3.866842        3.969127   1.000000   1.000000
      2          7.139320        8.422242   1.000000   1.000000
      3          7.636258        9.265759   1.000000   1.000000
      4          7.708876        9.366641   1.000000   1.000000
      5          8.598432       10.400850   1.000000   0.000000
      6          9.024483       10.852807   1.000000   0.000000
      7         23.844468       24.276643   0.000000   0.000000
      8         31.460196       31.519462   0.000000   0.000000
      9         34.997690       35.036254   0.000000   0.000000
     10         37.666559       37.981611   0.000000   0.000000
     11         38.858301       39.089430   0.000000   0.000000
     12         39.874722       39.922319   0.000000   0.000000
 
  0.4375000E+00  0.6250000E-01  0.6250000E-01  0.1171875E-01
      1          5.001092        5.661885   1.000000   1.000000
      2          7.409922        8.845164   1.000000   1.000000
      3          7.506415        9.069573   1.000000   1.000000
      4          8.191997        9.166621   1.000000   1.000000
      5          9.143006       10.976186   1.000000   0.000000
      6          9.808821       11.441657   1.000000   0.000000
      7         18.513924       19.225153   0.000000   0.000000
      8         30.987771       30.926867   0.000000   0.000000
      9         33.748865       33.876434   0.000000   0.000000
     10         35.522588       35.835300   0.000000   0.000000
     11         38.015026       38.273644   0.000000   0.000000
     12         39.587455       39.769582   0.000000   0.000000
 
 -0.4375000E+00  0.6250000E-01  0.6250000E-01  0.1171875E-01
      1          5.126534        6.025259   1.000000   1.000000
      2          7.315691        8.911792   1.000000   1.000000
      3          7.454185        9.106592   1.000000   1.000000
      4          8.753756        9.514956   1.000000   1.000000
      5          9.419517       11.288560   1.000000   0.000000
      6         10.612674       11.713739   0.000000   0.000000
      7         16.359084       17.317509   0.000000   0.000000
      8         31.116697       30.925126   0.000000   0.000000
      9         33.682921       33.983386   0.000000   0.000000
     10         33.857418       34.115437   0.000000   0.000000
     11         38.832414       39.072501   0.000000   0.000000
     12         38.873234       39.079288   0.000000   0.000000
 
 -0.3125000E+00  0.6250000E-01  0.6250000E-01  0.1171875E-01
      1          4.785295        5.223479   1.000000   1.000000
      2          7.446919        8.548905   1.000000   1.000000
      3          7.594167        9.108036   1.000000   1.000000
      4          7.668890        9.248580   1.000000   1.000000
      5          9.216833       10.973046   1.000000   0.000000
      6          9.279586       11.078610   1.000000   0.000000
      7         20.129536       20.729054   0.000000   0.000000
      8         31.838080       31.637096   0.000000   0.000000
      9         33.151117       33.474560   0.000000   0.000000
     10         35.542469       35.870966   0.000000   0.000000
     11         38.703472       38.866243   0.000000   0.000000
     12         40.545358       40.737456   0.000000   0.000000
 
 -0.1875000E+00  0.6250000E-01  0.6250000E-01  0.1171875E-01
      1          3.267177        3.308332   1.000000   1.000000
      2          7.092028        8.478001   1.000000   1.000000
      3          7.698955        9.334072   1.000000   1.000000
      4          7.756467        9.384945   1.000000   1.000000
      5          8.528874       10.318099   1.000000   0.000015
      6          8.783771       10.649681   1.000000   0.000000
      7         25.844788       26.204156   0.000000   0.000000
      8         32.895947       32.746104   0.000000   0.000000
      9         33.700506       34.025242   0.000000   0.000000
     10         38.196400       38.352192   0.000000   0.000000
     11         38.515069       38.696138   0.000000   0.000000
     12         42.803699       42.885478   0.000000   0.000000
 
 -0.6250000E-01  0.6250000E-01  0.6250000E-01  0.1171875E-01
      1          1.808361        1.805659   1.000000   1.000000
      2          7.315780        8.841074   1.000000   1.000000
      3          7.643377        9.222636   1.000000   1.000000
      4          7.647490        9.227631   1.000000   1.000000
      5          8.406610       10.271634   1.000000   0.002139
      6          8.604665       10.502343   1.000000   0.000000
      7         31.716810       31.709273   0.000000   0.000000
      8         34.123398       34.115007   0.000000   0.000000
      9         35.094279       35.365953   0.000000   0.000000
     10         36.983421       37.052178   0.000000   0.000000
     11         40.923519       41.093083   0.000000   0.000000
     12         42.778723       42.862107   0.000000   0.000000
 
  0.1875000E+00  0.1875000E+00  0.6250000E-01  0.1171875E-01
      1          2.577668        2.586493   1.000000   1.000000
      2          7.044757        8.519900   1.000000   1.000000
      3          7.835145        9.443564   1.000000   1.000000
      4          7.865399        9.465503   1.000000   1.000000
      5          8.226767       10.018332   1.000000   0.999992
      6          8.726420       10.633434   1.000000   0.000000
      7         30.219463       30.409642   0.000000   0.000000
      8         32.718086       32.689335   0.000000   0.000000
      9         32.808282       33.118639   0.000000   0.000000
     10         35.067685       35.114481   0.000000   0.000000
     11         40.493534       41.132580   0.000000   0.000000
     12         43.270535       43.356985   0.000000   0.000000
 
  0.3125000E+00  0.1875000E+00  0.6250000E-01  0.2343750E-01
      1          3.923672        4.002292   1.000000   1.000000
      2          6.748901        8.140750   1.000000   1.000000
      3          7.622177        9.259252   1.000000   1.000000
      4          8.118848        9.771959   1.000000   1.000000
      5          8.492683       10.194843   1.000000   0.246681
      6          9.101645       10.948744   1.000000   0.000000
      7         26.391513       26.734620   0.000000   0.000000
      8         28.987414       29.228886   0.000000   0.000000
      9         32.750822       32.867144   0.000000   0.000000
     10         34.727295       34.865858   0.000000   0.000000
     11         39.395581       39.909907   0.000000   0.000000
     12         43.056604       43.088475   0.000000   0.000000
 
  0.4375000E+00  0.1875000E+00  0.6250000E-01  0.2343750E-01
      1          5.291060        5.795803   1.000000   1.000000
      2          6.868346        8.043524   1.000000   1.000000
      3          7.321393        8.838564   1.000000   1.000000
      4          7.963829        9.649423   1.000000   1.000000
      5          9.185984       10.982275   1.000000   0.000000
      6         10.287151       11.786846   0.000491   0.000000
      7         20.637447       21.178762   0.000000   0.000000
      8         28.389142       28.602279   0.000000   0.000000
      9         30.346579       30.602597   0.000000   0.000000
     10         34.359452       34.545617   0.000000   0.000000
     11         41.025612       41.138259   0.000000   0.000000
     12         43.462483       43.719663   0.000000   0.000000
 
 -0.4375000E+00  0.1875000E+00  0.6250000E-01  0.2343750E-01
      1          5.594598        6.564592   1.000000   1.000000
      2          6.901515        8.230929   1.000000   1.000000
      3          7.756270        8.935920   1.000000   1.000000
      4          7.818623        9.492609   1.000000   1.000000
      5          9.383569       11.234548   1.000000   0.000000
      6         12.444962       13.327462   0.000000   0.000000
      7         16.553171       17.422928   0.000000   0.000000
      8         27.807318       28.008534   0.000000   0.000000
      9         29.621127       29.939908   0.000000   0.000000
     10         34.168467       34.265290   0.000000   0.000000
     11         40.162622       40.357296   0.000000   0.000000
     12         43.811945       43.898992   0.000000   0.000000
 
 -0.3125000E+00  0.1875000E+00  0.6250000E-01  0.2343750E-01
      1          5.525805        6.238756   1.000000   1.000000
      2          7.047149        8.275111   1.000000   1.000000
      3          7.393277        8.726551   1.000000   1.000000
      4          7.854243        9.544230   1.000000   1.000000
      5          9.069809       10.862844   1.000000   0.000000
      6         11.128910       12.466584   0.000000   0.000000
      7         18.982810       19.625827   0.000000   0.000000
      8         26.985984       27.259484   0.000000   0.000000
      9         31.191337       31.409713   0.000000   0.000000
     10         35.260727       35.367246   0.000000   0.000000
     11         39.537408       39.721670   0.000000   0.000000
     12         43.201222       43.302896   0.000000   0.000000
 
 -0.1875000E+00  0.1875000E+00  0.6250000E-01  0.2343750E-01
      1          4.501370        4.636529   1.000000   1.000000
      2          6.822172        8.168331   1.000000   1.000000
      3          7.451511        9.053807   1.000000   1.000000
      4          8.052326        9.753319   1.000000   1.000000
      5          8.426298       10.153548   1.000000   0.685461
      6          9.594933       11.352332   1.000000   0.000000
      7         24.406113       24.817797   0.000000   0.000000
      8         27.130825       27.421024   0.000000   0.000000
      9         33.719971       33.835521   0.000000   0.000000
     10         37.202344       37.292835   0.000000   0.000000
     11         39.014478       39.124540   0.000000   0.000000
     12         41.990794       42.290806   0.000000   0.000000
 
 -0.6250000E-01  0.1875000E+00  0.6250000E-01  0.2343750E-01
      1          2.939897        2.958908   1.000000   1.000000
      2          7.042748        8.489318   1.000000   1.000000
      3          7.734286        9.350654   1.000000   1.000000
      4          7.868013        9.483099   1.000000   1.000000
      5          8.303487       10.103622   1.000000   0.970963
      6          8.814105       10.684744   1.000000   0.000000
      7         28.082273       28.365640   0.000000   0.000000
      8         30.713882       30.882090   0.000000   0.000000
      9         35.125094       35.172075   0.000000   0.000000
     10         36.906776       36.932079   0.000000   0.000000
     11         40.349866       40.627405   0.000000   0.000000
     12         41.765682       41.988349   0.000000   0.000000
 
  0.3125000E+00  0.3125000E+00  0.6250000E-01  0.1171875E-01
      1          4.594977        4.849804   1.000000   1.000000
      2          6.338754        7.694898   1.000000   1.000000
      3          7.938490        9.390614   1.000000   1.000000
      4          8.537962       10.223956   1.000000   0.065724
      5          8.868293       10.471372   1.000000   0.000000
      6          9.073135       10.996187   1.000000   0.000000
      7         26.978443       27.273631   0.000000   0.000000
      8         28.644927       28.927311   0.000000   0.000000
      9         28.739309       28.962885   0.000000   0.000000
     10         31.535864       31.756646   0.000000   0.000000
     11         35.987331       36.485014   0.000000   0.000000
     12         47.070825       48.420878   0.000000   0.000000
 
  0.4375000E+00  0.3125000E+00  0.6250000E-01  0.2343750E-01
      1          5.328826        6.035672   1.000000   1.000000
      2          6.135902        7.430727   1.000000   1.000000
      3          7.883146        9.175649   1.000000   1.000000
      4          8.776537       10.532928   1.000000   0.000000
      5          9.232823       11.040316   1.000000   0.000000
      6         10.545209       11.889750   0.000000   0.000000
      7         23.592265       23.958678   0.000000   0.000000
      8         25.535144       25.883278   0.000000   0.000000
      9         26.484130       26.812912   0.000000   0.000000
     10         32.764989       32.980979   0.000000   0.000000
     11         37.151827       37.529994   0.000000   0.000000
     12         46.514327       46.970331   0.000000   0.000000
 
 -0.4375000E+00  0.3125000E+00  0.6250000E-01  0.2343750E-01
      1          5.811970        6.943986   1.000000   1.000000
      2          6.267537        7.456358   1.000000   1.000000
      3          7.588645        8.841568   1.000000   1.000000
      4          8.500023       10.284508   1.000000   0.000639
      5          9.447013       11.281283   1.000000   0.000000
      6         13.684712       14.524602   0.000000   0.000000
      7         18.526116       19.076524   0.000000   0.000000
      8         23.353380       23.818793   0.000000   0.000000
      9         26.678861       26.978676   0.000000   0.000000
     10         33.198427       33.388888   0.000000   0.000000
     11         42.047280       42.313499   0.000000   0.000000
     12         44.907916       45.193552   0.000000   0.000000
 
 -0.3125000E+00  0.3125000E+00  0.6250000E-01  0.2343750E-01
      1          6.280857        7.289949   1.000000   1.000000
      2          6.435508        7.724295   1.000000   1.000000
      3          7.143496        8.393361   1.000000   1.000000
      4          8.304666       10.099394   1.000000   0.978033
      5          9.138167       10.900804   1.000000   0.000000
      6         13.992947       14.872520   0.000000   0.000000
      7         18.370358       18.964679   0.000000   0.000000
      8         22.044384       22.535300   0.000000   0.000000
      9         28.390538       28.696830   0.000000   0.000000
     10         34.069134       34.205388   0.000000   0.000000
     11         42.764725       42.814754   0.000000   0.000000
     12         46.598390       47.574100   0.000000   0.000000
 
 -0.1875000E+00  0.3125000E+00  0.6250000E-01  0.2343750E-01
      1          5.811456        6.326715   1.000000   1.000000
      2          6.838282        8.077625   1.000000   1.000000
      3          6.988599        8.494435   1.000000   1.000000
      4          8.131279        9.883470   1.000000   1.000000
      5          8.770366       10.496513   1.000000   0.000000
      6         11.219101       12.625105   0.000000   0.000000
      7         21.169056       21.688382   0.000000   0.000000
      8         24.156154       24.536184   0.000000   0.000000
      9         30.951644       31.189648   0.000000   0.000000
     10         35.809657       35.931227   0.000000   0.000000
     11         40.032423       40.082329   0.000000   0.000000
     12         44.628226       44.765756   0.000000   0.000000
 
 -0.6250000E-01  0.3125000E+00  0.6250000E-01  0.2343750E-01
      1          4.610473        4.852357   1.000000   1.000000
      2          7.096849        8.283266   1.000000   1.000000
      3          7.466362        9.092162   1.000000   1.000000
      4          7.773274        9.441548   1.000000   1.000000
      5          8.826792       10.587373   1.000000   0.000000
      6          9.466080       11.227701   1.000000   0.000000
      7         22.110182       22.606494   0.000000   0.000000
      8         29.872073       30.031723   0.000000   0.000000
      9         33.396168       33.473246   0.000000   0.000000
     10         35.964216       36.234804   0.000000   0.000000
     11         39.644268       39.790231   0.000000   0.000000
     12         41.165811       41.304663   0.000000   0.000000
 
  0.4375000E+00  0.4375000E+00  0.6250000E-01  0.1171875E-01
      1          5.116666        6.121663   1.000000   1.000000
      2          5.776020        7.047640   1.000000   1.000000
      3          9.116556       10.481828   1.000000   0.000000
      4          9.152748       11.031658   1.000000   0.000000
      5          9.469901       11.329510   1.000000   0.000000
      6         11.209467       11.978176   0.000000   0.000000
      7         22.278755       22.859787   0.000000   0.000000
      8         24.661604       24.907920   0.000000   0.000000
      9         25.834121       26.023020   0.000000   0.000000
     10         30.666591       31.000220   0.000000   0.000000
     11         34.585567       34.997816   0.000000   0.000000
     12         47.178519       50.758352   0.000000   0.000000
 
 -0.4375000E+00  0.4375000E+00  0.6250000E-01  0.2343750E-01
      1          5.263370        6.411948   1.000000   1.000000
      2          5.800008        7.047124   1.000000   1.000000
      3          8.708113       10.062353   1.000000   0.998902
      4          9.101540       11.022110   1.000000   0.000000
      5          9.607486       11.419405   1.000000   0.000000
      6         13.729170       14.231883   0.000000   0.000000
      7         20.143937       20.892853   0.000000   0.000000
      8         22.249746       22.566572   0.000000   0.000000
      9         24.692939       24.925498   0.000000   0.000000
     10         32.127150       32.396246   0.000000   0.000000
     11         36.486366       36.857810   0.000000   0.000000
     12         47.155229       49.857379   0.000000   0.000000
 
 -0.3125000E+00  0.4375000E+00  0.6250000E-01  0.2343750E-01
      1          5.764555        7.000697   1.000000   1.000000
      2          6.174963        7.351603   1.000000   1.000000
      3          7.760016        9.012471   1.000000   1.000000
      4          8.674319       10.523635   1.000000   0.000000
      5          9.436595       11.232322   1.000000   0.000000
      6         15.708892       16.310403   0.000000   0.000000
      7         17.885696       18.425563   0.000000   0.000000
      8         20.875328       21.495934   0.000000   0.000000
      9         26.209959       26.502059   0.000000   0.000000
     10         33.034656       33.241467   0.000000   0.000000
     11         42.015776       42.344408   0.000000   0.000000
     12         46.054536       46.167168   0.000000   0.000000
 
 -0.1875000E+00  0.4375000E+00  0.6250000E-01  0.2343750E-01
      1          5.962107        6.999700   1.000000   1.000000
      2          6.605895        7.861322   1.000000   1.000000
      3          7.439521        8.673859   1.000000   1.000000
      4          8.067816        9.805299   1.000000   1.000000
      5          9.287024       11.104727   1.000000   0.000000
      6         13.673301       14.484452   0.000000   0.000000
      7         16.807285       17.595763   0.000000   0.000000
      8         24.789417       25.156492   0.000000   0.000000
      9         28.755352       29.054546   0.000000   0.000000
     10         34.084482       34.197733   0.000000   0.000000
     11         41.500176       41.633962   0.000000   0.000000
     12         45.933468       46.024201   0.000000   0.000000
 
 -0.6250000E-01  0.4375000E+00  0.6250000E-01  0.2343750E-01
      1          5.267834        6.112164   1.000000   1.000000
      2          7.206019        8.656314   1.000000   1.000000
      3          7.591504        9.071853   1.000000   1.000000
      4          8.098232        9.264522   1.000000   1.000000
      5          9.328263       11.172114   1.000000   0.000000
      6         10.911247       12.114328   0.000000   0.000000
      7         17.286846       18.099288   0.000000   0.000000
      8         29.774733       29.824280   0.000000   0.000000
      9         31.860565       32.120768   0.000000   0.000000
     10         34.446711       34.607202   0.000000   0.000000
     11         39.093926       39.326684   0.000000   0.000000
     12         41.253426       41.395836   0.000000   0.000000
 
 -0.4375000E+00 -0.4375000E+00  0.6250000E-01  0.1171875E-01
      1          5.055960        6.178428   1.000000   1.000000
      2          5.648573        6.902148   1.000000   1.000000
      3          9.267442       10.959758   1.000000   0.000000
      4          9.397173       11.228735   1.000000   0.000000
      5          9.619731       11.437383   1.000000   0.000000
      6         12.742827       13.034085   0.000000   0.000000
      7         20.050269       20.842082   0.000000   0.000000
      8         24.077018       24.286715   0.000000   0.000000
      9         25.208430       25.364240   0.000000   0.000000
     10         30.526462       30.885935   0.000000   0.000000
     11         34.408900       34.819759   0.000000   0.000000
     12         47.240320       50.843957   0.000000   0.000000
 
 -0.3125000E+00 -0.4375000E+00  0.6250000E-01  0.2343750E-01
      1          5.337802        6.373078   1.000000   1.000000
      2          5.916246        7.179705   1.000000   1.000000
      3          8.376124        9.655191   1.000000   1.000000
      4          9.027314       10.872228   1.000000   0.000000
      5          9.460157       11.284418   1.000000   0.000000
      6         12.124845       13.004350   0.000000   0.000000
      7         22.282878       22.752029   0.000000   0.000000
      8         22.956191       23.377471   0.000000   0.000000
      9         25.250438       25.509298   0.000000   0.000000
     10         32.329156       32.578943   0.000000   0.000000
     11         36.683101       37.052265   0.000000   0.000000
     12         47.046480       48.641579   0.000000   0.000000
 
 -0.1875000E+00 -0.4375000E+00  0.6250000E-01  0.2343750E-01
      1          5.706362        6.560898   1.000000   1.000000
      2          6.521264        7.727404   1.000000   1.000000
      3          7.386762        8.725878   1.000000   1.000000
      4          8.231201        9.954898   1.000000   1.000000
      5          9.388068       11.234418   1.000000   0.000000
      6         11.740377       12.881517   0.000000   0.000000
      7         19.433440       19.992223   0.000000   0.000000
      8         26.394647       26.694557   0.000000   0.000000
      9         27.718250       28.049686   0.000000   0.000000
     10         33.587954       33.759813   0.000000   0.000000
     11         41.862079       42.011029   0.000000   0.000000
     12         43.974047       44.375967   0.000000   0.000000
 
 -0.3125000E+00 -0.3125000E+00  0.6250000E-01  0.1171875E-01
      1          5.082440        5.761442   1.000000   1.000000
      2          6.016190        7.322900   1.000000   1.000000
      3          8.539040        9.722405   1.000000   1.000000
      4          8.896115       10.661719   1.000000   0.000000
      5          9.267406       11.088943   1.000000   0.000000
      6          9.708210       11.177204   1.000000   0.000000
      7         25.183797       25.535946   0.000000   0.000000
      8         25.890566       26.223151   0.000000   0.000000
      9         27.015043       27.252668   0.000000   0.000000
     10         30.973726       31.257701   0.000000   0.000000
     11         35.041461       35.473012   0.000000   0.000000
     12         47.130474       50.567679   0.000000   0.000000
 
 -0.1875000E+00 -0.3125000E+00  0.6250000E-01  0.2343750E-01
      1          4.870282        5.150388   1.000000   1.000000
      2          6.428962        7.767572   1.000000   1.000000
      3          7.560391        9.072567   1.000000   1.000000
      4          8.435546       10.131688   1.000000   0.864621
      5          8.897616       10.607453   1.000000   0.000000
      6          9.568770       11.286753   1.000000   0.000000
      7         24.882039       25.251529   0.000000   0.000000
      8         27.375643       27.649296   0.000000   0.000000
      9         29.428857       29.696287   0.000000   0.000000
     10         33.507115       33.685108   0.000000   0.000000
     11         38.016572       38.436968   0.000000   0.000000
     12         45.001388       45.120144   0.000000   0.000000
 
 -0.1875000E+00 -0.1875000E+00  0.6250000E-01  0.1171875E-01
      1          3.604371        3.663533   1.000000   1.000000
      2          6.699749        8.114792   1.000000   1.000000
      3          7.839436        9.497527   1.000000   1.000000
      4          8.173227        9.807018   1.000000   1.000000
      5          8.378880       10.025518   1.000000   0.999980
      6          8.888804       10.806282   1.000000   0.000000
      7         28.587196       28.865688   0.000000   0.000000
      8         30.612792       30.922598   0.000000   0.000000
      9         31.312896       31.343719   0.000000   0.000000
     10         32.816768       32.962598   0.000000   0.000000
     11         37.755088       38.363450   0.000000   0.000000
     12         45.761023       45.731188   0.000000   0.000000
 
  0.1875000E+00  0.1875000E+00  0.1875000E+00  0.3906250E-02
      1          2.569018        2.580594   1.000000   1.000000
      2          7.220514        8.668178   1.000000   1.000000
      3          7.698170        9.305608   1.000000   1.000000
      4          7.698170        9.305608   1.000000   1.000000
      5          8.542828       10.401523   1.000000   0.000000
      6          8.542828       10.401523   1.000000   0.000000
      7         27.799184       28.084103   0.000000   0.000000
      8         33.874784       33.634544   0.000000   0.000000
      9         36.027463       36.319031   0.000000   0.000000
     10         36.027463       36.319031   0.000000   0.000000
     11         41.451059       41.344819   0.000000   0.000000
     12         41.903793       41.997342   0.000000   0.000000
 
  0.3125000E+00  0.1875000E+00  0.1875000E+00  0.1171875E-01
      1          3.619642        3.669752   1.000000   1.000000
      2          6.979095        8.377452   1.000000   1.000000
      3          7.645223        9.252125   1.000000   1.000000
      4          7.926764        9.580395   1.000000   1.000000
      5          8.261972       10.054975   1.000000   0.999464
      6          9.125701       10.948353   1.000000   0.000000
      7         26.130364       26.485241   0.000000   0.000000
      8         28.812085       29.047039   0.000000   0.000000
      9         36.391064       36.337311   0.000000   0.000000
     10         38.334650       38.280046   0.000000   0.000000
     11         38.458988       38.629515   0.000000   0.000000
     12         40.376941       40.733833   0.000000   0.000000
 
  0.4375000E+00  0.1875000E+00  0.1875000E+00  0.1171875E-01
      1          5.197094        5.466902   1.000000   1.000000
      2          6.870582        8.157975   1.000000   1.000000
      3          7.282316        8.831771   1.000000   1.000000
      4          7.983227        9.735581   1.000000   1.000000
      5          8.506867       10.221029   1.000000   0.076990
      6         10.260495       11.898839   0.005513   0.000000
      7         22.665188       23.139593   0.000000   0.000000
      8         25.500438       25.839359   0.000000   0.000000
      9         34.440843       34.425301   0.000000   0.000000
     10         34.968700       35.291064   0.000000   0.000000
     11         40.278620       40.208619   0.000000   0.000000
     12         41.998672       42.219906   0.000000   0.000000
 
 -0.4375000E+00  0.1875000E+00  0.1875000E+00  0.1171875E-01
      1          5.738850        6.637807   1.000000   1.000000
      2          6.894499        8.211516   1.000000   1.000000
      3          7.535073        8.717858   1.000000   1.000000
      4          7.869810        9.586520   1.000000   1.000000
      5          9.130740       10.936362   1.000000   0.000000
      6         12.261646       13.330765   0.000000   0.000000
      7         17.668589       18.403664   0.000000   0.000000
      8         25.743755       26.066984   0.000000   0.000000
      9         31.900672       32.221357   0.000000   0.000000
     10         32.816639       32.858685   0.000000   0.000000