PROCAR lm decomposed
# of k-points:   60         # of bands:   12         # of ions:    1

 k-point     1 :    0.06250000 0.06250000 0.06250000     weight = 0.00390625

band     1 # energy    1.40507198 # occ.  1.00000000
 
ion      s     py     pz     px    dxy    dyz    dz2    dxz  x2-y2    tot
    1  0.705  0.003  0.003  0.003  0.000  0.000  0.000  0.000  0.000  0.715
 
band     2 # energy    7.45597836 # occ.  1.00000000
 
ion      s     py     pz     px    dxy    dyz    dz2    dxz  x2-y2    tot
    1  0.000  0.000  0.000  0.000  0.323  0.323  0.000  0.323  0.000  0.969
 
band     3 # energy    7.53548409 # occ.  1.00000000
 
ion      s     py     pz     px    dxy    dyz    dz2    dxz  x2-y2    tot
    1  0.000  0.000  0.000  0.000  0.607  0.049  0.001  0.313  0.000  0.971
 
band     4 # energy    7.53548409 # occ.  1.00000000
 
ion      s     py     pz     px    dxy    dyz    dz2    dxz  x2-y2    tot
    1  0.000  0.000  0.000  0.000  0.039  0.597  0.000  0.333  0.001  0.971
 
band     5 # energy    8.53915618 # occ.  1.00000000
 
ion      s     py     pz     px    dxy    dyz    dz2    dxz  x2-y2    tot
    1  0.000  0.000  0.000  0.000  0.000  0.001  0.003  0.001  0.980  0.984
 
band     6 # energy    8.53915618 # occ.  1.00000000
 
ion      s     py     pz     px    dxy    dyz    dz2    dxz  x2-y2    tot
    1  0.000  0.000  0.000  0.000  0.001  0.000  0.980  0.000  0.003  0.984
 
band     7 # energy   32.77328374 # occ.  0.00000000
 
ion      s     py     pz     px    dxy    dyz    dz2    dxz  x2-y2    tot
    1  0.001  0.007  0.007  0.007  0.049  0.049  0.000  0.049  0.000  0.167
 
band     8 # energy   35.65121667 # occ.  0.00000000
 
ion      s     py     pz     px    dxy    dyz    dz2    dxz  x2-y2    tot
    1  0.020  0.086  0.086  0.086  0.039  0.039  0.000  0.039  0.000  0.396
 
band     9 # energy   37.11882494 # occ.  0.00000000
 
ion      s     py     pz     px    dxy    dyz    dz2    dxz  x2-y2    tot
    1  0.000  0.091  0.041  0.167  0.020  0.082  0.003  0.044  0.013  0.461
 
band    10 # energy   37.11882494 # occ.  0.00000000
 
ion      s     py     pz     px    dxy    dyz    dz2    dxz  x2-y2    tot
    1  0.000  0.109  0.158  0.032  0.077  0.016  0.013  0.053  0.003  0.461
 
band    11 # energy   40.98070559 # occ.  0.00000000
 
ion      s     py     pz     px    dxy    dyz    dz2    dxz  x2-y2    tot
    1  0.000  0.002  0.001  0.005  0.143  0.661  0.001  0.324  0.005  1.142
 
band    12 # energy   40.98071050 # occ.  0.00000000
 
ion      s     py     pz     px    dxy    dyz    dz2    dxz  x2-y2    tot
    1  0.000  0.003  0.004  0.001  0.610  0.092  0.005  0.427  0.001  1.142
 

 k-point     2 :    0.18750000 0.06250000 0.06250000     weight = 0.01171875

band     1 # energy    2.19846954 # occ.  1.00000000
 
ion      s     py     pz     px    dxy    dyz    dz2    dxz  x2-y2    tot
    1  0.649  0.029  0.029  0.003  0.001  0.005  0.000  0.001  0.001  0.718
 
band     2 # energy    7.24745241 # occ.  1.00000000
 
ion      s     py     pz     px    dxy    dyz    dz2    dxz  x2-y2    tot
    1  0.001  0.001  0.001  0.006  0.458  0.034  0.000  0.458  0.000  0.959
 
band     3 # energy    7.69073990 # occ.  1.00000000
 
ion      s     py     pz     px    dxy    dyz    dz2    dxz  x2-y2    tot
    1  0.000  0.002  0.002  0.000  0.016  0.843  0.022  0.016  0.067  0.970
 
band     4 # energy    7.69583812 # occ.  1.00000000
 
ion      s     py     pz     px    dxy    dyz    dz2    dxz  x2-y2    tot
    1  0.000  0.000  0.000  0.000  0.475  0.000  0.017  0.475  0.006  0.972
 
band     5 # energy    8.38746608 # occ.  1.00000000
 
ion      s     py     pz     px    dxy    dyz    dz2    dxz  x2-y2    tot
    1  0.000  0.000  0.000  0.000  0.011  0.000  0.717  0.011  0.239  0.979
 
band     6 # energy    8.62757774 # occ.  1.00000000
 
ion      s     py     pz     px    dxy    dyz    dz2    dxz  x2-y2    tot
    1  0.001  0.000  0.000  0.000  0.002  0.085  0.223  0.002  0.670  0.983
 
band     7 # energy   29.91576326 # occ.  0.00000000
 
ion      s     py     pz     px    dxy    dyz    dz2    dxz  x2-y2    tot
    1  0.026  0.046  0.046  0.117  0.171  0.082  0.001  0.171  0.002  0.662
 
band     8 # energy   32.54522018 # occ.  0.00000000
 
ion      s     py     pz     px    dxy    dyz    dz2    dxz  x2-y2    tot
    1  0.039  0.079  0.079  0.032  0.059  0.133  0.006  0.059  0.018  0.503
 
band     9 # energy   36.04711046 # occ.  0.00000000
 
ion      s     py     pz     px    dxy    dyz    dz2    dxz  x2-y2    tot
    1  0.001  0.006  0.006  0.221  0.011  0.066  0.001  0.011  0.003  0.326
 
band    10 # energy   38.13171873 # occ.  0.00000000
 
ion      s     py     pz     px    dxy    dyz    dz2    dxz  x2-y2    tot
    1  0.000  0.107  0.107  0.000  0.094  0.000  0.120  0.094  0.040  0.564
 
band    11 # energy   39.89884510 # occ.  0.00000000
 
ion      s     py     pz     px    dxy    dyz    dz2    dxz  x2-y2    tot
    1  0.000  0.060  0.060  0.011  0.000  0.271  0.013  0.000  0.038  0.453
 
band    12 # energy   41.11354568 # occ.  0.00000000
 
ion      s     py     pz     px    dxy    dyz    dz2    dxz  x2-y2    tot
    1  0.000  0.002  0.002  0.000  0.455  0.000  0.086  0.455  0.029  1.030
 

 k-point     3 :    0.31250000 0.06250000 0.06250000     weight = 0.01171875

band     1 # energy    3.86684224 # occ.  1.00000000
 
ion      s     py     pz     px    dxy    dyz    dz2    dxz  x2-y2    tot
    1  0.493  0.058  0.058  0.017  0.031  0.055  0.001  0.031  0.003  0.745
 
band     2 # energy    7.13931953 # occ.  1.00000000
 
ion      s     py     pz     px    dxy    dyz    dz2    dxz  x2-y2    tot
    1  0.022  0.022  0.022  0.031  0.381  0.058  0.001  0.381  0.002  0.919
 
band     3 # energy    7.63625768 # occ.  1.00000000
 
ion      s     py     pz     px    dxy    dyz    dz2    dxz  x2-y2    tot
    1  0.000  0.003  0.003  0.000  0.033  0.474  0.104  0.033  0.313  0.965
 
band     4 # energy    7.70887648 # occ.  1.00000000
 
ion      s     py     pz     px    dxy    dyz    dz2    dxz  x2-y2    tot
    1  0.000  0.000  0.000  0.000  0.268  0.000  0.325  0.268  0.108  0.969
 
band     5 # energy    8.59843229 # occ.  1.00000000
 
ion      s     py     pz     px    dxy    dyz    dz2    dxz  x2-y2    tot
    1  0.000  0.001  0.001  0.000  0.219  0.000  0.404  0.219  0.135  0.978
 
band     6 # energy    9.02448267 # occ.  1.00000000
 
ion      s     py     pz     px    dxy    dyz    dz2    dxz  x2-y2    tot
    1  0.009  0.005  0.005  0.000  0.017  0.373  0.138  0.017  0.415  0.980
 
band     7 # energy   23.84446786 # occ.  0.00000000
 
ion      s     py     pz     px    dxy    dyz    dz2    dxz  x2-y2    tot
    1  0.122  0.078  0.078  0.133  0.134  0.105  0.001  0.134  0.003  0.787
 
band     8 # energy   31.46019581 # occ.  0.00000000
 
ion      s     py     pz     px    dxy    dyz    dz2    dxz  x2-y2    tot
    1  0.027  0.030  0.030  0.116  0.100  0.062  0.016  0.100  0.048  0.530
 
band     9 # energy   34.99768979 # occ.  0.00000000
 
ion      s     py     pz     px    dxy    dyz    dz2    dxz  x2-y2    tot
    1  0.000  0.065  0.065  0.128  0.003  0.126  0.001  0.003  0.002  0.391
 
band    10 # energy   37.66655856 # occ.  0.00000000
 
ion      s     py     pz     px    dxy    dyz    dz2    dxz  x2-y2    tot
    1  0.000  0.153  0.153  0.000  0.231  0.000  0.074  0.231  0.025  0.867
 
band    11 # energy   38.85830077 # occ.  0.00000000
 
ion      s     py     pz     px    dxy    dyz    dz2    dxz  x2-y2    tot
    1  0.000  0.090  0.090  0.000  0.000  0.000  0.471  0.000  0.157  0.807
 
band    12 # energy   39.87472197 # occ.  0.00000000
 
ion      s     py     pz     px    dxy    dyz    dz2    dxz  x2-y2    tot
    1  0.062  0.055  0.055  0.011  0.010  0.019  0.065  0.010  0.195  0.484
 

 k-point     4 :    0.43750000 0.06250000 0.06250000     weight = 0.01171875

band     1 # energy    5.00109193 # occ.  1.00000000
 
ion      s     py     pz     px    dxy    dyz    dz2    dxz  x2-y2    tot
    1  0.226  0.020  0.020  0.002  0.189  0.209  0.000  0.189  0.001  0.858
 
band     2 # energy    7.40992213 # occ.  1.00000000
 
ion      s     py     pz     px    dxy    dyz    dz2    dxz  x2-y2    tot
    1  0.000  0.002  0.002  0.000  0.046  0.285  0.145  0.046  0.434  0.959
 
band     3 # energy    7.50641530 # occ.  1.00000000
 
ion      s     py     pz     px    dxy    dyz    dz2    dxz  x2-y2    tot
    1  0.000  0.000  0.000  0.000  0.185  0.000  0.447  0.185  0.149  0.965
 
band     4 # energy    8.19199691 # occ.  1.00000000
 
ion      s     py     pz     px    dxy    dyz    dz2    dxz  x2-y2    tot
    1  0.058  0.095  0.095  0.095  0.190  0.025  0.021  0.190  0.062  0.829
 
band     5 # energy    9.14300552 # occ.  1.00000000
 
ion      s     py     pz     px    dxy    dyz    dz2    dxz  x2-y2    tot
    1  0.000  0.000  0.000  0.000  0.305  0.000  0.281  0.305  0.094  0.986
 
band     6 # energy    9.80882081 # occ.  1.00000000
 
ion      s     py     pz     px    dxy    dyz    dz2    dxz  x2-y2    tot
    1  0.043  0.049  0.049  0.030  0.009  0.426  0.077  0.009  0.232  0.924
 
band     7 # energy   18.51392430 # occ.  0.00000000
 
ion      s     py     pz     px    dxy    dyz    dz2    dxz  x2-y2    tot
    1  0.287  0.046  0.046  0.096  0.132  0.105  0.001  0.132  0.002  0.847
 
band     8 # energy   30.98777078 # occ.  0.00000000
 
ion      s     py     pz     px    dxy    dyz    dz2    dxz  x2-y2    tot
    1  0.013  0.006  0.006  0.120  0.054  0.036  0.026  0.054  0.077  0.393
 
band     9 # energy   33.74886467 # occ.  0.00000000
 
ion      s     py     pz     px    dxy    dyz    dz2    dxz  x2-y2    tot
    1  0.014  0.102  0.102  0.180  0.013  0.025  0.002  0.013  0.007  0.458
 
band    10 # energy   35.52258825 # occ.  0.00000000
 
ion      s     py     pz     px    dxy    dyz    dz2    dxz  x2-y2    tot
    1  0.000  0.260  0.260  0.000  0.001  0.000  0.130  0.001  0.043  0.695
 
band    11 # energy   38.01502566 # occ.  0.00000000
 
ion      s     py     pz     px    dxy    dyz    dz2    dxz  x2-y2    tot
    1  0.000  0.027  0.027  0.000  0.202  0.000  0.420  0.202  0.140  1.019
 
band    12 # energy   39.58745529 # occ.  0.00000000
 
ion      s     py     pz     px    dxy    dyz    dz2    dxz  x2-y2    tot
    1  0.053  0.015  0.015  0.013  0.000  0.216  0.133  0.000  0.398  0.844
 

 k-point     5 :   -0.43750000 0.06250000 0.06250000     weight = 0.01171875

band     1 # energy    5.12653427 # occ.  1.00000000
 
ion      s     py     pz     px    dxy    dyz    dz2    dxz  x2-y2    tot
    1  0.160  0.000  0.000  0.007  0.234  0.254  0.000  0.234  0.000  0.890
 
band     2 # energy    7.31569059 # occ.  1.00000000
 
ion      s     py     pz     px    dxy    dyz    dz2    dxz  x2-y2    tot
    1  0.000  0.002  0.002  0.000  0.063  0.198  0.157  0.063  0.472  0.957
 
band     3 # energy    7.45418491 # occ.  1.00000000
 
ion      s     py     pz     px    dxy    dyz    dz2    dxz  x2-y2    tot
    1  0.000  0.000  0.000  0.000  0.182  0.000  0.449  0.182  0.150  0.964
 
band     4 # energy    8.75375616 # occ.  1.00000000
 
ion      s     py     pz     px    dxy    dyz    dz2    dxz  x2-y2    tot
    1  0.002  0.070  0.070  0.068  0.064  0.360  0.047  0.064  0.141  0.886
 
band     5 # energy    9.41951668 # occ.  1.00000000
 
ion      s     py     pz     px    dxy    dyz    dz2    dxz  x2-y2    tot
    1  0.000  0.000  0.000  0.000  0.309  0.000  0.280  0.309  0.093  0.991
 
band     6 # energy   10.61267412 # occ.  0.00000000
 
ion      s     py     pz     px    dxy    dyz    dz2    dxz  x2-y2    tot
    1  0.007  0.142  0.142  0.159  0.052  0.081  0.039  0.052  0.116  0.790
 
band     7 # energy   16.35908388 # occ.  0.00000000
 
ion      s     py     pz     px    dxy    dyz    dz2    dxz  x2-y2    tot
    1  0.434  0.011  0.011  0.000  0.142  0.156  0.000  0.142  0.000  0.897
 
band     8 # energy   31.11669671 # occ.  0.00000000
 
ion      s     py     pz     px    dxy    dyz    dz2    dxz  x2-y2    tot
    1  0.001  0.001  0.001  0.051  0.010  0.040  0.028  0.010  0.083  0.223
 
band     9 # energy   33.68292055 # occ.  0.00000000
 
ion      s     py     pz     px    dxy    dyz    dz2    dxz  x2-y2    tot
    1  0.000  0.251  0.251  0.000  0.035  0.000  0.110  0.035  0.037  0.719
 
band    10 # energy   33.85741779 # occ.  0.00000000
 
ion      s     py     pz     px    dxy    dyz    dz2    dxz  x2-y2    tot
    1  0.037  0.091  0.091  0.306  0.013  0.005  0.013  0.013  0.039  0.608
 
band    11 # energy   38.83241390 # occ.  0.00000000
 
ion      s     py     pz     px    dxy    dyz    dz2    dxz  x2-y2    tot
    1  0.000  0.051  0.051  0.000  0.142  0.000  0.429  0.142  0.143  0.958
 
band    12 # energy   38.87323427 # occ.  0.00000000
 
ion      s     py     pz     px    dxy    dyz    dz2    dxz  x2-y2    tot
    1  0.012  0.003  0.003  0.028  0.027  0.266  0.141  0.027  0.423  0.929
 

 k-point     6 :   -0.31250000 0.06250000 0.06250000     weight = 0.01171875

band     1 # energy    4.78529488 # occ.  1.00000000
 
ion      s     py     pz     px    dxy    dyz    dz2    dxz  x2-y2    tot
    1  0.304  0.015  0.015  0.051  0.143  0.142  0.002  0.143  0.005  0.821
 
band     2 # energy    7.44691850 # occ.  1.00000000
 
ion      s     py     pz     px    dxy    dyz    dz2    dxz  x2-y2    tot
    1  0.001  0.006  0.006  0.004  0.114  0.089  0.154  0.114  0.463  0.953
 
band     3 # energy    7.59416738 # occ.  1.00000000
 
ion      s     py     pz     px    dxy    dyz    dz2    dxz  x2-y2    tot
    1  0.000  0.001  0.001  0.000  0.224  0.000  0.387  0.224  0.129  0.966
 
band     4 # energy    7.66888968 # occ.  1.00000000
 
ion      s     py     pz     px    dxy    dyz    dz2    dxz  x2-y2    tot
    1  0.065  0.068  0.068  0.070  0.012  0.559  0.001  0.012  0.003  0.858
 
band     5 # energy    9.21683348 # occ.  1.00000000
 
ion      s     py     pz     px    dxy    dyz    dz2    dxz  x2-y2    tot
    1  0.000  0.001  0.001  0.000  0.264  0.000  0.345  0.264  0.115  0.988
 
band     6 # energy    9.27958569 # occ.  1.00000000
 
ion      s     py     pz     px    dxy    dyz    dz2    dxz  x2-y2    tot
    1  0.031  0.015  0.015  0.033  0.189  0.140  0.085  0.189  0.255  0.951
 
band     7 # energy   20.12953615 # occ.  0.00000000
 
ion      s     py     pz     px    dxy    dyz    dz2    dxz  x2-y2    tot
    1  0.221  0.098  0.098  0.050  0.109  0.138  0.001  0.109  0.002  0.826
 
band     8 # energy   31.83807961 # occ.  0.00000000
 
ion      s     py     pz     px    dxy    dyz    dz2    dxz  x2-y2    tot
    1  0.006  0.006  0.006  0.003  0.000  0.100  0.022  0.000  0.066  0.210
 
band     9 # energy   33.15111689 # occ.  0.00000000
 
ion      s     py     pz     px    dxy    dyz    dz2    dxz  x2-y2    tot
    1  0.000  0.227  0.227  0.000  0.117  0.000  0.073  0.117  0.024  0.787
 
band    10 # energy   35.54246921 # occ.  0.00000000
 
ion      s     py     pz     px    dxy    dyz    dz2    dxz  x2-y2    tot
    1  0.047  0.045  0.045  0.387  0.000  0.083  0.026  0.000  0.079  0.713
 
band    11 # energy   38.70347184 # occ.  0.00000000
 
ion      s     py     pz     px    dxy    dyz    dz2    dxz  x2-y2    tot
    1  0.000  0.003  0.003  0.016  0.066  0.172  0.133  0.066  0.398  0.857
 
band    12 # energy   40.54535784 # occ.  0.00000000
 
ion      s     py     pz     px    dxy    dyz    dz2    dxz  x2-y2    tot
    1  0.000  0.061  0.061  0.000  0.044  0.000  0.444  0.044  0.148  0.804
 

 k-point     7 :   -0.18750000 0.06250000 0.06250000     weight = 0.01171875

band     1 # energy    3.26717680 # occ.  1.00000000
 
ion      s     py     pz     px    dxy    dyz    dz2    dxz  x2-y2    tot
    1  0.560  0.023  0.023  0.070  0.018  0.010  0.001  0.018  0.004  0.728
 
band     2 # energy    7.09202764 # occ.  1.00000000
 
ion      s     py     pz     px    dxy    dyz    dz2    dxz  x2-y2    tot
    1  0.008  0.013  0.013  0.009  0.135  0.624  0.000  0.135  0.001  0.940
 
band     3 # energy    7.69895549 # occ.  1.00000000
 
ion      s     py     pz     px    dxy    dyz    dz2    dxz  x2-y2    tot
    1  0.000  0.001  0.001  0.001  0.196  0.212  0.090  0.196  0.271  0.967
 
band     4 # energy    7.75646653 # occ.  1.00000000
 
ion      s     py     pz     px    dxy    dyz    dz2    dxz  x2-y2    tot
    1  0.000  0.002  0.002  0.000  0.355  0.000  0.193  0.355  0.064  0.970
 
band     5 # energy    8.52887371 # occ.  1.00000000
 
ion      s     py     pz     px    dxy    dyz    dz2    dxz  x2-y2    tot
    1  0.006  0.001  0.001  0.005  0.125  0.106  0.151  0.125  0.454  0.974
 
band     6 # energy    8.78377062 # occ.  1.00000000
 
ion      s     py     pz     px    dxy    dyz    dz2    dxz  x2-y2    tot
    1  0.000  0.001  0.001  0.000  0.130  0.000  0.542  0.130  0.181  0.983
 
band     7 # energy   25.84478831 # occ.  0.00000000
 
ion      s     py     pz     px    dxy    dyz    dz2    dxz  x2-y2    tot
    1  0.085  0.111  0.111  0.061  0.119  0.152  0.001  0.119  0.003  0.763
 
band     8 # energy   32.89594712 # occ.  0.00000000
 
ion      s     py     pz     px    dxy    dyz    dz2    dxz  x2-y2    tot
    1  0.026  0.001  0.001  0.014  0.001  0.174  0.014  0.001  0.041  0.271
 
band     9 # energy   33.70050599 # occ.  0.00000000
 
ion      s     py     pz     px    dxy    dyz    dz2    dxz  x2-y2    tot
    1  0.000  0.195  0.195  0.000  0.184  0.000  0.038  0.184  0.013  0.809
 
band    10 # energy   38.19640001 # occ.  0.00000000
 
ion      s     py     pz     px    dxy    dyz    dz2    dxz  x2-y2    tot
    1  0.031  0.000  0.000  0.279  0.023  0.139  0.050  0.023  0.151  0.697
 
band    11 # energy   38.51506938 # occ.  0.00000000
 
ion      s     py     pz     px    dxy    dyz    dz2    dxz  x2-y2    tot
    1  0.000  0.047  0.047  0.068  0.046  0.096  0.055  0.046  0.166  0.571
 
band    12 # energy   42.80369921 # occ.  0.00000000
 
ion      s     py     pz     px    dxy    dyz    dz2    dxz  x2-y2    tot
    1  0.000  0.033  0.041  0.000  0.011  0.000  0.358  0.012  0.109  0.564
 

 k-point     8 :   -0.06250000 0.06250000 0.06250000     weight = 0.01171875

band     1 # energy    1.80836071 # occ.  1.00000000
 
ion      s     py     pz     px    dxy    dyz    dz2    dxz  x2-y2    tot
    1  0.677  0.003  0.003  0.030  0.001  0.000  0.000  0.001  0.001  0.716
 
band     2 # energy    7.31578017 # occ.  1.00000000
 
ion      s     py     pz     px    dxy    dyz    dz2    dxz  x2-y2    tot
    1  0.000  0.001  0.001  0.000  0.058  0.847  0.000  0.058  0.000  0.964
 
band     3 # energy    7.64337716 # occ.  1.00000000
 
ion      s     py     pz     px    dxy    dyz    dz2    dxz  x2-y2    tot
    1  0.000  0.001  0.001  0.001  0.421  0.117  0.002  0.421  0.007  0.971
 
band     4 # energy    7.64749020 # occ.  1.00000000
 
ion      s     py     pz     px    dxy    dyz    dz2    dxz  x2-y2    tot
    1  0.000  0.001  0.001  0.000  0.478  0.000  0.009  0.478  0.003  0.971
 
band     5 # energy    8.40661006 # occ.  1.00000000
 
ion      s     py     pz     px    dxy    dyz    dz2    dxz  x2-y2    tot
    1  0.001  0.000  0.000  0.000  0.004  0.001  0.242  0.004  0.727  0.980
 
band     6 # energy    8.60466453 # occ.  1.00000000
 
ion      s     py     pz     px    dxy    dyz    dz2    dxz  x2-y2    tot
    1  0.000  0.000  0.000  0.000  0.006  0.000  0.730  0.006  0.243  0.985
 
band     7 # energy   31.71681030 # occ.  0.00000000
 
ion      s     py     pz     px    dxy    dyz    dz2    dxz  x2-y2    tot
    1  0.007  0.047  0.047  0.014  0.075  0.219  0.000  0.075  0.001  0.484
 
band     8 # energy   34.12339843 # occ.  0.00000000
 
ion      s     py     pz     px    dxy    dyz    dz2    dxz  x2-y2    tot
    1  0.033  0.046  0.046  0.071  0.042  0.037  0.005  0.042  0.016  0.340
 
band     9 # energy   35.09427860 # occ.  0.00000000
 
ion      s     py     pz     px    dxy    dyz    dz2    dxz  x2-y2    tot
    1  0.000  0.168  0.168  0.000  0.184  0.000  0.007  0.184  0.002  0.714
 
band    10 # energy   36.98342119 # occ.  0.00000000
 
ion      s     py     pz     px    dxy    dyz    dz2    dxz  x2-y2    tot
    1  0.009  0.079  0.079  0.057  0.029  0.003  0.023  0.029  0.070  0.379
 
band    11 # energy   40.92351894 # occ.  0.00000000
 
ion      s     py     pz     px    dxy    dyz    dz2    dxz  x2-y2    tot
    1  0.000  0.001  0.001  0.067  0.227  0.421  0.001  0.227  0.003  0.949
 
band    12 # energy   42.77872293 # occ.  0.00000000
 
ion      s     py     pz     px    dxy    dyz    dz2    dxz  x2-y2    tot
    1  0.000  0.001  0.002  0.012  0.332  0.074  0.021  0.237  0.007  0.684
 

 k-point     9 :    0.18750000 0.18750000 0.06250000     weight = 0.01171875

band     1 # energy    2.57766840 # occ.  1.00000000
 
ion      s     py     pz     px    dxy    dyz    dz2    dxz  x2-y2    tot
    1  0.619  0.003  0.080  0.003  0.000  0.001  0.011  0.001  0.000  0.719
 
band     2 # energy    7.04475707 # occ.  1.00000000
 
ion      s     py     pz     px    dxy    dyz    dz2    dxz  x2-y2    tot
    1  0.000  0.001  0.000  0.001  0.917  0.019  0.000  0.019  0.000  0.957
 
band     3 # energy    7.83514484 # occ.  1.00000000
 
ion      s     py     pz     px    dxy    dyz    dz2    dxz  x2-y2    tot
    1  0.000  0.002  0.000  0.002  0.035  0.395  0.140  0.395  0.000  0.970
 
band     4 # energy    7.86539880 # occ.  1.00000000
 
ion      s     py     pz     px    dxy    dyz    dz2    dxz  x2-y2    tot
    1  0.000  0.003  0.000  0.003  0.000  0.465  0.000  0.465  0.035  0.971
 
band     5 # energy    8.22676655 # occ.  1.00000000
 
ion      s     py     pz     px    dxy    dyz    dz2    dxz  x2-y2    tot
    1  0.007  0.000  0.004  0.000  0.005  0.066  0.821  0.066  0.000  0.971
 
band     6 # energy    8.72641996 # occ.  1.00000000
 
ion      s     py     pz     px    dxy    dyz    dz2    dxz  x2-y2    tot
    1  0.000  0.000  0.000  0.000  0.000  0.018  0.000  0.018  0.950  0.985
 
band     7 # energy   30.21946297 # occ.  0.00000000
 
ion      s     py     pz     px    dxy    dyz    dz2    dxz  x2-y2    tot
    1  0.019  0.100  0.015  0.100  0.240  0.098  0.010  0.098  0.000  0.680
 
band     8 # energy   32.71808614 # occ.  0.00000000
 
ion      s     py     pz     px    dxy    dyz    dz2    dxz  x2-y2    tot
    1  0.031  0.019  0.021  0.019  0.214  0.018  0.081  0.018  0.000  0.420
 
band     9 # energy   32.80828176 # occ.  0.00000000
 
ion      s     py     pz     px    dxy    dyz    dz2    dxz  x2-y2    tot
    1  0.000  0.201  0.000  0.201  0.000  0.183  0.000  0.183  0.007  0.773
 
band    10 # energy   35.06768549 # occ.  0.00000000
 
ion      s     py     pz     px    dxy    dyz    dz2    dxz  x2-y2    tot
    1  0.004  0.071  0.000  0.071  0.042  0.052  0.198  0.052  0.000  0.492
 
band    11 # energy   40.49353393 # occ.  0.00000000
 
ion      s     py     pz     px    dxy    dyz    dz2    dxz  x2-y2    tot
    1  0.190  0.017  0.569  0.017  0.005  0.000  0.138  0.000  0.000  0.936
 
band    12 # energy   43.27053476 # occ.  0.00000000
 
ion      s     py     pz     px    dxy    dyz    dz2    dxz  x2-y2    tot
    1  0.031  0.000  0.003  0.000  0.372  0.146  0.071  0.146  0.000  0.768
 

 k-point    10 :    0.31250000 0.18750000 0.06250000     weight = 0.02343750

band     1 # energy    3.92367194 # occ.  1.00000000
 
ion      s     py     pz     px    dxy    dyz    dz2    dxz  x2-y2    tot
    1  0.492  0.023  0.129  0.002  0.002  0.029  0.051  0.004  0.000  0.733
 
band     2 # energy    6.74890102 # occ.  1.00000000
 
ion      s     py     pz     px    dxy    dyz    dz2    dxz  x2-y2    tot
    1  0.001  0.002  0.001  0.011  0.845  0.006  0.003  0.075  0.000  0.945
 
band     3 # energy    7.62217720 # occ.  1.00000000
 
ion      s     py     pz     px    dxy    dyz    dz2    dxz  x2-y2    tot
    1  0.006  0.004  0.002  0.000  0.017  0.344  0.535  0.015  0.036  0.959
 
band     4 # energy    8.11884801 # occ.  1.00000000
 
ion      s     py     pz     px    dxy    dyz    dz2    dxz  x2-y2    tot
    1  0.002  0.002  0.002  0.004  0.043  0.122  0.050  0.560  0.186  0.971
 
band     5 # energy    8.49268299 # occ.  1.00000000
 
ion      s     py     pz     px    dxy    dyz    dz2    dxz  x2-y2    tot
    1  0.015  0.003  0.013  0.003  0.036  0.116  0.255  0.300  0.226  0.967
 
band     6 # energy    9.10164504 # occ.  1.00000000
 
ion      s     py     pz     px    dxy    dyz    dz2    dxz  x2-y2    tot
    1  0.013  0.005  0.008  0.000  0.001  0.347  0.069  0.003  0.533  0.980
 
band     7 # energy   26.39151286 # occ.  0.00000000
 
ion      s     py     pz     px    dxy    dyz    dz2    dxz  x2-y2    tot
    1  0.056  0.103  0.021  0.190  0.182  0.077  0.018  0.119  0.003  0.768
 
band     8 # energy   28.98741378 # occ.  0.00000000
 
ion      s     py     pz     px    dxy    dyz    dz2    dxz  x2-y2    tot
    1  0.040  0.145  0.011  0.133  0.106  0.112  0.051  0.074  0.018  0.691
 
band     9 # energy   32.75082217 # occ.  0.00000000
 
ion      s     py     pz     px    dxy    dyz    dz2    dxz  x2-y2    tot
    1  0.011  0.064  0.096  0.026  0.027  0.028  0.325  0.017  0.005  0.598
 
band    10 # energy   34.72729509 # occ.  0.00000000
 
ion      s     py     pz     px    dxy    dyz    dz2    dxz  x2-y2    tot
    1  0.029  0.002  0.076  0.102  0.312  0.001  0.055  0.060  0.001  0.637
 
band    11 # energy   39.39558065 # occ.  0.00000000
 
ion      s     py     pz     px    dxy    dyz    dz2    dxz  x2-y2    tot
    1  0.178  0.183  0.320  0.025  0.015  0.050  0.004  0.005  0.000  0.780
 
band    12 # energy   43.05660384 # occ.  0.00000000
 
ion      s     py     pz     px    dxy    dyz    dz2    dxz  x2-y2    tot
    1  0.035  0.022  0.021  0.002  0.059  0.008  0.181  0.029  0.155  0.511
 

 k-point    11 :    0.43750000 0.18750000 0.06250000     weight = 0.02343750

band     1 # energy    5.29105995 # occ.  1.00000000
 
ion      s     py     pz     px    dxy    dyz    dz2    dxz  x2-y2    tot
    1  0.239  0.019  0.091  0.001  0.157  0.143  0.090  0.085  0.001  0.826
 
band     2 # energy    6.86834579 # occ.  1.00000000
 
ion      s     py     pz     px    dxy    dyz    dz2    dxz  x2-y2    tot
    1  0.014  0.037  0.023  0.038  0.356  0.024  0.331  0.062  0.011  0.897
 
band     3 # energy    7.32139339 # occ.  1.00000000
 
ion      s     py     pz     px    dxy    dyz    dz2    dxz  x2-y2    tot
    1  0.025  0.001  0.021  0.007  0.315  0.274  0.254  0.006  0.042  0.945
 
band     4 # energy    7.96382929 # occ.  1.00000000
 
ion      s     py     pz     px    dxy    dyz    dz2    dxz  x2-y2    tot
    1  0.002  0.004  0.005  0.001  0.039  0.076  0.051  0.295  0.494  0.966
 
band     5 # energy    9.18598422 # occ.  1.00000000
 
ion      s     py     pz     px    dxy    dyz    dz2    dxz  x2-y2    tot
    1  0.003  0.001  0.007  0.004  0.036  0.062  0.053  0.469  0.347  0.982
 
band     6 # energy   10.28715085 # occ.  0.00049066
 
ion      s     py     pz     px    dxy    dyz    dz2    dxz  x2-y2    tot
    1  0.087  0.032  0.084  0.016  0.016  0.389  0.179  0.034  0.082  0.918
 
band     7 # energy   20.63744724 # occ.  0.00000000
 
ion      s     py     pz     px    dxy    dyz    dz2    dxz  x2-y2    tot
    1  0.183  0.101  0.020  0.171  0.157  0.071  0.014  0.091  0.003  0.812
 
band     8 # energy   28.38914179 # occ.  0.00000000
 
ion      s     py     pz     px    dxy    dyz    dz2    dxz  x2-y2    tot
    1  0.017  0.104  0.001  0.169  0.098  0.066  0.115  0.040  0.057  0.668
 
band     9 # energy   30.34657881 # occ.  0.00000000
 
ion      s     py     pz     px    dxy    dyz    dz2    dxz  x2-y2    tot
    1  0.072  0.020  0.224  0.075  0.000  0.000  0.245  0.035  0.020  0.693
 
band    10 # energy   34.35945188 # occ.  0.00000000
 
ion      s     py     pz     px    dxy    dyz    dz2    dxz  x2-y2    tot
    1  0.062  0.142  0.105  0.026  0.231  0.019  0.004  0.014  0.006  0.609
 
band    11 # energy   41.02561205 # occ.  0.00000000
 
ion      s     py     pz     px    dxy    dyz    dz2    dxz  x2-y2    tot
    1  0.016  0.109  0.003  0.003  0.192  0.019  0.097  0.042  0.209  0.691
 
band    12 # energy   43.46248301 # occ.  0.00000000
 
ion      s     py     pz     px    dxy    dyz    dz2    dxz  x2-y2    tot
    1  0.162  0.106  0.101  0.053  0.003  0.000  0.233  0.007  0.002  0.668
 

 k-point    12 :   -0.43750000 0.18750000 0.06250000     weight = 0.02343750

band     1 # energy    5.59459775 # occ.  1.00000000
 
ion      s     py     pz     px    dxy    dyz    dz2    dxz  x2-y2    tot
    1  0.117  0.000  0.024  0.009  0.334  0.237  0.010  0.167  0.000  0.898
 
band     2 # energy    6.90151502 # occ.  1.00000000
 
ion      s     py     pz     px    dxy    dyz    dz2    dxz  x2-y2    tot
    1  0.000  0.027  0.003  0.012  0.030  0.076  0.683  0.011  0.075  0.917
 
band     3 # energy    7.75627011 # occ.  1.00000000
 
ion      s     py     pz     px    dxy    dyz    dz2    dxz  x2-y2    tot
    1  0.002  0.025  0.034  0.046  0.229  0.324  0.082  0.027  0.155  0.924
 
band     4 # energy    7.81862312 # occ.  1.00000000
 
ion      s     py     pz     px    dxy    dyz    dz2    dxz  x2-y2    tot
    1  0.001  0.019  0.032  0.007  0.201  0.008  0.012  0.231  0.433  0.944
 
band     5 # energy    9.38356885 # occ.  1.00000000
 
ion      s     py     pz     px    dxy    dyz    dz2    dxz  x2-y2    tot
    1  0.000  0.000  0.000  0.000  0.037  0.171  0.030  0.465  0.285  0.990
 
band     6 # energy   12.44496155 # occ.  0.00000000
 
ion      s     py     pz     px    dxy    dyz    dz2    dxz  x2-y2    tot
    1  0.013  0.127  0.182  0.127  0.057  0.109  0.156  0.016  0.020  0.807
 
band     7 # energy   16.55317095 # occ.  0.00000000
 
ion      s     py     pz     px    dxy    dyz    dz2    dxz  x2-y2    tot
    1  0.402  0.015  0.010  0.055  0.163  0.117  0.001  0.115  0.001  0.878
 
band     8 # energy   27.80731832 # occ.  0.00000000
 
ion      s     py     pz     px    dxy    dyz    dz2    dxz  x2-y2    tot