   2   2   1   0
  0.1216287E+02  0.2591967E-09  0.2591967E-09  0.4180965E-09  0.5000000E-15
  1.000000000000000E-004
  CAR 
 Co-hcc                                  
     52.56116171     -2.02350946  301      8.71004933      1.00000000
     -2.024  0.0000E+00  0.0000E+00  0.0000E+00  0.0000E+00
     -1.842  0.0000E+00  0.0000E+00  0.0000E+00  0.0000E+00
     -1.660  0.0000E+00  0.0000E+00  0.0000E+00  0.0000E+00
     -1.478  0.0000E+00  0.0000E+00  0.0000E+00  0.0000E+00
     -1.296  0.0000E+00  0.0000E+00  0.0000E+00  0.0000E+00
     -1.114  0.0000E+00  0.0000E+00  0.0000E+00  0.0000E+00
     -0.932  0.0000E+00  0.0000E+00  0.0000E+00  0.0000E+00
     -0.750  0.0000E+00  0.0000E+00  0.0000E+00  0.0000E+00
     -0.568  0.0000E+00  0.0000E+00  0.0000E+00  0.0000E+00
     -0.386  0.0000E+00  0.0000E+00  0.0000E+00  0.0000E+00
     -0.204  0.0000E+00  0.0000E+00  0.0000E+00  0.0000E+00
     -0.022  0.0000E+00  0.0000E+00  0.0000E+00  0.0000E+00
      0.160  0.0000E+00  0.0000E+00  0.0000E+00  0.0000E+00
      0.342  0.5164E-08  0.2521E-07  0.9396E-09  0.4587E-08
      0.524  0.4455E-04  0.4740E-04  0.8107E-05  0.8629E-05
      0.706  0.2745E-03  0.3128E-03  0.5806E-04  0.6554E-04
      0.888  0.6359E-03  0.6200E-03  0.1738E-03  0.1783E-03
      1.070  0.1320E-03  0.1257E-03  0.1978E-03  0.2012E-03
      1.252  0.7137E-03  0.8147E-03  0.3276E-03  0.3495E-03
      1.434  0.1074E-02  0.9723E-03  0.5229E-03  0.5264E-03
      1.615  0.5387E-03  0.5238E-03  0.6210E-03  0.6217E-03
      1.797  0.6489E-03  0.6428E-03  0.7390E-03  0.7386E-03
      1.979  0.1540E-02  0.1496E-02  0.1019E-02  0.1011E-02
      2.161  0.1303E-02  0.1334E-02  0.1256E-02  0.1254E-02
      2.343  0.6468E-03  0.4693E-03  0.1374E-02  0.1339E-02
      2.525  0.2368E-02  0.2229E-02  0.1805E-02  0.1745E-02
      2.707  0.3108E-03  0.5738E-03  0.1862E-02  0.1849E-02
      2.889  0.1223E-02  0.1088E-02  0.2084E-02  0.2047E-02
      3.071  0.2451E-02  0.1122E-02  0.2530E-02  0.2251E-02
      3.253  0.2068E-02  0.2978E-02  0.2906E-02  0.2793E-02
      3.435  0.2727E-02  0.1637E-02  0.3402E-02  0.3091E-02
      3.617  0.1366E-02  0.1691E-02  0.3651E-02  0.3399E-02
      3.799  0.3196E-02  0.1095E-02  0.4233E-02  0.3598E-02
      3.981  0.4125E-02  0.2255E-02  0.4983E-02  0.4008E-02
      4.163  0.8866E-02  0.2653E-02  0.6596E-02  0.4491E-02
      4.345  0.1071E-01  0.2403E-02  0.8545E-02  0.4928E-02
      4.527  0.1382E-01  0.3270E-02  0.1106E-01  0.5523E-02
      4.709  0.1433E-01  0.3583E-02  0.1367E-01  0.6175E-02
      4.891  0.2427E-01  0.4290E-02  0.1808E-01  0.6956E-02
      5.072  0.1790E-01  0.2996E-02  0.2134E-01  0.7501E-02
      5.254  0.2057E-01  0.7473E-02  0.2508E-01  0.8861E-02
      5.436  0.2213E-01  0.1005E-01  0.2911E-01  0.1069E-01
      5.618  0.2472E-01  0.7646E-02  0.3361E-01  0.1208E-01
      5.800  0.2166E-01  0.7474E-02  0.3755E-01  0.1344E-01
      5.982  0.1652E-01  0.1364E-01  0.4055E-01  0.1592E-01
      6.164  0.3580E-01  0.1310E-01  0.4707E-01  0.1831E-01
      6.346  0.3278E-01  0.1658E-01  0.5303E-01  0.2132E-01
      6.528  0.3652E-01  0.1407E-01  0.5968E-01  0.2388E-01
      6.710  0.3536E-01  0.1616E-01  0.6611E-01  0.2682E-01
      6.892  0.2762E-01  0.2122E-01  0.7114E-01  0.3069E-01
      7.074  0.2374E-01  0.2500E-01  0.7546E-01  0.3523E-01
      7.256  0.2087E-01  0.1168E-01  0.7925E-01  0.3736E-01
      7.438  0.2112E-01  0.1038E-01  0.8310E-01  0.3925E-01
      7.620  0.3245E-01  0.1920E-01  0.8900E-01  0.4274E-01
      7.802  0.4799E-01  0.2657E-01  0.9773E-01  0.4758E-01
      7.984  0.3615E-01  0.3090E-01  0.1043E+00  0.5320E-01
      8.166  0.1660E-02  0.3023E-01  0.1046E+00  0.5870E-01
      8.348  0.5529E-02  0.3440E-01  0.1056E+00  0.6496E-01
      8.530  0.5083E-02  0.2199E-01  0.1065E+00  0.6896E-01
      8.711  0.3834E-02  0.2107E-01  0.1072E+00  0.7279E-01
      8.893  0.1199E-02  0.1401E-01  0.1075E+00  0.7534E-01
      9.075  0.9928E-03  0.2097E-01  0.1076E+00  0.7916E-01
      9.257  0.1736E-02  0.1358E-01  0.1080E+00  0.8163E-01
      9.439  0.4509E-02  0.2520E-01  0.1088E+00  0.8621E-01
      9.621  0.5915E-02  0.2661E-01  0.1099E+00  0.9106E-01
      9.803  0.3873E-02  0.4509E-01  0.1106E+00  0.9926E-01
      9.985  0.1673E-02  0.3218E-01  0.1109E+00  0.1051E+00
     10.167  0.1531E-02  0.8602E-02  0.1111E+00  0.1067E+00
     10.349  0.2403E-02  0.4297E-02  0.1116E+00  0.1075E+00
     10.531  0.1830E-02  0.3513E-02  0.1119E+00  0.1081E+00
     10.713  0.3886E-02  0.4464E-02  0.1126E+00  0.1089E+00
     10.895  0.1536E-02  0.5017E-02  0.1129E+00  0.1098E+00
     11.077  0.3483E-02  0.4943E-02  0.1135E+00  0.1107E+00
     11.259  0.2493E-02  0.2673E-02  0.1140E+00  0.1112E+00
     11.441  0.1663E-02  0.4229E-02  0.1143E+00  0.1120E+00
     11.623  0.1948E-02  0.1661E-02  0.1146E+00  0.1123E+00
     11.805  0.4957E-02  0.3558E-02  0.1155E+00  0.1129E+00
     11.987  0.3008E-02  0.2079E-02  0.1161E+00  0.1133E+00
     12.169  0.2246E-02  0.3656E-02  0.1165E+00  0.1140E+00
     12.350  0.1795E-02  0.1695E-02  0.1168E+00  0.1143E+00
     12.532  0.1315E-02  0.4094E-02  0.1171E+00  0.1150E+00
     12.714  0.7220E-03  0.4262E-02  0.1172E+00  0.1158E+00
     12.896  0.2026E-02  0.1565E-02  0.1176E+00  0.1161E+00
     13.078  0.1068E-02  0.2438E-02  0.1178E+00  0.1165E+00
     13.260  0.1117E-02  0.2932E-02  0.1180E+00  0.1171E+00
     13.442  0.5098E-02  0.1451E-02  0.1189E+00  0.1173E+00
     13.624  0.2450E-02  0.1269E-02  0.1193E+00  0.1176E+00
     13.806  0.1499E-02  0.1676E-02  0.1196E+00  0.1179E+00
     13.988  0.3322E-03  0.8508E-03  0.1197E+00  0.1180E+00
     14.170  0.1263E-03  0.4994E-02  0.1197E+00  0.1189E+00
     14.352  0.7694E-03  0.2636E-02  0.1198E+00  0.1194E+00
     14.534  0.1138E-02  0.1329E-02  0.1200E+00  0.1196E+00
     14.716  0.1262E-02  0.1214E-03  0.1203E+00  0.1197E+00
     14.898  0.1851E-03  0.3349E-08  0.1203E+00  0.1197E+00
     15.080  0.1524E-02  0.5892E-03  0.1206E+00  0.1198E+00
     15.262  0.3156E-02  0.1494E-02  0.1212E+00  0.1200E+00
     15.444  0.3578E-02  0.8131E-03  0.1218E+00  0.1202E+00
     15.626  0.8635E-02  0.7838E-03  0.1234E+00  0.1203E+00
     15.807  0.1624E-02  0.1065E-02  0.1237E+00  0.1205E+00
     15.989  0.4455E-02  0.1214E-02  0.1245E+00  0.1208E+00
     16.171  0.3358E-02  0.6286E-02  0.1251E+00  0.1219E+00
     16.353  0.3417E-02  0.7275E-02  0.1257E+00  0.1232E+00
     16.535  0.2007E-02  0.2890E-02  0.1261E+00  0.1237E+00
     16.717  0.4210E-02  0.4788E-02  0.1268E+00  0.1246E+00
     16.899  0.3245E-02  0.3521E-02  0.1274E+00  0.1253E+00
     17.081  0.2577E-02  0.3714E-02  0.1279E+00  0.1259E+00
     17.263  0.3390E-02  0.3202E-02  0.1285E+00  0.1265E+00
     17.445  0.2921E-02  0.3451E-02  0.1291E+00  0.1271E+00
     17.627  0.5073E-02  0.3702E-02  0.1300E+00  0.1278E+00
     17.809  0.4772E-02  0.3831E-02  0.1308E+00  0.1285E+00
     17.991  0.1654E-02  0.2814E-02  0.1311E+00  0.1290E+00
     18.173  0.6029E-02  0.3628E-02  0.1322E+00  0.1297E+00
     18.355  0.2824E-02  0.6200E-02  0.1328E+00  0.1308E+00
     18.537  0.4087E-02  0.4172E-02  0.1335E+00  0.1316E+00
     18.719  0.5141E-02  0.4422E-02  0.1344E+00  0.1324E+00
     18.901  0.2961E-02  0.2815E-02  0.1350E+00  0.1329E+00
     19.083  0.2834E-02  0.5603E-02  0.1355E+00  0.1339E+00
     19.265  0.2559E-02  0.3827E-02  0.1360E+00  0.1346E+00
     19.446  0.6328E-02  0.3959E-02  0.1371E+00  0.1353E+00
     19.628  0.2355E-02  0.2579E-02  0.1375E+00  0.1358E+00
     19.810  0.3515E-02  0.3433E-02  0.1382E+00  0.1364E+00
     19.992  0.1424E-02  0.5850E-02  0.1384E+00  0.1375E+00
     20.174  0.3092E-02  0.1494E-02  0.1390E+00  0.1378E+00
     20.356  0.2913E-02  0.2733E-02  0.1395E+00  0.1383E+00
     20.538  0.1729E-02  0.3441E-02  0.1398E+00  0.1389E+00
     20.720  0.3353E-02  0.2563E-02  0.1405E+00  0.1393E+00
     20.902  0.4919E-02  0.1564E-02  0.1413E+00  0.1396E+00
     21.084  0.3765E-02  0.3418E-02  0.1420E+00  0.1403E+00
     21.266  0.1351E-02  0.5360E-02  0.1423E+00  0.1412E+00
     21.448  0.2556E-02  0.3162E-02  0.1427E+00  0.1418E+00
     21.630  0.6866E-02  0.1923E-02  0.1440E+00  0.1422E+00
     21.812  0.2522E-02  0.3146E-02  0.1445E+00  0.1427E+00
     21.994  0.3609E-02  0.6548E-02  0.1451E+00  0.1439E+00
     22.176  0.3874E-02  0.2584E-02  0.1458E+00  0.1444E+00
     22.358  0.2735E-02  0.2323E-02  0.1463E+00  0.1448E+00
     22.540  0.5229E-02  0.5157E-02  0.1473E+00  0.1458E+00
     22.722  0.4689E-02  0.3559E-02  0.1481E+00  0.1464E+00
     22.903  0.5354E-02  0.5626E-02  0.1491E+00  0.1474E+00
     23.085  0.6120E-02  0.4268E-02  0.1502E+00  0.1482E+00
     23.267  0.4346E-02  0.5804E-02  0.1510E+00  0.1493E+00
     23.449  0.2094E-02  0.5546E-02  0.1514E+00  0.1503E+00
     23.631  0.3291E-02  0.4062E-02  0.1520E+00  0.1510E+00
     23.813  0.5740E-02  0.2814E-02  0.1530E+00  0.1515E+00
     23.995  0.2112E-02  0.4953E-02  0.1534E+00  0.1524E+00
     24.177  0.6378E-02  0.4437E-02  0.1546E+00  0.1532E+00
     24.359  0.6656E-02  0.1826E-02  0.1558E+00  0.1536E+00
     24.541  0.3068E-02  0.7732E-02  0.1563E+00  0.1550E+00
     24.723  0.3560E-02  0.5717E-02  0.1570E+00  0.1560E+00
     24.905  0.6092E-02  0.3275E-02  0.1581E+00  0.1566E+00
     25.087  0.3036E-02  0.3583E-02  0.1586E+00  0.1572E+00
     25.269  0.3202E-02  0.6655E-02  0.1592E+00  0.1585E+00
     25.451  0.5159E-02  0.2791E-02  0.1602E+00  0.1590E+00
     25.633  0.3260E-02  0.3832E-02  0.1608E+00  0.1597E+00
     25.815  0.3593E-02  0.4095E-02  0.1614E+00  0.1604E+00
     25.997  0.4490E-02  0.4242E-02  0.1622E+00  0.1612E+00
     26.179  0.5328E-02  0.3443E-02  0.1632E+00  0.1618E+00
     26.361  0.2114E-02  0.5897E-02  0.1636E+00  0.1629E+00
     26.542  0.8712E-02  0.4204E-02  0.1652E+00  0.1636E+00
     26.724  0.3897E-02  0.5975E-02  0.1659E+00  0.1647E+00
     26.906  0.2586E-02  0.5345E-02  0.1663E+00  0.1657E+00
     27.088  0.5398E-02  0.2615E-02  0.1673E+00  0.1662E+00
     27.270  0.4123E-02  0.5135E-02  0.1681E+00  0.1671E+00
     27.452  0.2581E-02  0.5017E-02  0.1685E+00  0.1680E+00
     27.634  0.4540E-02  0.2268E-02  0.1694E+00  0.1684E+00
     27.816  0.5750E-02  0.6521E-02  0.1704E+00  0.1696E+00
     27.998  0.3105E-02  0.2276E-02  0.1710E+00  0.1700E+00
     28.180  0.3178E-02  0.5496E-02  0.1716E+00  0.1710E+00
     28.362  0.2103E-02  0.3383E-02  0.1719E+00  0.1717E+00
     28.544  0.6664E-02  0.1372E-02  0.1732E+00  0.1719E+00
     28.726  0.6019E-02  0.6785E-02  0.1743E+00  0.1731E+00
     28.908  0.6225E-02  0.6165E-02  0.1754E+00  0.1743E+00
     29.090  0.4759E-02  0.5757E-02  0.1763E+00  0.1753E+00
     29.272  0.2516E-02  0.3327E-02  0.1767E+00  0.1759E+00
     29.454  0.5816E-02  0.4363E-02  0.1778E+00  0.1767E+00
     29.636  0.3505E-02  0.5093E-02  0.1784E+00  0.1776E+00
     29.818  0.4712E-02  0.5815E-02  0.1793E+00  0.1787E+00
     29.999  0.5505E-02  0.5740E-02  0.1803E+00  0.1797E+00
     30.181  0.2718E-02  0.3962E-02  0.1808E+00  0.1805E+00
     30.363  0.2308E-02  0.1615E-02  0.1812E+00  0.1808E+00
     30.545  0.4074E-02  0.2472E-02  0.1819E+00  0.1812E+00
     30.727  0.7094E-02  0.3149E-02  0.1832E+00  0.1818E+00
     30.909  0.7027E-02  0.7151E-02  0.1845E+00  0.1831E+00
     31.091  0.6759E-02  0.5954E-02  0.1857E+00  0.1842E+00
     31.273  0.5838E-02  0.7432E-02  0.1868E+00  0.1855E+00
     31.455  0.3839E-02  0.7420E-02  0.1875E+00  0.1869E+00
     31.637  0.6046E-02  0.4672E-02  0.1886E+00  0.1877E+00
     31.819  0.5177E-02  0.5522E-02  0.1895E+00  0.1887E+00
     32.001  0.3079E-02  0.4361E-02  0.1901E+00  0.1895E+00
     32.183  0.3600E-02  0.4628E-02  0.1907E+00  0.1904E+00
     32.365  0.2853E-02  0.3487E-02  0.1913E+00  0.1910E+00
     32.547  0.2860E-02  0.3243E-02  0.1918E+00  0.1916E+00
     32.729  0.6259E-02  0.1563E-02  0.1929E+00  0.1919E+00
     32.911  0.3701E-02  0.5642E-02  0.1936E+00  0.1929E+00
     33.093  0.3557E-02  0.3833E-02  0.1942E+00  0.1936E+00
     33.275  0.4723E-02  0.2712E-02  0.1951E+00  0.1941E+00
     33.457  0.7249E-02  0.5826E-02  0.1964E+00  0.1951E+00
     33.638  0.6415E-02  0.6549E-02  0.1976E+00  0.1963E+00
     33.820  0.2478E-02  0.7055E-02  0.1980E+00  0.1976E+00
     34.002  0.4606E-02  0.1235E-02  0.1989E+00  0.1978E+00
     34.184  0.2105E-02  0.3398E-02  0.1993E+00  0.1985E+00
     34.366  0.6236E-02  0.6109E-02  0.2004E+00  0.1996E+00
     34.548  0.5308E-02  0.5379E-02  0.2014E+00  0.2005E+00
     34.730  0.4182E-02  0.4298E-02  0.2021E+00  0.2013E+00
     34.912  0.7254E-02  0.3065E-02  0.2034E+00  0.2019E+00
     35.094  0.3828E-02  0.5841E-02  0.2041E+00  0.2030E+00
     35.276  0.5105E-02  0.7585E-02  0.2051E+00  0.2043E+00
     35.458  0.2869E-02  0.3903E-02  0.2056E+00  0.2050E+00
     35.640  0.3286E-02  0.3899E-02  0.2062E+00  0.2058E+00
     35.822  0.3347E-02  0.2516E-02  0.2068E+00  0.2062E+00
     36.004  0.4105E-02  0.4037E-02  0.2075E+00  0.2069E+00
     36.186  0.7208E-02  0.3404E-02  0.2088E+00  0.2076E+00
     36.368  0.6042E-02  0.6906E-02  0.2099E+00  0.2088E+00
     36.550  0.3951E-02  0.5737E-02  0.2107E+00  0.2099E+00
     36.732  0.5962E-02  0.5725E-02  0.2117E+00  0.2109E+00
     36.914  0.5963E-02  0.5797E-02  0.2128E+00  0.2120E+00
     37.096  0.6023E-02  0.6221E-02  0.2139E+00  0.2131E+00
     37.277  0.2821E-02  0.5602E-02  0.2144E+00  0.2141E+00
     37.459  0.4335E-02  0.2210E-02  0.2152E+00  0.2145E+00
     37.641  0.5846E-02  0.4919E-02  0.2163E+00  0.2154E+00
     37.823  0.4076E-02  0.7088E-02  0.2170E+00  0.2167E+00
     38.005  0.4086E-02  0.3180E-02  0.2178E+00  0.2173E+00
     38.187  0.7556E-03  0.3452E-02  0.2179E+00  0.2179E+00
     38.369  0.4971E-02  0.7858E-03  0.2188E+00  0.2180E+00
     38.551  0.6970E-02  0.5342E-02  0.2201E+00  0.2190E+00
     38.733  0.1052E-01  0.6225E-02  0.2220E+00  0.2202E+00
     38.915  0.6652E-02  0.6483E-02  0.2232E+00  0.2213E+00
     39.097  0.2340E-02  0.9012E-02  0.2236E+00  0.2230E+00
     39.279  0.7285E-02  0.5655E-02  0.2250E+00  0.2240E+00
     39.461  0.6556E-02  0.6489E-02  0.2262E+00  0.2252E+00
     39.643  0.4192E-02  0.5467E-02  0.2269E+00  0.2262E+00
     39.825  0.4400E-02  0.3943E-02  0.2277E+00  0.2269E+00
     40.007  0.6596E-02  0.6521E-02  0.2289E+00  0.2281E+00
     40.189  0.3846E-02  0.4759E-02  0.2296E+00  0.2289E+00
     40.371  0.8210E-02  0.5854E-02  0.2311E+00  0.2300E+00
     40.553  0.4714E-02  0.7129E-02  0.2320E+00  0.2313E+00
     40.734  0.6742E-02  0.4804E-02  0.2332E+00  0.2322E+00
     40.916  0.4759E-02  0.1929E-02  0.2341E+00  0.2325E+00
     41.098  0.5407E-02  0.7861E-02  0.2351E+00  0.2340E+00
     41.280  0.3781E-02  0.4852E-02  0.2357E+00  0.2348E+00
     41.462  0.3843E-02  0.6333E-02  0.2364E+00  0.2360E+00
     41.644  0.3993E-02  0.3732E-02  0.2372E+00  0.2367E+00
     41.826  0.7421E-02  0.6360E-02  0.2385E+00  0.2378E+00
     42.008  0.5112E-02  0.3781E-02  0.2394E+00  0.2385E+00
     42.190  0.6272E-02  0.3873E-02  0.2406E+00  0.2392E+00
     42.372  0.6034E-02  0.6049E-02  0.2417E+00  0.2403E+00
     42.554  0.6292E-02  0.7865E-02  0.2428E+00  0.2418E+00
     42.736  0.6595E-02  0.4489E-02  0.2440E+00  0.2426E+00
     42.918  0.7998E-02  0.6078E-02  0.2455E+00  0.2437E+00
     43.100  0.3086E-02  0.6084E-02  0.2460E+00  0.2448E+00
     43.282  0.2341E-02  0.3727E-02  0.2465E+00  0.2455E+00
     43.464  0.7858E-02  0.5816E-02  0.2479E+00  0.2465E+00
     43.646  0.3441E-02  0.4369E-02  0.2485E+00  0.2473E+00
     43.828  0.1134E-01  0.5106E-02  0.2506E+00  0.2482E+00
     44.010  0.7215E-02  0.6546E-02  0.2519E+00  0.2494E+00
     44.192  0.8015E-02  0.4185E-02  0.2534E+00  0.2502E+00
     44.373  0.5389E-02  0.5201E-02  0.2543E+00  0.2511E+00
     44.555  0.5641E-02  0.8464E-02  0.2554E+00  0.2527E+00
     44.737  0.6406E-02  0.7580E-02  0.2565E+00  0.2541E+00
     44.919  0.8717E-02  0.5856E-02  0.2581E+00  0.2551E+00
     45.101  0.1669E-01  0.5454E-02  0.2612E+00  0.2561E+00
     45.283  0.1460E-01  0.4618E-02  0.2638E+00  0.2570E+00
     45.465  0.1661E-01  0.4747E-02  0.2668E+00  0.2578E+00
     45.647  0.1373E-01  0.4614E-02  0.2693E+00  0.2587E+00
     45.829  0.1118E-01  0.3630E-02  0.2714E+00  0.2593E+00
     46.011  0.7564E-02  0.4942E-02  0.2727E+00  0.2602E+00
     46.193  0.7726E-02  0.2471E-02  0.2742E+00  0.2607E+00
     46.375  0.4399E-02  0.2527E-02  0.2750E+00  0.2611E+00
     46.557  0.5729E-02  0.6155E-02  0.2760E+00  0.2623E+00
     46.739  0.4567E-02  0.8617E-02  0.2768E+00  0.2638E+00
     46.921  0.1920E-02  0.5983E-02  0.2772E+00  0.2649E+00
     47.103  0.3360E-02  0.7994E-02  0.2778E+00  0.2664E+00
     47.285  0.2611E-02  0.3358E-02  0.2783E+00  0.2670E+00
     47.467  0.6753E-03  0.3488E-02  0.2784E+00  0.2676E+00
     47.649  0.4382E-03  0.4154E-02  0.2785E+00  0.2684E+00
     47.830  0.2291E-02  0.6093E-02  0.2789E+00  0.2695E+00
     48.012  0.9776E-03  0.6457E-02  0.2791E+00  0.2707E+00
     48.194  0.1246E-02  0.7318E-02  0.2793E+00  0.2720E+00
     48.376  0.3529E-03  0.4078E-02  0.2793E+00  0.2727E+00
     48.558  0.3543E-03  0.3054E-02  0.2794E+00  0.2733E+00
     48.740  0.1022E-02  0.2387E-02  0.2796E+00  0.2737E+00
     48.922  0.4839E-03  0.4623E-02  0.2797E+00  0.2746E+00
     49.104  0.9239E-05  0.6053E-02  0.2797E+00  0.2757E+00
     49.286  0.1405E-02  0.6002E-02  0.2799E+00  0.2768E+00
     49.468  0.1686E-04  0.7660E-02  0.2799E+00  0.2781E+00
     49.650  0.6135E-08  0.3562E-02  0.2799E+00  0.2788E+00
     49.832  0.2445E-03  0.4634E-02  0.2800E+00  0.2796E+00
     50.014  0.4172E-04  0.1857E-02  0.2800E+00  0.2800E+00
     50.196  0.0000E+00  0.1396E-03  0.2800E+00  0.2800E+00
     50.378  0.0000E+00  0.7564E-07  0.2800E+00  0.2800E+00
     50.560  0.0000E+00  0.0000E+00  0.2800E+00  0.2800E+00
     50.742  0.0000E+00  0.0000E+00  0.2800E+00  0.2800E+00
     50.924  0.0000E+00  0.0000E+00  0.2800E+00  0.2800E+00
     51.106  0.0000E+00  0.0000E+00  0.2800E+00  0.2800E+00
     51.288  0.0000E+00  0.0000E+00  0.2800E+00  0.2800E+00
     51.469  0.0000E+00  0.0000E+00  0.2800E+00  0.2800E+00
     51.651  0.0000E+00  0.0000E+00  0.2800E+00  0.2800E+00
     51.833  0.0000E+00  0.0000E+00  0.2800E+00  0.2800E+00
     52.015  0.0000E+00  0.0000E+00  0.2800E+00  0.2800E+00
     52.197  0.0000E+00  0.0000E+00  0.2800E+00  0.2800E+00
     52.379  0.0000E+00  0.0000E+00  0.2800E+00  0.2800E+00
     52.561  0.0000E+00  0.0000E+00  0.2800E+00  0.2800E+00
     52.56116171     -2.02350946  301      8.71004933      1.00000000
     -2.024  0.0000E+00  0.0000E+00  0.0000E+00  0.0000E+00  0.0000E+00  0.0000E+00  0.0000E+00  0.0000E+00  0.0000E+00  0.0000E+00  0.0000E+00  0.0000E+00  0.0000E+00  0.0000E+00  0.0000E+00  0.0000E+00  0.0000E+00  0.0000E+00
     -1.842  0.0000E+00  0.0000E+00  0.0000E+00  0.0000E+00  0.0000E+00  0.0000E+00  0.0000E+00  0.0000E+00  0.0000E+00  0.0000E+00  0.0000E+00  0.0000E+00  0.0000E+00  0.0000E+00  0.0000E+00  0.0000E+00  0.0000E+00  0.0000E+00
     -1.660  0.0000E+00  0.0000E+00  0.0000E+00  0.0000E+00  0.0000E+00  0.0000E+00  0.0000E+00  0.0000E+00  0.0000E+00  0.0000E+00  0.0000E+00  0.0000E+00  0.0000E+00  0.0000E+00  0.0000E+00  0.0000E+00  0.0000E+00  0.0000E+00
     -1.478  0.0000E+00  0.0000E+00  0.0000E+00  0.0000E+00  0.0000E+00  0.0000E+00  0.0000E+00  0.0000E+00  0.0000E+00  0.0000E+00  0.0000E+00  0.0000E+00  0.0000E+00  0.0000E+00  0.0000E+00  0.0000E+00  0.0000E+00  0.0000E+00
     -1.296  0.0000E+00  0.0000E+00  0.0000E+00  0.0000E+00  0.0000E+00  0.0000E+00  0.0000E+00  0.0000E+00  0.0000E+00  0.0000E+00  0.0000E+00  0.0000E+00  0.0000E+00  0.0000E+00  0.0000E+00  0.0000E+00  0.0000E+00  0.0000E+00
     -1.114  0.0000E+00  0.0000E+00  0.0000E+00  0.0000E+00  0.0000E+00  0.0000E+00  0.0000E+00  0.0000E+00  0.0000E+00  0.0000E+00  0.0000E+00  0.0000E+00  0.0000E+00  0.0000E+00  0.0000E+00  0.0000E+00  0.0000E+00  0.0000E+00
     -0.932  0.0000E+00  0.0000E+00  0.0000E+00  0.0000E+00  0.0000E+00  0.0000E+00  0.0000E+00  0.0000E+00  0.0000E+00  0.0000E+00  0.0000E+00  0.0000E+00  0.0000E+00  0.0000E+00  0.0000E+00  0.0000E+00  0.0000E+00  0.0000E+00
     -0.750  0.0000E+00  0.0000E+00  0.0000E+00  0.0000E+00  0.0000E+00  0.0000E+00  0.0000E+00  0.0000E+00  0.0000E+00  0.0000E+00  0.0000E+00  0.0000E+00  0.0000E+00  0.0000E+00  0.0000E+00  0.0000E+00  0.0000E+00  0.0000E+00
     -0.568  0.0000E+00  0.0000E+00  0.0000E+00  0.0000E+00  0.0000E+00  0.0000E+00  0.0000E+00  0.0000E+00  0.0000E+00  0.0000E+00  0.0000E+00  0.0000E+00  0.0000E+00  0.0000E+00  0.0000E+00  0.0000E+00  0.0000E+00  0.0000E+00
     -0.386  0.0000E+00  0.0000E+00  0.0000E+00  0.0000E+00  0.0000E+00  0.0000E+00  0.0000E+00  0.0000E+00  0.0000E+00  0.0000E+00  0.0000E+00  0.0000E+00  0.0000E+00  0.0000E+00  0.0000E+00  0.0000E+00  0.0000E+00  0.0000E+00
     -0.204  0.0000E+00  0.0000E+00  0.0000E+00  0.0000E+00  0.0000E+00  0.0000E+00  0.0000E+00  0.0000E+00  0.0000E+00  0.0000E+00  0.0000E+00  0.0000E+00  0.0000E+00  0.0000E+00  0.0000E+00  0.0000E+00  0.0000E+00  0.0000E+00
     -0.022  0.0000E+00  0.0000E+00  0.0000E+00  0.0000E+00  0.0000E+00  0.0000E+00  0.0000E+00  0.0000E+00  0.0000E+00  0.0000E+00  0.0000E+00  0.0000E+00  0.0000E+00  0.0000E+00  0.0000E+00  0.0000E+00  0.0000E+00  0.0000E+00
      0.160  0.0000E+00  0.0000E+00  0.0000E+00  0.0000E+00  0.0000E+00  0.0000E+00  0.0000E+00  0.0000E+00  0.0000E+00  0.0000E+00  0.0000E+00  0.0000E+00  0.0000E+00  0.0000E+00  0.0000E+00  0.0000E+00  0.0000E+00  0.0000E+00
      0.342  0.1648E-06  0.7997E-06  0.1922E-23  0.2009E-21  0.1260E-18  0.3046E-17  0.1922E-23  0.2009E-21  0.2682E-21  0.6835E-19  0.1056E-29  0.3615E-28  0.1469E-11  0.9883E-11  0.1056E-29  0.3615E-28  0.2682E-21  0.6835E-19
      0.524  0.1421E-02  0.1503E-02  0.5934E-10  0.4217E-09  0.1653E-06  0.5215E-06  0.5934E-10  0.4217E-09  0.1158E-11  0.5682E-11  0.4380E-22  0.2651E-20  0.1435E-07  0.2125E-07  0.4380E-22  0.2651E-20  0.1158E-11  0.5682E-11
      0.706  0.8600E-02  0.9734E-02  0.5918E-04  0.7305E-04  0.4162E-04  0.4171E-04  0.5918E-04  0.7305E-04  0.1155E-05  0.9843E-06  0.7427E-09  0.2241E-08  0.1687E-05  0.1475E-05  0.7427E-09  0.2241E-08  0.1155E-05  0.9843E-06
      0.888  0.1963E-01  0.1900E-01  0.2115E-03  0.2070E-03  0.2291E-03  0.2409E-03  0.2115E-03  0.2070E-03  0.4229E-05  0.2836E-05  0.7842E-05  0.5748E-05  0.7746E-06  0.4048E-06  0.7842E-05  0.5748E-05  0.4229E-05  0.2836E-05
      1.070  0.4006E-02  0.3775E-02  0.2741E-04  0.2946E-04  0.1440E-03  0.1486E-03  0.2741E-04  0.2946E-04  0.1014E-05  0.9904E-06  0.7001E-06  0.2265E-06  0.9407E-05  0.7018E-05  0.7001E-06  0.2265E-06  0.1014E-05  0.9904E-06
      1.252  0.2115E-01  0.2397E-01  0.5161E-03  0.5863E-03  0.5129E-03  0.6320E-03  0.5161E-03  0.5863E-03  0.2825E-04  0.2137E-04  0.2388E-04  0.2077E-04  0.3814E-04  0.2810E-04  0.2388E-04  0.2077E-04  0.2825E-04  0.2137E-04
      1.434  0.3149E-01  0.2833E-01  0.9236E-03  0.8788E-03  0.7522E-03  0.6379E-03  0.9236E-03  0.8788E-03  0.6721E-04  0.4301E-04  0.4546E-04  0.2694E-04  0.6099E-04  0.3735E-04  0.4546E-04  0.2694E-04  0.6721E-04  0.4301E-04
      1.615  0.1545E-01  0.1495E-01  0.6653E-03  0.6537E-03  0.2544E-03  0.2559E-03  0.6653E-03  0.6537E-03  0.6528E-04  0.4051E-04  0.4318E-04  0.2779E-04  0.2477E-04  0.1623E-04  0.4318E-04  0.2779E-04  0.6528E-04  0.4051E-04
      1.797  0.1816E-01  0.1792E-01  0.5194E-03  0.5195E-03  0.1233E-02  0.1243E-02  0.5194E-03  0.5195E-03  0.3749E-04  0.2378E-04  0.1199E-03  0.7717E-04  0.8366E-04  0.5006E-04  0.1199E-03  0.7717E-04  0.3749E-04  0.2378E-04
      1.979  0.4184E-01  0.4057E-01  0.1759E-02  0.1720E-02  0.2776E-02  0.2799E-02  0.1759E-02  0.1720E-02  0.2479E-03  0.1469E-03  0.2544E-03  0.1628E-03  0.4843E-03  0.2829E-03  0.2544E-03  0.1628E-03  0.2479E-03  0.1469E-03
      2.161  0.3468E-01  0.3550E-01  0.2619E-02  0.2727E-02  0.5572E-03  0.6109E-03  0.2619E-02  0.2727E-02  0.4873E-03  0.3092E-03  0.1869E-03  0.1125E-03  0.2992E-03  0.1970E-03  0.1869E-03  0.1125E-03  0.4873E-03  0.3092E-03
      2.343  0.1655E-01  0.1207E-01  0.8904E-03  0.6310E-03  0.1508E-02  0.1191E-02  0.8904E-03  0.6310E-03  0.1989E-03  0.7239E-04  0.2327E-03  0.1129E-03  0.2756E-03  0.1169E-03  0.2327E-03  0.1129E-03  0.1989E-03  0.7239E-04
      2.525  0.5908E-01  0.5621E-01  0.4394E-02  0.4397E-02  0.3825E-02  0.3492E-02  0.4394E-02  0.4397E-02  0.1154E-02  0.6483E-03  0.1299E-02  0.6805E-03  0.5619E-03  0.3096E-03  0.1299E-02  0.6805E-03  0.1154E-02  0.6483E-03
      2.707  0.7568E-02  0.1432E-01  0.2458E-03  0.7277E-03  0.1208E-02  0.1801E-02  0.2458E-03  0.7277E-03  0.5158E-04  0.8870E-04  0.1438E-03  0.1943E-03  0.5213E-03  0.2581E-03  0.1438E-03  0.1943E-03  0.5158E-04  0.8870E-04
      2.889  0.2847E-01  0.2592E-01  0.1862E-02  0.1455E-02  0.3396E-02  0.3877E-02  0.1862E-02  0.1455E-02  0.7448E-03  0.2932E-03  0.7205E-03  0.3891E-03  0.1920E-02  0.1036E-02  0.7205E-03  0.3891E-03  0.7448E-03  0.2932E-03
      3.071  0.5460E-01  0.2596E-01  0.5996E-02  0.3161E-02  0.3863E-02  0.1360E-02  0.5996E-02  0.3161E-02  0.2557E-02  0.6688E-03  0.2131E-02  0.4310E-03  0.1517E-02  0.4202E-03  0.2131E-02  0.4310E-03  0.2557E-02  0.6688E-03
      3.253  0.4435E-01  0.6738E-01  0.4596E-02  0.7450E-02  0.4232E-02  0.6023E-02  0.4596E-02  0.7450E-02  0.2594E-02  0.1915E-02  0.1766E-02  0.1358E-02  0.2844E-02  0.1730E-02  0.1766E-02  0.1358E-02  0.2594E-02  0.1915E-02
      3.435  0.5387E-01  0.3548E-01  0.5988E-02  0.3640E-02  0.5479E-02  0.4913E-02  0.5988E-02  0.3640E-02  0.4504E-02  0.9104E-03  0.4767E-02  0.1429E-02  0.3349E-02  0.9432E-03  0.4767E-02  0.1429E-02  0.4504E-02  0.9104E-03
      3.617  0.2449E-01  0.3528E-01  0.2331E-02  0.4887E-02  0.3026E-02  0.2744E-02  0.2331E-02  0.4887E-02  0.3177E-02  0.1871E-02  0.1071E-02  0.1546E-02  0.7751E-02  0.1002E-02  0.1071E-02  0.1546E-02  0.3177E-02  0.1871E-02
      3.799  0.5326E-01  0.2200E-01  0.5871E-02  0.2605E-02  0.8978E-02  0.2791E-02  0.5871E-02  0.2605E-02  0.6315E-02  0.1455E-02  0.1183E-01  0.3551E-03  0.2432E-02  0.2899E-02  0.1183E-01  0.3551E-03  0.6315E-02  0.1455E-02
      3.981  0.6099E-01  0.4325E-01  0.8681E-02  0.4551E-02  0.7228E-02  0.9257E-02  0.8681E-02  0.4551E-02  0.1414E-01  0.1679E-02  0.9673E-02  0.3714E-02  0.1759E-01  0.2309E-02  0.9673E-02  0.3714E-02  0.1414E-01  0.1679E-02
      4.163  0.9081E-01  0.4827E-01  0.1188E-01  0.7018E-02  0.6380E-02  0.7636E-02  0.1188E-01  0.7018E-02  0.4775E-01  0.3501E-02  0.4290E-01  0.4280E-02  0.4778E-01  0.3416E-02  0.4290E-01  0.4280E-02  0.4775E-01  0.3501E-02
      4.345  0.7881E-01  0.4261E-01  0.7954E-02  0.7260E-02  0.1102E-01  0.6083E-02  0.7954E-02  0.7260E-02  0.5918E-01  0.3918E-02  0.8133E-01  0.2195E-02  0.5095E-01  0.5485E-02  0.8133E-01  0.2195E-02  0.5918E-01  0.3918E-02
      4.527  0.7811E-01  0.5316E-01  0.1016E-01  0.1110E-01  0.1295E-01  0.3169E-02  0.1016E-01  0.1110E-01  0.9098E-01  0.9544E-02  0.9046E-01  0.4810E-02  0.1032E+00  0.5836E-02  0.9046E-01  0.4810E-02  0.9098E-01  0.9544E-02
      4.709  0.5538E-01  0.5255E-01  0.1074E-01  0.7518E-02  0.1169E-01  0.1172E-01  0.1074E-01  0.7518E-02  0.1340E+00  0.7079E-02  0.8690E-01  0.1043E-01  0.7866E-01  0.1151E-01  0.8690E-01  0.1043E-01  0.1340E+00  0.7079E-02
      4.891  0.5411E-01  0.5716E-01  0.1518E-01  0.9725E-02  0.1615E-01  0.1059E-01  0.1518E-01  0.9725E-02  0.1602E+00  0.1457E-01  0.2105E+00  0.1505E-01  0.2141E+00  0.7342E-02  0.2105E+00  0.1505E-01  0.1602E+00  0.1457E-01
      5.072  0.2630E-01  0.3533E-01  0.1386E-01  0.4053E-02  0.1767E-01  0.8960E-02  0.1386E-01  0.4053E-02  0.1084E+00  0.8631E-02  0.1879E+00  0.1161E-01  0.1191E+00  0.1805E-01  0.1879E+00  0.1161E-01  0.1084E+00  0.8631E-02
      5.254  0.1958E-01  0.7134E-01  0.1836E-01  0.1284E-01  0.1383E-01  0.6856E-02  0.1836E-01  0.1284E-01  0.1534E+00  0.4034E-01  0.1522E+00  0.3108E-01  0.2344E+00  0.4307E-01  0.1522E+00  0.3108E-01  0.1534E+00  0.4034E-01
      5.436  0.1009E-01  0.9061E-01  0.1765E-01  0.1745E-01  0.1406E-01  0.1590E-01  0.1765E-01  0.1745E-01  0.2130E+00  0.4928E-01  0.1370E+00  0.5515E-01  0.2369E+00  0.3612E-01  0.1370E+00  0.5515E-01  0.2130E+00  0.4928E-01
      5.618  0.1050E-01  0.5237E-01  0.2176E-01  0.8581E-02  0.1398E-01  0.1287E-01  0.2176E-01  0.8581E-02  0.2612E+00  0.3511E-01  0.1485E+00  0.4836E-01  0.2308E+00  0.5403E-01  0.1485E+00  0.4836E-01  0.2612E+00  0.3511E-01
      5.800  0.1105E-01  0.3800E-01  0.1993E-01  0.8052E-02  0.1646E-01  0.9875E-02  0.1993E-01  0.8052E-02  0.2386E+00  0.5183E-01  0.1247E+00  0.5505E-01  0.1858E+00  0.2353E-01  0.1247E+00  0.5505E-01  0.2386E+00  0.5183E-01
      5.982  0.4658E-02  0.5520E-01  0.9069E-02  0.1692E-01  0.1205E-01  0.1843E-01  0.9069E-02  0.1692E-01  0.1468E+00  0.9881E-01  0.1243E+00  0.7509E-01  0.1862E+00  0.1031E+00  0.1243E+00  0.7509E-01  0.1468E+00  0.9881E-01
      6.164  0.1136E-01  0.2621E-01  0.1815E-01  0.1137E-01  0.1900E-01  0.1447E-01  0.1815E-01  0.1137E-01  0.2165E+00  0.8874E-01  0.3722E+00  0.1179E+00  0.4248E+00  0.7291E-01  0.3722E+00  0.1179E+00  0.2165E+00  0.8874E-01
      6.346  0.1248E-01  0.1634E-01  0.1516E-01  0.1570E-01  0.2060E-01  0.2083E-01  0.1516E-01  0.1570E-01  0.3003E+00  0.7358E-01  0.3052E+00  0.1974E+00  0.2609E+00  0.9266E-01  0.3052E+00  0.1974E+00  0.3003E+00  0.7358E-01
      6.528  0.1267E-01  0.6621E-02  0.1383E-01  0.1859E-01  0.2243E-01  0.1390E-01  0.1383E-01  0.1859E-01  0.3435E+00  0.1227E+00  0.3731E+00  0.8227E-01  0.2276E+00  0.1380E+00  0.3731E+00  0.8227E-01  0.3435E+00  0.1227E+00
      6.710  0.1189E-01  0.8623E-02  0.1772E-01  0.2450E-01  0.2207E-01  0.1313E-01  0.1772E-01  0.2450E-01  0.3125E+00  0.1334E+00  0.3390E+00  0.8718E-01  0.2972E+00  0.1883E+00  0.3390E+00  0.8718E-01  0.3125E+00  0.1334E+00
      6.892  0.5882E-02  0.9280E-02  0.1471E-01  0.3481E-01  0.1161E-01  0.2139E-01  0.1471E-01  0.3481E-01  0.2737E+00  0.1810E+00  0.2682E+00  0.1088E+00  0.1806E+00  0.2404E+00  0.2682E+00  0.1088E+00  0.2737E+00  0.1810E+00
      7.074  0.1156E-01  0.9824E-02  0.1432E-01  0.4018E-01  0.1426E-01  0.2393E-01  0.1432E-01  0.4018E-01  0.2093E+00  0.2628E+00  0.2398E+00  0.1141E+00  0.1720E+00  0.2244E+00  0.2398E+00  0.1141E+00  0.2093E+00  0.2628E+00