    2    2  100    2
  0.1216287E+02  0.2591967E-09  0.2591967E-09  0.4180965E-09  0.5000000E-15
  1.000000000000000E-004
  CAR 
 Co-hcc                                  
     18     95     28
 
  0.0000000E+00  0.0000000E+00  0.0000000E+00  0.8680556E-03
      1          0.472604        0.457612   1.000000   1.000000
      2          4.073039        5.090942   1.000000   1.000000
      3          6.228769        7.971345   1.000000   1.000000
      4          6.238137        7.992912   1.000000   1.000000
      5          6.238138        7.992912   1.000000   1.000000
      6          6.495326        8.302938   1.000000   1.000000
      7          6.495326        8.302938   1.000000   1.000000
      8          6.770156        8.646333   1.000000   0.964241
      9          6.770156        8.646333   1.000000   0.964240
     10          7.696904        8.661620   1.000000   0.914623
     11          7.696905        9.690319   1.000000   0.000000
     12          8.755006        9.690320   0.101761   0.000000
     13         14.137564       15.184370   0.000000   0.000000
     14         29.696432       29.381732   0.000000   0.000000
     15         31.171966       31.527346   0.000000   0.000000
     16         31.171969       31.527350   0.000000   0.000000
     17         32.465675       32.287744   0.000000   0.000000
     18         32.644117       32.743943   0.000000   0.000000
     19         32.644121       32.933991   0.000000   0.000000
     20         32.994052       32.933991   0.000000   0.000000
     21         37.508771       37.410028   0.000000   0.000000
     22         37.508772       37.410030   0.000000   0.000000
     23         37.822368       38.040695   0.000000   0.000000
     24         38.782638       38.415576   0.000000   0.000000
     25         40.055105       40.234004   0.000000   0.000000
     26         40.055140       40.234005   0.000000   0.000000
     27         40.055141       40.585164   0.000000   0.000000
     28         41.783294       42.228834   0.000000   0.000000
 
  0.8333333E-01  0.6938894E-17  0.0000000E+00  0.5208333E-02
      1          0.695236        0.680953   1.000000   1.000000
      2          4.200113        5.240474   1.000000   1.000000
      3          6.046798        7.753113   1.000000   1.000000
      4          6.332576        8.063150   1.000000   1.000000
      5          6.390748        8.098783   1.000000   1.000000
      6          6.459510        8.163760   1.000000   1.000000
      7          6.578696        8.250653   1.000000   1.000000
      8          6.656568        8.396364   1.000000   1.000000
      9          6.712429        8.577110   1.000000   0.999915
     10          7.132270        8.597747   1.000000   0.999254
     11          7.721287        9.720085   1.000000   0.000000
     12          9.597014       10.486719   0.000000   0.000000
     13         14.188045       15.209272   0.000000   0.000000
     14         27.426492       27.570574   0.000000   0.000000
     15         29.282993       29.608842   0.000000   0.000000
     16         29.725097       29.731309   0.000000   0.000000
     17         33.007130       32.759462   0.000000   0.000000
     18         33.162824       33.067763   0.000000   0.000000
     19         34.505827       34.367635   0.000000   0.000000
     20         34.783603       35.083154   0.000000   0.000000
     21         35.514649       35.758469   0.000000   0.000000
     22         36.888881       36.883132   0.000000   0.000000
     23         37.390114       37.641278   0.000000   0.000000
     24         37.397104       37.709857   0.000000   0.000000
     25         39.260975       39.807333   0.000000   0.000000
     26         39.539258       39.970040   0.000000   0.000000
     27         41.075050       41.167576   0.000000   0.000000
     28         41.653398       41.506623   0.000000   0.000000
 
  0.1666667E+00  0.0000000E+00  0.0000000E+00  0.5208333E-02
      1          1.341810        1.333872   1.000000   1.000000
      2          4.514310        5.627173   1.000000   1.000000
      3          5.824983        7.322220   1.000000   1.000000
      4          6.108643        7.454658   1.000000   1.000000
      5          6.320204        8.060772   1.000000   1.000000
      6          6.569148        8.398890   1.000000   1.000000
      7          6.598618        8.406495   1.000000   1.000000
      8          6.644712        8.443354   1.000000   1.000000
      9          6.773300        8.463131   1.000000   1.000000
     10          6.811854        8.658321   1.000000   0.928281
     11          7.773560        9.783057   1.000000   0.000000
     12         11.002361       11.818789   0.000000   0.000000
     13         14.361447       15.302963   0.000000   0.000000
     14         23.664388       23.992533   0.000000   0.000000
     15         27.090477       27.390705   0.000000   0.000000
     16         28.853441       28.913195   0.000000   0.000000
     17         30.701378       30.698686   0.000000   0.000000
     18         33.073142       32.838476   0.000000   0.000000
     19         33.106991       33.351028   0.000000   0.000000
     20         35.197149       35.345221   0.000000   0.000000
     21         35.981202       36.070656   0.000000   0.000000
     22         36.192024       36.467588   0.000000   0.000000
     23         36.727867       37.077713   0.000000   0.000000
     24         37.836651       38.296585   0.000000   0.000000
     25         38.612491       38.882055   0.000000   0.000000
     26         40.909486       40.947428   0.000000   0.000000
     27         43.169248       43.184997   0.000000   0.000000
     28         44.017658       44.929704   0.000000   0.000000
 
  0.2500000E+00  0.1387779E-16  0.0000000E+00  0.5208333E-02
      1          2.329227        2.356110   1.000000   1.000000
      2          4.768168        6.020024   1.000000   1.000000
      3          5.500551        6.743553   1.000000   1.000000
      4          5.697422        7.183932   1.000000   1.000000
      5          6.247478        7.927352   1.000000   1.000000
      6          6.396121        8.202031   1.000000   1.000000
      7          6.601727        8.281046   1.000000   1.000000
      8          6.982635        8.814531   1.000000   0.001562
      9          7.001724        8.837948   1.000000   0.000149
     10          7.146129        9.035726   1.000000   0.000000
     11          7.823472        9.842230   1.000000   0.000000
     12         12.632016       13.363224   0.000000   0.000000
     13         14.698872       15.500754   0.000000   0.000000
     14         20.109920       20.568537   0.000000   0.000000
     15         25.197913       25.457518   0.000000   0.000000
     16         27.454565       27.578778   0.000000   0.000000
     17         27.633325       27.825409   0.000000   0.000000
     18         30.537542       31.022338   0.000000   0.000000
     19         32.048571       31.843304   0.000000   0.000000
     20         34.682683       35.095444   0.000000   0.000000
     21         35.260541       35.418761   0.000000   0.000000
     22         36.002833       36.048363   0.000000   0.000000
     23         36.871701       37.056148   0.000000   0.000000
     24         39.701102       39.913753   0.000000   0.000000
     25         41.006905       41.348435   0.000000   0.000000
     26         43.848321       44.257338   0.000000   0.000000
     27         45.324021       45.804378   0.000000   0.000000
     28         45.583783       46.968261   0.000000   0.000000
 
  0.3333333E+00  0.8326673E-16  0.0000000E+00  0.5208333E-02
      1          3.425702        3.606412   1.000000   1.000000
      2          4.717044        6.081910   1.000000   1.000000
      3          5.054708        6.342613   1.000000   1.000000
      4          5.807403        7.065321   1.000000   1.000000
      5          6.239593        8.005474   1.000000   1.000000
      6          6.354147        8.018051   1.000000   1.000000
      7          6.456266        8.100648   1.000000   1.000000
      8          7.388544        9.311460   1.000000   0.000000
      9          7.507060        9.362652   1.000000   0.000000
     10          7.583038        9.445885   1.000000   0.000000
     11          7.858013        9.882562   1.000000   0.000000
     12         14.435599       15.067895   0.000000   0.000000
     13         14.914786       15.536997   0.000000   0.000000
     14         17.313792       17.923502   0.000000   0.000000
     15         23.709287       23.914759   0.000000   0.000000
     16         24.497014       24.750237   0.000000   0.000000
     17         25.272518       25.640517   0.000000   0.000000
     18         29.255377       29.688493   0.000000   0.000000
     19         30.958298       30.766126   0.000000   0.000000
     20         33.057171       33.427524   0.000000   0.000000
     21         34.764493       34.972180   0.000000   0.000000
     22         36.607865       36.754617   0.000000   0.000000
     23         38.574895       38.738354   0.000000   0.000000
     24         40.883785       41.046475   0.000000   0.000000
     25         44.405175       44.726136   0.000000   0.000000
     26         44.948901       46.642699   0.000000   0.000000
     27         45.707995       48.822424   0.000000   0.000000
     28         46.958672       48.921034   0.000000   0.000000
 
  0.4166667E+00  0.0000000E+00  0.0000000E+00  0.5208333E-02
      1          4.162146        4.768754   1.000000   1.000000
      2          4.558852        5.908781   1.000000   1.000000
      3          4.788339        6.110177   1.000000   1.000000
      4          6.132452        7.056015   1.000000   1.000000
      5          6.140907        7.892558   1.000000   1.000000
      6          6.354152        7.969165   1.000000   1.000000
      7          6.525201        8.196900   1.000000   1.000000
      8          7.689567        9.666186   1.000000   0.000000
      9          7.804611        9.791818   1.000000   0.000000
     10          7.876681        9.904079   1.000000   0.000000
     11          8.584623       10.164683   0.999806   0.000000
     12         13.157808       13.924174   0.000000   0.000000
     13         16.323397       16.834337   0.000000   0.000000
     14         17.294922       17.795606   0.000000   0.000000
     15         21.926325       22.320785   0.000000   0.000000
     16         22.664300       22.892649   0.000000   0.000000
     17         22.739347       23.140199   0.000000   0.000000
     18         28.849893       29.279603   0.000000   0.000000
     19         30.240526       30.040523   0.000000   0.000000
     20         32.015628       32.347413   0.000000   0.000000
     21         34.478067       34.716045   0.000000   0.000000
     22         36.972022       37.192327   0.000000   0.000000
     23         40.821482       40.994993   0.000000   0.000000
     24         41.571771       41.671452   0.000000   0.000000
     25         45.144810       46.610210   0.000000   0.000000
     26         45.784308       47.844928   0.000000   0.000000
     27         46.358785       48.084985   0.000000   0.000000
     28         47.800634       49.017900   0.000000   0.000000
 
  0.5000000E+00  0.2775558E-16  0.0000000E+00  0.2604167E-02
      1          4.401876        5.318335   1.000000   1.000000
      2          4.443376        5.749936   1.000000   1.000000
      3          4.700189        6.034587   1.000000   1.000000
      4          6.094459        7.100727   1.000000   1.000000
      5          6.317250        7.848126   1.000000   1.000000
      6          6.365081        7.921011   1.000000   1.000000
      7          6.587969        8.272667   1.000000   1.000000
      8          7.798063        9.792961   1.000000   0.000000
      9          7.882399        9.910616   1.000000   0.000000
     10          7.924197        9.935044   1.000000   0.000000
     11          9.711671       10.971437   0.000000   0.000000
     12         11.456787       12.492085   0.000000   0.000000
     13         17.567561       17.956741   0.000000   0.000000
     14         18.073633       18.436504   0.000000   0.000000
     15         20.456554       20.979813   0.000000   0.000000
     16         21.239404       21.807271   0.000000   0.000000
     17         22.399587       22.530219   0.000000   0.000000
     18         28.746582       29.181369   0.000000   0.000000
     19         29.993990       29.789379   0.000000   0.000000
     20         31.655664       31.972091   0.000000   0.000000
     21         34.384584       34.632802   0.000000   0.000000
     22         37.106102       37.354530   0.000000   0.000000
     23         41.766883       41.809133   0.000000   0.000000
     24         43.324109       43.356460   0.000000   0.000000
     25         43.582635       43.977519   0.000000   0.000000
     26         45.019499       47.595161   0.000000   0.000000
     27         45.810619       49.647423   0.000000   0.000000
     28         48.486573       50.080040   0.000000   0.000000
 
  0.8333333E-01  0.8333333E-01  0.0000000E+00  0.5208333E-02
      1          1.130536        1.119458   1.000000   1.000000
      2          4.425636        5.512049   1.000000   1.000000
      3          5.871040        7.514762   1.000000   1.000000
      4          6.312890        7.528854   1.000000   1.000000
      5          6.374303        8.132016   1.000000   1.000000
      6          6.521577        8.311850   1.000000   1.000000
      7          6.525254        8.314436   1.000000   1.000000
      8          6.549260        8.374797   1.000000   1.000000
      9          6.763342        8.586779   1.000000   0.999755
     10          6.872334        8.599048   1.000000   0.999154
     11          7.751901        9.756795   1.000000   0.000000
     12         10.602176       11.441100   0.000000   0.000000
     13         14.301501       15.270185   0.000000   0.000000
     14         25.435065       25.654012   0.000000   0.000000
     15         25.870424       26.208662   0.000000   0.000000
     16         31.133329       31.157833   0.000000   0.000000
     17         32.262148       32.124229   0.000000   0.000000
     18         32.376664       32.318356   0.000000   0.000000
     19         32.430810       32.404255   0.000000   0.000000
     20         35.071450       35.238153   0.000000   0.000000
     21         35.407584       35.878547   0.000000   0.000000
     22         35.873816       36.388291   0.000000   0.000000
     23         38.554190       38.649170   0.000000   0.000000
     24         38.919583       39.024399   0.000000   0.000000
     25         39.041269       39.217225   0.000000   0.000000
     26         39.155132       39.484020   0.000000   0.000000
     27         40.253880       40.317533   0.000000   0.000000
     28         44.390118       45.408459   0.000000   0.000000
 
  0.1666667E+00  0.8333333E-01  0.0000000E+00  0.1041667E-01
      1          1.954607        1.960500   1.000000   1.000000
      2          4.747191        5.930745   1.000000   1.000000
      3          5.651618        6.946590   1.000000   1.000000
      4          5.726683        7.220391   1.000000   1.000000
      5          6.278815        7.983863   1.000000   1.000000
      6          6.368004        8.145740   1.000000   1.000000
      7          6.732203        8.467888   1.000000   1.000000
      8          6.732509        8.547481   1.000000   0.999998
      9          6.875862        8.706856   1.000000   0.535986
     10          7.108807        8.970372   1.000000   0.000000
     11          7.789869        9.801956   1.000000   0.000000
     12         12.039327       12.806045   0.000000   0.000000
     13         14.573455       15.433333   0.000000   0.000000
     14         21.936490       22.318265   0.000000   0.000000
     15         24.013376       24.332370   0.000000   0.000000
     16         29.131131       29.160406   0.000000   0.000000
     17         29.891504       30.040318   0.000000   0.000000
     18         31.068747       31.061888   0.000000   0.000000
     19         32.184045       32.402851   0.000000   0.000000
     20         33.095853       33.524957   0.000000   0.000000
     21         35.498642       35.501031   0.000000   0.000000
     22         36.587262       36.995083   0.000000   0.000000
     23         38.441412       38.593740   0.000000   0.000000
     24         38.870377       39.056232   0.000000   0.000000
     25         40.632269       40.839762   0.000000   0.000000
     26         42.404745       42.440659   0.000000   0.000000
     27         42.635419       42.667857   0.000000   0.000000
     28         44.844436       46.906599   0.000000   0.000000
 
  0.2500000E+00  0.8333333E-01  0.0000000E+00  0.1041667E-01
      1          3.029058        3.111562   1.000000   1.000000
      2          4.856393        6.184255   1.000000   1.000000
      3          5.237814        6.508209   1.000000   1.000000
      4          5.604458        7.004398   1.000000   1.000000
      5          6.214372        7.949875   1.000000   1.000000
      6          6.292687        7.952754   1.000000   1.000000
      7          6.570906        8.277278   1.000000   1.000000
      8          7.065043        8.909352   1.000000   0.000000
      9          7.289094        9.180818   1.000000   0.000000
     10          7.583486        9.448553   1.000000   0.000000
     11          7.822039        9.839829   1.000000   0.000000
     12         13.723093       14.403287   0.000000   0.000000
     13         15.007705       15.702708   0.000000   0.000000
     14         18.616918       19.135161   0.000000   0.000000
     15         22.596318       22.902246   0.000000   0.000000
     16         26.051354       26.227486   0.000000   0.000000
     17         27.118346       27.445487   0.000000   0.000000
     18         29.885104       29.875822   0.000000   0.000000
     19         31.299845       31.635764   0.000000   0.000000
     20         31.728098       32.080467   0.000000   0.000000
     21         36.178959       36.148532   0.000000   0.000000
     22         38.235300       38.415237   0.000000   0.000000
     23         38.455352       38.663307   0.000000   0.000000
     24         39.501920       39.730215   0.000000   0.000000
     25         42.180336       42.496735   0.000000   0.000000
     26         45.286894       45.448897   0.000000   0.000000
     27         45.449868       46.674740   0.000000   0.000000
     28         45.537108       48.081603   0.000000   0.000000
 
  0.3333333E+00  0.8333333E-01  0.0000000E+00  0.1041667E-01
      1          3.991889        4.358510   1.000000   1.000000
      2          4.712684        6.083982   1.000000   1.000000
      3          4.906828        6.222347   1.000000   1.000000
      4          5.817658        6.954713   1.000000   1.000000
      5          6.113431        7.832691   1.000000   1.000000
      6          6.414127        8.076316   1.000000   1.000000
      7          6.455543        8.119981   1.000000   1.000000
      8          7.478684        9.375816   1.000000   0.000000
      9          7.639668        9.588921   1.000000   0.000000
     10          7.842305        9.863350   1.000000   0.000000
     11          8.290280       10.031207   1.000000   0.000000
     12         14.454865       15.086064   0.000000   0.000000
     13         15.576329       16.153063   0.000000   0.000000
     14         17.028341       17.607076   0.000000   0.000000
     15         21.518044       21.791499   0.000000   0.000000
     16         23.272782       23.587303   0.000000   0.000000
     17         24.197536       24.613431   0.000000   0.000000
     18         29.048480       29.021580   0.000000   0.000000
     19         30.714092       31.045432   0.000000   0.000000
     20         30.740997       31.098380   0.000000   0.000000
     21         36.141830       36.180135   0.000000   0.000000
     22         38.582176       38.777407   0.000000   0.000000
     23         39.997892       40.184019   0.000000   0.000000
     24         41.254085       41.399180   0.000000   0.000000
     25         44.010076       44.435895   0.000000   0.000000
     26         45.439872       48.239543   0.000000   0.000000
     27         45.756632       48.417844   0.000000   0.000000
     28         48.026315       48.857594   0.000000   0.000000
 
  0.4166667E+00  0.8333333E-01  0.0000000E+00  0.1041667E-01
      1          4.428577        5.270840   1.000000   1.000000
      2          4.571905        5.891621   1.000000   1.000000
      3          4.741762        6.083536   1.000000   1.000000
      4          6.071662        6.988042   1.000000   1.000000
      5          6.148523        7.801353   1.000000   1.000000
      6          6.311099        7.925625   1.000000   1.000000
      7          6.585136        8.274066   1.000000   1.000000
      8          7.768804        9.743871   1.000000   0.000000
      9          7.827856        9.811505   1.000000   0.000000
     10          7.851261        9.873579   1.000000   0.000000
     11          9.511218       10.860993   0.000000   0.000000
     12         12.204375       13.118219   0.000000   0.000000
     13         17.370234       17.814507   0.000000   0.000000
     14         17.950210       18.358645   0.000000   0.000000
     15         20.807440       21.095888   0.000000   0.000000
     16         21.021362       21.485550   0.000000   0.000000
     17         21.995423       22.457038   0.000000   0.000000
     18         28.617390       28.578349   0.000000   0.000000
     19         30.172557       30.498165   0.000000   0.000000
     20         30.468670       30.828005   0.000000   0.000000
     21         35.989093       36.064738   0.000000   0.000000
     22         38.751988       38.984841   0.000000   0.000000
     23         41.789094       41.844809   0.000000   0.000000
     24         42.320340       42.486159   0.000000   0.000000
     25         45.063964       45.357499   0.000000   0.000000
     26         45.087687       47.225933   0.000000   0.000000
     27         45.766156       48.060107   0.000000   0.000000
     28         47.043327       49.550906   0.000000   0.000000
 
  0.1666667E+00  0.1666667E+00  0.0000000E+00  0.5208333E-02
      1          2.887996        2.940396   1.000000   1.000000
      2          5.005610        6.276289   1.000000   1.000000
      3          5.334537        6.594803   1.000000   1.000000
      4          5.412298        6.905899   1.000000   1.000000
      5          6.158420        7.888361   1.000000   1.000000
      6          6.289721        7.955770   1.000000   1.000000
      7          6.645445        8.370883   1.000000   1.000000
      8          6.870531        8.710109   1.000000   0.499332
      9          7.280790        9.159971   1.000000   0.000000
     10          7.601266        9.458932   1.000000   0.000000
     11          7.791308        9.803328   1.000000   0.000000
     12         13.481327       14.182065   0.000000   0.000000
     13         15.010635       15.739042   0.000000   0.000000
     14         20.375084       20.777317   0.000000   0.000000
     15         20.620071       21.038874   0.000000   0.000000
     16         27.701621       27.674017   0.000000   0.000000
     17         28.111234       28.357176   0.000000   0.000000
     18         29.006700       29.329452   0.000000   0.000000
     19         29.645161       29.959357   0.000000   0.000000
     20         34.128158       34.363064   0.000000   0.000000
     21         36.322472       36.489330   0.000000   0.000000
     22         36.559254       36.714204   0.000000   0.000000
     23         39.947026       40.133579   0.000000   0.000000
     24         41.155030       41.294097   0.000000   0.000000
     25         41.616062       41.660097   0.000000   0.000000
     26         42.713924       42.850273   0.000000   0.000000
     27         44.256065       44.732689   0.000000   0.000000
     28         45.466194       48.679920   0.000000   0.000000
 
  0.2500000E+00  0.1666667E+00  0.0000000E+00  0.1041667E-01
      1          3.918633        4.132675   1.000000   1.000000
      2          4.998372        6.340128   1.000000   1.000000
      3          5.025492        6.361108   1.000000   1.000000
      4          5.398392        6.729889   1.000000   1.000000
      5          6.031895        7.720916   1.000000   1.000000
      6          6.412813        8.072700   1.000000   1.000000
      7          6.488720        8.177895   1.000000   1.000000
      8          7.124572        8.994936   1.000000   0.000000
      9          7.642406        9.580709   1.000000   0.000000
     10          7.789499        9.801073   1.000000   0.000000
     11          8.298625       10.065787   1.000000   0.000000
     12         15.198040       15.817714   0.000000   0.000000
     13         15.492392       16.064843   0.000000   0.000000
     14         17.567413       18.110859   0.000000   0.000000
     15         19.379591       19.781366   0.000000   0.000000
     16         24.977271       25.197124   0.000000   0.000000
     17         26.052407       26.437644   0.000000   0.000000
     18         26.962031       27.097991   0.000000   0.000000
     19         28.387785       28.739052   0.000000   0.000000
     20         34.245098       34.509349   0.000000   0.000000
     21         37.882148       37.775775   0.000000   0.000000
     22         38.721030       39.004764   0.000000   0.000000
     23         40.561502       40.713043   0.000000   0.000000
     24         41.069405       41.226096   0.000000   0.000000
     25         43.392903       43.694980   0.000000   0.000000
     26         44.586667       44.616403   0.000000   0.000000
     27         45.445856       46.777978   0.000000   0.000000
     28         45.517231       49.003656   0.000000   0.000000
 
  0.3333333E+00  0.1666667E+00  0.0000000E+00  0.1041667E-01
      1          4.573382        5.220112   1.000000   1.000000
      2          4.831802        6.180565   1.000000   1.000000
      3          4.834997        6.193739   1.000000   1.000000
      4          5.675719        6.745460   1.000000   1.000000
      5          5.996422        7.670460   1.000000   1.000000
      6          6.319923        7.961364   1.000000   1.000000
      7          6.581598        8.274640   1.000000   1.000000
      8          7.459462        9.371943   1.000000   0.000000
      9          7.787269        9.796432   1.000000   0.000000
     10          7.820396        9.798188   1.000000   0.000000
     11          9.389911       10.857838   0.000000   0.000000
     12         13.796974       14.505540   0.000000   0.000000
     13         17.078823       17.597857   0.000000   0.000000
     14         17.586997       18.061551   0.000000   0.000000
     15         18.674461       19.049269   0.000000   0.000000
     16         22.384703       22.751066   0.000000   0.000000
     17         23.273637       23.713982   0.000000   0.000000
     18         26.381595       26.500340   0.000000   0.000000
     19         27.680226       28.029249   0.000000   0.000000
     20         33.905200       34.189260   0.000000   0.000000
     21         38.629609       38.527347   0.000000   0.000000
     22         40.984396       41.100155   0.000000   0.000000
     23         41.987465       42.202060   0.000000   0.000000
     24         42.039670       42.207995   0.000000   0.000000
     25         43.495352       43.773759   0.000000   0.000000
     26         45.313508       47.259498   0.000000   0.000000
     27         45.653227       47.905531   0.000000   0.000000
     28         47.064991       47.961043   0.000000   0.000000
 
  0.4166667E+00  0.1666667E+00  0.0000000E+00  0.5208333E-02
      1          4.728859        5.697206   1.000000   1.000000
      2          4.754562        6.064083   1.000000   1.000000
      3          4.771210        6.146795   1.000000   1.000000
      4          5.871477        6.776445   1.000000   1.000000
      5          6.009047        7.701853   1.000000   1.000000
      6          6.232988        7.831724   1.000000   1.000000
      7          6.653014        8.364491   1.000000   1.000000
      8          7.684151        9.635381   1.000000   0.000000
      9          7.786183        9.780660   1.000000   0.000000
     10          7.802421        9.796761   1.000000   0.000000
     11         10.654275       11.711016   0.000000   0.000000
     12         11.963371       12.977709   0.000000   0.000000
     13         18.146435       18.528016   0.000000   0.000000
     14         18.421275       18.833052   0.000000   0.000000
     15         18.736448       19.094809   0.000000   0.000000
     16         20.806152       21.292200   0.000000   0.000000
     17         21.790941       22.291632   0.000000   0.000000
     18         26.188061       26.303529   0.000000   0.000000
     19         27.433043       27.777921   0.000000   0.000000
     20         33.774814       34.063932   0.000000   0.000000
     21         38.744856       38.663888   0.000000   0.000000
     22         41.668549       41.872803   0.000000   0.000000
     23         41.987443       42.007679   0.000000   0.000000
     24         43.781722       43.798223   0.000000   0.000000
     25         44.839763       45.261032   0.000000   0.000000
     26         45.089796       46.633642   0.000000   0.000000
     27         45.645802       46.769029   0.000000   0.000000
     28         46.446918       48.393687   0.000000   0.000000
 
  0.2500000E+00  0.2500000E+00  0.0000000E+00  0.5208333E-02
      1          4.681640        5.205428   1.000000   1.000000