PROCAR lm decomposed
# of k-points:   95         # of bands:   28         # of ions:    2

 k-point     1 :    0.00000000 0.00000000 0.00000000     weight = 0.00086806

band     1 # energy    0.47260449 # occ.  1.00000000
 
ion      s     py     pz     px    dxy    dyz    dz2    dxz  x2-y2    tot
    1  0.319  0.000  0.000  0.000  0.000  0.000  0.000  0.000  0.000  0.319
    2  0.319  0.000  0.000  0.000  0.000  0.000  0.000  0.000  0.000  0.319
tot    0.638  0.000  0.000  0.000  0.000  0.000  0.000  0.000  0.000  0.638
 
band     2 # energy    4.07303929 # occ.  1.00000000
 
ion      s     py     pz     px    dxy    dyz    dz2    dxz  x2-y2    tot
    1  0.069  0.000  0.000  0.000  0.000  0.000  0.359  0.000  0.000  0.428
    2  0.069  0.000  0.000  0.000  0.000  0.000  0.359  0.000  0.000  0.428
tot    0.139  0.000  0.000  0.000  0.000  0.000  0.718  0.000  0.000  0.857
 
band     3 # energy    6.22876857 # occ.  1.00000000
 
ion      s     py     pz     px    dxy    dyz    dz2    dxz  x2-y2    tot
    1  0.000  0.000  0.000  0.000  0.000  0.000  0.482  0.000  0.000  0.482
    2  0.000  0.000  0.000  0.000  0.000  0.000  0.482  0.000  0.000  0.482
tot    0.000  0.000  0.000  0.000  0.000  0.000  0.964  0.000  0.000  0.964
 
band     4 # energy    6.23813723 # occ.  1.00000000
 
ion      s     py     pz     px    dxy    dyz    dz2    dxz  x2-y2    tot
    1  0.000  0.000  0.000  0.000  0.000  0.000  0.000  0.000  0.479  0.479
    2  0.000  0.000  0.000  0.000  0.000  0.000  0.000  0.000  0.479  0.479
tot    0.000  0.001  0.000  0.000  0.000  0.000  0.000  0.000  0.957  0.958
 
band     5 # energy    6.23813771 # occ.  1.00000000
 
ion      s     py     pz     px    dxy    dyz    dz2    dxz  x2-y2    tot
    1  0.000  0.000  0.000  0.000  0.479  0.000  0.000  0.000  0.000  0.479
    2  0.000  0.000  0.000  0.000  0.479  0.000  0.000  0.000  0.000  0.479
tot    0.000  0.000  0.000  0.001  0.957  0.000  0.000  0.000  0.000  0.958
 
band     6 # energy    6.49532559 # occ.  1.00000000
 
ion      s     py     pz     px    dxy    dyz    dz2    dxz  x2-y2    tot
    1  0.000  0.001  0.000  0.000  0.000  0.000  0.000  0.000  0.483  0.484
    2  0.000  0.001  0.000  0.000  0.000  0.000  0.000  0.000  0.483  0.484
tot    0.000  0.001  0.000  0.000  0.000  0.000  0.000  0.000  0.967  0.968
 
band     7 # energy    6.49532606 # occ.  1.00000000
 
ion      s     py     pz     px    dxy    dyz    dz2    dxz  x2-y2    tot
    1  0.000  0.000  0.000  0.001  0.483  0.000  0.000  0.000  0.000  0.484
    2  0.000  0.000  0.000  0.001  0.483  0.000  0.000  0.000  0.000  0.484
tot    0.000  0.000  0.000  0.001  0.967  0.000  0.000  0.000  0.000  0.968
 
band     8 # energy    6.77015557 # occ.  1.00000000
 
ion      s     py     pz     px    dxy    dyz    dz2    dxz  x2-y2    tot
    1  0.000  0.000  0.000  0.000  0.000  0.487  0.000  0.000  0.000  0.487
    2  0.000  0.000  0.000  0.000  0.000  0.487  0.000  0.000  0.000  0.487
tot    0.000  0.000  0.000  0.000  0.000  0.974  0.000  0.000  0.000  0.974
 
band     9 # energy    6.77015557 # occ.  1.00000000
 
ion      s     py     pz     px    dxy    dyz    dz2    dxz  x2-y2    tot
    1  0.000  0.000  0.000  0.000  0.000  0.000  0.000  0.487  0.000  0.487
    2  0.000  0.000  0.000  0.000  0.000  0.000  0.000  0.487  0.000  0.487
tot    0.000  0.000  0.000  0.000  0.000  0.000  0.000  0.974  0.000  0.974
 
band    10 # energy    7.69690449 # occ.  1.00000000
 
ion      s     py     pz     px    dxy    dyz    dz2    dxz  x2-y2    tot
    1  0.000  0.000  0.000  0.000  0.000  0.000  0.000  0.492  0.000  0.492
    2  0.000  0.000  0.000  0.000  0.000  0.000  0.000  0.492  0.000  0.492
tot    0.000  0.000  0.000  0.000  0.000  0.000  0.000  0.984  0.000  0.984
 
band    11 # energy    7.69690454 # occ.  1.00000000
 
ion      s     py     pz     px    dxy    dyz    dz2    dxz  x2-y2    tot
    1  0.000  0.000  0.000  0.000  0.000  0.492  0.000  0.000  0.000  0.492
    2  0.000  0.000  0.000  0.000  0.000  0.492  0.000  0.000  0.000  0.492
tot    0.000  0.000  0.000  0.000  0.000  0.984  0.000  0.000  0.000  0.984
 
band    12 # energy    8.75500644 # occ.  0.10176138
 
ion      s     py     pz     px    dxy    dyz    dz2    dxz  x2-y2    tot
    1  0.000  0.000  0.299  0.000  0.000  0.000  0.000  0.000  0.000  0.299
    2  0.000  0.000  0.299  0.000  0.000  0.000  0.000  0.000  0.000  0.299
tot    0.000  0.000  0.598  0.000  0.000  0.000  0.000  0.000  0.000  0.598
 
band    13 # energy   14.13756381 # occ.  0.00000000
 
ion      s     py     pz     px    dxy    dyz    dz2    dxz  x2-y2    tot
    1  0.217  0.000  0.000  0.000  0.000  0.000  0.207  0.000  0.000  0.425
    2  0.217  0.000  0.000  0.000  0.000  0.000  0.207  0.000  0.000  0.425
tot    0.435  0.000  0.000  0.000  0.000  0.000  0.415  0.000  0.000  0.850
 
band    14 # energy   29.69643242 # occ.  0.00000000
 
ion      s     py     pz     px    dxy    dyz    dz2    dxz  x2-y2    tot
    1  0.007  0.000  0.000  0.000  0.000  0.000  0.032  0.000  0.000  0.039
    2  0.007  0.000  0.000  0.000  0.000  0.000  0.032  0.000  0.000  0.039
tot    0.013  0.000  0.000  0.000  0.000  0.000  0.064  0.000  0.000  0.078
 
band    15 # energy   31.17196605 # occ.  0.00000000
 
ion      s     py     pz     px    dxy    dyz    dz2    dxz  x2-y2    tot
    1  0.000  0.274  0.000  0.000  0.000  0.000  0.000  0.000  0.092  0.366
    2  0.000  0.274  0.000  0.000  0.000  0.000  0.000  0.000  0.092  0.366
tot    0.000  0.549  0.000  0.000  0.000  0.000  0.000  0.000  0.183  0.732
 
band    16 # energy   31.17196945 # occ.  0.00000000
 
ion      s     py     pz     px    dxy    dyz    dz2    dxz  x2-y2    tot
    1  0.000  0.000  0.000  0.274  0.092  0.000  0.000  0.000  0.000  0.366
    2  0.000  0.000  0.000  0.274  0.092  0.000  0.000  0.000  0.000  0.366
tot    0.000  0.000  0.000  0.549  0.183  0.000  0.000  0.000  0.000  0.732
 
band    17 # energy   32.46567495 # occ.  0.00000000
 
ion      s     py     pz     px    dxy    dyz    dz2    dxz  x2-y2    tot
    1  0.025  0.000  0.000  0.000  0.000  0.000  0.073  0.000  0.000  0.098
    2  0.025  0.000  0.000  0.000  0.000  0.000  0.073  0.000  0.000  0.098
tot    0.051  0.000  0.000  0.000  0.000  0.000  0.146  0.000  0.000  0.197
 
band    18 # energy   32.64411682 # occ.  0.00000000
 
ion      s     py     pz     px    dxy    dyz    dz2    dxz  x2-y2    tot
    1  0.000  0.097  0.000  0.000  0.000  0.000  0.000  0.000  0.309  0.406
    2  0.000  0.097  0.000  0.000  0.000  0.000  0.000  0.000  0.309  0.406
tot    0.000  0.194  0.000  0.000  0.000  0.000  0.000  0.000  0.618  0.811
 
band    19 # energy   32.64412139 # occ.  0.00000000
 
ion      s     py     pz     px    dxy    dyz    dz2    dxz  x2-y2    tot
    1  0.000  0.000  0.000  0.097  0.309  0.000  0.000  0.000  0.000  0.406
    2  0.000  0.000  0.000  0.097  0.309  0.000  0.000  0.000  0.000  0.406
tot    0.000  0.000  0.000  0.194  0.618  0.000  0.000  0.000  0.000  0.811
 
band    20 # energy   32.99405168 # occ.  0.00000000
 
ion      s     py     pz     px    dxy    dyz    dz2    dxz  x2-y2    tot
    1  0.000  0.000  0.038  0.000  0.000  0.000  0.000  0.000  0.000  0.038
    2  0.000  0.000  0.038  0.000  0.000  0.000  0.000  0.000  0.000  0.038
tot    0.000  0.000  0.076  0.000  0.000  0.000  0.000  0.000  0.000  0.076
 
band    21 # energy   37.50877105 # occ.  0.00000000
 
ion      s     py     pz     px    dxy    dyz    dz2    dxz  x2-y2    tot
    1  0.000  0.000  0.000  0.000  0.000  0.120  0.000  0.000  0.000  0.120
    2  0.000  0.000  0.000  0.000  0.000  0.120  0.000  0.000  0.000  0.120
tot    0.000  0.000  0.000  0.000  0.000  0.240  0.000  0.000  0.000  0.240
 
band    22 # energy   37.50877225 # occ.  0.00000000
 
ion      s     py     pz     px    dxy    dyz    dz2    dxz  x2-y2    tot
    1  0.000  0.000  0.000  0.000  0.000  0.000  0.000  0.120  0.000  0.120
    2  0.000  0.000  0.000  0.000  0.000  0.000  0.000  0.120  0.000  0.120
tot    0.000  0.000  0.000  0.000  0.000  0.000  0.000  0.240  0.000  0.240
 
band    23 # energy   37.82236828 # occ.  0.00000000
 
ion      s     py     pz     px    dxy    dyz    dz2    dxz  x2-y2    tot
    1  0.003  0.000  0.000  0.000  0.000  0.000  0.521  0.000  0.000  0.523
    2  0.003  0.000  0.000  0.000  0.000  0.000  0.521  0.000  0.000  0.523
tot    0.005  0.000  0.000  0.000  0.000  0.000  1.041  0.000  0.000  1.047
 
band    24 # energy   38.78263836 # occ.  0.00000000
 
ion      s     py     pz     px    dxy    dyz    dz2    dxz  x2-y2    tot
    1  0.000  0.000  0.047  0.000  0.000  0.000  0.000  0.000  0.000  0.047
    2  0.000  0.000  0.047  0.000  0.000  0.000  0.000  0.000  0.000  0.047
tot    0.000  0.000  0.094  0.000  0.000  0.000  0.000  0.000  0.000  0.094
 
band    25 # energy   40.05510526 # occ.  0.00000000
 
ion      s     py     pz     px    dxy    dyz    dz2    dxz  x2-y2    tot
    1  0.000  0.000  0.346  0.000  0.000  0.000  0.000  0.000  0.000  0.346
    2  0.000  0.000  0.346  0.000  0.000  0.000  0.000  0.000  0.000  0.346
tot    0.000  0.000  0.692  0.000  0.000  0.000  0.000  0.000  0.000  0.692
 
band    26 # energy   40.05514041 # occ.  0.00000000
 
ion      s     py     pz     px    dxy    dyz    dz2    dxz  x2-y2    tot
    1  0.000  0.000  0.000  0.000  0.000  0.454  0.000  0.000  0.000  0.454
    2  0.000  0.000  0.000  0.000  0.000  0.454  0.000  0.000  0.000  0.454
tot    0.000  0.000  0.000  0.000  0.000  0.907  0.000  0.000  0.000  0.907
 
band    27 # energy   40.05514109 # occ.  0.00000000
 
ion      s     py     pz     px    dxy    dyz    dz2    dxz  x2-y2    tot
    1  0.000  0.000  0.000  0.000  0.000  0.000  0.000  0.454  0.000  0.454
    2  0.000  0.000  0.000  0.000  0.000  0.000  0.000  0.454  0.000  0.454
tot    0.000  0.000  0.000  0.000  0.000  0.000  0.000  0.907  0.000  0.907
 
band    28 # energy   41.78329440 # occ.  0.00000000
 
ion      s     py     pz     px    dxy    dyz    dz2    dxz  x2-y2    tot
    1  0.000  0.009  0.000  0.088  0.443  0.000  0.000  0.000  0.046  0.586
    2  0.000  0.009  0.000  0.088  0.443  0.000  0.000  0.000  0.046  0.586
tot    0.000  0.018  0.000  0.176  0.885  0.000  0.000  0.000  0.091  1.171
 

 k-point     2 :    0.08333333 0.00000000 0.00000000     weight = 0.00520833

band     1 # energy    0.69523575 # occ.  1.00000000
 
ion      s     py     pz     px    dxy    dyz    dz2    dxz  x2-y2    tot
    1  0.312  0.002  0.000  0.005  0.000  0.000  0.000  0.000  0.000  0.319
    2  0.312  0.002  0.000  0.005  0.000  0.000  0.000  0.000  0.000  0.319
tot    0.625  0.003  0.000  0.010  0.000  0.000  0.000  0.000  0.000  0.639
 
band     2 # energy    4.20011345 # occ.  1.00000000
 
ion      s     py     pz     px    dxy    dyz    dz2    dxz  x2-y2    tot
    1  0.063  0.001  0.000  0.003  0.002  0.000  0.361  0.000  0.001  0.430
    2  0.063  0.001  0.000  0.003  0.002  0.000  0.361  0.000  0.001  0.430
tot    0.126  0.002  0.000  0.006  0.004  0.000  0.722  0.000  0.001  0.860
 
band     3 # energy    6.04679775 # occ.  1.00000000
 
ion      s     py     pz     px    dxy    dyz    dz2    dxz  x2-y2    tot
    1  0.000  0.000  0.000  0.001  0.234  0.000  0.164  0.000  0.078  0.476
    2  0.000  0.000  0.000  0.001  0.234  0.000  0.164  0.000  0.078  0.476
tot    0.000  0.000  0.000  0.001  0.468  0.000  0.327  0.000  0.156  0.953
 
band     4 # energy    6.33257615 # occ.  1.00000000
 
ion      s     py     pz     px    dxy    dyz    dz2    dxz  x2-y2    tot
    1  0.000  0.001  0.000  0.000  0.120  0.000  0.000  0.000  0.359  0.479
    2  0.000  0.001  0.000  0.000  0.120  0.000  0.000  0.000  0.359  0.479
tot    0.000  0.001  0.000  0.000  0.239  0.000  0.000  0.000  0.718  0.959
 
band     5 # energy    6.39074801 # occ.  1.00000000
 
ion      s     py     pz     px    dxy    dyz    dz2    dxz  x2-y2    tot
    1  0.000  0.000  0.000  0.000  0.154  0.000  0.277  0.000  0.051  0.482
    2  0.000  0.000  0.000  0.000  0.154  0.000  0.277  0.000  0.051  0.482
tot    0.000  0.000  0.000  0.001  0.308  0.000  0.553  0.000  0.103  0.965
 
band     6 # energy    6.45951003 # occ.  1.00000000
 
ion      s     py     pz     px    dxy    dyz    dz2    dxz  x2-y2    tot
    1  0.001  0.000  0.000  0.000  0.328  0.000  0.043  0.000  0.109  0.483
    2  0.001  0.000  0.000  0.000  0.328  0.000  0.043  0.000  0.109  0.483
tot    0.002  0.000  0.000  0.001  0.657  0.000  0.087  0.000  0.219  0.965
 
band     7 # energy    6.57869565 # occ.  1.00000000
 
ion      s     py     pz     px    dxy    dyz    dz2    dxz  x2-y2    tot
    1  0.000  0.001  0.000  0.000  0.121  0.000  0.000  0.000  0.363  0.484
    2  0.000  0.001  0.000  0.000  0.121  0.000  0.000  0.000  0.363  0.484
tot    0.000  0.001  0.000  0.000  0.242  0.000  0.000  0.000  0.725  0.969
 
band     8 # energy    6.65656840 # occ.  1.00000000
 
ion      s     py     pz     px    dxy    dyz    dz2    dxz  x2-y2    tot
    1  0.000  0.000  0.006  0.000  0.000  0.119  0.000  0.356  0.000  0.481
    2  0.000  0.000  0.006  0.000  0.000  0.119  0.000  0.356  0.000  0.481
tot    0.000  0.000  0.012  0.000  0.000  0.237  0.000  0.712  0.000  0.961
 
band     9 # energy    6.71242918 # occ.  1.00000000
 
ion      s     py     pz     px    dxy    dyz    dz2    dxz  x2-y2    tot
    1  0.000  0.000  0.000  0.000  0.000  0.365  0.000  0.122  0.000  0.486
    2  0.000  0.000  0.000  0.000  0.000  0.365  0.000  0.122  0.000  0.486
tot    0.000  0.000  0.000  0.000  0.000  0.729  0.000  0.243  0.000  0.972
 
band    10 # energy    7.13227009 # occ.  1.00000000
 
ion      s     py     pz     px    dxy    dyz    dz2    dxz  x2-y2    tot
    1  0.000  0.000  0.060  0.000  0.000  0.097  0.000  0.290  0.000  0.447
    2  0.000  0.000  0.060  0.000  0.000  0.097  0.000  0.290  0.000  0.447
tot    0.000  0.000  0.121  0.000  0.000  0.193  0.000  0.579  0.000  0.893
 
band    11 # energy    7.72128736 # occ.  1.00000000
 
ion      s     py     pz     px    dxy    dyz    dz2    dxz  x2-y2    tot
    1  0.000  0.000  0.000  0.000  0.000  0.369  0.000  0.123  0.000  0.492
    2  0.000  0.000  0.000  0.000  0.000  0.369  0.000  0.123  0.000  0.492
tot    0.000  0.000  0.000  0.000  0.000  0.739  0.000  0.246  0.000  0.985
 
band    12 # energy    9.59701386 # occ.  0.00000000
 
ion      s     py     pz     px    dxy    dyz    dz2    dxz  x2-y2    tot
    1  0.000  0.000  0.230  0.000  0.000  0.030  0.000  0.090  0.000  0.351
    2  0.000  0.000  0.230  0.000  0.000  0.030  0.000  0.090  0.000  0.351
tot    0.000  0.000  0.461  0.000  0.000  0.060  0.000  0.181  0.000  0.702
 
band    13 # energy   14.18804453 # occ.  0.00000000
 
ion      s     py     pz     px    dxy    dyz    dz2    dxz  x2-y2    tot
    1  0.214  0.002  0.000  0.005  0.000  0.000  0.201  0.000  0.000  0.422
    2  0.214  0.002  0.000  0.005  0.000  0.000  0.201  0.000  0.000  0.422
tot    0.429  0.003  0.000  0.009  0.000  0.000  0.402  0.000  0.000  0.844
 
band    14 # energy   27.42649213 # occ.  0.00000000
 
ion      s     py     pz     px    dxy    dyz    dz2    dxz  x2-y2    tot
    1  0.016  0.031  0.000  0.093  0.096  0.000  0.020  0.000  0.032  0.287
    2  0.016  0.031  0.000  0.093  0.096  0.000  0.020  0.000  0.032  0.287
tot    0.032  0.062  0.000  0.186  0.191  0.000  0.040  0.000  0.064  0.575
 
band    15 # energy   29.28299262 # occ.  0.00000000
 
ion      s     py     pz     px    dxy    dyz    dz2    dxz  x2-y2    tot
    1  0.000  0.177  0.000  0.059  0.033  0.000  0.000  0.000  0.098  0.366
    2  0.000  0.177  0.000  0.059  0.033  0.000  0.000  0.000  0.098  0.366
tot    0.000  0.353  0.000  0.118  0.065  0.000  0.000  0.000  0.196  0.733
 
band    16 # energy   29.72509697 # occ.  0.00000000
 
ion      s     py     pz     px    dxy    dyz    dz2    dxz  x2-y2    tot
    1  0.020  0.018  0.000  0.054  0.054  0.000  0.037  0.000  0.018  0.201
    2  0.020  0.018  0.000  0.054  0.054  0.000  0.037  0.000  0.018  0.201
tot    0.041  0.036  0.000  0.109  0.107  0.000  0.073  0.000  0.036  0.402
 
band    17 # energy   33.00712992 # occ.  0.00000000
 
ion      s     py     pz     px    dxy    dyz    dz2    dxz  x2-y2    tot
    1  0.000  0.000  0.013  0.000  0.000  0.012  0.000  0.035  0.000  0.060
    2  0.000  0.000  0.013  0.000  0.000  0.012  0.000  0.035  0.000  0.060
tot    0.000  0.000  0.026  0.000  0.000  0.024  0.000  0.071  0.000  0.120
 
band    18 # energy   33.16282389 # occ.  0.00000000
 
ion      s     py     pz     px    dxy    dyz    dz2    dxz  x2-y2    tot
    1  0.005  0.014  0.000  0.041  0.032  0.000  0.036  0.000  0.011  0.139
    2  0.005  0.014  0.000  0.041  0.032  0.000  0.036  0.000  0.011  0.139
tot    0.010  0.028  0.000  0.083  0.064  0.000  0.073  0.000  0.021  0.279
 
band    19 # energy   34.50582679 # occ.  0.00000000
 
ion      s     py     pz     px    dxy    dyz    dz2    dxz  x2-y2    tot
    1  0.000  0.000  0.038  0.000  0.000  0.026  0.000  0.078  0.000  0.141
    2  0.000  0.000  0.038  0.000  0.000  0.026  0.000  0.078  0.000  0.141
tot    0.000  0.000  0.075  0.000  0.000  0.052  0.000  0.156  0.000  0.283
 
band    20 # energy   34.78360311 # occ.  0.00000000
 
ion      s     py     pz     px    dxy    dyz    dz2    dxz  x2-y2    tot
    1  0.000  0.096  0.000  0.032  0.069  0.000  0.000  0.000  0.206  0.402
    2  0.000  0.096  0.000  0.032  0.069  0.000  0.000  0.000  0.206  0.402
tot    0.000  0.192  0.000  0.064  0.137  0.000  0.000  0.000  0.412  0.805
 
band    21 # energy   35.51464925 # occ.  0.00000000
 
ion      s     py     pz     px    dxy    dyz    dz2    dxz  x2-y2    tot
    1  0.006  0.045  0.000  0.136  0.079  0.000  0.007  0.000  0.026  0.300
    2  0.006  0.045  0.000  0.136  0.079  0.000  0.007  0.000  0.026  0.300
tot    0.011  0.091  0.000  0.272  0.159  0.000  0.014  0.000  0.053  0.599
 
band    22 # energy   36.88888059 # occ.  0.00000000
 
ion      s     py     pz     px    dxy    dyz    dz2    dxz  x2-y2    tot
    1  0.000  0.000  0.000  0.000  0.000  0.174  0.000  0.058  0.000  0.232
    2  0.000  0.000  0.000  0.000  0.000  0.174  0.000  0.058  0.000  0.232
tot    0.000  0.000  0.000  0.000  0.000  0.348  0.000  0.116  0.000  0.464
 
band    23 # energy   37.39011371 # occ.  0.00000000
 
ion      s     py     pz     px    dxy    dyz    dz2    dxz  x2-y2    tot
    1  0.001  0.007  0.000  0.022  0.062  0.000  0.385  0.000  0.021  0.498
    2  0.001  0.007  0.000  0.022  0.062  0.000  0.385  0.000  0.021  0.498
tot    0.002  0.014  0.000  0.043  0.125  0.000  0.770  0.000  0.042  0.996
 
band    24 # energy   37.39710362 # occ.  0.00000000
 
ion      s     py     pz     px    dxy    dyz    dz2    dxz  x2-y2    tot
    1  0.000  0.000  0.217  0.000  0.000  0.029  0.000  0.088  0.000  0.334
    2  0.000  0.000  0.217  0.000  0.000  0.029  0.000  0.088  0.000  0.334
tot    0.000  0.000  0.433  0.000  0.000  0.059  0.000  0.176  0.000  0.668
 
band    25 # energy   39.26097466 # occ.  0.00000000
 
ion      s     py     pz     px    dxy    dyz    dz2    dxz  x2-y2    tot
    1  0.000  0.177  0.000  0.059  0.063  0.000  0.000  0.000  0.188  0.486
    2  0.000  0.177  0.000  0.059  0.063  0.000  0.000  0.000  0.188  0.486
tot    0.000  0.354  0.000  0.118  0.125  0.000  0.000  0.000  0.375  0.973
 
band    26 # energy   39.53925850 # occ.  0.00000000
 
ion      s     py     pz     px    dxy    dyz    dz2    dxz  x2-y2    tot
    1  0.054  0.025  0.000  0.074  0.188  0.000  0.120  0.000  0.063  0.522
    2  0.054  0.025  0.000  0.074  0.188  0.000  0.120  0.000  0.063  0.522
tot    0.108  0.049  0.000  0.147  0.376  0.000  0.240  0.000  0.125  1.045
 
band    27 # energy   41.07505040 # occ.  0.00000000
 
ion      s     py     pz     px    dxy    dyz    dz2    dxz  x2-y2    tot
    1  0.000  0.000  0.000  0.000  0.000  0.255  0.000  0.085  0.000  0.340
    2  0.000  0.000  0.000  0.000  0.000  0.255  0.000  0.085  0.000  0.340
tot    0.000  0.000  0.000  0.000  0.000  0.510  0.000  0.170  0.000  0.679
 
band    28 # energy   41.65339840 # occ.  0.00000000
 
ion      s     py     pz     px    dxy    dyz    dz2    dxz  x2-y2    tot
    1  0.000  0.000  0.064  0.000  0.000  0.018  0.000  0.053  0.000  0.134
    2  0.000  0.000  0.064  0.000  0.000  0.018  0.000  0.053  0.000  0.134
tot    0.000  0.000  0.128  0.000  0.000  0.035  0.000  0.105  0.000  0.269
 

 k-point     3 :    0.16666667 0.00000000 0.00000000     weight = 0.00520833

band     1 # energy    1.34180955 # occ.  1.00000000
 
ion      s     py     pz     px    dxy    dyz    dz2    dxz  x2-y2    tot
    1  0.292  0.006  0.000  0.019  0.002  0.000  0.001  0.000  0.001  0.320
    2  0.292  0.006  0.000  0.019  0.002  0.000  0.001  0.000  0.001  0.320
tot    0.584  0.013  0.000  0.038  0.004  0.000  0.002  0.000  0.001  0.641
 
band     2 # energy    4.51430993 # occ.  1.00000000
 
ion      s     py     pz     px    dxy    dyz    dz2    dxz  x2-y2    tot
    1  0.045  0.003  0.000  0.009  0.018  0.000  0.354  0.000  0.006  0.436
    2  0.045  0.003  0.000  0.009  0.018  0.000  0.354  0.000  0.006  0.436
tot    0.090  0.006  0.000  0.019  0.037  0.000  0.708  0.000  0.012  0.871
 
band     3 # energy    5.82498324 # occ.  1.00000000
 
ion      s     py     pz     px    dxy    dyz    dz2    dxz  x2-y2    tot
    1  0.000  0.001  0.000  0.003  0.261  0.000  0.116  0.000  0.087  0.469
    2  0.000  0.001  0.000  0.003  0.261  0.000  0.116  0.000  0.087  0.469
tot    0.000  0.002  0.000  0.007  0.523  0.000  0.232  0.000  0.174  0.938
 
band     4 # energy    6.10864275 # occ.  1.00000000
 
ion      s     py     pz     px    dxy    dyz    dz2    dxz  x2-y2    tot
    1  0.000  0.000  0.043  0.000  0.000  0.101  0.000  0.302  0.000  0.445
    2  0.000  0.000  0.043  0.000  0.000  0.101  0.000  0.302  0.000  0.445
tot    0.000  0.000  0.085  0.000  0.000  0.201  0.000  0.604  0.000  0.891
 
band     5 # energy    6.32020446 # occ.  1.00000000
 
ion      s     py     pz     px    dxy    dyz    dz2    dxz  x2-y2    tot
    1  0.004  0.000  0.000  0.001  0.314  0.000  0.055  0.000  0.105  0.479
    2  0.004  0.000  0.000  0.001  0.314  0.000  0.055  0.000  0.105  0.479
tot    0.007  0.001  0.000  0.002  0.627  0.000  0.111  0.000  0.209  0.957
 
band     6 # energy    6.56914766 # occ.  1.00000000
 
ion      s     py     pz     px    dxy    dyz    dz2    dxz  x2-y2    tot
    1  0.000  0.000  0.000  0.000  0.000  0.363  0.000  0.121  0.000  0.484
    2  0.000  0.000  0.000  0.000  0.000  0.363  0.000  0.121  0.000  0.484
tot    0.000  0.000  0.000  0.000  0.000  0.726  0.000  0.242  0.000  0.968
 
band     7 # energy    6.59861846 # occ.  1.00000000
 
ion      s     py     pz     px    dxy    dyz    dz2    dxz  x2-y2    tot
    1  0.000  0.001  0.000  0.000  0.120  0.000  0.000  0.000  0.360  0.481
    2  0.000  0.001  0.000  0.000  0.120  0.000  0.000  0.000  0.360  0.481
tot    0.000  0.002  0.000  0.001  0.240  0.000  0.000  0.000  0.719  0.962
 
band     8 # energy    6.64471165 # occ.  1.00000000
 
ion      s     py     pz     px    dxy    dyz    dz2    dxz  x2-y2    tot
    1  0.001  0.000  0.000  0.001  0.114  0.000  0.330  0.000  0.038  0.483
    2  0.001  0.000  0.000  0.001  0.114  0.000  0.330  0.000  0.038  0.483
tot    0.002  0.001  0.000  0.002  0.227  0.000  0.659  0.000  0.076  0.967
 
band     9 # energy    6.77330031 # occ.  1.00000000
 
ion      s     py     pz     px    dxy    dyz    dz2    dxz  x2-y2    tot
    1  0.000  0.000  0.029  0.000  0.000  0.110  0.000  0.329  0.000  0.467
    2  0.000  0.000  0.029  0.000  0.000  0.110  0.000  0.329  0.000  0.467
tot    0.000  0.000  0.058  0.000  0.000  0.219  0.000  0.658  0.000  0.934
 
band    10 # energy    6.81185365 # occ.  1.00000000
 
ion      s     py     pz     px    dxy    dyz    dz2    dxz  x2-y2    tot
    1  0.000  0.001  0.000  0.000  0.121  0.000  0.000  0.000  0.363  0.486
    2  0.000  0.001  0.000  0.000  0.121  0.000  0.000  0.000  0.363  0.486
tot    0.000  0.002  0.000  0.001  0.242  0.000  0.000  0.000  0.726  0.971
 
band    11 # energy    7.77355963 # occ.  1.00000000
 
ion      s     py     pz     px    dxy    dyz    dz2    dxz  x2-y2    tot
    1  0.000  0.000  0.000  0.000  0.000  0.370  0.000  0.123  0.000  0.494
    2  0.000  0.000  0.000  0.000  0.000  0.370  0.000  0.123  0.000  0.494
tot    0.000  0.000  0.000  0.000  0.000  0.740  0.000  0.247  0.000  0.987
 
band    12 # energy   11.00236066 # occ.  0.00000000
 
ion      s     py     pz     px    dxy    dyz    dz2    dxz  x2-y2    tot
    1  0.000  0.000  0.219  0.000  0.000  0.037  0.000  0.110  0.000  0.365
    2  0.000  0.000  0.219  0.000  0.000  0.037  0.000  0.110  0.000  0.365
tot    0.000  0.000  0.437  0.000  0.000  0.073  0.000  0.219  0.000  0.730
 
band    13 # energy   14.36144728 # occ.  0.00000000
 
ion      s     py     pz     px    dxy    dyz    dz2    dxz  x2-y2    tot
    1  0.202  0.007  0.000  0.020  0.001  0.000  0.183  0.000  0.000  0.413
    2  0.202  0.007  0.000  0.020  0.001  0.000  0.183  0.000  0.000  0.413
tot    0.405  0.014  0.000  0.041  0.001  0.000  0.366  0.000  0.000  0.826
 
band    14 # energy   23.66438812 # occ.  0.00000000
 
ion      s     py     pz     px    dxy    dyz    dz2    dxz  x2-y2    tot
    1  0.044  0.038  0.000  0.113  0.094  0.000  0.020  0.000  0.031  0.340
    2  0.044  0.038  0.000  0.113  0.094  0.000  0.020  0.000  0.031  0.340
tot    0.088  0.076  0.000  0.227  0.188  0.000  0.040  0.000  0.063  0.681
 
band    15 # energy   27.09047710 # occ.  0.00000000
 
ion      s     py     pz     px    dxy    dyz    dz2    dxz  x2-y2    tot
    1  0.000  0.187  0.000  0.062  0.026  0.000  0.000  0.000  0.077  0.352
    2  0.000  0.187  0.000  0.062  0.026  0.000  0.000  0.000  0.077  0.352
tot    0.000  0.374  0.000  0.125  0.051  0.000  0.000  0.000  0.154  0.704
 
band    16 # energy   28.85344072 # occ.  0.00000000
 
ion      s     py     pz     px    dxy    dyz    dz2    dxz  x2-y2    tot
    1  0.023  0.005  0.000  0.014  0.125  0.000  0.044  0.000  0.042  0.253
    2  0.023  0.005  0.000  0.014  0.125  0.000  0.044  0.000  0.042  0.253
tot    0.046  0.009  0.000  0.028  0.251  0.000  0.088  0.000  0.084  0.506
 
band    17 # energy   30.70137777 # occ.  0.00000000
 
ion      s     py     pz     px    dxy    dyz    dz2    dxz  x2-y2    tot
    1  0.000  0.000  0.046  0.000  0.000  0.048  0.000  0.144  0.000  0.237
    2  0.000  0.000  0.046  0.000  0.000  0.048  0.000  0.144  0.000  0.237
tot    0.000  0.000  0.091  0.000  0.000  0.096  0.000  0.288  0.000  0.475
 
band    18 # energy   33.07314188 # occ.  0.00000000
 
ion      s     py     pz     px    dxy    dyz    dz2    dxz  x2-y2    tot
    1  0.041  0.048  0.000  0.143  0.048  0.000  0.033  0.000  0.016  0.328
    2  0.041  0.048  0.000  0.143  0.048  0.000  0.033  0.000  0.016  0.328
tot    0.081  0.096  0.000  0.287  0.095  0.000  0.067  0.000  0.032  0.657
 
band    19 # energy   33.10699129 # occ.  0.00000000
 
ion      s     py     pz     px    dxy    dyz    dz2    dxz  x2-y2    tot
    1  0.000  0.000  0.009  0.000  0.000  0.012  0.000  0.036  0.000  0.057
    2  0.000  0.000  0.009  0.000  0.000  0.012  0.000  0.036  0.000  0.057
tot    0.000  0.000  0.019  0.000  0.000  0.024  0.000  0.071  0.000  0.114
 
band    20 # energy   35.19714875 # occ.  0.00000000
 
ion      s     py     pz     px    dxy    dyz    dz2    dxz  x2-y2    tot
    1  0.022  0.033  0.000  0.099  0.003  0.000  0.067  0.000  0.001  0.226
    2  0.022  0.033  0.000  0.099  0.003  0.000  0.067  0.000  0.001  0.226
tot    0.044  0.066  0.000  0.199  0.007  0.000  0.134  0.000  0.002  0.452
 
band    21 # energy   35.98120210 # occ.  0.00000000
 
ion      s     py     pz     px    dxy    dyz    dz2    dxz  x2-y2    tot
    1  0.000  0.000  0.000  0.000  0.000  0.250  0.000  0.083  0.000  0.333
    2  0.000  0.000  0.000  0.000  0.000  0.250  0.000  0.083  0.000  0.333
tot    0.000  0.000  0.000  0.000  0.000  0.499  0.000  0.166  0.000  0.666
 
band    22 # energy   36.19202398 # occ.  0.00000000
 
ion      s     py     pz     px    dxy    dyz    dz2    dxz  x2-y2    tot
    1  0.000  0.000  0.247  0.000  0.000  0.004  0.000  0.011  0.000  0.262
    2  0.000  0.000  0.247  0.000  0.000  0.004  0.000  0.011  0.000  0.262
tot    0.000  0.000  0.494  0.000  0.000  0.007  0.000  0.022  0.000  0.524
 
band    23 # energy   36.72786747 # occ.  0.00000000
 
ion      s     py     pz     px    dxy    dyz    dz2    dxz  x2-y2    tot
    1  0.000  0.121  0.000  0.040  0.070  0.000  0.000  0.000  0.210  0.440
    2  0.000  0.121  0.000  0.040  0.070  0.000  0.000  0.000  0.210  0.440
tot    0.000  0.241  0.000  0.080  0.140  0.000  0.000  0.000  0.419  0.881
 
band    24 # energy   37.83665129 # occ.  0.00000000
 
ion      s     py     pz     px    dxy    dyz    dz2    dxz  x2-y2    tot
    1  0.000  0.165  0.000  0.055  0.044  0.000  0.000  0.000  0.131  0.394
    2  0.000  0.165  0.000  0.055  0.044  0.000  0.000  0.000  0.131  0.394
tot    0.000  0.329  0.000  0.110  0.087  0.000  0.000  0.000  0.261  0.787
 
band    25 # energy   38.61249080 # occ.  0.00000000
 
ion      s     py     pz     px    dxy    dyz    dz2    dxz  x2-y2    tot
    1  0.041  0.005  0.000  0.016  0.044  0.000  0.349  0.000  0.015  0.470
    2  0.041  0.005  0.000  0.016  0.044  0.000  0.349  0.000  0.015  0.470
tot    0.081  0.011  0.000  0.032  0.088  0.000  0.698  0.000  0.029  0.939
 
band    26 # energy   40.90948571 # occ.  0.00000000
 
ion      s     py     pz     px    dxy    dyz    dz2    dxz  x2-y2    tot
    1  0.024  0.002  0.000  0.007  0.171  0.000  0.035  0.000  0.057  0.296
    2  0.024  0.002  0.000  0.007  0.171  0.000  0.035  0.000  0.057  0.296
tot    0.047  0.004  0.000  0.013  0.343  0.000  0.070  0.000  0.114  0.592
 
band    27 # energy   43.16924795 # occ.  0.00000000
 
ion      s     py     pz     px    dxy    dyz    dz2    dxz  x2-y2    tot
    1  0.000  0.000  0.000  0.000  0.000  0.174  0.000  0.058  0.000  0.233