Co-hcc                                  
   1.00000000000000     
     2.450211    0.000000    0.000000
    -1.225106    2.121945    0.000000
     0.000000    0.000000    3.964342
   Co
     2
Direct
  0.000000  0.000000  0.000000
  0.333333  0.666667  0.500000
 
   32   32   56
  195.15      190.94      178.87      160.47      137.91      113.50      89.336      67.112      48.029      32.814    
  21.710      14.490      10.468      8.6326      7.8215      7.3491      7.1948      7.3500      7.8193      8.6342    
  10.469      14.490      21.710      32.814      48.029      67.112      89.336      113.50      137.91      160.47    
  178.87      190.94      190.94      190.94      182.80      167.59      147.17      123.78      99.639      76.622    
  56.166      39.228      26.290      17.358      11.968      9.2550      8.0970      7.4863      7.1754      7.1738    
  7.4878      8.0973      9.2532      11.969      17.358      26.290      39.228      56.166      76.622      99.638    
  123.78      147.17      167.59      182.80      178.87      182.80      178.87      167.59      150.39      129.26    
  106.36      83.663      62.779      44.869      30.640      20.324      13.685      10.042      8.3966      7.6370    
  7.1820      7.0354      7.1827      7.6347      8.3990      10.041      13.685      20.324      30.640      44.870    
  62.778      83.663      106.36      129.26      150.39      167.59      160.47      167.58      167.58      160.47    
  147.17      129.26      108.70      87.411      67.098      49.072      34.229      23.010      15.402      10.926    
  8.7422      7.7800      7.2138      6.9309      6.9288      7.2163      7.7784      8.7424      10.926      15.401    
  23.011      34.228      49.073      67.097      87.412      108.70      129.26      147.17      137.91      147.15    
  150.37      147.15      137.91      123.78      106.36      87.411      68.600      51.317      36.593      25.050    
  16.869      11.777      9.1097      7.9116      7.2585      6.8594      6.7314      6.8592      7.2579      7.9129    
  9.1083      11.779      16.868      25.051      36.593      51.318      68.599      87.412      106.36      123.78    
  113.50      123.76      129.23      129.23      123.76      113.50      99.639      83.663      67.098      51.317    
  37.419      26.151      17.856      12.452      9.4438      8.0329      7.3017      6.8190      6.5835      6.5834    
  6.8198      7.3004      8.0342      9.4425      12.453      17.855      26.152      37.418      51.318      67.097    
  83.663      99.638      89.336      99.621      106.33      108.66      106.33      99.621      89.336      76.622    
  62.778      49.073      36.593      26.151      18.204      12.823      9.6798      8.1290      7.3384      6.7970    
  6.4843      6.3792      6.4837      6.7980      7.3376      8.1298      9.6794      12.824      18.204      26.152    
  36.593      49.073      62.778      76.622      67.112      76.614      83.642      87.381      87.381      83.642    
  76.614      67.112      56.166      44.870      34.228      25.051      17.856      12.824      9.7650      8.1835    
  7.3615      6.7883      6.4216      6.2427      6.2438      6.4203      6.7892      7.3605      8.1840      9.7641    
  12.824      17.855      25.051      34.228      44.870      56.166      48.029      56.174      62.782      67.094    
  68.593      67.094      62.781      56.173      48.029      39.228      30.639      23.011      16.868      12.452    
  9.6796      8.1835      7.3696      6.7853      6.3882      6.1602      6.0876      6.1607      6.3880      6.7857    
  7.3695      8.1840      9.6794      12.453      16.868      23.011      30.640      39.228      32.814      39.252    
  44.905      49.110      51.354      51.354      49.110      44.906      39.253      32.814      26.290      20.325    
  15.401      11.778      9.4435      8.1292      7.3616      6.7853      6.3779      6.1220      6.0023      6.0011    
  6.1226      6.3770      6.7857      7.3605      8.1298      9.4425      11.779      15.401      20.324      26.290    
  21.710      26.332      30.709      34.313      36.684      37.511      36.684      34.312      30.708      26.331    
  21.710      17.358      13.684      10.927      9.1078      8.0336      7.3377      6.7885      6.3881      6.1221    
  5.9744      5.9274      5.9747      6.1226      6.3880      6.7892      7.3376      8.0342      9.1083      10.926    
  13.685      17.358      14.490      17.412      20.420      23.138      25.196      26.305      26.305      25.196    
  23.138      20.421      17.412      14.489      11.968      10.042      8.7406      7.9137      7.3009      6.7979    
  6.4213      6.1603      6.0022      5.9267      5.9274      6.0011      6.1607      6.4203      6.7980      7.3004    
  7.9129      8.7424      10.041      11.969      10.469      12.030      13.801      15.561      17.058      18.064    
  18.419      18.065      17.059      15.560      13.800      12.029      10.470      9.2533      8.3973      7.7812    
  7.2561      6.8201      6.4829      6.2434      6.0870      6.0022      5.9744      6.0023      6.0876      6.2438    
  6.4837      6.8198      7.2579      7.7784      8.3990      9.2532      8.6342      9.3183      10.167      11.104    
  11.999      12.702      13.088      13.088      12.701      11.999      11.106      10.169      9.3184      8.6319    
  8.0993      7.6345      7.2143      6.8610      6.5833      6.3802      6.2434      6.1603      6.1221      6.1220    
  6.1602      6.2427      6.3792      6.5834      6.8592      7.2163      7.6347      8.0973      7.8193      8.1636    
  8.5284      8.9291      9.3445      9.7164      9.9769      10.070      9.9772      9.7173      9.3442      8.9271    
  8.5269      8.1655      7.8199      7.4857      7.1842      6.9300      6.7301      6.5833      6.4829      6.4213    
  6.3881      6.3779      6.3882      6.4216      6.4843      6.5835      6.7314      6.9288      7.1827      7.4878    
  7.3500      7.5544      7.7657      7.9689      8.1578      8.3219      8.4471      8.5165      8.5162      8.4465    
  8.3212      8.1587      7.9716      7.7654      7.5523      7.3509      7.1749      7.0338      6.9300      6.8610    
  6.8201      6.7979      6.7885      6.7853      6.7853      6.7883      6.7970      6.8190      6.8594      6.9309    
  7.0354      7.1738      7.1948      7.2406      7.3145      7.4093      7.5064      7.5946      7.6657      7.7110    
  7.7271      7.7116      7.6662      7.5950      7.5048      7.4072      7.3160      7.2417      7.1936      7.1749    
  7.1842      7.2143      7.2561      7.3009      7.3377      7.3616      7.3696      7.3615      7.3384      7.3017    
  7.2585      7.2138      7.1820      7.1754      7.3491      7.2422      7.1676      7.1229      7.1103      7.1193    
  7.1373      7.1562      7.1670      7.1669      7.1554      7.1372      7.1195      7.1120      7.1241      7.1660    
  7.2417      7.3509      7.4857      7.6345      7.7812      7.9137      8.0336      8.1292      8.1835      8.1835    
  8.1290      8.0329      7.9116      7.7800      7.6370      7.4863      7.8215      7.5529      7.3138      7.1251    
  6.9831      6.8862      6.8290      6.7976      6.7843      6.7807      6.7847      6.7982      6.8286      6.8859    
  6.9820      7.1241      7.3160      7.5523      7.8199      8.0993      8.3973      8.7406      9.1078      9.4435    
  9.6796      9.7650      9.6798      9.4438      9.1097      8.7422      8.3966      8.0970      8.6326      8.1632    
  7.7678      7.4067      7.1105      6.8863      6.7268      6.6260      6.5677      6.5420      6.5417      6.5676    
  6.6255      6.7277      6.8859      7.1120      7.4072      7.7654      8.1655      8.6319      9.2533      10.042    
  10.927      11.778      12.452      12.824      12.823      12.452      11.777      10.926      10.042      9.2550    
  10.468      9.3201      8.5261      7.9706      7.5069      7.1186      6.8296      6.6252      6.4983      6.4294    
  6.4087      6.4295      6.4984      6.6255      6.8286      7.1195      7.5048      7.9716      8.5269      9.3184    
  10.470      11.968      13.684      15.401      16.868      17.856      18.204      17.856      16.869      15.402    
  13.685      11.968      14.490      12.029      10.169      8.9286      8.1566      7.5957      7.1365      6.7983    
  6.5675      6.4296      6.3657      6.3658      6.4295      6.5676      6.7982      7.1372      7.5950      8.1587    
  8.9271      10.169      12.029      14.489      17.358      20.325      23.011      25.051      26.151      26.151    
  25.050      23.010      20.324      17.358      21.710      17.413      13.800      11.104      9.3458      8.3208    
  7.6665      7.1557      6.7844      6.5420      6.4086      6.3657      6.4087      6.5417      6.7847      7.1554    
  7.6662      8.3212      9.3442      11.106      13.800      17.412      21.710      26.290      30.639      34.228    
  36.593      37.419      36.593      34.229      30.640      26.290      32.814      26.331      20.421      15.561    
  11.998      9.7173      8.4467      7.7112      7.1673      6.7804      6.5420      6.4296      6.4294      6.5420    
  6.7807      7.1669      7.7116      8.4465      9.7173      11.999      15.560      20.421      26.331      32.814    
  39.228      44.870      49.073      51.317      51.317      49.072      44.869      39.228      48.029      39.253    
  30.709      23.137      17.059      12.701      9.9769      8.5166      7.7268      7.1673      6.7844      6.5675    
  6.4983      6.5677      6.7843      7.1670      7.7271      8.5162      9.9772      12.701      17.059      23.138    
  30.708      39.253      48.029      56.166      62.778      67.098      68.600      67.098      62.779      56.166    
  67.112      56.173      44.905      34.313      25.196      18.065      13.088      10.070      8.5166      7.7112    
  7.1557      6.7983      6.6252      6.6260      6.7976      7.1562      7.7110      8.5165      10.070      13.088    
  18.065      25.196      34.312      44.906      56.173      67.112      76.622      83.663      87.411      87.411    
  83.663      76.622      89.336      76.614      62.782      49.110      36.684      26.305      18.419      13.088    
  9.9769      8.4467      7.6665      7.1365      6.8296      6.7268      6.8290      7.1373      7.6657      8.4471    
  9.9769      13.088      18.419      26.305      36.684      49.110      62.781      76.614      89.336      99.639    
  106.36      108.70      106.36      99.639      113.50      99.621      83.642      67.094      51.353      37.511    
  26.305      18.065      12.701      9.7173      8.3208      7.5957      7.1186      6.8863      6.8862      7.1193    
  7.5946      8.3219      9.7164      12.702      18.064      26.305      37.511      51.354      67.094      83.642    
  99.621      113.50      123.78      129.26      129.26      123.78      137.91      123.76      106.33      87.380    
  68.593      51.353      36.684      25.196      17.059      11.998      9.3458      8.1566      7.5069      7.1105    
  6.9831      7.1103      7.5064      8.1578      9.3445      11.999      17.058      25.196      36.684      51.354    
  68.593      87.381      106.33      123.76      137.91      147.17      150.39      147.17      160.47      147.15    
  129.23      108.66      87.380      67.094      49.110      34.313      23.137      15.561      11.104      8.9286    
  7.9706      7.4067      7.1251      7.1229      7.4093      7.9689      8.9291      11.104      15.561      23.138    
  34.313      49.110      67.094      87.381      108.66      129.23      147.15      160.47      167.59      167.59    
  178.87      167.58      150.37      129.23      106.33      83.642      62.782      44.905      30.709      20.421    
  13.800      10.169      8.5261      7.7678      7.3138      7.1676      7.3145      7.7657      8.5284      10.167    
  13.801      20.420      30.709      44.905      62.782      83.642      106.33      129.23      150.37      167.58    
  178.87      182.80      190.94      182.80      167.58      147.15      123.76      99.621      76.614      56.173    
  39.253      26.331      17.413      12.029      9.3201      8.1632      7.5529      7.2422      7.2406      7.5544    
  8.1636      9.3183      12.030      17.412      26.332      39.252      56.174      76.614      99.621      123.76    
  147.15      167.58      182.80      190.94      191.55      187.42      175.57      157.53      135.39      111.42    
  87.681      65.850      47.111      32.187      21.315      14.267      10.357      8.5785      7.7832      7.3160    
  7.1639      7.3168      7.7808      8.5803      10.357      14.266      21.315      32.187      47.111      65.850    
  87.681      111.42      135.39      157.53      175.57      187.42      187.42      187.42      179.43      164.51    
  144.47      121.51      97.799      75.188      55.097      38.473      25.793      17.061      11.810      9.1788    
  8.0534      7.4493      7.1429      7.1409      7.4513      8.0531      9.1774      11.811      17.060      25.793    
  38.473      55.097      75.189      97.799      121.51      144.47      164.51      179.43      175.57      179.43    
  175.57      164.51      147.63      126.89      104.40      82.103      61.588      44.005      30.051      19.954    
  13.477      9.9379      8.3435      7.5969      7.1474      7.0028      7.1480      7.5946      8.3459      9.9367    
  13.477      19.954      30.051      44.005      61.588      82.103      104.40      126.89      147.63      164.51    
  157.53      164.50      164.50      157.53      144.47      126.89      106.69      85.784      65.829      48.128    
  33.566      22.579      15.147      10.792      8.6758      7.7371      7.1770      6.8982      6.8959      7.1797    
  7.7351      8.6765      10.791      15.147      22.579      33.565      48.128      65.828      85.784      106.69    
  126.89      144.47      135.39      144.46      147.61      144.46      135.39      121.51      104.40      85.784    
  67.303      50.330      35.883      24.572      16.576      11.616      9.0289      7.8648      7.2198      6.8262    
  6.6998      6.8259      7.2194      7.8660      9.0277      11.617      16.575      24.573      35.882      50.331    
  67.303      85.784      104.40      121.51      111.42      121.50      126.87      126.87      121.50      111.42    
  97.799      82.103      65.828      50.331      36.691      25.649      17.537      12.270      9.3497      7.9817    
  7.2613      6.7852      6.5526      6.5531      6.7854      7.2605      7.9825      9.3487      12.270      17.536    
  25.649      36.690      50.331      65.828      82.103      97.799      87.681      97.788      104.38      106.67    
  104.38      97.787      87.681      75.189      61.588      48.128      35.882      25.649      17.877      12.630    
  9.5769      8.0734      7.2971      6.7623      6.4541      6.3504      6.4535      6.7633      7.2962      8.0744    
  9.5764      12.631      17.877      25.650      35.882      48.128      61.588      75.188      65.850      75.186    
  82.093      85.768      85.768      82.094      75.187      65.850      55.097      44.006      33.565      24.573    
  17.537      12.631      9.6587      8.1256      7.3194      6.7531      6.3913      6.2153      6.2161      6.3902    
  6.7538      7.3185      8.1260      9.6579      12.631      17.536      24.573      33.565      44.005      55.097    
  47.112      55.111      61.603      65.841      67.313      65.840      61.603      55.111      47.111      38.473    
  30.050      22.579      16.575      12.270      9.5767      8.1256      7.3273      6.7497      6.3581      6.1333    
  6.0619      6.1338      6.3579      6.7502      7.3272      8.1263      9.5765      12.271      16.574      22.579    
  30.051      38.472      32.186      38.503      44.052      48.181      50.385      50.385      48.181      44.052    
  38.503      32.187      25.793      19.955      15.146      11.617      9.3494      8.0738      7.3194      6.7497    
  6.3477      6.0954      5.9774      5.9763      6.0959      6.3468      6.7500      7.3185      8.0742      9.3485    
  11.617      15.147      19.954      25.793      21.315      25.840      30.130      33.665      35.991      36.803    
  35.991      33.664      30.129      25.840      21.315      17.061      13.476      10.793      9.0269      7.9823    
  7.2962      6.7533      6.3578      6.0956      5.9499      5.9037      5.9501      6.0962      6.3578      6.7541    
  7.2962      7.9829      9.0275      10.792      13.477      17.060      14.266      17.119      20.060      22.719    
  24.735      25.822      25.821      24.735      22.720      20.061      17.119      14.266      11.810      9.9382    
  8.6744      7.8669      7.2606      6.7633      6.3911      6.1335      5.9773      5.9029      5.9035      5.9762    
  6.1337      6.3901      6.7632      7.2601      7.8661      8.6763      9.9369      11.811      10.357      11.876    
  13.601      15.318      16.780      17.763      18.110      17.764      16.780      15.317      13.600      11.875    
  10.359      9.1772      8.3443      7.7380      7.2175      6.7861      6.4526      6.2159      6.0612      5.9775    
  5.9499      5.9776      6.0619      6.2164      6.4535      6.7859      7.2192      7.7353      8.3457      9.1772    
  8.5802      9.2456      10.070      10.981      11.851      12.535      12.911      12.911      12.535      11.851    
  10.982      10.072      9.2455      8.5780      8.0555      7.5943      7.1777      6.8276      6.5526      6.3515    
  6.2159      6.1334      6.0955      6.0952      6.1333      6.2151      6.3504      6.5527      6.8261      7.1795    
  7.5949      8.0533      7.7810      8.1229      8.4817      8.8726      9.2759      9.6368      9.8897      9.9801    
  9.8900      9.6377      9.2755      8.8704      8.4805      8.1250      7.7813      7.4490      7.1495      6.8971    
  6.6986      6.5526      6.4527      6.3912      6.3579      6.3478      6.3581      6.3915      6.4541      6.5530    
  6.6997      6.8961      7.1478      7.4511      7.3167      7.5207      7.7320      7.9345      8.1224      8.2842    
  8.4067      8.4745      8.4742      8.4062      8.2835      8.1233      7.9372      7.7314      7.5186      7.3179    
  7.1422      7.0012      6.8971      6.8277      6.7861      6.7633      6.7532      6.7495      6.7496      6.7529    
  6.7622      6.7848      6.8264      6.8980      7.0030      7.1411      7.1640      7.2110      7.2856      7.3811    
  7.4788      7.5676      7.6390      7.6843      7.7004      7.6849      7.6393      7.5677      7.4772      7.3792    
  7.2874      7.2120      7.1626      7.1422      7.1496      7.1777      7.2175      7.2606      7.2963      7.3196    
  7.3273      7.3195      7.2971      7.2616      7.2197      7.1771      7.1472      7.1427      7.3158      7.2124    
  7.1411      7.0987      7.0878      7.0979      7.1164      7.1359      7.1468      7.1467      7.1351      7.1166    
  7.0981      7.0894      7.0997      7.1393      7.2120      7.3179      7.4490      7.5943      7.7379      7.8669    
  7.9822      8.0737      8.1255      8.1255      8.0734      7.9813      7.8649      7.7369      7.5970      7.4495    
  7.7833      7.5193      7.2850      7.1007      6.9621      6.8680      6.8127      6.7823      6.7697      6.7661    
  6.7700      6.7827      6.8122      6.8677      6.9611      7.0997      7.2874      7.5186      7.7813      8.0555    
  8.3444      8.6744      9.0270      9.3496      9.5767      9.6589      9.5770      9.3501      9.0288      8.6760    
  8.3433      8.0531      8.5783      8.1225      7.7341      7.3786      7.0881      6.8681      6.7117      6.6130    
  6.5559      6.5309      6.5306      6.5561      6.6126      6.7127      6.8677      7.0894      7.3792      7.7314    
  8.1249      8.5781      9.1771      9.9382      10.793      11.617      12.270      12.630      12.630      12.269    
  11.616      10.792      9.9381      9.1791      10.357      9.2477      8.4793      7.9364      7.4791      7.0972    
  6.8132      6.6124      6.4878      6.4202      6.3998      6.4202      6.4878      6.6127      6.8121      7.0982    
  7.4772      7.9372      8.4805      9.2456      10.359      11.810      13.476      15.146      16.575      17.537    
  17.877      17.538      16.575      15.147      13.476      11.810      14.267      11.874      10.072      8.8719    
  8.1214      7.5687      7.1157      6.7829      6.5558      6.4203      6.3576      6.3578      6.4203      6.5559    
  6.7828      7.1165      7.5678      8.1233      8.8705      10.071      11.875      14.266      17.061      19.955    
  22.579      24.573      25.649      25.649      24.572      22.578      19.955      17.061      21.315      17.120    
  13.600      10.981      9.2772      8.2829      7.6398      7.1352      6.7699      6.5308      6.3999      6.3574    
  6.3999      6.5306      6.7700      7.1350      7.6394      8.2834      9.2756      10.982      13.600      17.119    
  21.315      25.793      30.050      33.565      35.882      36.691      35.882      33.566      30.050      25.793    
  32.186      25.839      20.060      15.318      11.850      9.6379      8.4062      7.6845      7.1469      6.7659    
  6.5308      6.4205      6.4201      6.5310      6.7660      7.1468      7.6848      8.4063      9.6376      11.851    
  15.317      20.061      25.839      32.187      38.473      44.006      48.128      50.330      50.330      48.128    
  44.005      38.473      47.111      38.504      30.130      22.719      16.781      12.535      9.8899      8.4746    
  7.7002      7.1471      6.7698      6.5557      6.4878      6.5560      6.7697      7.1468      7.7004      8.4742    
  9.8900      12.535      16.780      22.720      30.129      38.503      47.112      55.097      61.588      65.829    
  67.303      65.829      61.588      55.097      65.850      55.110      44.052      33.665      24.735      17.764    
  12.911      9.9800      8.4745      7.6844      7.1353      6.7831      6.6123      6.6130      6.7823      7.1359    
  7.6843      8.4746      9.9801      12.912      17.763      24.735      33.664      44.052      55.111      65.850    
  75.189      82.103      85.784      85.784      82.103      75.189      87.681      75.187      61.603      48.181    
  35.991      25.822      18.110      12.912      9.8898      8.4064      7.6397      7.1157      6.8131      6.7118    
  6.8126      7.1165      7.6389      8.4067      9.8897      12.912      18.110      25.822      35.991      48.182    
  61.603      75.187      87.681      97.799      104.40      106.70      104.40      97.799      111.42      97.787    
  82.093      65.841      50.385      36.803      25.822      17.763      12.535      9.6376      8.2832      7.5686    
  7.0974      6.8678      6.8682      7.0976      7.5678      8.2840      9.6370      12.535      17.763      25.822    
  36.803      50.385      65.840      82.093      97.787      111.42      121.51      126.89      126.89      121.51    
  135.39      121.50      104.38      85.767      67.314      50.384      35.992      24.735      16.781      11.850    
  9.2772      8.1211      7.4793      7.0880      6.9622      7.0877      7.4789      8.1222      9.2760      11.851    
  16.780      24.735      35.991      50.385      67.313      85.768      104.38      121.50      135.39      144.47    
  147.63      144.47      157.53      144.46      126.87      106.67      85.767      65.841      48.181      33.665    
  22.719      15.318      10.981      8.8719      7.9365      7.3785      7.1008      7.0986      7.3812      7.9345    
  8.8726      10.981      15.318      22.719      33.665      48.181      65.841      85.767      106.67      126.87    
  144.46      157.53      164.51      164.51      175.57      164.50      147.61      126.87      104.38      82.093    
  61.603      44.052      30.130      20.060      13.600      10.071      8.4795      7.7339      7.2852      7.1409    
  7.2858      7.7318      8.4819      10.070      13.601      20.060      30.130      44.052      61.603      82.093    
  104.38      126.87      147.61      164.50      175.57      179.43      187.42      179.43      164.50      144.46    
  121.50      97.787      75.187      55.111      38.503      25.839      17.119      11.875      9.2472      8.1228    
  7.5189      7.2128      7.2107      7.5210      8.1225      9.2460      11.875      17.119      25.840      38.503    
  55.111      75.187      97.787      121.50      144.46      164.50      179.43      187.42      181.14      177.24    
  166.07      149.02      128.08      105.39      82.890      62.198      44.461      30.380      20.182      13.631    
  10.043      8.4243      7.6716      7.2199      7.0743      7.2205      7.6694      8.4268      10.042      13.631    
  20.183      30.380      44.461      62.198      82.890      105.39      128.08      149.02      166.07      177.24    
  177.24      177.24      169.71      155.62      136.67      114.94      92.473      71.039      52.006      36.294    
  24.365      16.211      11.361      8.9635      7.9267      7.3422      7.0484      7.0460      7.3450      7.9254    
  8.9630      11.361      16.210      24.364      36.294      52.005      71.039      92.473      114.94      136.67    
  155.62      169.71      166.07      169.71      166.07      155.62      139.66      120.03      98.725      77.586    
  58.144      41.508      28.354      18.896      12.884      9.6436      8.1912      7.4800      7.0470      6.9081    
  7.0474      7.4782      8.1938      9.6419      12.886      18.895      28.354      41.508      58.144      77.587    
  98.725      120.03      139.66      155.62      149.02      155.61      155.61      149.02      136.67      120.03    
  100.90      81.073      62.156      45.398      31.655      21.339      14.420      10.412      8.4876      7.6116    
  7.0702      6.8029      6.8008      7.0729      7.6092      8.4889      10.411      14.420      21.339      31.654    
  45.399      62.155      81.073      100.90      120.03      136.68      128.09      136.67      139.66      136.67    
  128.09      114.94      98.725      81.072      63.552      47.477      33.832      23.199      15.738      11.158    
  8.8002      7.7296      7.1070      6.7297      6.6080      6.7292      7.1072      7.7303      8.7993      11.159    
  15.737      23.201      33.832      47.478      63.551      81.073      98.725      114.94      105.39      114.94    
  120.03      120.03      114.94      105.39      92.473      77.587      62.155      47.478      34.593      24.206    
  16.627      11.753      9.0839      7.8341      7.1436      6.6868      6.4630      6.4643      6.6859      7.1437    
  7.8342      9.0834      11.753      16.626      24.206      34.592      47.478      62.156      77.587      92.474    
  82.890      92.478      98.728      100.90      98.727      92.477      82.890      71.039      58.144      45.399    
  33.832      24.206      16.942      12.081      9.2858      7.9143      7.1763      6.6612      6.3659      6.2666    
  6.3656      6.6621      7.1755      7.9155      9.2852      12.082      16.941      24.207      33.831      45.399    
  58.144      71.039      62.197      71.055      77.608      81.096      81.096      77.609      71.055      62.198    
  52.006      41.509      31.654      23.201      16.626      12.082      9.3582      7.9601      7.1964      6.6503    
  6.3032      6.1352      6.1355      6.3026      6.6508      7.1955      7.9603      9.3574      12.082      16.626    
  23.201      31.654      41.508      52.006      44.461      52.037      58.192      62.212      63.609      62.211    
  58.192      52.037      44.461      36.294      28.353      21.340      15.737      11.753      9.2853      7.9600    
  7.2037      6.6457      6.2701      6.0548      5.9867      6.0553      6.2698      6.6466      7.2035      7.9609    
  9.2851      11.754      15.736      21.339      28.354      36.294      30.380      36.341      41.587      45.497    
  47.584      47.585      45.497      41.588      36.341      30.380      24.365      18.896      14.418      11.160    
  9.0835      7.9150      7.1963      6.6460      6.2595      6.0178      5.9047      5.9039      6.0182      6.2586    
  6.6461      7.1954      7.9151      9.0829      11.159      14.420      18.895      24.365      20.183      24.426    
  28.463      31.796      33.992      34.759      33.992      31.795      28.462      24.426      20.183      16.210    
  12.884      10.413      8.7980      7.8348      7.1752      6.6506      6.2697      6.0181      5.8781      5.8340    
  5.8782      6.0187      6.2697      6.6514      7.1754      7.8352      8.7987      10.411      12.885      16.210    
  13.631      16.282      19.027      21.518      23.411      24.433      24.432      23.411      21.519      19.028    
  16.282      13.630      11.361      9.6431      8.4866      7.7316      7.1430      6.6625      6.3030      6.0552    
  5.9047      5.8333      5.8338      5.9036      6.0552      6.3021      6.6620      7.1429      7.7306      8.4887    
  9.6422      11.362      10.043      11.438      13.032      14.625      15.986      16.903      17.227      16.903    
  15.986      14.624      13.031      11.438      10.044      8.9618      8.1927      7.6119      7.1051      6.6872    