Co-hcc                                  
   1.00000000000000     
     2.450211    0.000000    0.000000
    -1.225106    2.121945    0.000000
     0.000000    0.000000    3.964342
   Co
     2
Direct
  0.000000  0.000000  0.000000
  0.333333  0.666667  0.500000
 
   32   32   56
 0.19515359485E+03 0.19094148474E+03 0.17886633678E+03 0.16047295879E+03 0.13791296591E+03
 0.11349967818E+03 0.89335951804E+02 0.67111618995E+02 0.48028611295E+02 0.32813676908E+02
 0.21709844281E+02 0.14490252611E+02 0.10468299509E+02 0.86325552180E+01 0.78215282416E+01
 0.73491440715E+01 0.71948373624E+01 0.73500000086E+01 0.78192674555E+01 0.86341802268E+01
 0.10468669359E+02 0.14489610003E+02 0.21710228937E+02 0.32813522411E+02 0.48028718432E+02
 0.67111587708E+02 0.89335966698E+02 0.11349980580E+03 0.13791285708E+03 0.16047306895E+03
 0.17886634234E+03 0.19094131747E+03 0.19094131747E+03 0.19094125235E+03 0.18280188431E+03
 0.16758975641E+03 0.14716860083E+03 0.12378262344E+03 0.99638539842E+02 0.76621830405E+02
 0.56166099611E+02 0.39227882551E+02 0.26289968851E+02 0.17358281807E+02 0.11968062100E+02
 0.92549653272E+01 0.80969829075E+01 0.74862609758E+01 0.71754463598E+01 0.71737649990E+01
 0.74878192585E+01 0.80973212900E+01 0.92531982036E+01 0.11969076853E+02 0.17357761125E+02
 0.26290237536E+02 0.39227657481E+02 0.56166139016E+02 0.76621823971E+02 0.99638389661E+02
 0.12378253466E+03 0.14716881962E+03 0.16758938564E+03 0.18280229349E+03 0.17886634234E+03
 0.18279795010E+03 0.17886661304E+03 0.16758941100E+03 0.15039136318E+03 0.12926308486E+03
 0.10636063398E+03 0.83662785550E+02 0.62778572861E+02 0.44869403898E+02 0.30639959697E+02
 0.20324027433E+02 0.13684629655E+02 0.10042129304E+02 0.83966316070E+01 0.76369871797E+01
 0.71819821752E+01 0.70354317163E+01 0.71826969409E+01 0.76347302513E+01 0.83989729944E+01
 0.10041079772E+02 0.13685255706E+02 0.20323810286E+02 0.30640037226E+02 0.44869628129E+02
 0.62778442186E+02 0.83663148657E+02 0.10636059754E+03 0.12926319024E+03 0.15039149719E+03
 0.16758938564E+03 0.16047306895E+03 0.16757864107E+03 0.16757874634E+03 0.16047281059E+03
 0.14716883165E+03 0.12926326341E+03 0.10869785733E+03 0.87411435207E+02 0.67098164892E+02
 0.49072352399E+02 0.34229129428E+02 0.23010351101E+02 0.15402094107E+02 0.10925720312E+02
 0.87421743172E+01 0.77800447299E+01 0.72138052675E+01 0.69309345810E+01 0.69287878462E+01
 0.72163391218E+01 0.77784372349E+01 0.87424363489E+01 0.10925811109E+02 0.15401489928E+02
 0.23010890443E+02 0.34228444636E+02 0.49072816706E+02 0.67097496710E+02 0.87411809605E+02
 0.10869763872E+03 0.12926319024E+03 0.14716881962E+03 0.13791285708E+03 0.14715165114E+03
 0.15036740876E+03 0.14715143345E+03 0.13791304013E+03 0.12378231417E+03 0.10636055215E+03
 0.87411469117E+02 0.68599886113E+02 0.51316642864E+02 0.36593457708E+02 0.25050045256E+02
 0.16868789803E+02 0.11777174266E+02 0.91096770949E+01 0.79115621208E+01 0.72585028541E+01
 0.68594444625E+01 0.67313782250E+01 0.68592452674E+01 0.72579084957E+01 0.79129002075E+01
 0.91083342538E+01 0.11778672671E+02 0.16867724698E+02 0.25051141553E+02 0.36592650280E+02
 0.51317692320E+02 0.68599319543E+02 0.87411809605E+02 0.10636059754E+03 0.12378253466E+03
 0.11349980580E+03 0.12376190546E+03 0.12922982181E+03 0.12922979858E+03 0.12376230220E+03
 0.11349968038E+03 0.99638504369E+02 0.83663199953E+02 0.67097698206E+02 0.51317225048E+02
 0.37418561849E+02 0.26150844344E+02 0.17855785279E+02 0.12451701625E+02 0.94437535226E+01
 0.80329397647E+01 0.73016809578E+01 0.68189577983E+01 0.65835495778E+01 0.65834310945E+01
 0.68197595599E+01 0.73003868914E+01 0.80341664839E+01 0.94424577756E+01 0.12452510645E+02
 0.17854745266E+02 0.26151557460E+02 0.37417529123E+02 0.51317692320E+02 0.67097496710E+02
 0.83663148657E+02 0.99638389661E+02 0.89335966698E+02 0.99621401770E+02 0.10632693143E+03
 0.10865772071E+03 0.10632663026E+03 0.99620968651E+02 0.89335982145E+02 0.76621944612E+02
 0.62778137265E+02 0.49072907517E+02 0.36592851484E+02 0.26150840995E+02 0.18204049360E+02
 0.12823411051E+02 0.96798170883E+01 0.81289833126E+01 0.73383831353E+01 0.67970092696E+01
 0.64843396910E+01 0.63791692323E+01 0.64837291464E+01 0.67980146028E+01 0.73375649104E+01
 0.81298109502E+01 0.96794265027E+01 0.12824096969E+02 0.18203650142E+02 0.26151557460E+02
 0.36592650280E+02 0.49072816706E+02 0.62778442186E+02 0.76621823971E+02 0.67111587708E+02
 0.76613657988E+02 0.83641620360E+02 0.87380810943E+02 0.87381037339E+02 0.83642156879E+02
 0.76614018988E+02 0.67111575757E+02 0.56165991157E+02 0.44870043978E+02 0.34228388331E+02
 0.25050854570E+02 0.17855649873E+02 0.12823575944E+02 0.97649545552E+01 0.81835124789E+01
 0.73614531196E+01 0.67883184615E+01 0.64215508939E+01 0.62426960422E+01 0.62438288647E+01
 0.64202840505E+01 0.67892367030E+01 0.73605427531E+01 0.81840346378E+01 0.97640708021E+01
 0.12824096969E+02 0.17854745266E+02 0.25051141553E+02 0.34228444636E+02 0.44869628129E+02
 0.56166139016E+02 0.48028718432E+02 0.56173757569E+02 0.62781862804E+02 0.67094459403E+02
 0.68592644639E+02 0.67094009577E+02 0.62781428907E+02 0.56173468065E+02 0.48028747495E+02
 0.39228007280E+02 0.30639330166E+02 0.23011350243E+02 0.16867831812E+02 0.12451800316E+02
 0.96796388138E+01 0.81834684977E+01 0.73695572743E+01 0.67853450348E+01 0.63881934278E+01
 0.61602026184E+01 0.60875973643E+01 0.61606715598E+01 0.63880215824E+01 0.67857435398E+01
 0.73695002209E+01 0.81840346378E+01 0.96794265027E+01 0.12452510645E+02 0.16867724698E+02
 0.23010890443E+02 0.30640037226E+02 0.39227657481E+02 0.32813522411E+02 0.39252380111E+02
 0.44904888309E+02 0.49109936414E+02 0.51353541864E+02 0.51353879386E+02 0.49110188006E+02
 0.44905539616E+02 0.39252669455E+02 0.32813575116E+02 0.26289925179E+02 0.20324665134E+02
 0.15400767806E+02 0.11778489194E+02 0.94434755474E+01 0.81291806867E+01 0.73615794226E+01
 0.67852507880E+01 0.63779313011E+01 0.61219509281E+01 0.60023288369E+01 0.60010674073E+01
 0.61225853758E+01 0.63770319686E+01 0.67857435398E+01 0.73605427531E+01 0.81298109502E+01
 0.94424577756E+01 0.11778672671E+02 0.15401489928E+02 0.20323810286E+02 0.26290237536E+02
 0.21710228937E+02 0.26331661289E+02 0.30708933606E+02 0.34312855757E+02 0.36683891521E+02
 0.37511066694E+02 0.36683926851E+02 0.34312496498E+02 0.30708311277E+02 0.26331363015E+02
 0.21710147233E+02 0.17358298585E+02 0.13684082019E+02 0.10927187476E+02 0.91078160176E+01
 0.80336090169E+01 0.73376962370E+01 0.67884827965E+01 0.63880623355E+01 0.61221410493E+01
 0.59744142955E+01 0.59274316749E+01 0.59746518753E+01 0.61225853758E+01 0.63880215824E+01
 0.67892367030E+01 0.73375649104E+01 0.80341664839E+01 0.91083342538E+01 0.10925811109E+02
 0.13685255706E+02 0.17357761125E+02 0.14489610003E+02 0.17412009131E+02 0.20420269437E+02
 0.23137808472E+02 0.25196209505E+02 0.26305499299E+02 0.26304952106E+02 0.25196333269E+02
 0.23138113477E+02 0.20421193047E+02 0.17412429979E+02 0.14489482686E+02 0.11968320743E+02
 0.10042486852E+02 0.87405857217E+01 0.79136573755E+01 0.73008627673E+01 0.67979070373E+01
 0.64213280652E+01 0.61603330419E+01 0.60022485582E+01 0.59266672982E+01 0.59274316749E+01
 0.60010674073E+01 0.61606715598E+01 0.64202840505E+01 0.67980146028E+01 0.73003868914E+01
 0.79129002075E+01 0.87424363489E+01 0.10041079772E+02 0.11969076853E+02 0.10468669359E+02
 0.12030197351E+02 0.13800977709E+02 0.15560694320E+02 0.17058492020E+02 0.18064224673E+02
 0.18419486456E+02 0.18064658953E+02 0.17058700145E+02 0.15559918060E+02 0.13799910518E+02
 0.12029461524E+02 0.10469831046E+02 0.92533249711E+01 0.83973002281E+01 0.77812191479E+01
 0.72560862483E+01 0.68200776329E+01 0.64829345896E+01 0.62434242013E+01 0.60870190248E+01
 0.60022485582E+01 0.59744142955E+01 0.60023288369E+01 0.60875973643E+01 0.62438288647E+01
 0.64837291464E+01 0.68197595599E+01 0.72579084957E+01 0.77784372349E+01 0.83989729944E+01
 0.92531982036E+01 0.86341802268E+01 0.93182819160E+01 0.10167395804E+02 0.11104481176E+02
 0.11999106046E+02 0.12701618025E+02 0.13087600354E+02 0.13087518186E+02 0.12700917143E+02
 0.11998887860E+02 0.11105774216E+02 0.10168772412E+02 0.93183657673E+01 0.86318844823E+01
 0.80993004373E+01 0.76345363039E+01 0.72142870909E+01 0.68609750350E+01 0.65832598863E+01
 0.63802199975E+01 0.62434242013E+01 0.61603330419E+01 0.61221410493E+01 0.61219509281E+01
 0.61602026184E+01 0.62426960422E+01 0.63791692323E+01 0.65834310945E+01 0.68592452674E+01
 0.72163391218E+01 0.76347302513E+01 0.80973212900E+01 0.78192674555E+01 0.81636296630E+01
 0.85284225586E+01 0.89291314278E+01 0.93444633429E+01 0.97164302377E+01 0.99769038795E+01
 0.10070060994E+02 0.99772112815E+01 0.97172944177E+01 0.93441971852E+01 0.89271481535E+01
 0.85269187986E+01 0.81655455862E+01 0.78199427604E+01 0.74856818934E+01 0.71841686670E+01
 0.69299859202E+01 0.67300557438E+01 0.65832598863E+01 0.64829345896E+01 0.64213280652E+01
 0.63880623355E+01 0.63779313011E+01 0.63881934278E+01 0.64215508939E+01 0.64843396910E+01
 0.65835495778E+01 0.67313782250E+01 0.69287878462E+01 0.71826969409E+01 0.74878192585E+01
 0.73500000086E+01 0.75543946443E+01 0.77656545993E+01 0.79689107380E+01 0.81578052127E+01
 0.83219447504E+01 0.84470574395E+01 0.85165428872E+01 0.85161867843E+01 0.84465411576E+01
 0.83211679563E+01 0.81586502258E+01 0.79715660835E+01 0.77654366088E+01 0.75522881748E+01
 0.73509304340E+01 0.71749133896E+01 0.70337967893E+01 0.69299859202E+01 0.68609750350E+01
 0.68200776329E+01 0.67979070373E+01 0.67884827965E+01 0.67852507880E+01 0.67853450348E+01
 0.67883184615E+01 0.67970092696E+01 0.68189577983E+01 0.68594444625E+01 0.69309345810E+01
 0.70354317163E+01 0.71737649990E+01 0.71948373624E+01 0.72406035379E+01 0.73145246932E+01
 0.74092891105E+01 0.75064114707E+01 0.75946451111E+01 0.76657275068E+01 0.77110142783E+01
 0.77271323786E+01 0.77115954730E+01 0.76662218149E+01 0.75949539160E+01 0.75047806951E+01
 0.74072276740E+01 0.73160351128E+01 0.72417048551E+01 0.71935976233E+01 0.71749133896E+01
 0.71841686670E+01 0.72142870909E+01 0.72560862483E+01 0.73008627673E+01 0.73376962370E+01
 0.73615794226E+01 0.73695572743E+01 0.73614531196E+01 0.73383831353E+01 0.73016809578E+01
 0.72585028541E+01 0.72138052675E+01 0.71819821752E+01 0.71754463598E+01 0.73491440715E+01
 0.72421968439E+01 0.71676433660E+01 0.71229277141E+01 0.71102845306E+01 0.71192830844E+01
 0.71372663914E+01 0.71562448567E+01 0.71670450514E+01 0.71669057522E+01 0.71554400293E+01
 0.71372074092E+01 0.71194838455E+01 0.71119588512E+01 0.71241021152E+01 0.71660088577E+01
 0.72417048551E+01 0.73509304340E+01 0.74856818934E+01 0.76345363039E+01 0.77812191479E+01
 0.79136573755E+01 0.80336090169E+01 0.81291806867E+01 0.81834684977E+01 0.81835124789E+01
 0.81289833126E+01 0.80329397647E+01 0.79115621208E+01 0.77800447299E+01 0.76369871797E+01
 0.74862609758E+01 0.78215282416E+01 0.75529410425E+01 0.73138038726E+01 0.71251343508E+01
 0.69831079485E+01 0.68862382897E+01 0.68290211220E+01 0.67976010305E+01 0.67843432127E+01
 0.67806807434E+01 0.67847208114E+01 0.67981802845E+01 0.68286324452E+01 0.68859490402E+01
 0.69819652284E+01 0.71241021152E+01 0.73160351128E+01 0.75522881748E+01 0.78199427604E+01
 0.80993004373E+01 0.83973002281E+01 0.87405857217E+01 0.91078160176E+01 0.94434755474E+01
 0.96796388138E+01 0.97649545552E+01 0.96798170883E+01 0.94437535226E+01 0.91096770949E+01
 0.87421743172E+01 0.83966316070E+01 0.80969829075E+01 0.86325552180E+01 0.81632143001E+01
 0.77678419740E+01 0.74067202100E+01 0.71104878113E+01 0.68862649185E+01 0.67267972967E+01
 0.66259514536E+01 0.65676610546E+01 0.65420304616E+01 0.65416950339E+01 0.65675830572E+01
 0.66254799174E+01 0.67277158162E+01 0.68859490402E+01 0.71119588512E+01 0.74072276740E+01
 0.77654366088E+01 0.81655455862E+01 0.86318844823E+01 0.92533249711E+01 0.10042486852E+02
 0.10927187476E+02 0.11778489194E+02 0.12451800316E+02 0.12823575944E+02 0.12823411051E+02
 0.12451701625E+02 0.11777174266E+02 0.10925720312E+02 0.10042129304E+02 0.92549653272E+01
 0.10468299509E+02 0.93200887440E+01 0.85261077475E+01 0.79706468419E+01 0.75069268282E+01
 0.71186390916E+01 0.68295627234E+01 0.66252052861E+01 0.64983021718E+01 0.64293925741E+01
 0.64086504313E+01 0.64295140925E+01 0.64983587553E+01 0.66254799174E+01 0.68286324452E+01
 0.71194838455E+01 0.75047806951E+01 0.79715660835E+01 0.85269187986E+01 0.93183657673E+01
 0.10469831046E+02 0.11968320743E+02 0.13684082019E+02 0.15400767806E+02 0.16867831812E+02
 0.17855649873E+02 0.18204049360E+02 0.17855785279E+02 0.16868789803E+02 0.15402094107E+02
 0.13684629655E+02 0.11968062100E+02 0.14490252611E+02 0.12029109289E+02 0.10168502471E+02
 0.89286471227E+01 0.81565744544E+01 0.75957422581E+01 0.71364901260E+01 0.67983271494E+01
 0.65675312030E+01 0.64296031560E+01 0.63656938158E+01 0.63658357638E+01 0.64295140925E+01
 0.65675830572E+01 0.67981802845E+01 0.71372074092E+01 0.75949539160E+01 0.81586502258E+01
 0.89271481535E+01 0.10168772412E+02 0.12029461524E+02 0.14489482686E+02 0.17358298585E+02
 0.20324665134E+02 0.23011350243E+02 0.25050854570E+02 0.26150840995E+02 0.26150844344E+02
 0.25050045256E+02 0.23010351101E+02 0.20324027433E+02 0.17358281807E+02 0.21709844281E+02
 0.17412622660E+02 0.13800277385E+02 0.11104479114E+02 0.93458331099E+01 0.83208265319E+01
 0.76664599087E+01 0.71556800669E+01 0.67844394713E+01 0.65419534424E+01 0.64085682149E+01
 0.63656938158E+01 0.64086504313E+01 0.65416950339E+01 0.67847208114E+01 0.71554400293E+01
 0.76662218149E+01 0.83211679563E+01 0.93441971852E+01 0.11105774216E+02 0.13799910518E+02
 0.17412429979E+02 0.21710147233E+02 0.26289925179E+02 0.30639330166E+02 0.34228388331E+02
 0.36592851484E+02 0.37418561849E+02 0.36593457708E+02 0.34229129428E+02 0.30639959697E+02
 0.26289968851E+02 0.32813676908E+02 0.26331186251E+02 0.20420640386E+02 0.15561086352E+02
 0.11997823585E+02 0.97172677967E+01 0.84467081970E+01 0.77111769244E+01 0.71672827050E+01
 0.67804224836E+01 0.65419534424E+01 0.64296031560E+01 0.64293925741E+01 0.65420304616E+01
 0.67806807434E+01 0.71669057522E+01 0.77115954730E+01 0.84465411576E+01 0.97172944177E+01
 0.11998887860E+02 0.15559918060E+02 0.20421193047E+02 0.26331363015E+02 0.32813575116E+02
 0.39228007280E+02 0.44870043978E+02 0.49072907517E+02 0.51317225048E+02 0.51316642864E+02
 0.49072352399E+02 0.44869403898E+02 0.39227882551E+02 0.48028611295E+02 0.39252852181E+02
 0.30708762079E+02 0.23137492306E+02 0.17059235782E+02 0.12701177978E+02 0.99769261881E+01
 0.85166373167E+01 0.77267720849E+01 0.71672827050E+01 0.67844394713E+01 0.65675312030E+01
 0.64983021718E+01 0.65676610546E+01 0.67843432127E+01 0.71670450514E+01 0.77271323786E+01
 0.85161867843E+01 0.99772112815E+01 0.12700917143E+02 0.17058700145E+02 0.23138113477E+02
 0.30708311277E+02 0.39252669455E+02 0.48028747495E+02 0.56165991157E+02 0.62778137265E+02
 0.67097698206E+02 0.68599886113E+02 0.67098164892E+02 0.62778572861E+02 0.56166099611E+02
 0.67111618995E+02 0.56173279717E+02 0.44905023726E+02 0.34312972858E+02 0.25195656440E+02
 0.18064611621E+02 0.13087671031E+02 0.10069868729E+02 0.85166373167E+01 0.77111769244E+01
 0.71556800669E+01 0.67983271494E+01 0.66252052861E+01 0.66259514536E+01 0.67976010305E+01
 0.71562448567E+01 0.77110142783E+01 0.85165428872E+01 0.10070060994E+02 0.13087518186E+02
 0.18064658953E+02 0.25196333269E+02 0.34312496498E+02 0.44905539616E+02 0.56173468065E+02
 0.67111575757E+02 0.76621944612E+02 0.83663199953E+02 0.87411469117E+02 0.87411435207E+02
 0.83662785550E+02 0.76621830405E+02 0.89335951804E+02 0.76614122767E+02 0.62781885860E+02
 0.49109820689E+02 0.36684432960E+02 0.26305181439E+02 0.18419235706E+02 0.13087671031E+02
 0.99769261881E+01 0.84467081970E+01 0.76664599087E+01 0.71364901260E+01 0.68295627234E+01
 0.67267972967E+01 0.68290211220E+01 0.71372663914E+01 0.76657275068E+01 0.84470574395E+01
 0.99769038795E+01 0.13087600354E+02 0.18419486456E+02 0.26304952106E+02 0.36683926851E+02
 0.49110188006E+02 0.62781428907E+02 0.76614018988E+02 0.89335982145E+02 0.99638504369E+02
 0.10636055215E+03 0.10869785733E+03 0.10636063398E+03 0.99638539842E+02 0.11349967818E+03
 0.99620973870E+02 0.83641657909E+02 0.67094419327E+02 0.51353213108E+02 0.37511112755E+02
 0.26305181439E+02 0.18064611621E+02 0.12701177978E+02 0.97172677967E+01 0.83208265319E+01
 0.75957422581E+01 0.71186390916E+01 0.68862649185E+01 0.68862382897E+01 0.71192830844E+01
 0.75946451111E+01 0.83219447504E+01 0.97164302377E+01 0.12701618025E+02 0.18064224673E+02
 0.26305499299E+02 0.37511066694E+02 0.51353879386E+02 0.67094009577E+02 0.83642156879E+02
 0.99620968651E+02 0.11349968038E+03 0.12378231417E+03 0.12926326341E+03 0.12926308486E+03
 0.12378262344E+03 0.13791296591E+03 0.12376215201E+03 0.10632730802E+03 0.87380461956E+02
 0.68593492655E+02 0.51353213108E+02 0.36684432960E+02 0.25195656440E+02 0.17059235782E+02
 0.11997823585E+02 0.93458331099E+01 0.81565744544E+01 0.75069268282E+01 0.71104878113E+01
 0.69831079485E+01 0.71102845306E+01 0.75064114707E+01 0.81578052127E+01 0.93444633429E+01
 0.11999106046E+02 0.17058492020E+02 0.25196209505E+02 0.36683891521E+02 0.51353541864E+02
 0.68592644639E+02 0.87381037339E+02 0.10632663026E+03 0.12376230220E+03 0.13791304013E+03
 0.14716883165E+03 0.15039136318E+03 0.14716860083E+03 0.16047295879E+03 0.14715157926E+03
 0.12922954218E+03 0.10865796270E+03 0.87380461956E+02 0.67094419327E+02 0.49109820689E+02
 0.34312972858E+02 0.23137492306E+02 0.15561086352E+02 0.11104479114E+02 0.89286471227E+01
 0.79706468419E+01 0.74067202100E+01 0.71251343508E+01 0.71229277141E+01 0.74092891105E+01
 0.79689107380E+01 0.89291314278E+01 0.11104481176E+02 0.15560694320E+02 0.23137808472E+02
 0.34312855757E+02 0.49109936414E+02 0.67094459403E+02 0.87380810943E+02 0.10865772071E+03
 0.12922979858E+03 0.14715143345E+03 0.16047281059E+03 0.16758941100E+03 0.16758975641E+03
 0.17886633678E+03 0.16757871792E+03 0.15036764211E+03 0.12922954218E+03 0.10632730802E+03
 0.83641657909E+02 0.62781885860E+02 0.44905023726E+02 0.30708762079E+02 0.20420640386E+02
 0.13800277385E+02 0.10168502471E+02 0.85261077475E+01 0.77678419740E+01 0.73138038726E+01
 0.71676433660E+01 0.73145246932E+01 0.77656545993E+01 0.85284225586E+01 0.10167395804E+02
 0.13800977709E+02 0.20420269437E+02 0.30708933606E+02 0.44904888309E+02 0.62781862804E+02
 0.83641620360E+02 0.10632693143E+03 0.12922982181E+03 0.15036740876E+03 0.16757874634E+03
 0.17886661304E+03 0.18280188431E+03 0.19094148474E+03 0.18279787191E+03 0.16757871792E+03
 0.14715157926E+03 0.12376215201E+03 0.99620973870E+02 0.76614122767E+02 0.56173279717E+02
 0.39252852181E+02 0.26331186251E+02 0.17412622660E+02 0.12029109289E+02 0.93200887440E+01
 0.81632143001E+01 0.75529410425E+01 0.72421968439E+01 0.72406035379E+01 0.75543946443E+01
 0.81636296630E+01 0.93182819160E+01 0.12030197351E+02 0.17412009131E+02 0.26331661289E+02
 0.39252380111E+02 0.56173757569E+02 0.76613657988E+02 0.99621401770E+02 0.12376190546E+03
 0.14715165114E+03 0.16757864107E+03 0.18279795010E+03 0.19094125235E+03 0.19154568608E+03
 0.18741591548E+03 0.17557358127E+03 0.15752951942E+03 0.13538774980E+03 0.11141607692E+03
 0.87681241194E+02 0.65849829926E+02 0.47111354279E+02 0.32186705707E+02 0.21314744097E+02
 0.14266875174E+02 0.10357099794E+02 0.85784534614E+01 0.77831634487E+01 0.73159879651E+01
 0.71638624698E+01 0.73167786402E+01 0.77808445454E+01 0.85803284554E+01 0.10357221667E+02
 0.14266418434E+02 0.21315156860E+02 0.32186627018E+02 0.47111424459E+02 0.65849919724E+02
 0.87681203174E+02 0.11141656125E+03 0.13538760982E+03 0.15752974616E+03 0.17557357822E+03
 0.18741544931E+03 0.18741556783E+03 0.18741514796E+03 0.17943353714E+03 0.16451114640E+03
 0.14447176411E+03 0.12151224947E+03 0.97799065748E+02 0.75188399955E+02 0.55097274956E+02
 0.38472635076E+02 0.25793157288E+02 0.17060710457E+02 0.11809796500E+02 0.91787824641E+01
 0.80533565701E+01 0.74492588457E+01 0.71429472015E+01 0.71408818225E+01 0.74513337400E+01
 0.80531324819E+01 0.91773964512E+01 0.11810557921E+02 0.17060348735E+02 0.25793039523E+02
 0.38472702418E+02 0.55096971299E+02 0.75188626637E+02 0.97798524313E+02 0.12151232596E+03
 0.14447162494E+03 0.16451109943E+03 0.17943371646E+03 0.17557391552E+03 0.17943014529E+03
 0.17557401540E+03 0.16451077692E+03 0.14763415494E+03 0.12689207455E+03 0.10440006939E+03
 0.82102775143E+02 0.61588253202E+02 0.44004924103E+02 0.30050597392E+02 0.19954325896E+02
 0.13476568066E+02 0.99379311822E+01 0.83434546926E+01 0.75968547383E+01 0.71474168974E+01
 0.70027607944E+01 0.71480423151E+01 0.75946366940E+01 0.83459475268E+01 0.99367086170E+01
 0.13477360326E+02 0.19954107167E+02 0.30050845173E+02 0.44005109334E+02 0.61588210271E+02
 0.82103260636E+02 0.10439997952E+03 0.12689234237E+03 0.14763426080E+03 0.16451064362E+03
 0.15752943569E+03 0.16450195954E+03 0.16450212496E+03 0.15752945287E+03 0.14447180430E+03
 0.12689267983E+03 0.10669479610E+03 0.85784125454E+02 0.65828916330E+02 0.48127843963E+02
 0.33565888043E+02 0.22578506078E+02 0.15146984669E+02 0.10791671514E+02 0.86758416325E+01
 0.77370730444E+01 0.71769736253E+01 0.68982122772E+01 0.68959286155E+01 0.71797415359E+01
 0.77350773214E+01 0.86764616870E+01 0.10791400081E+02 0.15146611341E+02 0.22578742917E+02
 0.33565273058E+02 0.48128122115E+02 0.65828277151E+02 0.85784353662E+02 0.10669476662E+03
 0.12689236920E+03 0.14447205393E+03 0.13538787916E+03 0.14445808097E+03 0.14761471131E+03
 0.14445769511E+03 0.13538795834E+03 0.12151168880E+03 0.10439999659E+03 0.85784011486E+02
 0.67303477873E+02 0.50329751822E+02 0.35882513436E+02 0.24572125853E+02 0.16575600814E+02
 0.11615732101E+02 0.90289330078E+01 0.78648037423E+01 0.72198247632E+01 0.68262023506E+01
 0.66998279841E+01 0.68259080233E+01 0.72194387090E+01 0.78660028758E+01 0.90277169756E+01
 0.11617279575E+02 0.16574516101E+02 0.24573373971E+02 0.35881778226E+02 0.50330931307E+02
 0.67302859664E+02 0.85784394784E+02 0.10439991157E+03 0.12151193809E+03 0.11141603683E+03
 0.12149624527E+03 0.12686627633E+03 0.12686655748E+03 0.12149645140E+03 0.11141648193E+03
 0.97798765145E+02 0.82103421972E+02 0.65828344271E+02 0.50330503155E+02 0.36690932089E+02
 0.25649009080E+02 0.17537190591E+02 0.12269838310E+02 0.93497025706E+01 0.79817202072E+01
 0.72612569626E+01 0.67852436510E+01 0.65526228707E+01 0.65530820640E+01 0.67854216742E+01
 0.72604733725E+01 0.79824628773E+01 0.93487185765E+01 0.12270257677E+02 0.17536466173E+02
 0.25649270430E+02 0.36690062889E+02 0.50330676233E+02 0.65828491104E+02 0.82103073512E+02
 0.97799167255E+02 0.87681273566E+02 0.97787739532E+02 0.10437584328E+03 0.10666595620E+03
 0.10437558543E+03 0.97787032704E+02 0.87681281358E+02 0.75188631346E+02 0.61587738603E+02
 0.48128444692E+02 0.35881800337E+02 0.25648757472E+02 0.17876973041E+02 0.12630283758E+02
 0.95769025242E+01 0.80734408030E+01 0.72970775029E+01 0.67622911212E+01 0.64540838636E+01
 0.63503799366E+01 0.64535437114E+01 0.67633191649E+01 0.72962427361E+01 0.80744312356E+01
 0.95764496124E+01 0.12631137226E+02 0.17876506590E+02 0.25649724462E+02 0.35881579268E+02
 0.48128362195E+02 0.61587943363E+02 0.75188437728E+02 0.65849615103E+02 0.75186457232E+02
 0.82092872267E+02 0.85767539476E+02 0.85767651560E+02 0.82093616854E+02 0.75186755443E+02
 0.65849820903E+02 0.55097007776E+02 0.44005605615E+02 0.33565107414E+02 0.24573230480E+02
 0.17537103000E+02 0.12630548164E+02 0.96587238776E+01 0.81256451652E+01 0.73193704387E+01
 0.67530886503E+01 0.63913200726E+01 0.62152794219E+01 0.62161300338E+01 0.63902199803E+01
 0.67538351243E+01 0.73184773255E+01 0.81260466572E+01 0.96578576345E+01 0.12630902996E+02
 0.17536246370E+02 0.24573338699E+02 0.33565267208E+02 0.44005142012E+02 0.55097394438E+02
 0.47111512405E+02 0.55111157186E+02 0.61603074245E+02 0.65840866577E+02 0.67313013237E+02
 0.65840281038E+02 0.61602746608E+02 0.55110738223E+02 0.47111492739E+02 0.38472943960E+02
 0.30049916112E+02 0.22579382924E+02 0.16574500812E+02 0.12269854963E+02 0.95766513854E+01
 0.81255649767E+01 0.73272969063E+01 0.67496741590E+01 0.63580586985E+01 0.61332772691E+01
 0.60618750207E+01 0.61338078904E+01 0.63578532509E+01 0.67502415525E+01 0.73271983473E+01
 0.81262633314E+01 0.95764671681E+01 0.12270694153E+02 0.16574334698E+02 0.22578965441E+02
 0.30050595821E+02 0.38472495954E+02 0.32186337101E+02 0.38502981618E+02 0.44051699681E+02
 0.48181218749E+02 0.50384861766E+02 0.50385436644E+02 0.48181310194E+02 0.44052447300E+02
 0.38503227414E+02 0.32186558537E+02 0.25792973943E+02 0.19955145820E+02 0.15145629751E+02
 0.11617244526E+02 0.93494413863E+01 0.80737975878E+01 0.73194470340E+01 0.67497009043E+01
 0.63476751938E+01 0.60954346360E+01 0.59773995439E+01 0.59762917925E+01 0.60959131711E+01
 0.63467943009E+01 0.67500395821E+01 0.73184626217E+01 0.80742117095E+01 0.93484840705E+01
 0.11617259007E+02 0.15146590788E+02 0.19954154549E+02 0.25793447958E+02 0.21315203263E+02
 0.25839963910E+02 0.30129802915E+02 0.33664543893E+02 0.35990803370E+02 0.36802545843E+02
 0.35990896241E+02 0.33664129188E+02 0.30129241801E+02 0.25839594916E+02 0.21315048743E+02
 0.17060691812E+02 0.13476026259E+02 0.10793102947E+02 0.90269210242E+01 0.79823463100E+01
 0.72962410671E+01 0.67532695453E+01 0.63578285193E+01 0.60955847141E+01 0.59498618620E+01
 0.59036614159E+01 0.59500693714E+01 0.60961566855E+01 0.63578117069E+01 0.67540933425E+01
 0.72962187476E+01 0.79829408978E+01 0.90274940292E+01 0.10791664149E+02 0.13477069430E+02
 0.17060183814E+02 0.14266244380E+02 0.17118830358E+02 0.20059779901E+02 0.22719244998E+02
 0.24735224572E+02 0.25822183910E+02 0.25821487132E+02 0.24735363946E+02 0.22719598922E+02
 0.20060635337E+02 0.17119346131E+02 0.14266190104E+02 0.11810063585E+02 0.99381693714E+01
 0.86744070445E+01 0.78669488935E+01 0.72605594987E+01 0.67633149873E+01 0.63910973366E+01
 0.61335246145E+01 0.59773454110E+01 0.59028513970E+01 0.59035337648E+01 0.59761759292E+01
 0.61337217834E+01 0.63900894132E+01 0.67632155022E+01 0.72601230031E+01 0.78660981710E+01
 0.86763252700E+01 0.99368718621E+01 0.11810850493E+02 0.10357287034E+02 0.11875927193E+02
 0.13600688238E+02 0.15317625994E+02 0.16780162864E+02 0.17763023548E+02 0.18110370426E+02
 0.17763523816E+02 0.16780373959E+02 0.15316763458E+02 0.13599669806E+02 0.11875103362E+02
 0.10358537124E+02 0.91771650102E+01 0.83442896473E+01 0.77380152104E+01 0.72174563067E+01
 0.67861375808E+01 0.64526300359E+01 0.62159107432E+01 0.60612335108E+01 0.59774540985E+01
 0.59498808256E+01 0.59776240947E+01 0.60618524403E+01 0.62163692884E+01 0.64535386866E+01
 0.67858807310E+01 0.72192347262E+01 0.77353224259E+01 0.83456755942E+01 0.91772125668E+01
 0.85802318578E+01 0.92455851494E+01 0.10070270385E+02 0.10980737817E+02 0.11851324845E+02
 0.12535489829E+02 0.12911491317E+02 0.12911427021E+02 0.12534763492E+02 0.11851089854E+02
 0.10982218970E+02 0.10071555482E+02 0.92455489403E+01 0.85780180073E+01 0.80555206530E+01
 0.75942852286E+01 0.71777078981E+01 0.68276264868E+01 0.65526221333E+01 0.63514569798E+01
 0.62158795118E+01 0.61334471583E+01 0.60955345191E+01 0.60952413166E+01 0.61332686182E+01
 0.62150713987E+01 0.63503537300E+01 0.65526542385E+01 0.68260807747E+01 0.71795276628E+01
 0.75948773952E+01 0.80533475976E+01 0.77809633308E+01 0.81229100598E+01 0.84817322174E+01
 0.88725628696E+01 0.92758678001E+01 0.96367951468E+01 0.98897496455E+01 0.99801423154E+01
 0.98900049461E+01 0.96377004329E+01 0.92754858461E+01 0.88704209780E+01 0.84805189763E+01
 0.81249505283E+01 0.77813112811E+01 0.74489969048E+01 0.71495446401E+01 0.68971428843E+01
 0.66985691824E+01 0.65525999456E+01 0.64526834550E+01 0.63911526050E+01 0.63579009020E+01
 0.63478463256E+01 0.63580895371E+01 0.63915059082E+01 0.64541322579E+01 0.65530285085E+01
 0.66996774204E+01 0.68961203009E+01 0.71478238017E+01 0.74510964366E+01 0.73166571525E+01
 0.75206654966E+01 0.77319819206E+01 0.79345448123E+01 0.81223663000E+01 0.82842262778E+01
 0.84066618249E+01 0.84745068929E+01 0.84741612006E+01 0.84061904021E+01 0.82835392379E+01
 0.81233480766E+01 0.79371638990E+01 0.77313916439E+01 0.75186470814E+01 0.73178595341E+01
 0.71421822224E+01 0.70011986986E+01 0.68971401820E+01 0.68276513768E+01 0.67860814594E+01
 0.67632624212E+01 0.67531944603E+01 0.67495324748E+01 0.67496406180E+01 0.67529055171E+01
 0.67622400246E+01 0.67848407156E+01 0.68263502119E+01 0.68980232941E+01 0.70029766056E+01
 0.71411218282E+01 0.71639975642E+01 0.72110401395E+01 0.72856213314E+01 0.73811486910E+01
 0.74787856699E+01 0.75675548198E+01 0.76389977966E+01 0.76842930587E+01 0.77004307035E+01
 0.76848729216E+01 0.76393388706E+01 0.75677011862E+01 0.74771982979E+01 0.73792354323E+01
 0.72873778607E+01 0.72120018735E+01 0.71625636875E+01 0.71421686157E+01 0.71495609491E+01
 0.71776694014E+01 0.72175260347E+01 0.72605984582E+01 0.72963297588E+01 0.73196018568E+01
 0.73273440539E+01 0.73195399652E+01 0.72971422062E+01 0.72616462914E+01 0.72196905085E+01
 0.71771490017E+01 0.71472146929E+01 0.71426935891E+01 0.73158406961E+01 0.72124293408E+01
 0.71410516902E+01 0.70986527712E+01 0.70878367119E+01 0.70978872563E+01 0.71164173315E+01
 0.71358583342E+01 0.71468020700E+01 0.71466941342E+01 0.71351133766E+01 0.71166236520E+01
 0.70981022788E+01 0.70893610602E+01 0.70997079418E+01 0.71392839357E+01 0.72119896989E+01
 0.73178853154E+01 0.74489684212E+01 0.75943359000E+01 0.77379333077E+01 0.78669221087E+01
 0.79822454437E+01 0.80736549397E+01 0.81255056545E+01 0.81254878133E+01 0.80733639251E+01
 0.79813430531E+01 0.78649258224E+01 0.77369098427E+01 0.75970447681E+01 0.74495246327E+01
 0.77832974608E+01 0.75193078880E+01 0.72849889169E+01 0.71007471686E+01 0.69620823242E+01
 0.68679579934E+01 0.68126986448E+01 0.67823130900E+01 0.67696700689E+01 0.67661437516E+01
 0.67699649822E+01 0.67827251414E+01 0.68121694312E+01 0.68677108084E+01 0.69611451442E+01
 0.70997211987E+01 0.72873767784E+01 0.75186345570E+01 0.77813265079E+01 0.80554832386E+01
 0.83443582931E+01 0.86744470862E+01 0.90270086336E+01 0.93495972913E+01 0.95766974508E+01
 0.96588944864E+01 0.95769661452E+01 0.93500929816E+01 0.90287976709E+01 0.86760180912E+01