   2   2   1   0
  0.9270577E+01  0.2367662E-09  0.2367662E-09  0.3819151E-09  0.5000000E-15
  1.000000000000000E-004
  CAR 
 Co-hcc                                  
     63.57471472     -0.07482159  301     12.68550426      1.00000000
     -0.075  0.0000E+00  0.0000E+00  0.0000E+00  0.0000E+00
      0.137  0.0000E+00  0.0000E+00  0.0000E+00  0.0000E+00
      0.350  0.0000E+00  0.0000E+00  0.0000E+00  0.0000E+00
      0.562  0.0000E+00  0.0000E+00  0.0000E+00  0.0000E+00
      0.774  0.0000E+00  0.0000E+00  0.0000E+00  0.0000E+00
      0.986  0.0000E+00  0.0000E+00  0.0000E+00  0.0000E+00
      1.198  0.0000E+00  0.0000E+00  0.0000E+00  0.0000E+00
      1.410  0.0000E+00  0.0000E+00  0.0000E+00  0.0000E+00
      1.622  0.0000E+00  0.0000E+00  0.0000E+00  0.0000E+00
      1.835  0.0000E+00  0.0000E+00  0.0000E+00  0.0000E+00
      2.047  0.0000E+00  0.0000E+00  0.0000E+00  0.0000E+00
      2.259  0.0000E+00  0.0000E+00  0.0000E+00  0.0000E+00
      2.471  0.0000E+00  0.0000E+00  0.0000E+00  0.0000E+00
      2.683  0.2744E-08  0.3903E-09  0.5821E-09  0.8282E-10
      2.895  0.4048E-04  0.3922E-04  0.8589E-05  0.8321E-05
      3.108  0.2450E-03  0.1989E-03  0.6058E-04  0.5052E-04
      3.320  0.5379E-03  0.5346E-03  0.1747E-03  0.1640E-03
      3.532  0.8943E-04  0.1200E-03  0.1937E-03  0.1894E-03
      3.744  0.3897E-03  0.3246E-03  0.2764E-03  0.2583E-03
      3.956  0.1111E-02  0.1177E-02  0.5120E-03  0.5080E-03
      4.168  0.4918E-03  0.5088E-03  0.6164E-03  0.6160E-03
      4.381  0.5652E-03  0.5299E-03  0.7363E-03  0.7284E-03
      4.593  0.9503E-03  0.5860E-03  0.9379E-03  0.8527E-03
      4.805  0.1401E-02  0.1358E-02  0.1235E-02  0.1141E-02
      5.017  0.2791E-03  0.5621E-03  0.1294E-02  0.1260E-02
      5.229  0.2027E-02  0.1054E-02  0.1724E-02  0.1484E-02
      5.441  0.5900E-03  0.1711E-02  0.1850E-02  0.1847E-02
      5.654  0.9873E-03  0.5233E-03  0.2059E-02  0.1958E-02
      5.866  0.1767E-02  0.7261E-03  0.2434E-02  0.2112E-02
      6.078  0.2053E-02  0.2474E-02  0.2870E-02  0.2637E-02
      6.290  0.2746E-02  0.1683E-02  0.3452E-02  0.2994E-02
      6.502  0.1361E-02  0.1924E-02  0.3741E-02  0.3402E-02
      6.714  0.3503E-02  0.1056E-02  0.4484E-02  0.3626E-02
      6.927  0.1069E-01  0.2468E-02  0.6752E-02  0.4150E-02
      7.139  0.8376E-02  0.1888E-02  0.8529E-02  0.4550E-02
      7.351  0.1299E-01  0.3731E-02  0.1128E-01  0.5342E-02
      7.563  0.1052E-01  0.4941E-02  0.1352E-01  0.6390E-02
      7.775  0.1997E-01  0.6799E-02  0.1775E-01  0.7833E-02
      7.987  0.1118E-01  0.5784E-02  0.2012E-01  0.9060E-02
      8.200  0.1244E-01  0.1011E-01  0.2276E-01  0.1120E-01
      8.412  0.1549E-01  0.9789E-02  0.2605E-01  0.1328E-01
      8.624  0.1626E-01  0.8958E-02  0.2950E-01  0.1518E-01
      8.836  0.1564E-01  0.1539E-01  0.3281E-01  0.1845E-01
      9.048  0.1834E-01  0.1061E-01  0.3671E-01  0.2070E-01
      9.260  0.7283E-02  0.1052E-01  0.3825E-01  0.2293E-01
      9.473  0.1368E-01  0.1106E-01  0.4116E-01  0.2528E-01
      9.685  0.2292E-01  0.1355E-01  0.4602E-01  0.2815E-01
      9.897  0.2144E-01  0.1405E-01  0.5057E-01  0.3113E-01
     10.109  0.2349E-01  0.1896E-01  0.5555E-01  0.3516E-01
     10.321  0.2299E-01  0.1014E-01  0.6043E-01  0.3731E-01
     10.533  0.2497E-01  0.6143E-02  0.6573E-01  0.3861E-01
     10.746  0.1873E-01  0.1012E-01  0.6970E-01  0.4076E-01
     10.958  0.1398E-01  0.1899E-01  0.7266E-01  0.4479E-01
     11.170  0.1560E-01  0.1943E-01  0.7597E-01  0.4891E-01
     11.382  0.1387E-01  0.2070E-01  0.7892E-01  0.5330E-01
     11.594  0.1154E-01  0.1957E-01  0.8137E-01  0.5745E-01
     11.806  0.1970E-01  0.2416E-01  0.8555E-01  0.6258E-01
     12.019  0.1891E-01  0.2224E-01  0.8956E-01  0.6730E-01
     12.231  0.2929E-01  0.1255E-01  0.9577E-01  0.6996E-01
     12.443  0.3613E-01  0.1433E-01  0.1034E+00  0.7300E-01
     12.655  0.5242E-02  0.9635E-02  0.1046E+00  0.7505E-01
     12.867  0.2662E-02  0.1484E-01  0.1051E+00  0.7820E-01
     13.079  0.5911E-02  0.8407E-02  0.1064E+00  0.7998E-01
     13.292  0.2348E-02  0.1163E-01  0.1069E+00  0.8245E-01
     13.504  0.2267E-02  0.1909E-01  0.1073E+00  0.8650E-01
     13.716  0.1205E-02  0.1625E-01  0.1076E+00  0.8995E-01
     13.928  0.1703E-02  0.2535E-01  0.1080E+00  0.9532E-01
     14.140  0.2474E-02  0.3623E-01  0.1085E+00  0.1030E+00
     14.352  0.5579E-02  0.1035E-01  0.1097E+00  0.1052E+00
     14.565  0.2806E-02  0.6577E-02  0.1103E+00  0.1066E+00
     14.777  0.2212E-02  0.3292E-02  0.1107E+00  0.1073E+00
     14.989  0.1246E-02  0.2782E-02  0.1110E+00  0.1079E+00
     15.201  0.2223E-02  0.3022E-02  0.1115E+00  0.1085E+00
     15.413  0.2607E-02  0.2316E-02  0.1120E+00  0.1090E+00
     15.625  0.1252E-02  0.3777E-02  0.1123E+00  0.1098E+00
     15.838  0.2414E-02  0.4275E-02  0.1128E+00  0.1107E+00
     16.050  0.1989E-02  0.2006E-02  0.1132E+00  0.1112E+00
     16.262  0.2875E-02  0.3301E-02  0.1138E+00  0.1119E+00
     16.474  0.8544E-03  0.1555E-02  0.1140E+00  0.1122E+00
     16.686  0.1841E-02  0.1491E-02  0.1144E+00  0.1125E+00
     16.898  0.2157E-02  0.3571E-02  0.1149E+00  0.1133E+00
     17.111  0.4463E-02  0.9805E-03  0.1158E+00  0.1135E+00
     17.323  0.8371E-03  0.2900E-02  0.1160E+00  0.1141E+00
     17.535  0.1432E-02  0.1562E-02  0.1163E+00  0.1144E+00
     17.747  0.2900E-02  0.3618E-02  0.1169E+00  0.1152E+00
     17.959  0.1036E-02  0.3093E-02  0.1171E+00  0.1158E+00
     18.171  0.1253E-02  0.7922E-03  0.1174E+00  0.1160E+00
     18.384  0.9732E-03  0.1353E-02  0.1176E+00  0.1163E+00
     18.596  0.1309E-02  0.3290E-02  0.1179E+00  0.1170E+00
     18.808  0.6001E-03  0.1652E-02  0.1180E+00  0.1173E+00
     19.020  0.2732E-02  0.1062E-02  0.1186E+00  0.1176E+00
     19.232  0.3703E-02  0.1300E-02  0.1194E+00  0.1178E+00
     19.444  0.9178E-03  0.3356E-03  0.1196E+00  0.1179E+00
     19.657  0.4789E-03  0.2130E-02  0.1197E+00  0.1184E+00
     19.869  0.4716E-05  0.4231E-02  0.1197E+00  0.1193E+00
     20.081  0.2485E-03  0.1405E-02  0.1197E+00  0.1196E+00
     20.293  0.8775E-03  0.4925E-03  0.1199E+00  0.1197E+00
     20.505  0.2604E-03  0.4864E-05  0.1200E+00  0.1197E+00
     20.717  0.4285E-03  0.1231E-03  0.1201E+00  0.1197E+00
     20.930  0.1004E-02  0.1220E-02  0.1203E+00  0.1200E+00
     21.142  0.1110E-02  0.4799E-04  0.1205E+00  0.1200E+00
     21.354  0.6220E-03  0.4065E-06  0.1206E+00  0.1200E+00
     21.566  0.3409E-02  0.3287E-03  0.1214E+00  0.1200E+00
     21.778  0.4318E-02  0.1887E-02  0.1223E+00  0.1204E+00
     21.990  0.4617E-02  0.1125E-02  0.1233E+00  0.1207E+00
     22.203  0.3231E-02  0.3312E-02  0.1239E+00  0.1214E+00
     22.415  0.4124E-02  0.1396E-02  0.1248E+00  0.1217E+00
     22.627  0.2313E-02  0.4404E-02  0.1253E+00  0.1226E+00
     22.839  0.3406E-02  0.5181E-02  0.1260E+00  0.1237E+00
     23.051  0.3299E-02  0.4476E-02  0.1267E+00  0.1247E+00
     23.263  0.1808E-02  0.2463E-02  0.1271E+00  0.1252E+00
     23.476  0.3576E-02  0.4046E-02  0.1279E+00  0.1260E+00
     23.688  0.2100E-02  0.3286E-02  0.1283E+00  0.1267E+00
     23.900  0.2569E-02  0.2333E-02  0.1289E+00  0.1272E+00
     24.112  0.2165E-02  0.3488E-02  0.1293E+00  0.1280E+00
     24.324  0.4913E-02  0.2575E-02  0.1304E+00  0.1285E+00
     24.536  0.2659E-02  0.2383E-02  0.1309E+00  0.1290E+00
     24.748  0.5913E-02  0.2648E-02  0.1322E+00  0.1296E+00
     24.961  0.1822E-02  0.4713E-02  0.1326E+00  0.1306E+00
     25.173  0.4521E-02  0.5038E-02  0.1335E+00  0.1317E+00
     25.385  0.4672E-02  0.4053E-02  0.1345E+00  0.1325E+00
     25.597  0.2300E-02  0.2187E-02  0.1350E+00  0.1330E+00
     25.809  0.2013E-02  0.5966E-02  0.1354E+00  0.1342E+00
     26.021  0.2481E-02  0.2796E-02  0.1360E+00  0.1348E+00
     26.234  0.4323E-02  0.2762E-02  0.1369E+00  0.1354E+00
     26.446  0.4049E-02  0.2387E-02  0.1377E+00  0.1359E+00
     26.658  0.1903E-02  0.4110E-02  0.1381E+00  0.1368E+00
     26.870  0.1333E-02  0.3522E-02  0.1384E+00  0.1375E+00
     27.082  0.3756E-02  0.2357E-02  0.1392E+00  0.1380E+00
     27.294  0.2322E-02  0.1487E-02  0.1397E+00  0.1384E+00
     27.507  0.1698E-02  0.3086E-02  0.1401E+00  0.1390E+00
     27.719  0.5173E-02  0.2769E-02  0.1412E+00  0.1396E+00
     27.931  0.1694E-02  0.1852E-02  0.1415E+00  0.1400E+00
     28.143  0.2905E-02  0.4068E-02  0.1421E+00  0.1409E+00
     28.355  0.2336E-02  0.3155E-02  0.1426E+00  0.1415E+00
     28.567  0.4260E-02  0.2795E-02  0.1435E+00  0.1421E+00
     28.780  0.3703E-02  0.3417E-02  0.1443E+00  0.1428E+00
     28.992  0.1749E-02  0.3315E-02  0.1447E+00  0.1436E+00
     29.204  0.3883E-02  0.3688E-02  0.1455E+00  0.1443E+00
     29.416  0.2579E-02  0.2094E-02  0.1461E+00  0.1448E+00
     29.628  0.4282E-02  0.3773E-02  0.1470E+00  0.1456E+00
     29.840  0.4101E-02  0.2809E-02  0.1479E+00  0.1462E+00
     30.053  0.6894E-02  0.5966E-02  0.1493E+00  0.1474E+00
     30.265  0.3432E-02  0.4722E-02  0.1500E+00  0.1484E+00
     30.477  0.2912E-02  0.5505E-02  0.1507E+00  0.1496E+00
     30.689  0.2658E-02  0.3156E-02  0.1512E+00  0.1503E+00
     30.901  0.4290E-02  0.2339E-02  0.1521E+00  0.1508E+00
     31.113  0.4856E-02  0.4025E-02  0.1532E+00  0.1516E+00
     31.326  0.2328E-02  0.5020E-02  0.1537E+00  0.1527E+00
     31.538  0.5627E-02  0.3830E-02  0.1549E+00  0.1535E+00
     31.750  0.4248E-02  0.3767E-02  0.1558E+00  0.1543E+00
     31.962  0.3433E-02  0.3768E-02  0.1565E+00  0.1551E+00
     32.174  0.5516E-02  0.4735E-02  0.1577E+00  0.1561E+00
     32.386  0.2314E-02  0.6034E-02  0.1581E+00  0.1574E+00
     32.599  0.4003E-02  0.3288E-02  0.1590E+00  0.1581E+00
     32.811  0.3320E-02  0.3025E-02  0.1597E+00  0.1587E+00
     33.023  0.2981E-02  0.3519E-02  0.1603E+00  0.1595E+00
     33.235  0.5093E-02  0.3643E-02  0.1614E+00  0.1602E+00
     33.447  0.3968E-02  0.3207E-02  0.1623E+00  0.1609E+00
     33.659  0.4749E-02  0.5664E-02  0.1633E+00  0.1621E+00
     33.872  0.2622E-02  0.4600E-02  0.1638E+00  0.1631E+00
     34.084  0.4115E-02  0.2782E-02  0.1647E+00  0.1637E+00
     34.296  0.3873E-02  0.5094E-02  0.1655E+00  0.1648E+00
     34.508  0.4524E-02  0.2753E-02  0.1665E+00  0.1654E+00
     34.720  0.5415E-02  0.6662E-02  0.1676E+00  0.1668E+00
     34.932  0.3790E-02  0.4178E-02  0.1684E+00  0.1677E+00
     35.145  0.3734E-02  0.4214E-02  0.1692E+00  0.1686E+00
     35.357  0.3023E-02  0.2535E-02  0.1699E+00  0.1691E+00
     35.569  0.3329E-02  0.3690E-02  0.1706E+00  0.1699E+00
     35.781  0.3074E-02  0.3799E-02  0.1712E+00  0.1707E+00
     35.993  0.4160E-02  0.3235E-02  0.1721E+00  0.1714E+00
     36.205  0.4021E-02  0.4045E-02  0.1730E+00  0.1722E+00
     36.418  0.3360E-02  0.4118E-02  0.1737E+00  0.1731E+00
     36.630  0.5001E-02  0.3971E-02  0.1747E+00  0.1739E+00
     36.842  0.4531E-02  0.4462E-02  0.1757E+00  0.1749E+00
     37.054  0.2942E-02  0.4094E-02  0.1763E+00  0.1758E+00
     37.266  0.4131E-02  0.3176E-02  0.1772E+00  0.1764E+00
     37.478  0.4824E-02  0.3767E-02  0.1782E+00  0.1772E+00
     37.691  0.1919E-02  0.5706E-02  0.1786E+00  0.1784E+00
     37.903  0.2860E-02  0.2213E-02  0.1792E+00  0.1789E+00
     38.115  0.4944E-02  0.1370E-02  0.1803E+00  0.1792E+00
     38.327  0.2433E-02  0.3942E-02  0.1808E+00  0.1800E+00
     38.539  0.2698E-02  0.3281E-02  0.1814E+00  0.1807E+00
     38.751  0.4743E-02  0.3420E-02  0.1824E+00  0.1815E+00
     38.964  0.3036E-02  0.3599E-02  0.1830E+00  0.1822E+00
     39.176  0.3624E-02  0.3881E-02  0.1838E+00  0.1830E+00
     39.388  0.5358E-02  0.3433E-02  0.1849E+00  0.1838E+00
     39.600  0.6959E-02  0.6392E-02  0.1864E+00  0.1851E+00
     39.812  0.5399E-02  0.5140E-02  0.1875E+00  0.1862E+00
     40.024  0.4023E-02  0.5225E-02  0.1884E+00  0.1873E+00
     40.237  0.6743E-02  0.5129E-02  0.1898E+00  0.1884E+00
     40.449  0.2735E-02  0.6041E-02  0.1904E+00  0.1897E+00
     40.661  0.3394E-02  0.3417E-02  0.1911E+00  0.1904E+00
     40.873  0.3216E-02  0.3219E-02  0.1918E+00  0.1911E+00
     41.085  0.3659E-02  0.3229E-02  0.1926E+00  0.1918E+00
     41.297  0.1692E-02  0.4056E-02  0.1929E+00  0.1927E+00
     41.510  0.3164E-02  0.1324E-02  0.1936E+00  0.1929E+00
     41.722  0.3855E-02  0.2655E-02  0.1944E+00  0.1935E+00
     41.934  0.3785E-02  0.5356E-02  0.1952E+00  0.1946E+00
     42.146  0.3525E-02  0.3267E-02  0.1960E+00  0.1953E+00
     42.358  0.1676E-02  0.3519E-02  0.1963E+00  0.1961E+00
     42.570  0.6122E-02  0.1916E-02  0.1976E+00  0.1965E+00
     42.783  0.3583E-02  0.4491E-02  0.1984E+00  0.1974E+00
     42.995  0.3558E-02  0.4572E-02  0.1992E+00  0.1984E+00
     43.207  0.3528E-02  0.3343E-02  0.1999E+00  0.1991E+00
     43.419  0.4188E-02  0.1433E-02  0.2008E+00  0.1994E+00
     43.631  0.4942E-02  0.5064E-02  0.2018E+00  0.2005E+00
     43.843  0.3872E-02  0.5514E-02  0.2027E+00  0.2017E+00
     44.056  0.4939E-02  0.6084E-02  0.2037E+00  0.2030E+00
     44.268  0.3900E-02  0.3204E-02  0.2045E+00  0.2036E+00
     44.480  0.5330E-02  0.4833E-02  0.2057E+00  0.2047E+00
     44.692  0.4653E-02  0.3960E-02  0.2067E+00  0.2055E+00
     44.904  0.4718E-02  0.5463E-02  0.2077E+00  0.2067E+00
     45.116  0.8497E-03  0.3636E-02  0.2078E+00  0.2074E+00
     45.329  0.4233E-02  0.4036E-02  0.2087E+00  0.2083E+00
     45.541  0.2379E-02  0.1760E-02  0.2092E+00  0.2087E+00
     45.753  0.8154E-02  0.3450E-02  0.2110E+00  0.2094E+00
     45.965  0.4659E-02  0.5257E-02  0.2120E+00  0.2105E+00
     46.177  0.5485E-02  0.5737E-02  0.2131E+00  0.2117E+00
     46.389  0.5707E-02  0.5273E-02  0.2143E+00  0.2128E+00
     46.602  0.3150E-02  0.6535E-02  0.2150E+00  0.2142E+00
     46.814  0.3699E-02  0.2678E-02  0.2158E+00  0.2148E+00
     47.026  0.5252E-02  0.3979E-02  0.2169E+00  0.2156E+00
     47.238  0.4445E-02  0.4217E-02  0.2178E+00  0.2165E+00
     47.450  0.1775E-02  0.5343E-02  0.2182E+00  0.2177E+00
     47.662  0.1170E-02  0.2613E-02  0.2185E+00  0.2182E+00
     47.874  0.6770E-02  0.9864E-03  0.2199E+00  0.2184E+00
     48.087  0.4397E-02  0.3312E-02  0.2208E+00  0.2191E+00
     48.299  0.1193E-01  0.4480E-02  0.2234E+00  0.2201E+00
     48.511  0.4886E-02  0.5893E-02  0.2244E+00  0.2213E+00
     48.723  0.8077E-02  0.4650E-02  0.2261E+00  0.2223E+00
     48.935  0.1394E-01  0.5183E-02  0.2291E+00  0.2234E+00
     49.147  0.2751E-01  0.5840E-02  0.2349E+00  0.2247E+00
     49.360  0.1601E-01  0.6423E-02  0.2383E+00  0.2260E+00
     49.572  0.1368E-01  0.5181E-02  0.2412E+00  0.2271E+00
     49.784  0.1539E-01  0.5680E-02  0.2445E+00  0.2283E+00
     49.996  0.9102E-02  0.6978E-02  0.2464E+00  0.2298E+00
     50.208  0.8563E-02  0.6077E-02  0.2482E+00  0.2311E+00
     50.420  0.7074E-02  0.2992E-02  0.2497E+00  0.2317E+00
     50.633  0.6269E-02  0.2990E-02  0.2511E+00  0.2324E+00
     50.845  0.7376E-02  0.3929E-02  0.2526E+00  0.2332E+00
     51.057  0.5262E-02  0.6242E-02  0.2537E+00  0.2345E+00
     51.269  0.2218E-02  0.5651E-02  0.2542E+00  0.2357E+00
     51.481  0.4590E-02  0.6043E-02  0.2552E+00  0.2370E+00
     51.693  0.4600E-02  0.4713E-02  0.2562E+00  0.2380E+00
     51.906  0.4926E-02  0.3728E-02  0.2572E+00  0.2388E+00
     52.118  0.7315E-02  0.8279E-02  0.2588E+00  0.2406E+00
     52.330  0.4023E-02  0.1488E-01  0.2596E+00  0.2437E+00
     52.542  0.3862E-02  0.1920E-01  0.2604E+00  0.2478E+00
     52.754  0.5605E-02  0.1905E-01  0.2616E+00  0.2518E+00
     52.966  0.3060E-02  0.2615E-01  0.2623E+00  0.2574E+00
     53.179  0.2259E-02  0.1258E-01  0.2627E+00  0.2600E+00
     53.391  0.3436E-02  0.7117E-02  0.2635E+00  0.2616E+00
     53.603  0.3083E-02  0.5937E-02  0.2641E+00  0.2628E+00
     53.815  0.4440E-02  0.3932E-02  0.2651E+00  0.2636E+00
     54.027  0.5616E-02  0.3267E-02  0.2663E+00  0.2643E+00
     54.239  0.2152E-02  0.5329E-02  0.2667E+00  0.2655E+00
     54.452  0.2764E-02  0.4131E-02  0.2673E+00  0.2663E+00
     54.664  0.5478E-02  0.4968E-02  0.2685E+00  0.2674E+00
     54.876  0.2388E-02  0.5120E-02  0.2690E+00  0.2685E+00
     55.088  0.2862E-02  0.1876E-02  0.2696E+00  0.2689E+00
     55.300  0.5649E-02  0.2454E-02  0.2708E+00  0.2694E+00
     55.512  0.3140E-02  0.4308E-02  0.2714E+00  0.2703E+00
     55.725  0.4093E-02  0.3660E-02  0.2723E+00  0.2711E+00
     55.937  0.9089E-03  0.3132E-02  0.2725E+00  0.2718E+00
     56.149  0.3152E-02  0.1379E-02  0.2732E+00  0.2721E+00
     56.361  0.2584E-02  0.3570E-02  0.2737E+00  0.2728E+00
     56.573  0.2766E-02  0.2991E-02  0.2743E+00  0.2734E+00
     56.785  0.4333E-02  0.2529E-02  0.2752E+00  0.2740E+00
     56.998  0.2088E-02  0.3631E-02  0.2757E+00  0.2748E+00
     57.210  0.2536E-02  0.3205E-02  0.2762E+00  0.2754E+00
     57.422  0.2608E-02  0.2928E-02  0.2768E+00  0.2761E+00
     57.634  0.2968E-02  0.2963E-02  0.2774E+00  0.2767E+00
     57.846  0.2062E-02  0.1784E-02  0.2778E+00  0.2771E+00
     58.058  0.1437E-02  0.3550E-02  0.2781E+00  0.2778E+00
     58.271  0.1391E-02  0.1331E-02  0.2784E+00  0.2781E+00
     58.483  0.1624E-02  0.1704E-02  0.2788E+00  0.2785E+00
     58.695  0.1961E-03  0.1420E-02  0.2788E+00  0.2788E+00
     58.907  0.1508E-02  0.1052E-03  0.2791E+00  0.2788E+00
     59.119  0.5091E-03  0.2147E-02  0.2792E+00  0.2792E+00
     59.331  0.6679E-03  0.2068E-04  0.2794E+00  0.2792E+00
     59.544  0.6859E-04  0.4912E-03  0.2794E+00  0.2793E+00
     59.756  0.5078E-03  0.2452E-03  0.2795E+00  0.2794E+00
     59.968  0.7897E-03  0.3972E-05  0.2797E+00  0.2794E+00
     60.180  0.1860E-03  0.9997E-03  0.2797E+00  0.2796E+00
     60.392  0.2962E-03  0.4808E-03  0.2798E+00  0.2797E+00
     60.604  0.1010E-02  0.9570E-03  0.2800E+00  0.2799E+00
     60.817  0.3356E-04  0.3816E-03  0.2800E+00  0.2800E+00
     61.029  0.0000E+00  0.1646E-07  0.2800E+00  0.2800E+00
     61.241  0.0000E+00  0.0000E+00  0.2800E+00  0.2800E+00
     61.453  0.0000E+00  0.0000E+00  0.2800E+00  0.2800E+00
     61.665  0.0000E+00  0.0000E+00  0.2800E+00  0.2800E+00
     61.877  0.0000E+00  0.0000E+00  0.2800E+00  0.2800E+00
     62.090  0.0000E+00  0.0000E+00  0.2800E+00  0.2800E+00
     62.302  0.0000E+00  0.0000E+00  0.2800E+00  0.2800E+00
     62.514  0.0000E+00  0.0000E+00  0.2800E+00  0.2800E+00
     62.726  0.0000E+00  0.0000E+00  0.2800E+00  0.2800E+00
     62.938  0.0000E+00  0.0000E+00  0.2800E+00  0.2800E+00
     63.150  0.0000E+00  0.0000E+00  0.2800E+00  0.2800E+00
     63.363  0.0000E+00  0.0000E+00  0.2800E+00  0.2800E+00
     63.575  0.0000E+00  0.0000E+00  0.2800E+00  0.2800E+00
     63.57471472     -0.07482159  301     12.68550426      1.00000000
     -0.075  0.0000E+00  0.0000E+00  0.0000E+00  0.0000E+00  0.0000E+00  0.0000E+00  0.0000E+00  0.0000E+00  0.0000E+00  0.0000E+00  0.0000E+00  0.0000E+00  0.0000E+00  0.0000E+00  0.0000E+00  0.0000E+00  0.0000E+00  0.0000E+00
      0.137  0.0000E+00  0.0000E+00  0.0000E+00  0.0000E+00  0.0000E+00  0.0000E+00  0.0000E+00  0.0000E+00  0.0000E+00  0.0000E+00  0.0000E+00  0.0000E+00  0.0000E+00  0.0000E+00  0.0000E+00  0.0000E+00  0.0000E+00  0.0000E+00
      0.350  0.0000E+00  0.0000E+00  0.0000E+00  0.0000E+00  0.0000E+00  0.0000E+00  0.0000E+00  0.0000E+00  0.0000E+00  0.0000E+00  0.0000E+00  0.0000E+00  0.0000E+00  0.0000E+00  0.0000E+00  0.0000E+00  0.0000E+00  0.0000E+00
      0.562  0.0000E+00  0.0000E+00  0.0000E+00  0.0000E+00  0.0000E+00  0.0000E+00  0.0000E+00  0.0000E+00  0.0000E+00  0.0000E+00  0.0000E+00  0.0000E+00  0.0000E+00  0.0000E+00  0.0000E+00  0.0000E+00  0.0000E+00  0.0000E+00
      0.774  0.0000E+00  0.0000E+00  0.0000E+00  0.0000E+00  0.0000E+00  0.0000E+00  0.0000E+00  0.0000E+00  0.0000E+00  0.0000E+00  0.0000E+00  0.0000E+00  0.0000E+00  0.0000E+00  0.0000E+00  0.0000E+00  0.0000E+00  0.0000E+00
      0.986  0.0000E+00  0.0000E+00  0.0000E+00  0.0000E+00  0.0000E+00  0.0000E+00  0.0000E+00  0.0000E+00  0.0000E+00  0.0000E+00  0.0000E+00  0.0000E+00  0.0000E+00  0.0000E+00  0.0000E+00  0.0000E+00  0.0000E+00  0.0000E+00
      1.198  0.0000E+00  0.0000E+00  0.0000E+00  0.0000E+00  0.0000E+00  0.0000E+00  0.0000E+00  0.0000E+00  0.0000E+00  0.0000E+00  0.0000E+00  0.0000E+00  0.0000E+00  0.0000E+00  0.0000E+00  0.0000E+00  0.0000E+00  0.0000E+00
      1.410  0.0000E+00  0.0000E+00  0.0000E+00  0.0000E+00  0.0000E+00  0.0000E+00  0.0000E+00  0.0000E+00  0.0000E+00  0.0000E+00  0.0000E+00  0.0000E+00  0.0000E+00  0.0000E+00  0.0000E+00  0.0000E+00  0.0000E+00  0.0000E+00
      1.622  0.0000E+00  0.0000E+00  0.0000E+00  0.0000E+00  0.0000E+00  0.0000E+00  0.0000E+00  0.0000E+00  0.0000E+00  0.0000E+00  0.0000E+00  0.0000E+00  0.0000E+00  0.0000E+00  0.0000E+00  0.0000E+00  0.0000E+00  0.0000E+00
      1.835  0.0000E+00  0.0000E+00  0.0000E+00  0.0000E+00  0.0000E+00  0.0000E+00  0.0000E+00  0.0000E+00  0.0000E+00  0.0000E+00  0.0000E+00  0.0000E+00  0.0000E+00  0.0000E+00  0.0000E+00  0.0000E+00  0.0000E+00  0.0000E+00
      2.047  0.0000E+00  0.0000E+00  0.0000E+00  0.0000E+00  0.0000E+00  0.0000E+00  0.0000E+00  0.0000E+00  0.0000E+00  0.0000E+00  0.0000E+00  0.0000E+00  0.0000E+00  0.0000E+00  0.0000E+00  0.0000E+00  0.0000E+00  0.0000E+00
      2.259  0.0000E+00  0.0000E+00  0.0000E+00  0.0000E+00  0.0000E+00  0.0000E+00  0.0000E+00  0.0000E+00  0.0000E+00  0.0000E+00  0.0000E+00  0.0000E+00  0.0000E+00  0.0000E+00  0.0000E+00  0.0000E+00  0.0000E+00  0.0000E+00
      2.471  0.0000E+00  0.0000E+00  0.0000E+00  0.0000E+00  0.0000E+00  0.0000E+00  0.0000E+00  0.0000E+00  0.0000E+00  0.0000E+00  0.0000E+00  0.0000E+00  0.0000E+00  0.0000E+00  0.0000E+00  0.0000E+00  0.0000E+00  0.0000E+00
      2.683  0.1197E-06  0.1711E-07  0.2320E-20  0.8425E-23  0.3904E-25  0.6541E-32  0.2320E-20  0.8425E-23  0.4061E-20  0.2946E-21  0.2097E-29  0.1163E-31  0.4773E-12  0.6143E-13  0.2097E-29  0.1163E-31  0.4061E-20  0.2946E-21
      2.895  0.1766E-02  0.1719E-02  0.1622E-11  0.8495E-13  0.1171E-06  0.2325E-07  0.1622E-11  0.8495E-13  0.2776E-13  0.1174E-14  0.1455E-21  0.2117E-21  0.8401E-08  0.6378E-08  0.1455E-21  0.2117E-21  0.2776E-13  0.1174E-14
      3.108  0.1045E-01  0.8534E-02  0.8900E-04  0.6368E-04  0.5844E-04  0.5871E-04  0.8900E-04  0.6368E-04  0.1520E-05  0.8580E-06  0.2966E-10  0.1728E-11  0.2133E-05  0.1351E-05  0.2966E-10  0.1728E-11  0.1520E-05  0.8580E-06
      3.320  0.2255E-01  0.2256E-01  0.2914E-03  0.2918E-03  0.3212E-03  0.2875E-03  0.2914E-03  0.2918E-03  0.5133E-05  0.4016E-05  0.1006E-04  0.7175E-05  0.7727E-06  0.9438E-06  0.1006E-04  0.7175E-05  0.5133E-05  0.4016E-05
      3.532  0.3683E-02  0.5007E-02  0.2097E-04  0.4731E-04  0.1687E-03  0.1535E-03  0.2097E-04  0.4731E-04  0.4263E-06  0.6614E-06  0.7901E-06  0.1533E-05  0.9898E-05  0.4745E-05  0.7901E-06  0.1533E-05  0.4263E-06  0.6614E-06
      3.744  0.1565E-01  0.1316E-01  0.4874E-03  0.4152E-03  0.3092E-03  0.1999E-03  0.4874E-03  0.4152E-03  0.2408E-04  0.1647E-04  0.9791E-05  0.2119E-05  0.3163E-04  0.2173E-04  0.9791E-05  0.2119E-05  0.2408E-04  0.1647E-04
      3.956  0.4392E-01  0.4682E-01  0.1415E-02  0.1471E-02  0.1426E-02  0.1605E-02  0.1415E-02  0.1471E-02  0.8451E-04  0.6512E-04  0.7143E-04  0.6138E-04  0.8883E-04  0.7120E-04  0.7143E-04  0.6138E-04  0.8451E-04  0.6512E-04
      4.168  0.1893E-01  0.1972E-01  0.9846E-03  0.1035E-02  0.3243E-03  0.3282E-03  0.9846E-03  0.1035E-02  0.8851E-04  0.6876E-04  0.5319E-04  0.4050E-04  0.3159E-04  0.2504E-04  0.5319E-04  0.4050E-04  0.8851E-04  0.6876E-04
      4.381  0.2111E-01  0.1995E-01  0.7295E-03  0.7234E-03  0.1686E-02  0.1549E-02  0.7295E-03  0.7234E-03  0.4610E-04  0.3411E-04  0.1504E-03  0.1120E-03  0.1012E-03  0.5301E-04  0.1504E-03  0.1120E-03  0.4610E-04  0.3411E-04
      4.593  0.3429E-01  0.2142E-01  0.1508E-02  0.9358E-03  0.3080E-02  0.1906E-02  0.1508E-02  0.9358E-03  0.1699E-03  0.7011E-04  0.2809E-03  0.1580E-03  0.3800E-03  0.1106E-03  0.2809E-03  0.1580E-03  0.1699E-03  0.7011E-04
      4.805  0.4958E-01  0.4892E-01  0.4128E-02  0.3378E-02  0.1404E-02  0.2581E-02  0.4128E-02  0.3378E-02  0.6473E-03  0.3642E-03  0.2393E-03  0.1571E-03  0.5293E-03  0.4776E-03  0.2393E-03  0.1571E-03  0.6473E-03  0.3642E-03
      5.017  0.9535E-02  0.1992E-01  0.7027E-03  0.1861E-02  0.7248E-03  0.3775E-03  0.7027E-03  0.1861E-02  0.1247E-03  0.2183E-03  0.1125E-03  0.9672E-04  0.1275E-03  0.1143E-03  0.1125E-03  0.9672E-04  0.1247E-03  0.2183E-03
      5.229  0.6647E-01  0.3560E-01  0.5841E-02  0.2779E-02  0.4871E-02  0.3231E-02  0.5841E-02  0.2779E-02  0.1387E-02  0.4224E-03  0.1390E-02  0.4295E-03  0.6826E-03  0.3544E-03  0.1390E-02  0.4295E-03  0.1387E-02  0.4224E-03
      5.441  0.1903E-01  0.5659E-01  0.1097E-02  0.4811E-02  0.2778E-02  0.5247E-02  0.1097E-02  0.4811E-02  0.2100E-03  0.7422E-03  0.4837E-03  0.9800E-03  0.5875E-03  0.5553E-03  0.4837E-03  0.9800E-03  0.2100E-03  0.7422E-03
      5.654  0.2965E-01  0.1633E-01  0.1899E-02  0.8116E-03  0.4749E-02  0.3267E-02  0.1899E-02  0.8116E-03  0.7170E-03  0.1747E-03  0.8710E-03  0.2645E-03  0.2343E-02  0.1063E-02  0.8710E-03  0.2645E-03  0.7170E-03  0.1747E-03
      5.866  0.5092E-01  0.2245E-01  0.6802E-02  0.2525E-02  0.3953E-02  0.2048E-02  0.6802E-02  0.2525E-02  0.2288E-02  0.5650E-03  0.2004E-02  0.3667E-03  0.1187E-02  0.7315E-03  0.2004E-02  0.3667E-03  0.2288E-02  0.5650E-03
      6.078  0.5678E-01  0.7294E-01  0.7181E-02  0.9526E-02  0.5625E-02  0.7213E-02  0.7181E-02  0.9526E-02  0.3505E-02  0.2345E-02  0.2116E-02  0.2014E-02  0.3260E-02  0.1642E-02  0.2116E-02  0.2014E-02  0.3505E-02  0.2345E-02
      6.290  0.6810E-01  0.4759E-01  0.8860E-02  0.6034E-02  0.7993E-02  0.6225E-02  0.8860E-02  0.6034E-02  0.6180E-02  0.1795E-02  0.6050E-02  0.1697E-02  0.4433E-02  0.1812E-02  0.6050E-02  0.1697E-02  0.6180E-02  0.1795E-02
      6.502  0.2861E-01  0.5112E-01  0.3056E-02  0.7453E-02  0.3847E-02  0.5713E-02  0.3056E-02  0.7453E-02  0.4615E-02  0.2961E-02  0.2705E-02  0.3007E-02  0.8619E-02  0.1978E-02  0.2705E-02  0.3007E-02  0.4615E-02  0.2961E-02
      6.714  0.6383E-01  0.2645E-01  0.7435E-02  0.3231E-02  0.1270E-01  0.4127E-02  0.7435E-02  0.3231E-02  0.1076E-01  0.2141E-02  0.1935E-01  0.5229E-03  0.6905E-02  0.5122E-02  0.1935E-01  0.5229E-03  0.1076E-01  0.2141E-02
      6.927  0.1302E+00  0.5744E-01  0.1772E-01  0.7905E-02  0.1120E-01  0.1217E-01  0.1772E-01  0.7905E-02  0.6198E-01  0.4009E-02  0.6494E-01  0.7340E-02  0.6556E-01  0.1934E-02  0.6494E-01  0.7340E-02  0.6198E-01  0.4009E-02
      7.139  0.8747E-01  0.4170E-01  0.1318E-01  0.6129E-02  0.1321E-01  0.9525E-02  0.1318E-01  0.6129E-02  0.5170E-01  0.3320E-02  0.6360E-01  0.4733E-02  0.3007E-01  0.4975E-02  0.6360E-01  0.4733E-02  0.5170E-01  0.3320E-02
      7.351  0.8001E-01  0.7619E-01  0.1283E-01  0.1652E-01  0.1414E-01  0.7043E-02  0.1283E-01  0.1652E-01  0.1049E+00  0.1431E-01  0.8676E-01  0.5999E-02  0.1063E+00  0.1201E-01  0.8676E-01  0.5999E-02  0.1049E+00  0.1431E-01
      7.563  0.5926E-01  0.7973E-01  0.1095E-01  0.1396E-01  0.2002E-01  0.1135E-01  0.1095E-01  0.1396E-01  0.8900E-01  0.2093E-01  0.7759E-01  0.2288E-01  0.5748E-01  0.1920E-01  0.7759E-01  0.2288E-01  0.8900E-01  0.2093E-01
      7.775  0.7106E-01  0.8538E-01  0.2486E-01  0.1145E-01  0.2100E-01  0.1637E-01  0.2486E-01  0.1145E-01  0.1289E+00  0.3228E-01  0.1818E+00  0.4595E-01  0.1766E+00  0.3253E-01  0.1818E+00  0.4595E-01  0.1289E+00  0.3228E-01
      7.987  0.2893E-01  0.5922E-01  0.1371E-01  0.6874E-02  0.2104E-01  0.1234E-01  0.1371E-01  0.6874E-02  0.7467E-01  0.3416E-01  0.1155E+00  0.4101E-01  0.6880E-01  0.3326E-01  0.1155E+00  0.4101E-01  0.7467E-01  0.3416E-01
      8.200  0.2741E-01  0.9115E-01  0.2258E-01  0.1991E-01  0.1621E-01  0.1657E-01  0.2258E-01  0.1991E-01  0.9134E-01  0.6504E-01  0.9539E-01  0.6968E-01  0.1291E+00  0.5207E-01  0.9539E-01  0.6968E-01  0.9134E-01  0.6504E-01
      8.412  0.1918E-01  0.6527E-01  0.2322E-01  0.1819E-01  0.1841E-01  0.1424E-01  0.2322E-01  0.1819E-01  0.1237E+00  0.8519E-01  0.1109E+00  0.5474E-01  0.1865E+00  0.5941E-01  0.1109E+00  0.5474E-01  0.1237E+00  0.8519E-01
      8.624  0.1181E-01  0.4698E-01  0.2541E-01  0.1376E-01  0.1737E-01  0.2124E-01  0.2541E-01  0.1376E-01  0.1663E+00  0.5815E-01  0.9327E-01  0.7475E-01  0.1775E+00  0.5443E-01  0.9327E-01  0.7475E-01  0.1663E+00  0.5815E-01
      8.836  0.1039E-01  0.4217E-01  0.2413E-01  0.1953E-01  0.1555E-01  0.2543E-01  0.2413E-01  0.1953E-01  0.1630E+00  0.9802E-01  0.9490E-01  0.1552E+00  0.1599E+00  0.1062E+00  0.9490E-01  0.1552E+00  0.1630E+00  0.9802E-01
      9.048  0.1482E-01  0.2457E-01  0.3069E-01  0.1670E-01  0.2645E-01  0.2401E-01  0.3069E-01  0.1670E-01  0.1987E+00  0.5510E-01  0.1054E+00  0.1202E+00  0.1656E+00  0.6550E-01  0.1054E+00  0.1202E+00  0.1987E+00  0.5510E-01
      9.260  0.5840E-02  0.1590E-01  0.1221E-01  0.2472E-01  0.8574E-02  0.1409E-01  0.1221E-01  0.2472E-01  0.8745E-01  0.9198E-01  0.3094E-01  0.6296E-01  0.7295E-01  0.1086E+00  0.3094E-01  0.6296E-01  0.8745E-01  0.9198E-01
      9.473  0.4647E-02  0.1018E-01  0.1256E-01  0.2297E-01  0.1934E-01  0.1623E-01  0.1256E-01  0.2297E-01  0.1061E+00  0.9619E-01  0.1204E+00  0.6760E-01  0.1590E+00  0.1261E+00  0.1204E+00  0.6760E-01  0.1061E+00  0.9619E-01
      9.685  0.1246E-01  0.1131E-01  0.2319E-01  0.2853E-01  0.2275E-01  0.1754E-01  0.2319E-01  0.2853E-01  0.1367E+00  0.1219E+00  0.2280E+00  0.7383E-01  0.2980E+00  0.1701E+00  0.2280E+00  0.7383E-01  0.1367E+00  0.1219E+00
      9.897  0.1173E-01  0.8431E-02  0.1859E-01  0.3129E-01  0.2619E-01  0.2250E-01  0.1859E-01  0.3129E-01  0.1755E+00  0.1380E+00  0.2206E+00  0.7588E-01  0.1727E+00  0.1492E+00  0.2206E+00  0.7588E-01  0.1755E+00  0.1380E+00
     10.109  0.1271E-01  0.1424E-01  0.1599E-01  0.4660E-01  0.2806E-01  0.2712E-01  0.1599E-01  0.4660E-01  0.2246E+00  0.1891E+00  0.2264E+00  0.9970E-01  0.1671E+00  0.1913E+00  0.2264E+00  0.9970E-01  0.2246E+00  0.1891E+00
     10.321  0.1187E-01  0.5622E-02  0.1772E-01  0.2181E-01  0.2702E-01  0.1510E-01  0.1772E-01  0.2181E-01  0.2222E+00  0.1259E+00  0.2244E+00  0.3569E-01  0.1513E+00  0.9639E-01  0.2244E+00  0.3569E-01  0.2222E+00  0.1259E+00
     10.533  0.1238E-01  0.2995E-02  0.2286E-01  0.9928E-02  0.2996E-01  0.1578E-01  0.2286E-01  0.9928E-02  0.2126E+00  0.7377E-01  0.2490E+00  0.2747E-01  0.2031E+00  0.5260E-01  0.2490E+00  0.2747E-01  0.2126E+00  0.7377E-01