   2   2   1   0
  0.1030573E+02  0.2450211E-09  0.2450211E-09  0.3964342E-09  0.5000000E-15
  1.000000000000000E-004
  CAR 
 Co-hcc                                  
     38.53772733      0.03367364  301     10.94363679      1.00000000
      0.034  0.0000E+00  0.0000E+00  0.0000E+00  0.0000E+00
      0.162  0.0000E+00  0.0000E+00  0.0000E+00  0.0000E+00
      0.290  0.0000E+00  0.0000E+00  0.0000E+00  0.0000E+00
      0.419  0.0000E+00  0.0000E+00  0.0000E+00  0.0000E+00
      0.547  0.0000E+00  0.0000E+00  0.0000E+00  0.0000E+00
      0.675  0.0000E+00  0.0000E+00  0.0000E+00  0.0000E+00
      0.804  0.0000E+00  0.0000E+00  0.0000E+00  0.0000E+00
      0.932  0.0000E+00  0.0000E+00  0.0000E+00  0.0000E+00
      1.060  0.0000E+00  0.0000E+00  0.0000E+00  0.0000E+00
      1.189  0.0000E+00  0.0000E+00  0.0000E+00  0.0000E+00
      1.317  0.0000E+00  0.0000E+00  0.0000E+00  0.0000E+00
      1.445  0.0000E+00  0.0000E+00  0.0000E+00  0.0000E+00
      1.574  0.1385E-12  0.9010E-14  0.1778E-13  0.1156E-14
      1.702  0.1017E-05  0.2964E-06  0.1305E-06  0.3804E-07
      1.831  0.8737E-04  0.7885E-04  0.1134E-04  0.1016E-04
      1.959  0.1304E-03  0.1050E-03  0.2808E-04  0.2363E-04
      2.087  0.1002E-03  0.1169E-03  0.4094E-04  0.3863E-04
      2.216  0.5481E-03  0.5349E-03  0.1113E-03  0.1073E-03
      2.344  0.1008E-02  0.8640E-03  0.2407E-03  0.2182E-03
      2.472  0.3449E-03  0.4934E-03  0.2849E-03  0.2815E-03
      2.601  0.1994E-04  0.4677E-04  0.2875E-03  0.2875E-03
      2.729  0.1144E-03  0.2918E-04  0.3022E-03  0.2912E-03
      2.857  0.1419E-02  0.1302E-02  0.4843E-03  0.4583E-03
      2.986  0.6896E-03  0.6008E-03  0.5728E-03  0.5354E-03
      3.114  0.7335E-03  0.9881E-03  0.6669E-03  0.6622E-03
      3.242  0.7452E-03  0.6526E-03  0.7626E-03  0.7460E-03
      3.371  0.1145E-02  0.9347E-03  0.9095E-03  0.8660E-03
      3.499  0.1627E-02  0.1370E-02  0.1118E-02  0.1042E-02
      3.627  0.7350E-03  0.1313E-02  0.1213E-02  0.1210E-02
      3.756  0.8658E-03  0.2363E-03  0.1324E-02  0.1241E-02
      3.884  0.3016E-03  0.9454E-03  0.1362E-02  0.1362E-02
      4.012  0.1112E-04  0.3543E-05  0.1364E-02  0.1363E-02
      4.141  0.2105E-02  0.4069E-03  0.1634E-02  0.1415E-02
      4.269  0.2568E-02  0.2573E-02  0.1964E-02  0.1745E-02
      4.397  0.1503E-02  0.1905E-02  0.2157E-02  0.1989E-02
      4.526  0.1414E-02  0.1898E-02  0.2338E-02  0.2233E-02
      4.654  0.2756E-02  0.9789E-03  0.2692E-02  0.2359E-02
      4.783  0.9386E-03  0.2392E-02  0.2812E-02  0.2666E-02
      4.911  0.5207E-03  0.1119E-02  0.2879E-02  0.2809E-02
      5.039  0.2348E-02  0.1266E-03  0.3180E-02  0.2826E-02
      5.168  0.2694E-02  0.1709E-02  0.3526E-02  0.3045E-02
      5.296  0.2082E-02  0.2539E-02  0.3793E-02  0.3371E-02
      5.424  0.1885E-02  0.1681E-02  0.4035E-02  0.3587E-02
      5.553  0.5757E-02  0.1097E-02  0.4774E-02  0.3727E-02
      5.681  0.8939E-02  0.2260E-02  0.5922E-02  0.4017E-02
      5.809  0.1226E-01  0.2773E-02  0.7495E-02  0.4373E-02
      5.938  0.8609E-02  0.2094E-02  0.8600E-02  0.4642E-02
      6.066  0.7023E-02  0.5657E-02  0.9501E-02  0.5368E-02
      6.194  0.1282E-01  0.1225E-02  0.1115E-01  0.5525E-02
      6.323  0.2342E-01  0.6058E-02  0.1415E-01  0.6303E-02
      6.451  0.1102E-01  0.4174E-02  0.1557E-01  0.6838E-02
      6.579  0.1499E-01  0.9286E-03  0.1749E-01  0.6958E-02
      6.708  0.2100E-01  0.3387E-02  0.2019E-01  0.7392E-02
      6.836  0.1404E-01  0.1388E-01  0.2199E-01  0.9174E-02
      6.964  0.1200E-01  0.8515E-02  0.2353E-01  0.1027E-01
      7.093  0.1638E-01  0.7622E-02  0.2563E-01  0.1125E-01
      7.221  0.1956E-01  0.9144E-02  0.2814E-01  0.1242E-01
      7.349  0.1977E-01  0.9804E-02  0.3068E-01  0.1368E-01
      7.478  0.1999E-01  0.1393E-01  0.3324E-01  0.1547E-01
      7.606  0.1875E-01  0.6149E-02  0.3565E-01  0.1625E-01
      7.734  0.1429E-01  0.1484E-01  0.3748E-01  0.1816E-01
      7.863  0.1078E-01  0.1797E-01  0.3887E-01  0.2047E-01
      7.991  0.1465E-01  0.1102E-01  0.4075E-01  0.2188E-01
      8.120  0.2758E-01  0.9533E-02  0.4429E-01  0.2310E-01
      8.248  0.2780E-01  0.1124E-01  0.4785E-01  0.2455E-01
      8.376  0.2238E-01  0.1651E-01  0.5073E-01  0.2667E-01
      8.505  0.3070E-01  0.1654E-01  0.5467E-01  0.2879E-01
      8.633  0.2629E-01  0.1488E-01  0.5804E-01  0.3070E-01
      8.761  0.2828E-01  0.2211E-01  0.6167E-01  0.3354E-01
      8.890  0.2827E-01  0.1668E-01  0.6530E-01  0.3568E-01
      9.018  0.2599E-01  0.1261E-01  0.6864E-01  0.3729E-01
      9.146  0.1687E-01  0.6365E-02  0.7080E-01  0.3811E-01
      9.275  0.1904E-01  0.9270E-02  0.7324E-01  0.3930E-01
      9.403  0.1677E-01  0.1107E-01  0.7540E-01  0.4072E-01
      9.531  0.1306E-01  0.1762E-01  0.7707E-01  0.4298E-01
      9.660  0.1425E-01  0.2254E-01  0.7890E-01  0.4588E-01
      9.788  0.2681E-01  0.2625E-01  0.8234E-01  0.4925E-01
      9.916  0.1568E-01  0.2342E-01  0.8436E-01  0.5225E-01
     10.045  0.1763E-01  0.1944E-01  0.8662E-01  0.5475E-01
     10.173  0.2635E-01  0.2838E-01  0.9000E-01  0.5839E-01
     10.301  0.3894E-01  0.2409E-01  0.9500E-01  0.6148E-01
     10.430  0.4540E-01  0.2770E-01  0.1008E+00  0.6504E-01
     10.558  0.2232E-01  0.1966E-01  0.1037E+00  0.6756E-01
     10.686  0.3410E-02  0.1753E-01  0.1041E+00  0.6981E-01
     10.815  0.8277E-02  0.1418E-01  0.1052E+00  0.7163E-01
     10.943  0.6385E-02  0.1833E-01  0.1060E+00  0.7398E-01
     11.072  0.5028E-02  0.8001E-02  0.1067E+00  0.7501E-01
     11.200  0.2148E-02  0.1660E-01  0.1069E+00  0.7714E-01
     11.328  0.1653E-03  0.9320E-02  0.1069E+00  0.7834E-01
     11.457  0.4125E-09  0.1524E-01  0.1070E+00  0.8029E-01
     11.585  0.3735E-05  0.2220E-01  0.1070E+00  0.8314E-01
     11.713  0.2087E-02  0.1012E-01  0.1072E+00  0.8444E-01
     11.842  0.5381E-02  0.1638E-01  0.1079E+00  0.8654E-01
     11.970  0.2413E-02  0.2058E-01  0.1082E+00  0.8918E-01
     12.098  0.1652E-02  0.3108E-01  0.1084E+00  0.9317E-01
     12.227  0.4921E-02  0.3835E-01  0.1091E+00  0.9810E-01
     12.355  0.6310E-02  0.3603E-01  0.1099E+00  0.1027E+00
     12.483  0.4124E-02  0.1968E-01  0.1104E+00  0.1052E+00
     12.612  0.1459E-02  0.1025E-01  0.1106E+00  0.1066E+00
     12.740  0.5359E-03  0.2966E-02  0.1107E+00  0.1069E+00
     12.868  0.1654E-02  0.7289E-03  0.1109E+00  0.1070E+00
     12.997  0.4127E-02  0.3841E-02  0.1114E+00  0.1075E+00
     13.125  0.3991E-02  0.2621E-02  0.1119E+00  0.1079E+00
     13.253  0.3122E-02  0.2469E-02  0.1123E+00  0.1082E+00
     13.382  0.1314E-05  0.3687E-02  0.1123E+00  0.1087E+00
     13.510  0.5453E-03  0.5631E-02  0.1124E+00  0.1094E+00
     13.638  0.4594E-02  0.4918E-02  0.1130E+00  0.1100E+00
     13.767  0.1200E-03  0.2981E-02  0.1130E+00  0.1104E+00
     13.895  0.4405E-03  0.2298E-02  0.1130E+00  0.1107E+00
     14.023  0.2505E-02  0.5706E-02  0.1134E+00  0.1114E+00
     14.152  0.2144E-02  0.3693E-02  0.1136E+00  0.1119E+00
     14.280  0.8286E-03  0.1932E-02  0.1137E+00  0.1121E+00
     14.409  0.1080E-02  0.1918E-02  0.1139E+00  0.1124E+00
     14.537  0.4764E-02  0.8110E-03  0.1145E+00  0.1125E+00
     14.665  0.4117E-02  0.3626E-02  0.1150E+00  0.1130E+00
     14.794  0.3895E-02  0.2395E-02  0.1155E+00  0.1133E+00
     14.922  0.2730E-02  0.1059E-02  0.1159E+00  0.1134E+00
     15.050  0.2202E-02  0.1942E-02  0.1162E+00  0.1136E+00
     15.179  0.1391E-03  0.7817E-03  0.1162E+00  0.1137E+00
     15.307  0.1503E-02  0.8174E-03  0.1164E+00  0.1139E+00
     15.435  0.4445E-02  0.5691E-02  0.1169E+00  0.1146E+00
     15.564  0.2754E-02  0.5145E-02  0.1173E+00  0.1152E+00
     15.692  0.9676E-03  0.2870E-02  0.1174E+00  0.1156E+00
     15.820  0.2535E-03  0.3969E-02  0.1174E+00  0.1161E+00
     15.949  0.3635E-03  0.4115E-03  0.1175E+00  0.1162E+00
     16.077  0.3708E-02  0.9925E-03  0.1180E+00  0.1163E+00
     16.205  0.1754E-02  0.1364E-02  0.1182E+00  0.1165E+00
     16.334  0.6469E-03  0.4271E-02  0.1183E+00  0.1170E+00
     16.462  0.2860E-02  0.2145E-02  0.1186E+00  0.1173E+00
     16.590  0.1921E-04  0.1086E-02  0.1187E+00  0.1174E+00
     16.719  0.8193E-03  0.1113E-02  0.1188E+00  0.1176E+00
     16.847  0.1058E-02  0.4474E-02  0.1189E+00  0.1182E+00
     16.975  0.4594E-03  0.3254E-03  0.1189E+00  0.1182E+00
     17.104  0.1664E-06  0.1016E-02  0.1190E+00  0.1183E+00
     17.232  0.4261E-03  0.2483E-02  0.1190E+00  0.1186E+00
     17.360  0.1253E-02  0.6648E-03  0.1192E+00  0.1187E+00
     17.489  0.3665E-02  0.5507E-03  0.1196E+00  0.1188E+00
     17.617  0.1409E-02  0.1004E-02  0.1198E+00  0.1189E+00
     17.746  0.2631E-03  0.1253E-03  0.1199E+00  0.1190E+00
     17.874  0.7653E-03  0.6745E-03  0.1199E+00  0.1190E+00
     18.002  0.1531E-02  0.1142E-02  0.1201E+00  0.1192E+00
     18.131  0.2383E-02  0.2944E-02  0.1205E+00  0.1196E+00
     18.259  0.1099E-03  0.1189E-02  0.1205E+00  0.1197E+00
     18.387  0.2712E-02  0.1050E-02  0.1208E+00  0.1198E+00
     18.516  0.1357E-02  0.1777E-03  0.1210E+00  0.1199E+00
     18.644  0.1286E-04  0.9987E-03  0.1210E+00  0.1200E+00
     18.772  0.1686E-02  0.1171E-02  0.1212E+00  0.1201E+00
     18.901  0.1482E-02  0.1313E-02  0.1214E+00  0.1203E+00
     19.029  0.5111E-02  0.2553E-02  0.1221E+00  0.1206E+00
     19.157  0.3843E-02  0.2032E-02  0.1225E+00  0.1209E+00
     19.286  0.2994E-02  0.6297E-03  0.1229E+00  0.1210E+00
     19.414  0.5143E-02  0.3521E-03  0.1236E+00  0.1210E+00
     19.542  0.1216E-02  0.8288E-03  0.1237E+00  0.1211E+00
     19.671  0.4094E-02  0.1130E-02  0.1243E+00  0.1213E+00
     19.799  0.3141E-02  0.2334E-02  0.1247E+00  0.1216E+00
     19.927  0.5132E-02  0.7382E-02  0.1253E+00  0.1225E+00
     20.056  0.3999E-02  0.3007E-02  0.1258E+00  0.1229E+00
     20.184  0.4031E-02  0.4279E-02  0.1264E+00  0.1235E+00
     20.312  0.2156E-02  0.3876E-02  0.1266E+00  0.1240E+00
     20.441  0.1193E-02  0.3748E-02  0.1268E+00  0.1244E+00
     20.569  0.3241E-02  0.5826E-02  0.1272E+00  0.1252E+00
     20.698  0.3815E-02  0.4992E-02  0.1277E+00  0.1258E+00
     20.826  0.2783E-02  0.2162E-02  0.1281E+00  0.1261E+00
     20.954  0.2659E-02  0.3529E-02  0.1284E+00  0.1266E+00
     21.083  0.3903E-02  0.2618E-02  0.1289E+00  0.1269E+00
     21.211  0.3851E-02  0.3872E-02  0.1294E+00  0.1274E+00
     21.339  0.6763E-04  0.2831E-02  0.1294E+00  0.1278E+00
     21.468  0.3058E-02  0.3789E-02  0.1298E+00  0.1282E+00
     21.596  0.5003E-02  0.1909E-02  0.1304E+00  0.1285E+00
     21.724  0.4252E-02  0.3433E-02  0.1310E+00  0.1289E+00
     21.853  0.4328E-02  0.3614E-02  0.1315E+00  0.1294E+00
     21.981  0.2901E-02  0.6581E-03  0.1319E+00  0.1295E+00
     22.109  0.8326E-02  0.4245E-02  0.1330E+00  0.1300E+00
     22.238  0.2327E-02  0.5738E-02  0.1333E+00  0.1308E+00
     22.366  0.5944E-02  0.6479E-02  0.1340E+00  0.1316E+00
     22.494  0.3952E-02  0.3077E-02  0.1345E+00  0.1320E+00
     22.623  0.5225E-03  0.7754E-02  0.1346E+00  0.1330E+00
     22.751  0.1838E-02  0.1646E-02  0.1348E+00  0.1332E+00
     22.879  0.1261E-02  0.3270E-02  0.1350E+00  0.1336E+00
     23.008  0.4273E-02  0.7349E-02  0.1356E+00  0.1346E+00
     23.136  0.2273E-02  0.4547E-03  0.1359E+00  0.1346E+00
     23.264  0.5013E-02  0.2361E-02  0.1365E+00  0.1349E+00
     23.393  0.5431E-02  0.2437E-02  0.1372E+00  0.1352E+00
     23.521  0.3054E-02  0.2608E-02  0.1376E+00  0.1356E+00
     23.649  0.1404E-02  0.2739E-02  0.1378E+00  0.1359E+00
     23.778  0.2230E-02  0.5618E-02  0.1381E+00  0.1366E+00
     23.906  0.1389E-02  0.6049E-02  0.1382E+00  0.1374E+00
     24.035  0.1057E-02  0.9537E-03  0.1384E+00  0.1375E+00
     24.163  0.4401E-02  0.2137E-02  0.1389E+00  0.1378E+00
     24.291  0.2953E-02  0.2137E-02  0.1393E+00  0.1381E+00
     24.420  0.4900E-02  0.1088E-02  0.1399E+00  0.1382E+00
     24.548  0.3200E-02  0.2252E-02  0.1403E+00  0.1385E+00
     24.676  0.2569E-03  0.4226E-02  0.1404E+00  0.1391E+00
     24.805  0.1708E-02  0.4534E-02  0.1406E+00  0.1396E+00
     24.933  0.3766E-02  0.3976E-02  0.1411E+00  0.1401E+00
     25.061  0.3783E-02  0.1682E-02  0.1416E+00  0.1404E+00
     25.190  0.2518E-02  0.6114E-03  0.1419E+00  0.1404E+00
     25.318  0.4907E-02  0.2169E-02  0.1425E+00  0.1407E+00
     25.446  0.6277E-02  0.4683E-02  0.1433E+00  0.1413E+00
     25.575  0.3747E-02  0.4555E-02  0.1438E+00  0.1419E+00
     25.703  0.1714E-02  0.2968E-02  0.1440E+00  0.1423E+00
     25.831  0.2135E-02  0.6185E-02  0.1443E+00  0.1431E+00
     25.960  0.3699E-03  0.3930E-02  0.1444E+00  0.1436E+00
     26.088  0.2395E-02  0.2257E-02  0.1447E+00  0.1439E+00
     26.216  0.6130E-02  0.2583E-02  0.1454E+00  0.1442E+00
     26.345  0.4087E-02  0.8278E-03  0.1460E+00  0.1443E+00
     26.473  0.1045E-02  0.2029E-02  0.1461E+00  0.1446E+00
     26.601  0.4655E-02  0.5005E-02  0.1467E+00  0.1452E+00
     26.730  0.3729E-02  0.5028E-02  0.1472E+00  0.1459E+00
     26.858  0.7712E-03  0.2769E-02  0.1473E+00  0.1462E+00
     26.987  0.4998E-02  0.3298E-02  0.1479E+00  0.1466E+00
     27.115  0.6753E-02  0.3779E-02  0.1488E+00  0.1471E+00
     27.243  0.2044E-02  0.1450E-02  0.1490E+00  0.1473E+00
     27.372  0.4082E-02  0.5821E-02  0.1496E+00  0.1481E+00
     27.500  0.2296E-02  0.7068E-02  0.1499E+00  0.1490E+00
     27.628  0.6044E-02  0.1359E-02  0.1506E+00  0.1491E+00
     27.757  0.2869E-02  0.3616E-02  0.1510E+00  0.1496E+00
     27.885  0.2170E-03  0.2767E-02  0.1510E+00  0.1500E+00
     28.013  0.3981E-02  0.7458E-02  0.1515E+00  0.1509E+00
     28.142  0.1355E-02  0.1010E-02  0.1517E+00  0.1510E+00
     28.270  0.7115E-03  0.1824E-02  0.1518E+00  0.1513E+00
     28.398  0.1924E-02  0.2666E-02  0.1521E+00  0.1516E+00
     28.527  0.1560E-02  0.1080E-02  0.1523E+00  0.1518E+00
     28.655  0.4314E-02  0.1343E-02  0.1528E+00  0.1519E+00
     28.783  0.4273E-02  0.1496E-02  0.1534E+00  0.1521E+00
     28.912  0.1039E-02  0.2976E-02  0.1535E+00  0.1525E+00
     29.040  0.3168E-02  0.4659E-02  0.1539E+00  0.1531E+00
     29.168  0.1442E-02  0.2919E-02  0.1541E+00  0.1535E+00
     29.297  0.2368E-02  0.3325E-02  0.1544E+00  0.1539E+00
     29.425  0.1967E-02  0.1388E-02  0.1546E+00  0.1541E+00
     29.553  0.2578E-02  0.1391E-02  0.1550E+00  0.1543E+00
     29.682  0.8279E-03  0.1994E-02  0.1551E+00  0.1545E+00
     29.810  0.1231E-02  0.3457E-02  0.1552E+00  0.1550E+00
     29.938  0.1646E-02  0.1550E-02  0.1555E+00  0.1552E+00
     30.067  0.1250E-02  0.5787E-03  0.1556E+00  0.1552E+00
     30.195  0.6429E-03  0.1267E-02  0.1557E+00  0.1554E+00
     30.324  0.1747E-02  0.1842E-02  0.1559E+00  0.1556E+00
     30.452  0.2551E-02  0.9628E-03  0.1562E+00  0.1558E+00
     30.580  0.1485E-02  0.1749E-02  0.1564E+00  0.1560E+00
     30.709  0.2039E-02  0.1283E-02  0.1567E+00  0.1561E+00
     30.837  0.1505E-02  0.2170E-02  0.1569E+00  0.1564E+00
     30.965  0.1521E-02  0.3051E-02  0.1571E+00  0.1568E+00
     31.094  0.1850E-02  0.5403E-03  0.1573E+00  0.1569E+00
     31.222  0.1268E-02  0.2133E-02  0.1575E+00  0.1572E+00
     31.350  0.4468E-03  0.1460E-02  0.1575E+00  0.1573E+00
     31.479  0.7221E-03  0.2132E-02  0.1576E+00  0.1576E+00
     31.607  0.4338E-04  0.1087E-03  0.1576E+00  0.1576E+00
     31.735  0.1479E-02  0.2910E-06  0.1578E+00  0.1576E+00
     31.864  0.9025E-03  0.6530E-03  0.1579E+00  0.1577E+00
     31.992  0.1205E-02  0.1173E-02  0.1581E+00  0.1579E+00
     32.120  0.1037E-02  0.1681E-02  0.1582E+00  0.1581E+00
     32.249  0.8292E-05  0.1102E-02  0.1582E+00  0.1582E+00
     32.377  0.7951E-07  0.1643E-03  0.1582E+00  0.1583E+00
     32.505  0.4037E-03  0.1556E-03  0.1583E+00  0.1583E+00
     32.634  0.9582E-03  0.1082E-02  0.1584E+00  0.1584E+00
     32.762  0.3983E-03  0.2654E-04  0.1585E+00  0.1584E+00
     32.890  0.4877E-03  0.2344E-03  0.1585E+00  0.1584E+00
     33.019  0.1999E-02  0.8399E-03  0.1588E+00  0.1586E+00
     33.147  0.3784E-04  0.2058E-02  0.1588E+00  0.1588E+00
     33.276  0.4900E-03  0.5811E-03  0.1589E+00  0.1589E+00
     33.404  0.8980E-03  0.6692E-03  0.1590E+00  0.1590E+00
     33.532  0.7273E-04  0.3417E-06  0.1590E+00  0.1590E+00
     33.661  0.8138E-06  0.7804E-04  0.1590E+00  0.1590E+00
     33.789  0.5873E-03  0.1262E-03  0.1591E+00  0.1590E+00
     33.917  0.2240E-02  0.1108E-02  0.1593E+00  0.1591E+00
     34.046  0.1902E-02  0.9732E-03  0.1596E+00  0.1593E+00
     34.174  0.4108E-03  0.1728E-02  0.1596E+00  0.1595E+00
     34.302  0.2794E-03  0.1121E-02  0.1597E+00  0.1596E+00
     34.431  0.1001E-02  0.1268E-02  0.1598E+00  0.1598E+00
     34.559  0.6485E-05  0.9058E-04  0.1598E+00  0.1598E+00
     34.687  0.1903E-06  0.1295E-03  0.1598E+00  0.1598E+00
     34.816  0.1367E-03  0.1324E-06  0.1598E+00  0.1598E+00
     34.944  0.5785E-04  0.8079E-15  0.1598E+00  0.1598E+00
     35.072  0.3057E-08  0.0000E+00  0.1598E+00  0.1598E+00
     35.201  0.1191E-14  0.2831E-09  0.1598E+00  0.1598E+00
     35.329  0.2782E-06  0.6725E-04  0.1598E+00  0.1598E+00
     35.457  0.3666E-03  0.7008E-03  0.1599E+00  0.1599E+00
     35.586  0.3118E-03  0.1113E-04  0.1599E+00  0.1599E+00
     35.714  0.1016E-03  0.1113E-05  0.1599E+00  0.1599E+00
     35.842  0.1677E-03  0.1673E-03  0.1599E+00  0.1599E+00
     35.971  0.2595E-04  0.2640E-04  0.1599E+00  0.1599E+00
     36.099  0.2068E-09  0.1169E-05  0.1599E+00  0.1600E+00
     36.227  0.1045E-06  0.1680E-03  0.1600E+00  0.1600E+00
     36.356  0.1246E-03  0.2566E-04  0.1600E+00  0.1600E+00
     36.484  0.9319E-04  0.2778E-05  0.1600E+00  0.1600E+00
     36.613  0.1624E-03  0.9052E-04  0.1600E+00  0.1600E+00
     36.741  0.9275E-05  0.1319E-04  0.1600E+00  0.1600E+00
     36.869  0.3593E-10  0.8728E-04  0.1600E+00  0.1600E+00
     36.998  0.0000E+00  0.1017E-05  0.1600E+00  0.1600E+00
     37.126  0.0000E+00  0.1385E-12  0.1600E+00  0.1600E+00
     37.254  0.0000E+00  0.0000E+00  0.1600E+00  0.1600E+00
     37.383  0.0000E+00  0.0000E+00  0.1600E+00  0.1600E+00
     37.511  0.0000E+00  0.0000E+00  0.1600E+00  0.1600E+00
     37.639  0.0000E+00  0.0000E+00  0.1600E+00  0.1600E+00
     37.768  0.0000E+00  0.0000E+00  0.1600E+00  0.1600E+00
     37.896  0.0000E+00  0.0000E+00  0.1600E+00  0.1600E+00
     38.024  0.0000E+00  0.0000E+00  0.1600E+00  0.1600E+00
     38.153  0.0000E+00  0.0000E+00  0.1600E+00  0.1600E+00
     38.281  0.0000E+00  0.0000E+00  0.1600E+00  0.1600E+00
     38.409  0.0000E+00  0.0000E+00  0.1600E+00  0.1600E+00
     38.538  0.0000E+00  0.0000E+00  0.1600E+00  0.1600E+00
     38.53772733      0.03367364  301     10.94363679      1.00000000
      0.034  0.0000E+00  0.0000E+00  0.0000E+00  0.0000E+00  0.0000E+00  0.0000E+00  0.0000E+00  0.0000E+00  0.0000E+00  0.0000E+00  0.0000E+00  0.0000E+00  0.0000E+00  0.0000E+00  0.0000E+00  0.0000E+00  0.0000E+00  0.0000E+00
      0.162  0.0000E+00  0.0000E+00  0.0000E+00  0.0000E+00  0.0000E+00  0.0000E+00  0.0000E+00  0.0000E+00  0.0000E+00  0.0000E+00  0.0000E+00  0.0000E+00  0.0000E+00  0.0000E+00  0.0000E+00  0.0000E+00  0.0000E+00  0.0000E+00
      0.290  0.0000E+00  0.0000E+00  0.0000E+00  0.0000E+00  0.0000E+00  0.0000E+00  0.0000E+00  0.0000E+00  0.0000E+00  0.0000E+00  0.0000E+00  0.0000E+00  0.0000E+00  0.0000E+00  0.0000E+00  0.0000E+00  0.0000E+00  0.0000E+00
      0.419  0.0000E+00  0.0000E+00  0.0000E+00  0.0000E+00  0.0000E+00  0.0000E+00  0.0000E+00  0.0000E+00  0.0000E+00  0.0000E+00  0.0000E+00  0.0000E+00  0.0000E+00  0.0000E+00  0.0000E+00  0.0000E+00  0.0000E+00  0.0000E+00
      0.547  0.0000E+00  0.0000E+00  0.0000E+00  0.0000E+00  0.0000E+00  0.0000E+00  0.0000E+00  0.0000E+00  0.0000E+00  0.0000E+00  0.0000E+00  0.0000E+00  0.0000E+00  0.0000E+00  0.0000E+00  0.0000E+00  0.0000E+00  0.0000E+00
      0.675  0.0000E+00  0.0000E+00  0.0000E+00  0.0000E+00  0.0000E+00  0.0000E+00  0.0000E+00  0.0000E+00  0.0000E+00  0.0000E+00  0.0000E+00  0.0000E+00  0.0000E+00  0.0000E+00  0.0000E+00  0.0000E+00  0.0000E+00  0.0000E+00
      0.804  0.0000E+00  0.0000E+00  0.0000E+00  0.0000E+00  0.0000E+00  0.0000E+00  0.0000E+00  0.0000E+00  0.0000E+00  0.0000E+00  0.0000E+00  0.0000E+00  0.0000E+00  0.0000E+00  0.0000E+00  0.0000E+00  0.0000E+00  0.0000E+00
      0.932  0.0000E+00  0.0000E+00  0.0000E+00  0.0000E+00  0.0000E+00  0.0000E+00  0.0000E+00  0.0000E+00  0.0000E+00  0.0000E+00  0.0000E+00  0.0000E+00  0.0000E+00  0.0000E+00  0.0000E+00  0.0000E+00  0.0000E+00  0.0000E+00
      1.060  0.0000E+00  0.0000E+00  0.0000E+00  0.0000E+00  0.0000E+00  0.0000E+00  0.0000E+00  0.0000E+00  0.0000E+00  0.0000E+00  0.0000E+00  0.0000E+00  0.0000E+00  0.0000E+00  0.0000E+00  0.0000E+00  0.0000E+00  0.0000E+00
      1.189  0.0000E+00  0.0000E+00  0.0000E+00  0.0000E+00  0.0000E+00  0.0000E+00  0.0000E+00  0.0000E+00  0.0000E+00  0.0000E+00  0.0000E+00  0.0000E+00  0.0000E+00  0.0000E+00  0.0000E+00  0.0000E+00  0.0000E+00  0.0000E+00
      1.317  0.0000E+00  0.0000E+00  0.0000E+00  0.0000E+00  0.0000E+00  0.0000E+00  0.0000E+00  0.0000E+00  0.0000E+00  0.0000E+00  0.0000E+00  0.0000E+00  0.0000E+00  0.0000E+00  0.0000E+00  0.0000E+00  0.0000E+00  0.0000E+00
      1.445  0.0000E+00  0.0000E+00  0.0000E+00  0.0000E+00  0.0000E+00  0.0000E+00  0.0000E+00  0.0000E+00  0.0000E+00  0.0000E+00  0.0000E+00  0.0000E+00  0.0000E+00  0.0000E+00  0.0000E+00  0.0000E+00  0.0000E+00  0.0000E+00
      1.574  0.5326E-11  0.3470E-12  0.4519E-26  0.1247E-26  0.1467E-26  0.7645E-29  0.4519E-26  0.1247E-26  0.2378E-24  0.1148E-25  0.7846E-23  0.1144E-25  0.1642E-16  0.2145E-17  0.7846E-23  0.1144E-25  0.2378E-24  0.1148E-25
      1.702  0.3910E-04  0.1142E-04  0.3317E-19  0.4101E-19  0.2151E-15  0.7965E-17  0.3317E-19  0.4101E-19  0.1745E-17  0.3777E-18  0.5760E-16  0.3764E-18  0.1205E-09  0.7057E-10  0.5760E-16  0.3764E-18  0.1745E-17  0.3777E-18
      1.831  0.3359E-02  0.3037E-02  0.2861E-17  0.1091E-16  0.5235E-07  0.9494E-08  0.2861E-17  0.1091E-16  0.1504E-15  0.1006E-15  0.4961E-14  0.1005E-15  0.1099E-07  0.1884E-07  0.4961E-14  0.1005E-15  0.1504E-15  0.1006E-15
      1.959  0.4944E-02  0.3991E-02  0.1998E-10  0.1287E-11  0.7142E-04  0.5137E-04  0.1998E-10  0.1287E-11  0.5234E-12  0.2570E-13  0.2385E-13  0.2265E-14  0.8850E-06  0.4037E-06  0.2385E-13  0.2265E-14  0.5234E-12  0.2570E-13
      2.087  0.3775E-02  0.4427E-02  0.1731E-04  0.5750E-05  0.4319E-04  0.6402E-04  0.1731E-04  0.5750E-05  0.4527E-06  0.1120E-06  0.3396E-13  0.3028E-14  0.9142E-06  0.6021E-06  0.3396E-13  0.3028E-14  0.4527E-06  0.1120E-06
      2.216  0.2036E-01  0.1990E-01  0.3536E-03  0.3472E-03  0.3328E-05  0.6989E-06  0.3536E-03  0.3472E-03  0.9254E-05  0.6761E-05  0.1588E-06  0.2417E-07  0.7681E-05  0.6293E-05  0.1588E-06  0.2417E-07  0.9254E-05  0.6761E-05
      2.344  0.3686E-01  0.3166E-01  0.6430E-03  0.5557E-03  0.5759E-03  0.4783E-03  0.6430E-03  0.5557E-03  0.1748E-04  0.1112E-04  0.2733E-04  0.1719E-04  0.1179E-05  0.1170E-05  0.2733E-04  0.1719E-04  0.1748E-04  0.1112E-04
      2.472  0.1253E-01  0.1800E-01  0.1098E-03  0.2223E-03  0.4888E-03  0.5373E-03  0.1098E-03  0.2223E-03  0.2986E-05  0.4454E-05  0.4738E-05  0.7233E-05  0.2731E-04  0.1643E-04  0.4738E-05  0.7233E-05  0.2986E-05  0.4454E-05
      2.601  0.7199E-03  0.1692E-02  0.1379E-08  0.1162E-07  0.4488E-04  0.1065E-03  0.1379E-08  0.1162E-07  0.3885E-10  0.2328E-09  0.1018E-09  0.3789E-09  0.3132E-05  0.5117E-05  0.1018E-09  0.3789E-09  0.3885E-10  0.2328E-09
      2.729  0.3978E-02  0.1017E-02  0.7142E-04  0.1828E-04  0.2521E-03  0.6520E-04  0.7142E-04  0.1828E-04  0.2287E-05  0.4091E-06  0.1287E-04  0.2455E-05  0.8677E-05  0.1511E-05  0.1287E-04  0.2455E-05  0.2287E-05  0.4091E-06
      2.857  0.4923E-01  0.4531E-01  0.1335E-02  0.1081E-02  0.2305E-02  0.2424E-02  0.1335E-02  0.1081E-02  0.7628E-04  0.3897E-04  0.1177E-03  0.9129E-04  0.1237E-03  0.7558E-04  0.1177E-03  0.9129E-04  0.7628E-04  0.3897E-04
      2.986  0.2352E-01  0.2070E-01  0.1236E-02  0.1040E-02  0.2820E-03  0.2232E-03  0.1236E-02  0.1040E-02  0.1031E-03  0.6092E-04  0.4837E-04  0.1751E-04  0.5740E-04  0.4457E-04  0.4837E-04  0.1751E-04  0.1031E-03  0.6092E-04
      3.114  0.2484E-01  0.3360E-01  0.1326E-02  0.1807E-02  0.4110E-03  0.5468E-03  0.1326E-02  0.1807E-02  0.1167E-03  0.1108E-03  0.7003E-04  0.7069E-04  0.5960E-04  0.4996E-04  0.7003E-04  0.7069E-04  0.1167E-03  0.1108E-03
      3.242  0.2469E-01  0.2173E-01  0.1312E-02  0.1188E-02  0.8446E-03  0.7190E-03  0.1312E-02  0.1188E-02  0.1917E-03  0.1171E-03  0.3343E-05  0.4860E-06  0.3019E-03  0.1795E-03  0.3343E-05  0.4860E-06  0.1917E-03  0.1171E-03
      3.371  0.3719E-01  0.3063E-01  0.2572E-02  0.2087E-02  0.6980E-03  0.6393E-03  0.2572E-02  0.2087E-02  0.3943E-03  0.2148E-03  0.1817E-03  0.8430E-04  0.1676E-03  0.1263E-03  0.1817E-03  0.8430E-04  0.3943E-03  0.2148E-03
      3.499  0.5196E-01  0.4428E-01  0.2316E-02  0.2521E-02  0.4440E-02  0.2562E-02  0.2316E-02  0.2521E-02  0.2228E-03  0.2002E-03  0.5820E-03  0.3216E-03  0.3611E-03  0.8182E-04  0.5820E-03  0.3216E-03  0.2228E-03  0.2002E-03
      3.627  0.2331E-01  0.4199E-01  0.4781E-03  0.1077E-02  0.3240E-02  0.5490E-02  0.4781E-03  0.1077E-02  0.2464E-04  0.4774E-04  0.1959E-03  0.2744E-03  0.5214E-03  0.5246E-03  0.1959E-03  0.2744E-03  0.2464E-04  0.4774E-04
      3.756  0.2638E-01  0.7304E-02  0.1862E-02  0.5004E-03  0.1737E-02  0.5301E-03  0.1862E-02  0.5004E-03  0.3556E-03  0.5908E-04  0.5391E-03  0.9601E-04  0.1420E-04  0.1019E-04  0.5391E-03  0.9601E-04  0.3556E-03  0.5908E-04
      3.884  0.9191E-02  0.2916E-01  0.6488E-03  0.2110E-02  0.6047E-03  0.1950E-02  0.6488E-03  0.2110E-02  0.1239E-03  0.2530E-03  0.1878E-03  0.3996E-03  0.4840E-05  0.8865E-05  0.1878E-03  0.3996E-03  0.1239E-03  0.2530E-03
      4.012  0.3212E-03  0.1092E-03  0.3072E-04  0.7916E-05  0.1924E-04  0.7296E-05  0.3072E-04  0.7916E-05  0.8140E-05  0.9504E-06  0.2040E-05  0.1495E-05  0.1266E-04  0.3634E-07  0.2040E-05  0.1495E-05  0.8140E-05  0.9504E-06
      4.141  0.6071E-01  0.1193E-01  0.5245E-02  0.1198E-02  0.4976E-02  0.7223E-03  0.5245E-02  0.1198E-02  0.1266E-02  0.1955E-03  0.8731E-03  0.9294E-04  0.1752E-02  0.1894E-03  0.8731E-03  0.9294E-04  0.1266E-02  0.1955E-03
      4.269  0.7268E-01  0.7511E-01  0.8502E-02  0.6888E-02  0.2288E-02  0.6055E-02  0.8502E-02  0.6888E-02  0.2454E-02  0.1103E-02  0.1036E-02  0.7829E-03  0.1570E-02  0.1319E-02  0.1036E-02  0.7829E-03  0.2454E-02  0.1103E-02
      4.397  0.4086E-01  0.5477E-01  0.2524E-02  0.7032E-02  0.6701E-02  0.1041E-02  0.2524E-02  0.7032E-02  0.6640E-03  0.1334E-02  0.1473E-02  0.4480E-03  0.2068E-02  0.7742E-03  0.1473E-02  0.4480E-03  0.6640E-03  0.1334E-02
      4.526  0.3775E-01  0.5276E-01  0.2323E-02  0.2705E-02  0.6456E-02  0.1048E-01  0.2323E-02  0.2705E-02  0.6999E-03  0.3710E-03  0.1355E-02  0.1306E-02  0.2664E-02  0.1946E-02  0.1355E-02  0.1306E-02  0.6999E-03  0.3710E-03
      4.654  0.7060E-01  0.2665E-01  0.9271E-02  0.2288E-02  0.3379E-02  0.3806E-02  0.9271E-02  0.2288E-02  0.4428E-02  0.4622E-03  0.3056E-02  0.6846E-03  0.1544E-02  0.9040E-03  0.3056E-02  0.6846E-03  0.4428E-02  0.4622E-03
      4.783  0.2308E-01  0.6396E-01  0.3398E-02  0.8784E-02  0.3324E-03  0.3280E-02  0.3398E-02  0.8784E-02  0.2567E-02  0.2331E-02  0.5967E-03  0.1666E-02  0.9660E-03  0.8200E-03  0.5967E-03  0.1666E-02  0.2567E-02  0.2331E-02
      4.911  0.1165E-01  0.2908E-01  0.1203E-02  0.4623E-02  0.1638E-02  0.4469E-03  0.1203E-02  0.4623E-02  0.1041E-02  0.1854E-02  0.1071E-02  0.3966E-03  0.1030E-02  0.7740E-03  0.1071E-02  0.3966E-03  0.1041E-02  0.1854E-02
      5.039  0.5315E-01  0.3192E-02  0.4851E-02  0.2597E-03  0.9534E-02  0.7133E-03  0.4851E-02  0.2597E-03  0.3354E-02  0.5985E-04  0.4914E-02  0.1279E-03  0.5131E-02  0.1600E-03  0.4914E-02  0.1279E-03  0.3354E-02  0.5985E-04
      5.168  0.5879E-01  0.4197E-01  0.6365E-02  0.3982E-02  0.1094E-01  0.8381E-02  0.6365E-02  0.3982E-02  0.3346E-02  0.1365E-02  0.8457E-02  0.2167E-02  0.1626E-02  0.1838E-02  0.8457E-02  0.2167E-02  0.3346E-02  0.1365E-02
      5.296  0.4151E-01  0.5986E-01  0.2435E-02  0.7367E-02  0.1082E-01  0.9561E-02  0.2435E-02  0.7367E-02  0.2241E-02  0.2492E-02  0.4169E-02  0.4562E-02  0.1506E-01  0.1910E-02  0.4169E-02  0.4562E-02  0.2241E-02  0.2492E-02
      5.424  0.3565E-01  0.3952E-01  0.6362E-02  0.3870E-02  0.2246E-02  0.9422E-02  0.6362E-02  0.3870E-02  0.6609E-02  0.1007E-02  0.3936E-02  0.3123E-02  0.5712E-02  0.1139E-02  0.3936E-02  0.3123E-02  0.6609E-02  0.1007E-02
      5.553  0.9799E-01  0.2463E-01  0.1950E-01  0.1323E-02  0.1698E-02  0.7696E-02  0.1950E-01  0.1323E-02  0.2909E-01  0.3135E-03  0.1295E-01  0.4083E-03  0.1743E-01  0.7456E-02  0.1295E-01  0.4083E-03  0.2909E-01  0.3135E-03
      5.681  0.1083E+00  0.4878E-01  0.1457E-01  0.9095E-02  0.1035E-01  0.4646E-02  0.1457E-01  0.9095E-02  0.4859E-01  0.4234E-02  0.5160E-01  0.3167E-02  0.3659E-01  0.3644E-02  0.5160E-01  0.3167E-02  0.4859E-01  0.4234E-02
      5.809  0.1248E+00  0.5835E-01  0.1209E-01  0.1327E-01  0.2245E-01  0.1394E-02  0.1209E-01  0.1327E-01  0.5937E-01  0.8478E-02  0.8709E-01  0.1954E-02  0.6882E-01  0.4084E-02  0.8709E-01  0.1954E-02  0.5937E-01  0.8478E-02
      5.938  0.7238E-01  0.4249E-01  0.8216E-02  0.9880E-02  0.1105E-01  0.1335E-02  0.8216E-02  0.9880E-02  0.4546E-01  0.6271E-02  0.6319E-01  0.2486E-02  0.6224E-01  0.3083E-02  0.6319E-01  0.2486E-02  0.4546E-01  0.6271E-02
      6.066  0.4062E-01  0.1064E+00  0.5226E-02  0.1714E-01  0.6439E-02  0.2233E-01  0.5226E-02  0.1714E-01  0.6826E-01  0.1073E-01  0.5015E-01  0.1619E-01  0.1832E-01  0.1094E-01  0.5015E-01  0.1619E-01  0.6826E-01  0.1073E-01
      6.194  0.6721E-01  0.2242E-01  0.1172E-01  0.3197E-02  0.1309E-01  0.5190E-02  0.1172E-01  0.3197E-02  0.1053E+00  0.3120E-02  0.8316E-01  0.2579E-02  0.9320E-01  0.4384E-02  0.8316E-01  0.2579E-02  0.1053E+00  0.3120E-02
      6.323  0.1156E+00  0.9652E-01  0.2347E-01  0.1483E-01  0.2758E-01  0.1934E-01  0.2347E-01  0.1483E-01  0.1797E+00  0.2259E-01  0.1613E+00  0.1927E-01  0.1769E+00  0.2129E-01  0.1613E+00  0.1927E-01  0.1797E+00  0.2259E-01
      6.451  0.4095E-01  0.6090E-01  0.1074E-01  0.9732E-02  0.1178E-01  0.9967E-02  0.1074E-01  0.9732E-02  0.6678E-01  0.1363E-01  0.1036E+00  0.1917E-01  0.8157E-01  0.1803E-01  0.1036E+00  0.1917E-01  0.6678E-01  0.1363E-01