   2   2   1   0
  0.1027211E+02  0.2450026E-09  0.2450026E-09  0.3952007E-09  0.5000000E-15
  1.000000000000000E-004
  CAR 
 Co-hcc                                  
     52.72280974     -0.60339405  301     11.04122826      1.00000000
     -0.603  0.0000E+00  0.0000E+00  0.0000E+00  0.0000E+00
     -0.426  0.0000E+00  0.0000E+00  0.0000E+00  0.0000E+00
     -0.248  0.0000E+00  0.0000E+00  0.0000E+00  0.0000E+00
     -0.070  0.0000E+00  0.0000E+00  0.0000E+00  0.0000E+00
      0.108  0.0000E+00  0.0000E+00  0.0000E+00  0.0000E+00
      0.285  0.0000E+00  0.0000E+00  0.0000E+00  0.0000E+00
      0.463  0.0000E+00  0.0000E+00  0.0000E+00  0.0000E+00
      0.641  0.0000E+00  0.0000E+00  0.0000E+00  0.0000E+00
      0.819  0.0000E+00  0.0000E+00  0.0000E+00  0.0000E+00
      0.996  0.0000E+00  0.0000E+00  0.0000E+00  0.0000E+00
      1.174  0.0000E+00  0.0000E+00  0.0000E+00  0.0000E+00
      1.352  0.0000E+00  0.0000E+00  0.0000E+00  0.0000E+00
      1.530  0.5422E-20  0.2711E-20  0.9637E-21  0.4819E-21
      1.707  0.3363E-07  0.2806E-07  0.5977E-08  0.4987E-08
      1.885  0.4737E-04  0.4714E-04  0.8427E-05  0.8384E-05
      2.063  0.2092E-03  0.2003E-03  0.4562E-04  0.4399E-04
      2.241  0.5063E-03  0.4903E-03  0.1356E-03  0.1311E-03
      2.418  0.2703E-03  0.2932E-03  0.1837E-03  0.1833E-03
      2.596  0.3247E-03  0.3097E-03  0.2414E-03  0.2383E-03
      2.774  0.1223E-02  0.1181E-02  0.4588E-03  0.4483E-03
      2.952  0.5627E-03  0.5393E-03  0.5588E-03  0.5441E-03
      3.129  0.3726E-03  0.4248E-03  0.6250E-03  0.6196E-03
      3.307  0.6361E-03  0.6604E-03  0.7381E-03  0.7370E-03
      3.485  0.1306E-02  0.9968E-03  0.9703E-03  0.9142E-03
      3.663  0.1422E-02  0.1378E-02  0.1223E-02  0.1159E-02
      3.840  0.2571E-03  0.5634E-03  0.1269E-02  0.1259E-02
      4.018  0.1485E-02  0.9162E-03  0.1533E-02  0.1422E-02
      4.196  0.1770E-02  0.2278E-02  0.1847E-02  0.1827E-02
      4.374  0.5833E-03  0.1336E-03  0.1951E-02  0.1851E-02
      4.551  0.8331E-03  0.1174E-02  0.2099E-02  0.2060E-02
      4.729  0.2659E-02  0.9965E-03  0.2572E-02  0.2237E-02
      4.907  0.1873E-02  0.2931E-02  0.2905E-02  0.2758E-02
      5.085  0.2807E-02  0.1452E-02  0.3404E-02  0.3016E-02
      5.262  0.1454E-02  0.1889E-02  0.3662E-02  0.3351E-02
      5.440  0.2867E-02  0.1105E-02  0.4172E-02  0.3548E-02
      5.618  0.3015E-02  0.1772E-02  0.4708E-02  0.3863E-02
      5.796  0.1139E-01  0.2247E-02  0.6732E-02  0.4262E-02
      5.974  0.9112E-02  0.2646E-02  0.8351E-02  0.4733E-02
      6.151  0.1113E-01  0.3338E-02  0.1033E-01  0.5326E-02
      6.329  0.1380E-01  0.3518E-02  0.1278E-01  0.5951E-02
      6.507  0.1911E-01  0.5160E-02  0.1618E-01  0.6868E-02
      6.685  0.1542E-01  0.4322E-02  0.1892E-01  0.7637E-02
      6.862  0.1390E-01  0.7054E-02  0.2139E-01  0.8891E-02
      7.040  0.1642E-01  0.1052E-01  0.2431E-01  0.1076E-01
      7.218  0.1483E-01  0.8808E-02  0.2694E-01  0.1233E-01
      7.396  0.1959E-01  0.9093E-02  0.3043E-01  0.1394E-01
      7.573  0.2035E-01  0.1035E-01  0.3404E-01  0.1578E-01
      7.751  0.1840E-01  0.1535E-01  0.3731E-01  0.1851E-01
      7.929  0.8430E-02  0.1275E-01  0.3881E-01  0.2078E-01
      8.107  0.2006E-01  0.1123E-01  0.4238E-01  0.2277E-01
      8.284  0.2804E-01  0.1247E-01  0.4736E-01  0.2499E-01
      8.462  0.2412E-01  0.1425E-01  0.5165E-01  0.2752E-01
      8.640  0.2892E-01  0.1704E-01  0.5679E-01  0.3055E-01
      8.818  0.2754E-01  0.2107E-01  0.6169E-01  0.3430E-01
      8.995  0.2646E-01  0.1401E-01  0.6639E-01  0.3679E-01
      9.173  0.2214E-01  0.8122E-02  0.7033E-01  0.3823E-01
      9.351  0.1555E-01  0.7567E-02  0.7309E-01  0.3957E-01
      9.529  0.2011E-01  0.1795E-01  0.7666E-01  0.4276E-01
      9.706  0.1421E-01  0.2138E-01  0.7919E-01  0.4656E-01
      9.884  0.1438E-01  0.2132E-01  0.8175E-01  0.5035E-01
     10.062  0.2469E-01  0.2357E-01  0.8613E-01  0.5454E-01
     10.240  0.2345E-01  0.2663E-01  0.9030E-01  0.5928E-01
     10.417  0.3653E-01  0.2791E-01  0.9680E-01  0.6424E-01
     10.595  0.3920E-01  0.2098E-01  0.1038E+00  0.6797E-01
     10.773  0.4311E-02  0.1447E-01  0.1045E+00  0.7054E-01
     10.951  0.2086E-02  0.1691E-01  0.1049E+00  0.7354E-01
     11.128  0.7110E-02  0.1023E-01  0.1062E+00  0.7536E-01
     11.306  0.3758E-02  0.1766E-01  0.1068E+00  0.7850E-01
     11.484  0.2421E-02  0.9416E-02  0.1073E+00  0.8017E-01
     11.662  0.1397E-02  0.1337E-01  0.1075E+00  0.8255E-01
     11.839  0.5259E-03  0.2256E-01  0.1076E+00  0.8656E-01
     12.017  0.1929E-02  0.1897E-01  0.1079E+00  0.8993E-01
     12.195  0.3491E-02  0.2935E-01  0.1086E+00  0.9515E-01
     12.373  0.6170E-02  0.4250E-01  0.1097E+00  0.1027E+00
     12.550  0.3664E-02  0.1404E-01  0.1103E+00  0.1052E+00
     12.728  0.2105E-02  0.7677E-02  0.1107E+00  0.1066E+00
     12.906  0.1464E-02  0.3755E-02  0.1110E+00  0.1072E+00
     13.084  0.2217E-02  0.2934E-02  0.1113E+00  0.1078E+00
     13.261  0.2225E-02  0.2731E-02  0.1117E+00  0.1082E+00
     13.439  0.1673E-02  0.3707E-02  0.1120E+00  0.1089E+00
     13.617  0.2370E-02  0.3625E-02  0.1125E+00  0.1095E+00
     13.795  0.2616E-02  0.4835E-02  0.1129E+00  0.1104E+00
     13.972  0.1507E-02  0.3924E-02  0.1132E+00  0.1111E+00
     14.150  0.4147E-02  0.1826E-02  0.1139E+00  0.1114E+00
     14.328  0.5099E-03  0.3589E-02  0.1140E+00  0.1121E+00
     14.506  0.1539E-02  0.1289E-02  0.1143E+00  0.1123E+00
     14.683  0.2404E-02  0.2495E-02  0.1147E+00  0.1127E+00
     14.861  0.4432E-02  0.3076E-02  0.1155E+00  0.1133E+00
     15.039  0.2309E-02  0.1835E-02  0.1159E+00  0.1136E+00
     15.217  0.1216E-02  0.2556E-02  0.1161E+00  0.1141E+00
     15.394  0.2361E-02  0.1887E-02  0.1166E+00  0.1144E+00
     15.572  0.2783E-02  0.3696E-02  0.1170E+00  0.1151E+00
     15.750  0.3783E-03  0.3556E-02  0.1171E+00  0.1157E+00
     15.928  0.1529E-02  0.1679E-02  0.1174E+00  0.1160E+00
     16.105  0.1120E-02  0.9765E-03  0.1176E+00  0.1162E+00
     16.283  0.1298E-02  0.3029E-02  0.1178E+00  0.1167E+00
     16.461  0.7075E-03  0.2359E-02  0.1179E+00  0.1171E+00
     16.639  0.2143E-02  0.1438E-02  0.1183E+00  0.1174E+00
     16.816  0.4631E-02  0.1264E-02  0.1191E+00  0.1176E+00
     16.994  0.1877E-02  0.1477E-02  0.1195E+00  0.1179E+00
     17.172  0.9271E-03  0.3831E-03  0.1196E+00  0.1179E+00
     17.350  0.1328E-03  0.2393E-02  0.1197E+00  0.1184E+00
     17.528  0.4356E-05  0.4970E-02  0.1197E+00  0.1192E+00
     17.705  0.2187E-03  0.1690E-02  0.1197E+00  0.1195E+00
     17.883  0.8674E-03  0.6265E-03  0.1199E+00  0.1196E+00
     18.061  0.1029E-02  0.1357E-03  0.1200E+00  0.1197E+00
     18.239  0.4994E-03  0.1607E-07  0.1201E+00  0.1197E+00
     18.416  0.1054E-02  0.3859E-03  0.1203E+00  0.1197E+00
     18.594  0.3721E-03  0.1260E-02  0.1204E+00  0.1200E+00
     18.772  0.1381E-02  0.1482E-04  0.1206E+00  0.1200E+00
     18.950  0.1341E-02  0.1570E-03  0.1209E+00  0.1200E+00
     19.127  0.7032E-02  0.1338E-02  0.1221E+00  0.1202E+00
     19.305  0.5371E-02  0.1337E-02  0.1231E+00  0.1205E+00
     19.483  0.2978E-02  0.9707E-03  0.1236E+00  0.1206E+00
     19.661  0.3095E-02  0.2466E-02  0.1242E+00  0.1211E+00
     19.838  0.3740E-02  0.4172E-02  0.1248E+00  0.1218E+00
     20.016  0.3330E-02  0.4941E-02  0.1254E+00  0.1227E+00
     20.194  0.3293E-02  0.4533E-02  0.1260E+00  0.1235E+00
     20.372  0.3653E-02  0.4464E-02  0.1266E+00  0.1243E+00
     20.549  0.1653E-02  0.3787E-02  0.1269E+00  0.1250E+00
     20.727  0.3788E-02  0.3768E-02  0.1276E+00  0.1256E+00
     20.905  0.1638E-02  0.3112E-02  0.1279E+00  0.1262E+00
     21.083  0.3275E-02  0.3014E-02  0.1285E+00  0.1267E+00
     21.260  0.3318E-02  0.2239E-02  0.1291E+00  0.1271E+00
     21.438  0.1867E-02  0.4242E-02  0.1294E+00  0.1279E+00
     21.616  0.5281E-02  0.2658E-02  0.1303E+00  0.1284E+00
     21.794  0.2830E-02  0.2813E-02  0.1309E+00  0.1289E+00
     21.971  0.5414E-02  0.2354E-02  0.1318E+00  0.1293E+00
     22.149  0.3912E-02  0.4902E-02  0.1325E+00  0.1301E+00
     22.327  0.1162E-02  0.4491E-02  0.1327E+00  0.1309E+00
     22.505  0.7014E-02  0.6232E-02  0.1340E+00  0.1321E+00
     22.682  0.3543E-02  0.2750E-02  0.1346E+00  0.1325E+00
     22.860  0.2624E-02  0.1752E-02  0.1351E+00  0.1329E+00
     23.038  0.2052E-02  0.6786E-02  0.1354E+00  0.1341E+00
     23.216  0.2774E-02  0.3327E-02  0.1359E+00  0.1346E+00
     23.393  0.4573E-02  0.3455E-02  0.1367E+00  0.1353E+00
     23.571  0.3711E-02  0.2038E-02  0.1374E+00  0.1356E+00
     23.749  0.3044E-02  0.3248E-02  0.1379E+00  0.1362E+00
     23.927  0.1832E-02  0.3994E-02  0.1383E+00  0.1369E+00
     24.104  0.1447E-02  0.3596E-02  0.1385E+00  0.1376E+00
     24.282  0.4241E-02  0.2889E-02  0.1393E+00  0.1381E+00
     24.460  0.2191E-02  0.1261E-02  0.1397E+00  0.1383E+00
     24.638  0.1214E-02  0.3236E-02  0.1399E+00  0.1389E+00
     24.815  0.3203E-02  0.3105E-02  0.1404E+00  0.1394E+00
     24.993  0.6111E-02  0.1777E-02  0.1415E+00  0.1397E+00
     25.171  0.1563E-02  0.1856E-02  0.1418E+00  0.1401E+00
     25.349  0.1968E-02  0.6745E-02  0.1422E+00  0.1413E+00
     25.526  0.1527E-02  0.2085E-02  0.1424E+00  0.1416E+00
     25.704  0.6267E-02  0.2473E-02  0.1435E+00  0.1421E+00
     25.882  0.4425E-02  0.1606E-02  0.1443E+00  0.1424E+00
     26.060  0.1391E-02  0.5584E-02  0.1446E+00  0.1433E+00
     26.237  0.3106E-02  0.4394E-02  0.1451E+00  0.1441E+00
     26.415  0.3620E-02  0.2329E-02  0.1458E+00  0.1445E+00
     26.593  0.2234E-02  0.2325E-02  0.1462E+00  0.1450E+00
     26.771  0.7270E-02  0.3330E-02  0.1475E+00  0.1455E+00
     26.948  0.2681E-02  0.3568E-02  0.1479E+00  0.1462E+00
     27.126  0.5120E-02  0.6868E-02  0.1488E+00  0.1474E+00
     27.304  0.5888E-02  0.3209E-02  0.1499E+00  0.1480E+00
     27.482  0.4738E-02  0.5335E-02  0.1507E+00  0.1489E+00
     27.659  0.2091E-02  0.5052E-02  0.1511E+00  0.1498E+00
     27.837  0.2202E-02  0.4105E-02  0.1515E+00  0.1506E+00
     28.015  0.5727E-02  0.2916E-02  0.1525E+00  0.1511E+00
     28.193  0.4135E-02  0.3351E-02  0.1533E+00  0.1517E+00
     28.371  0.1491E-02  0.6232E-02  0.1535E+00  0.1528E+00
     28.548  0.6517E-02  0.3787E-02  0.1547E+00  0.1534E+00
     28.726  0.5382E-02  0.1436E-02  0.1556E+00  0.1537E+00
     28.904  0.3275E-02  0.7296E-02  0.1562E+00  0.1550E+00
     29.082  0.3753E-02  0.3737E-02  0.1569E+00  0.1557E+00
     29.259  0.5096E-02  0.3910E-02  0.1578E+00  0.1564E+00
     29.437  0.3313E-02  0.5854E-02  0.1584E+00  0.1574E+00
     29.615  0.3899E-02  0.3725E-02  0.1591E+00  0.1581E+00
     29.793  0.3523E-02  0.4277E-02  0.1597E+00  0.1588E+00
     29.970  0.2514E-02  0.2828E-02  0.1601E+00  0.1593E+00
     30.148  0.4164E-02  0.3415E-02  0.1609E+00  0.1599E+00
     30.326  0.5345E-02  0.3895E-02  0.1618E+00  0.1606E+00
     30.504  0.3522E-02  0.4750E-02  0.1625E+00  0.1615E+00
     30.681  0.4984E-02  0.4399E-02  0.1633E+00  0.1622E+00
     30.859  0.3178E-02  0.5368E-02  0.1639E+00  0.1632E+00
     31.037  0.4975E-02  0.3383E-02  0.1648E+00  0.1638E+00
     31.215  0.5390E-02  0.3821E-02  0.1658E+00  0.1645E+00
     31.392  0.2666E-02  0.4126E-02  0.1662E+00  0.1652E+00
     31.570  0.4579E-02  0.5196E-02  0.1670E+00  0.1661E+00
     31.748  0.3709E-02  0.5179E-02  0.1677E+00  0.1671E+00
     31.926  0.4312E-02  0.3863E-02  0.1685E+00  0.1677E+00
     32.103  0.5826E-02  0.3796E-02  0.1695E+00  0.1684E+00
     32.281  0.2273E-02  0.4894E-02  0.1699E+00  0.1693E+00
     32.459  0.2131E-02  0.2515E-02  0.1703E+00  0.1697E+00
     32.637  0.4475E-02  0.3293E-02  0.1711E+00  0.1703E+00
     32.814  0.3665E-02  0.4165E-02  0.1717E+00  0.1711E+00
     32.992  0.3830E-02  0.2540E-02  0.1724E+00  0.1715E+00
     33.170  0.3549E-02  0.5751E-02  0.1730E+00  0.1725E+00
     33.348  0.4928E-02  0.3201E-02  0.1739E+00  0.1731E+00
     33.525  0.7097E-02  0.5059E-02  0.1752E+00  0.1740E+00
     33.703  0.2531E-02  0.5102E-02  0.1756E+00  0.1749E+00
     33.881  0.2922E-02  0.4524E-02  0.1761E+00  0.1757E+00
     34.059  0.3913E-02  0.3109E-02  0.1768E+00  0.1763E+00
     34.236  0.5320E-02  0.3894E-02  0.1778E+00  0.1770E+00
     34.414  0.4727E-02  0.5172E-02  0.1786E+00  0.1779E+00
     34.592  0.5557E-02  0.3315E-02  0.1796E+00  0.1785E+00
     34.770  0.3412E-02  0.3780E-02  0.1802E+00  0.1791E+00
     34.947  0.2015E-02  0.5024E-02  0.1806E+00  0.1800E+00
     35.125  0.1830E-02  0.2848E-02  0.1809E+00  0.1805E+00
     35.303  0.2487E-02  0.1862E-02  0.1813E+00  0.1809E+00
     35.481  0.6379E-02  0.3479E-02  0.1825E+00  0.1815E+00
     35.658  0.2668E-02  0.5101E-02  0.1830E+00  0.1824E+00
     35.836  0.3639E-02  0.3067E-02  0.1836E+00  0.1829E+00
     36.014  0.7098E-02  0.3453E-02  0.1849E+00  0.1836E+00
     36.192  0.9597E-02  0.6513E-02  0.1866E+00  0.1847E+00
     36.369  0.5532E-02  0.7221E-02  0.1876E+00  0.1860E+00
     36.547  0.3107E-02  0.6346E-02  0.1881E+00  0.1871E+00
     36.725  0.3873E-02  0.5995E-02  0.1888E+00  0.1882E+00
     36.903  0.5343E-02  0.2794E-02  0.1897E+00  0.1887E+00
     37.080  0.5140E-02  0.6953E-02  0.1907E+00  0.1899E+00
     37.258  0.3436E-02  0.3193E-02  0.1913E+00  0.1905E+00
     37.436  0.3187E-02  0.4225E-02  0.1918E+00  0.1912E+00
     37.614  0.6184E-03  0.3297E-02  0.1919E+00  0.1918E+00
     37.791  0.4453E-02  0.1364E-02  0.1927E+00  0.1921E+00
     37.969  0.3149E-02  0.3709E-02  0.1933E+00  0.1927E+00
     38.147  0.2453E-02  0.2318E-02  0.1937E+00  0.1931E+00
     38.325  0.4390E-02  0.3422E-02  0.1945E+00  0.1938E+00
     38.502  0.4643E-02  0.4681E-02  0.1953E+00  0.1946E+00
     38.680  0.4930E-02  0.4191E-02  0.1962E+00  0.1953E+00
     38.858  0.2878E-02  0.3850E-02  0.1967E+00  0.1960E+00
     39.036  0.5548E-02  0.3071E-02  0.1977E+00  0.1966E+00
     39.214  0.3044E-02  0.5219E-02  0.1983E+00  0.1975E+00
     39.391  0.5329E-02  0.3911E-02  0.1992E+00  0.1982E+00
     39.569  0.4231E-02  0.4713E-02  0.2000E+00  0.1990E+00
     39.747  0.4234E-02  0.4250E-02  0.2007E+00  0.1998E+00
     39.925  0.5367E-02  0.2487E-02  0.2017E+00  0.2002E+00
     40.102  0.1730E-02  0.7182E-02  0.2020E+00  0.2015E+00
     40.280  0.3227E-02  0.2344E-02  0.2025E+00  0.2019E+00
     40.458  0.7560E-02  0.3562E-02  0.2039E+00  0.2025E+00
     40.636  0.4150E-02  0.6437E-02  0.2046E+00  0.2037E+00
     40.813  0.5268E-02  0.3415E-02  0.2056E+00  0.2043E+00
     40.991  0.3469E-02  0.6109E-02  0.2062E+00  0.2054E+00
     41.169  0.5305E-02  0.4288E-02  0.2071E+00  0.2061E+00
     41.347  0.2928E-02  0.6407E-02  0.2076E+00  0.2073E+00
     41.524  0.1055E-02  0.2318E-02  0.2078E+00  0.2077E+00
     41.702  0.4468E-02  0.8095E-03  0.2086E+00  0.2078E+00
     41.880  0.5921E-02  0.5180E-02  0.2097E+00  0.2088E+00
     42.058  0.6325E-02  0.3041E-02  0.2108E+00  0.2093E+00
     42.235  0.5178E-02  0.7751E-02  0.2117E+00  0.2107E+00
     42.413  0.6867E-02  0.6465E-02  0.2129E+00  0.2118E+00
     42.591  0.4644E-02  0.5200E-02  0.2138E+00  0.2128E+00
     42.769  0.3575E-02  0.4213E-02  0.2144E+00  0.2135E+00
     42.946  0.4309E-02  0.6021E-02  0.2152E+00  0.2146E+00
     43.124  0.4262E-02  0.3559E-02  0.2159E+00  0.2152E+00
     43.302  0.4657E-02  0.3124E-02  0.2168E+00  0.2158E+00
     43.480  0.5097E-02  0.5648E-02  0.2177E+00  0.2168E+00
     43.657  0.1576E-02  0.4820E-02  0.2179E+00  0.2176E+00
     43.835  0.1452E-02  0.2730E-02  0.2182E+00  0.2181E+00
     44.013  0.2979E-02  0.1277E-02  0.2187E+00  0.2183E+00
     44.191  0.5291E-02  0.1808E-02  0.2197E+00  0.2187E+00
     44.368  0.5754E-02  0.5286E-02  0.2207E+00  0.2196E+00
     44.546  0.6333E-02  0.4917E-02  0.2218E+00  0.2205E+00
     44.724  0.7761E-02  0.4092E-02  0.2232E+00  0.2212E+00
     44.902  0.7986E-02  0.7580E-02  0.2246E+00  0.2225E+00
     45.079  0.1429E-02  0.9118E-02  0.2249E+00  0.2242E+00
     45.257  0.5765E-02  0.2342E-02  0.2259E+00  0.2246E+00
     45.435  0.4951E-02  0.3538E-02  0.2268E+00  0.2252E+00
     45.613  0.4330E-02  0.6153E-02  0.2275E+00  0.2263E+00
     45.790  0.4673E-02  0.5218E-02  0.2284E+00  0.2272E+00
     45.968  0.6867E-02  0.5333E-02  0.2296E+00  0.2282E+00
     46.146  0.7168E-02  0.4901E-02  0.2309E+00  0.2290E+00
     46.324  0.1566E-02  0.5532E-02  0.2311E+00  0.2300E+00
     46.501  0.2951E-02  0.4646E-02  0.2317E+00  0.2309E+00
     46.679  0.4205E-02  0.1698E-02  0.2324E+00  0.2312E+00
     46.857  0.6420E-02  0.1627E-02  0.2336E+00  0.2314E+00
     47.035  0.5262E-02  0.2910E-02  0.2345E+00  0.2320E+00
     47.212  0.4362E-02  0.5269E-02  0.2353E+00  0.2329E+00
     47.390  0.9024E-02  0.5190E-02  0.2369E+00  0.2338E+00
     47.568  0.4762E-02  0.2596E-02  0.2377E+00  0.2343E+00
     47.746  0.6953E-02  0.2974E-02  0.2390E+00  0.2348E+00
     47.923  0.3123E-02  0.7596E-03  0.2395E+00  0.2349E+00
     48.101  0.1906E-02  0.2231E-02  0.2399E+00  0.2353E+00
     48.279  0.7837E-04  0.5136E-02  0.2399E+00  0.2363E+00
     48.457  0.5646E-03  0.3117E-02  0.2400E+00  0.2368E+00
     48.634  0.3651E-06  0.3227E-02  0.2400E+00  0.2374E+00
     48.812  0.7937E-04  0.4298E-02  0.2400E+00  0.2382E+00
     48.990  0.1160E-03  0.1073E-02  0.2400E+00  0.2383E+00
     49.168  0.1624E-09  0.1056E-02  0.2400E+00  0.2385E+00
     49.345  0.0000E+00  0.3566E-02  0.2400E+00  0.2392E+00
     49.523  0.0000E+00  0.1117E-02  0.2400E+00  0.2394E+00
     49.701  0.0000E+00  0.1737E-02  0.2400E+00  0.2397E+00
     49.879  0.0000E+00  0.4338E-03  0.2400E+00  0.2397E+00
     50.056  0.0000E+00  0.7081E-03  0.2400E+00  0.2399E+00
     50.234  0.0000E+00  0.1509E-03  0.2400E+00  0.2399E+00
     50.412  0.0000E+00  0.5658E-03  0.2400E+00  0.2400E+00
     50.590  0.0000E+00  0.4035E-06  0.2400E+00  0.2400E+00
     50.768  0.0000E+00  0.0000E+00  0.2400E+00  0.2400E+00
     50.945  0.0000E+00  0.0000E+00  0.2400E+00  0.2400E+00
     51.123  0.0000E+00  0.0000E+00  0.2400E+00  0.2400E+00
     51.301  0.0000E+00  0.0000E+00  0.2400E+00  0.2400E+00
     51.479  0.0000E+00  0.0000E+00  0.2400E+00  0.2400E+00
     51.656  0.0000E+00  0.0000E+00  0.2400E+00  0.2400E+00
     51.834  0.0000E+00  0.0000E+00  0.2400E+00  0.2400E+00
     52.012  0.0000E+00  0.0000E+00  0.2400E+00  0.2400E+00
     52.190  0.0000E+00  0.0000E+00  0.2400E+00  0.2400E+00
     52.367  0.0000E+00  0.0000E+00  0.2400E+00  0.2400E+00
     52.545  0.0000E+00  0.0000E+00  0.2400E+00  0.2400E+00
     52.723  0.0000E+00  0.0000E+00  0.2400E+00  0.2400E+00
     52.72280974     -0.60339405  301     11.04122826      1.00000000
     -0.603  0.0000E+00  0.0000E+00  0.0000E+00  0.0000E+00  0.0000E+00  0.0000E+00  0.0000E+00  0.0000E+00  0.0000E+00  0.0000E+00  0.0000E+00  0.0000E+00  0.0000E+00  0.0000E+00  0.0000E+00  0.0000E+00  0.0000E+00  0.0000E+00
     -0.426  0.0000E+00  0.0000E+00  0.0000E+00  0.0000E+00  0.0000E+00  0.0000E+00  0.0000E+00  0.0000E+00  0.0000E+00  0.0000E+00  0.0000E+00  0.0000E+00  0.0000E+00  0.0000E+00  0.0000E+00  0.0000E+00  0.0000E+00  0.0000E+00
     -0.248  0.0000E+00  0.0000E+00  0.0000E+00  0.0000E+00  0.0000E+00  0.0000E+00  0.0000E+00  0.0000E+00  0.0000E+00  0.0000E+00  0.0000E+00  0.0000E+00  0.0000E+00  0.0000E+00  0.0000E+00  0.0000E+00  0.0000E+00  0.0000E+00
     -0.070  0.0000E+00  0.0000E+00  0.0000E+00  0.0000E+00  0.0000E+00  0.0000E+00  0.0000E+00  0.0000E+00  0.0000E+00  0.0000E+00  0.0000E+00  0.0000E+00  0.0000E+00  0.0000E+00  0.0000E+00  0.0000E+00  0.0000E+00  0.0000E+00
      0.108  0.0000E+00  0.0000E+00  0.0000E+00  0.0000E+00  0.0000E+00  0.0000E+00  0.0000E+00  0.0000E+00  0.0000E+00  0.0000E+00  0.0000E+00  0.0000E+00  0.0000E+00  0.0000E+00  0.0000E+00  0.0000E+00  0.0000E+00  0.0000E+00
      0.285  0.0000E+00  0.0000E+00  0.0000E+00  0.0000E+00  0.0000E+00  0.0000E+00  0.0000E+00  0.0000E+00  0.0000E+00  0.0000E+00  0.0000E+00  0.0000E+00  0.0000E+00  0.0000E+00  0.0000E+00  0.0000E+00  0.0000E+00  0.0000E+00
      0.463  0.0000E+00  0.0000E+00  0.0000E+00  0.0000E+00  0.0000E+00  0.0000E+00  0.0000E+00  0.0000E+00  0.0000E+00  0.0000E+00  0.0000E+00  0.0000E+00  0.0000E+00  0.0000E+00  0.0000E+00  0.0000E+00  0.0000E+00  0.0000E+00
      0.641  0.0000E+00  0.0000E+00  0.0000E+00  0.0000E+00  0.0000E+00  0.0000E+00  0.0000E+00  0.0000E+00  0.0000E+00  0.0000E+00  0.0000E+00  0.0000E+00  0.0000E+00  0.0000E+00  0.0000E+00  0.0000E+00  0.0000E+00  0.0000E+00
      0.819  0.0000E+00  0.0000E+00  0.0000E+00  0.0000E+00  0.0000E+00  0.0000E+00  0.0000E+00  0.0000E+00  0.0000E+00  0.0000E+00  0.0000E+00  0.0000E+00  0.0000E+00  0.0000E+00  0.0000E+00  0.0000E+00  0.0000E+00  0.0000E+00
      0.996  0.0000E+00  0.0000E+00  0.0000E+00  0.0000E+00  0.0000E+00  0.0000E+00  0.0000E+00  0.0000E+00  0.0000E+00  0.0000E+00  0.0000E+00  0.0000E+00  0.0000E+00  0.0000E+00  0.0000E+00  0.0000E+00  0.0000E+00  0.0000E+00
      1.174  0.0000E+00  0.0000E+00  0.0000E+00  0.0000E+00  0.0000E+00  0.0000E+00  0.0000E+00  0.0000E+00  0.0000E+00  0.0000E+00  0.0000E+00  0.0000E+00  0.0000E+00  0.0000E+00  0.0000E+00  0.0000E+00  0.0000E+00  0.0000E+00
      1.352  0.0000E+00  0.0000E+00  0.0000E+00  0.0000E+00  0.0000E+00  0.0000E+00  0.0000E+00  0.0000E+00  0.0000E+00  0.0000E+00  0.0000E+00  0.0000E+00  0.0000E+00  0.0000E+00  0.0000E+00  0.0000E+00  0.0000E+00  0.0000E+00
      1.530  0.2093E-18  0.1048E-18  0.1115E-33  0.3336E-34  0.1875E-32  0.1454E-33  0.1115E-33  0.3336E-34  0.2391E-32  0.1374E-31  0.1171E-33  0.1286E-34  0.1166E-23  0.7406E-24  0.1171E-33  0.1286E-34  0.2391E-32  0.1374E-31
      1.707  0.1298E-05  0.1085E-05  0.6917E-21  0.3452E-21  0.1181E-18  0.6317E-19  0.6917E-21  0.3452E-21  0.1483E-19  0.1422E-18  0.7262E-21  0.1331E-21  0.7232E-11  0.7665E-11  0.7262E-21  0.1331E-21  0.1483E-19  0.1422E-18
      1.885  0.1828E-02  0.1822E-02  0.6475E-11  0.4160E-11  0.1310E-06  0.1057E-06  0.6475E-11  0.4160E-11  0.1143E-12  0.5545E-13  0.1018E-17  0.2242E-18  0.1162E-07  0.1363E-07  0.1018E-17  0.2242E-18  0.1143E-12  0.5545E-13
      2.063  0.7917E-02  0.7594E-02  0.5060E-04  0.4684E-04  0.5715E-04  0.5736E-04  0.5060E-04  0.4684E-04  0.8932E-06  0.6216E-06  0.5337E-11  0.2352E-11  0.1534E-05  0.1107E-05  0.5337E-11  0.2352E-11  0.8932E-06  0.6216E-06
      2.241  0.1889E-01  0.1833E-01  0.2277E-03  0.2218E-03  0.1907E-03  0.1772E-03  0.2277E-03  0.2218E-03  0.4107E-05  0.2990E-05  0.6063E-05  0.4287E-05  0.1466E-05  0.1257E-05  0.6063E-05  0.4287E-05  0.4107E-05  0.2990E-05
      2.418  0.1002E-01  0.1089E-01  0.1180E-03  0.1301E-03  0.1716E-03  0.1825E-03  0.1180E-03  0.1301E-03  0.2155E-05  0.1772E-05  0.4923E-05  0.4135E-05  0.1201E-05  0.6005E-06  0.4923E-05  0.4135E-05  0.2155E-05  0.1772E-05
      2.596  0.1168E-01  0.1116E-01  0.3072E-03  0.2873E-03  0.2056E-03  0.2125E-03  0.3072E-03  0.2873E-03  0.1647E-04  0.1145E-04  0.3280E-07  0.1007E-07  0.2788E-04  0.1993E-04  0.3280E-07  0.1007E-07  0.1647E-04  0.1145E-04
      2.774  0.4316E-01  0.4179E-01  0.1124E-02  0.1084E-02  0.1575E-02  0.1546E-02  0.1124E-02  0.1084E-02  0.5710E-04  0.3943E-04  0.7800E-04  0.5636E-04  0.7676E-04  0.5281E-04  0.7800E-04  0.5636E-04  0.5710E-04  0.3943E-04
      2.952  0.1952E-01  0.1881E-01  0.9050E-03  0.8507E-03  0.2194E-03  0.2217E-03  0.9050E-03  0.8507E-03  0.7834E-04  0.5071E-04  0.2866E-04  0.1725E-04  0.4234E-04  0.3088E-04  0.2866E-04  0.1725E-04  0.7834E-04  0.5071E-04
      3.129  0.1274E-01  0.1460E-01  0.6029E-03  0.7141E-03  0.2872E-03  0.2694E-03  0.6029E-03  0.7141E-03  0.5365E-04  0.4543E-04  0.4273E-04  0.3064E-04  0.1931E-04  0.1685E-04  0.4273E-04  0.3064E-04  0.5365E-04  0.4543E-04
      3.307  0.2122E-01  0.2212E-01  0.6743E-03  0.7176E-03  0.1621E-02  0.1696E-02  0.6743E-03  0.7176E-03  0.4398E-04  0.3290E-04  0.1427E-03  0.1086E-03  0.1072E-03  0.7083E-04  0.1427E-03  0.1086E-03  0.4398E-04  0.3290E-04
      3.485  0.4216E-01  0.3241E-01  0.1839E-02  0.1370E-02  0.3397E-02  0.2749E-02  0.1839E-02  0.1370E-02  0.2223E-03  0.1050E-03  0.3026E-03  0.1932E-03  0.4753E-03  0.2069E-03  0.3026E-03  0.1932E-03  0.2223E-03  0.1050E-03
      3.663  0.4503E-01  0.4418E-01  0.3624E-02  0.3221E-02  0.1042E-02  0.1632E-02  0.3624E-02  0.3221E-02  0.5959E-03  0.3525E-03  0.2158E-03  0.1238E-03  0.4431E-03  0.3625E-03  0.2158E-03  0.1238E-03  0.5959E-03  0.3525E-03
      3.840  0.8014E-02  0.1785E-01  0.6385E-03  0.1573E-02  0.3024E-03  0.3090E-03  0.6385E-03  0.1573E-02  0.1088E-03  0.1810E-03  0.6733E-04  0.7694E-04  0.7774E-04  0.9664E-04  0.6733E-04  0.7694E-04  0.1088E-03  0.1810E-03
      4.018  0.4422E-01  0.2792E-01  0.3380E-02  0.1820E-02  0.3388E-02  0.2749E-02  0.3380E-02  0.1820E-02  0.8033E-03  0.2501E-03  0.7572E-03  0.2752E-03  0.5560E-03  0.3062E-03  0.7572E-03  0.2752E-03  0.8033E-03  0.2501E-03
      4.196  0.5170E-01  0.6776E-01  0.3893E-02  0.5796E-02  0.4738E-02  0.5175E-02  0.3893E-02  0.5796E-02  0.8939E-03  0.8680E-03  0.1242E-02  0.1072E-02  0.7926E-03  0.3951E-03  0.1242E-02  0.1072E-02  0.8939E-03  0.8680E-03
      4.374  0.1593E-01  0.3911E-02  0.7505E-03  0.7343E-04  0.2827E-02  0.8441E-03  0.7505E-03  0.7343E-04  0.2651E-03  0.7300E-05  0.3728E-03  0.2849E-04  0.1499E-02  0.2524E-03  0.3728E-03  0.2849E-04  0.2651E-03  0.7300E-05
      4.551  0.2263E-01  0.3295E-01  0.2143E-02  0.2134E-02  0.2156E-02  0.5228E-02  0.2143E-02  0.2134E-02  0.7636E-03  0.4630E-03  0.5456E-03  0.5857E-03  0.1208E-02  0.1474E-02  0.5456E-03  0.5857E-03  0.7636E-03  0.4630E-03
      4.729  0.6884E-01  0.2705E-01  0.8431E-02  0.3719E-02  0.5601E-02  0.1533E-02  0.8431E-02  0.3719E-02  0.3275E-02  0.7697E-03  0.2747E-02  0.5144E-03  0.1908E-02  0.4699E-03  0.2747E-02  0.5144E-03  0.3275E-02  0.7697E-03
      4.907  0.4651E-01  0.7772E-01  0.5369E-02  0.9498E-02  0.5006E-02  0.7699E-02  0.5369E-02  0.9498E-02  0.2760E-02  0.2473E-02  0.1950E-02  0.1817E-02  0.2908E-02  0.2131E-02  0.1950E-02  0.1817E-02  0.2760E-02  0.2473E-02
      5.085  0.6401E-01  0.3690E-01  0.7831E-02  0.4286E-02  0.7344E-02  0.5234E-02  0.7831E-02  0.4286E-02  0.5234E-02  0.1147E-02  0.5664E-02  0.1463E-02  0.4031E-02  0.1222E-02  0.5664E-02  0.1463E-02  0.5234E-02  0.1147E-02
      5.262  0.2963E-01  0.4591E-01  0.3169E-02  0.6477E-02  0.3769E-02  0.4809E-02  0.3169E-02  0.6477E-02  0.4097E-02  0.2347E-02  0.1510E-02  0.2582E-02  0.8901E-02  0.1240E-02  0.1510E-02  0.2582E-02  0.4097E-02  0.2347E-02
      5.440  0.5464E-01  0.2581E-01  0.6594E-02  0.4153E-02  0.1037E-01  0.1722E-02  0.6594E-02  0.4153E-02  0.6228E-02  0.2488E-02  0.1183E-01  0.5699E-03  0.2652E-02  0.2276E-02  0.1183E-01  0.5699E-03  0.6228E-02  0.2488E-02
      5.618  0.4787E-01  0.3934E-01  0.5195E-02  0.3554E-02  0.9302E-02  0.1067E-01  0.5195E-02  0.3554E-02  0.9815E-02  0.1284E-02  0.1247E-01  0.3095E-02  0.1430E-01  0.4677E-02  0.1247E-01  0.3095E-02  0.9815E-02  0.1284E-02
      5.796  0.1339E+00  0.4702E-01  0.2004E-01  0.7148E-02  0.8437E-02  0.7584E-02  0.2004E-01  0.7148E-02  0.6423E-01  0.3834E-02  0.5995E-01  0.6225E-02  0.6331E-01  0.9065E-03  0.5995E-01  0.6225E-02  0.6423E-01  0.3834E-02
      5.974  0.8084E-01  0.5454E-01  0.1011E-01  0.9899E-02  0.1168E-01  0.8807E-02  0.1011E-01  0.9899E-02  0.5336E-01  0.4717E-02  0.7288E-01  0.3323E-02  0.3439E-01  0.6925E-02  0.7288E-01  0.3323E-02  0.5336E-01  0.4717E-02
      6.151  0.7573E-01  0.6227E-01  0.1040E-01  0.1223E-01  0.1365E-01  0.6814E-02  0.1040E-01  0.1223E-01  0.7369E-01  0.1143E-01  0.7405E-01  0.5124E-02  0.8967E-01  0.9667E-02  0.7405E-01  0.5124E-02  0.7369E-01  0.1143E-01
      6.329  0.6952E-01  0.5884E-01  0.1222E-01  0.1095E-01  0.1619E-01  0.8264E-02  0.1222E-01  0.1095E-01  0.1268E+00  0.1015E-01  0.8763E-01  0.1060E-01  0.7882E-01  0.1460E-01  0.8763E-01  0.1060E-01  0.1268E+00  0.1015E-01
      6.507  0.6780E-01  0.7429E-01  0.1942E-01  0.1180E-01  0.1915E-01  0.1581E-01  0.1942E-01  0.1180E-01  0.1292E+00  0.2137E-01  0.1657E+00  0.2393E-01  0.1476E+00  0.1103E-01  0.1657E+00  0.2393E-01  0.1292E+00  0.2137E-01
      6.685  0.3585E-01  0.5378E-01  0.1390E-01  0.6631E-02  0.1688E-01  0.1236E-01  0.1390E-01  0.6631E-02  0.1087E+00  0.1449E-01  0.1356E+00  0.2201E-01  0.1317E+00  0.3159E-01  0.1356E+00  0.2201E-01  0.1087E+00  0.1449E-01
      6.862  0.2608E-01  0.6485E-01  0.1695E-01  0.7055E-02  0.1953E-01  0.8837E-02  0.1695E-01  0.7055E-02  0.8739E-01  0.4328E-01  0.1409E+00  0.4818E-01  0.9806E-01  0.3808E-01  0.1409E+00  0.4818E-01  0.8739E-01  0.4328E-01
      7.040  0.2382E-01  0.1043E+00  0.2322E-01  0.2499E-01  0.1539E-01  0.1771E-01  0.2322E-01  0.2499E-01  0.1233E+00  0.5906E-01  0.1187E+00  0.6026E-01  0.1869E+00  0.4109E-01  0.1187E+00  0.6026E-01  0.1233E+00  0.5906E-01
      7.218  0.1066E-01  0.6297E-01  0.1538E-01  0.1344E-01  0.1403E-01  0.1323E-01  0.1538E-01  0.1344E-01  0.1239E+00  0.5185E-01  0.1018E+00  0.5949E-01  0.1828E+00  0.5887E-01  0.1018E+00  0.5949E-01  0.1239E+00  0.5185E-01
      7.396  0.1144E-01  0.4560E-01  0.2641E-01  0.1106E-01  0.1713E-01  0.1644E-01  0.2641E-01  0.1106E-01  0.2097E+00  0.8185E-01  0.1101E+00  0.5449E-01  0.1884E+00  0.4271E-01  0.1101E+00  0.5449E-01  0.2097E+00  0.8185E-01
      7.573  0.1213E-01  0.4307E-01  0.2517E-01  0.1355E-01  0.1829E-01  0.1736E-01  0.2517E-01  0.1355E-01  0.2080E+00  0.6334E-01  0.1258E+00  0.7968E-01  0.2007E+00  0.8518E-01  0.1258E+00  0.7968E-01  0.2080E+00  0.6334E-01
      7.751  0.1230E-01  0.3834E-01  0.2542E-01  0.1895E-01  0.2040E-01  0.2235E-01  0.2542E-01  0.1895E-01  0.2046E+00  0.1020E+00  0.1014E+00  0.1478E+00  0.1608E+00  0.8581E-01  0.1014E+00  0.1478E+00  0.2046E+00  0.1020E+00
      7.929  0.4441E-02  0.1887E-01  0.8890E-02  0.1515E-01  0.8748E-02  0.2240E-01  0.8890E-02  0.1515E-01  0.1023E+00  0.5856E-01  0.3486E-01  0.1551E+00  0.9059E-01  0.7348E-01  0.3486E-01  0.1551E+00  0.1023E+00  0.5856E-01
      8.107  0.5600E-02  0.1203E-01  0.1533E-01  0.2096E-01  0.2080E-01  0.1314E-01  0.1533E-01  0.2096E-01  0.1265E+00  0.9631E-01  0.2056E+00  0.6827E-01  0.2295E+00  0.1125E+00  0.2056E+00  0.6827E-01  0.1265E+00  0.9631E-01
      8.284  0.1324E-01  0.8974E-02  0.2179E-01  0.2418E-01  0.2283E-01  0.1588E-01  0.2179E-01  0.2418E-01  0.1736E+00  0.1084E+00  0.2839E+00  0.7272E-01  0.3383E+00  0.1310E+00  0.2839E+00  0.7272E-01  0.1736E+00  0.1084E+00