    2    2  100    2
  0.9270577E+01  0.2367662E-09  0.2367662E-09  0.3819151E-09  0.5000000E-15
  1.000000000000000E-004
  CAR 
 Co-hcc                                  
     18     95     28
 
  0.0000000E+00  0.0000000E+00  0.0000000E+00  0.8680556E-03
      1          2.818339        2.834482   1.000000   1.000000
      2          6.746142        7.612333   1.000000   1.000000
      3          9.843620       11.342187   1.000000   1.000000
      4          9.860316       11.342189   1.000000   1.000000
      5          9.860317       11.346532   1.000000   1.000000
      6         10.271935       11.809545   1.000000   1.000000
      7         10.271935       11.809547   1.000000   1.000000
      8         10.708544       12.318040   1.000000   1.000000
      9         10.708544       12.318041   1.000000   1.000000
     10         12.122642       12.555407   1.000000   0.999883
     11         12.122642       13.849171   1.000000   0.000000
     12         12.576207       13.849172   0.999004   0.000000
     13         20.617608       21.583221   0.000000   0.000000
     14         35.940862       35.711148   0.000000   0.000000
     15         39.567378       39.452014   0.000000   0.000000
     16         39.887756       39.698172   0.000000   0.000000
     17         40.216824       40.568916   0.000000   0.000000
     18         40.216830       40.568925   0.000000   0.000000
     19         41.400180       41.702370   0.000000   0.000000
     20         41.400183       41.702385   0.000000   0.000000
     21         45.529976       45.509831   0.000000   0.000000
     22         45.529979       45.509839   0.000000   0.000000
     23         47.121105       46.849602   0.000000   0.000000
     24         47.459700       47.734072   0.000000   0.000000
     25         48.959229       49.937537   0.000000   0.000000
     26         49.150200       49.937543   0.000000   0.000000
     27         49.724030       52.210779   0.000000   0.000000
     28         49.724034       52.212064   0.000000   0.000000
 
  0.8333333E-01  0.0000000E+00  0.0000000E+00  0.5208333E-02
      1          3.092741        3.110193   1.000000   1.000000
      2          6.916879        7.800858   1.000000   1.000000
      3          9.557017       10.999362   1.000000   1.000000
      4         10.003604       11.496712   1.000000   1.000000
      5         10.095238       11.615791   1.000000   1.000000
      6         10.211285       11.657596   1.000000   1.000000
      7         10.398688       11.733884   1.000000   1.000000
      8         10.501053       11.946208   1.000000   1.000000
      9         10.616021       12.213121   1.000000   1.000000
     10         11.063479       12.264912   1.000000   1.000000
     11         12.163430       13.896176   1.000000   0.000000
     12         14.008159       14.949294   0.000000   0.000000
     13         20.647549       21.593179   0.000000   0.000000
     14         34.591425       34.623985   0.000000   0.000000
     15         37.235311       37.356523   0.000000   0.000000
     16         37.774177       38.106921   0.000000   0.000000
     17         39.924513       39.755068   0.000000   0.000000
     18         40.784136       40.786305   0.000000   0.000000
     19         42.171204       42.081434   0.000000   0.000000
     20         44.019928       44.317437   0.000000   0.000000
     21         44.773377       45.017490   0.000000   0.000000
     22         45.156495       45.195158   0.000000   0.000000
     23         47.036230       47.327575   0.000000   0.000000
     24         47.371878       47.646058   0.000000   0.000000
     25         48.832830       50.747207   0.000000   0.000000
     26         49.073532       50.755936   0.000000   0.000000
     27         50.516369       50.773600   0.000000   0.000000
     28         50.585048       51.076416   0.000000   0.000000
 
  0.1666667E+00  0.0000000E+00  0.0000000E+00  0.5208333E-02
      1          3.880609        3.906647   1.000000   1.000000
      2          7.335411        8.277137   1.000000   1.000000
      3          9.200631       10.560700   1.000000   1.000000
      4          9.577422       10.568937   1.000000   1.000000
      5          9.991122       11.463238   1.000000   1.000000
      6         10.388955       11.936146   1.000000   1.000000
      7         10.409270       11.957215   1.000000   1.000000
      8         10.481694       12.030412   1.000000   1.000000
      9         10.642139       12.065882   1.000000   1.000000
     10         10.754912       12.331154   1.000000   1.000000
     11         12.249927       13.994851   1.000000   0.000000
     12         15.862764       16.700437   0.000000   0.000000
     13         20.757161       21.639986   0.000000   0.000000
     14         30.900869       31.227791   0.000000   0.000000
     15         35.099370       35.413999   0.000000   0.000000
     16         36.135742       36.248531   0.000000   0.000000
     17         38.087107       38.114737   0.000000   0.000000
     18         40.057507       39.889639   0.000000   0.000000
     19         41.735485       41.798956   0.000000   0.000000
     20         44.499884       44.626770   0.000000   0.000000
     21         44.648786       45.068853   0.000000   0.000000
     22         45.855807       46.119123   0.000000   0.000000
     23         46.254489       46.513938   0.000000   0.000000
     24         48.139924       48.747549   0.000000   0.000000
     25         48.778907       49.348924   0.000000   0.000000
     26         49.049419       50.527066   0.000000   0.000000
     27         49.680221       52.384404   0.000000   0.000000
     28         50.729896       52.774853   0.000000   0.000000
 
  0.2500000E+00 -0.5551115E-16  0.0000000E+00  0.5208333E-02
      1          5.049670        5.116918   1.000000   1.000000
      2          7.653111        8.704317   1.000000   1.000000
      3          8.670526        9.687166   1.000000   1.000000
      4          8.986569       10.206758   1.000000   1.000000
      5          9.876844       11.292725   1.000000   1.000000
      6         10.117856       11.653671   1.000000   1.000000
      7         10.395524       11.804201   1.000000   1.000000
      8         10.999538       12.581590   1.000000   0.998354
      9         11.023973       12.585998   1.000000   0.997557
     10         11.268200       12.887970   1.000000   0.000000
     11         12.331370       14.086615   1.000000   0.000000
     12         17.906046       18.662617   0.000000   0.000000
     13         20.962744       21.734390   0.000000   0.000000
     14         27.039497       27.513764   0.000000   0.000000
     15         32.757326       33.036776   0.000000   0.000000
     16         34.615316       34.756169   0.000000   0.000000
     17         34.994271       35.230246   0.000000   0.000000
     18         39.102450       38.996897   0.000000   0.000000
     19         40.197334       40.636002   0.000000   0.000000
     20         43.951259       44.148729   0.000000   0.000000
     21         44.419293       44.777890   0.000000   0.000000
     22         44.731851       44.856422   0.000000   0.000000
     23         46.282728       46.475094   0.000000   0.000000
     24         48.667096       49.711142   0.000000   0.000000
     25         49.107632       52.072852   0.000000   0.000000
     26         50.635943       52.345239   0.000000   0.000000
     27         51.648453       53.176995   0.000000   0.000000
     28         54.424963       54.534698   0.000000   0.000000
 
  0.3333333E+00  0.0000000E+00  0.0000000E+00  0.5208333E-02
      1          6.264545        6.498669   1.000000   1.000000
      2          7.546317        8.666307   1.000000   1.000000
      3          8.004977        9.051141   1.000000   1.000000
      4          9.134280       10.142951   1.000000   1.000000
      5          9.875082       11.383133   1.000000   1.000000
      6         10.032889       11.431433   1.000000   1.000000
      7         10.175092       11.550388   1.000000   1.000000
      8         11.633013       13.284587   1.000000   0.000000
      9         11.826568       13.410577   1.000000   0.000000
     10         11.881621       13.497053   1.000000   0.000000
     11         12.386997       14.148568   1.000000   0.000000
     12         20.093303       20.761643   0.000000   0.000000
     13         20.814382       21.457702   0.000000   0.000000
     14         24.110311       24.702246   0.000000   0.000000
     15         30.875544       31.103576   0.000000   0.000000
     16         31.423470       31.698703   0.000000   0.000000
     17         32.864446       33.237553   0.000000   0.000000
     18         37.918367       37.825386   0.000000   0.000000
     19         38.547305       39.009453   0.000000   0.000000
     20         42.412525       42.745992   0.000000   0.000000
     21         43.579048       43.827146   0.000000   0.000000
     22         45.730174       45.934348   0.000000   0.000000
     23         48.165246       48.332232   0.000000   0.000000
     24         48.947393       50.538881   0.000000   0.000000
     25         49.340712       52.583781   0.000000   0.000000
     26         51.456917       53.393028   0.000000   0.000000
     27         55.300573       55.696670   0.000000   0.000000
     28         57.803690       57.978159   0.000000   0.000000
 
  0.4166667E+00 -0.2775558E-16  0.0000000E+00  0.5208333E-02
      1          6.971074        7.596423   1.000000   1.000000
      2          7.333612        8.402165   1.000000   1.000000
      3          7.602204        8.668920   1.000000   1.000000
      4          9.589881       10.310216   1.000000   1.000000
      5          9.709888       11.199601   1.000000   1.000000
      6         10.020175       11.368949   1.000000   1.000000
      7         10.285978       11.710483   1.000000   1.000000
      8         12.111003       13.820350   1.000000   0.000000
      9         12.290402       14.011063   1.000000   0.000000
     10         12.416683       14.181294   1.000000   0.000000
     11         13.213699       14.592201   0.000000   0.000000
     12         18.732676       19.479773   0.000000   0.000000
     13         22.318240       22.876264   0.000000   0.000000
     14         23.959400       24.459505   0.000000   0.000000
     15         28.619423       29.041968   0.000000   0.000000
     16         29.622469       29.797651   0.000000   0.000000
     17         30.260745       30.735379   0.000000   0.000000
     18         37.066207       36.961127   0.000000   0.000000
     19         37.930353       38.394264   0.000000   0.000000
     20         41.072654       41.371494   0.000000   0.000000
     21         43.368505       43.647297   0.000000   0.000000
     22         46.373699       46.697174   0.000000   0.000000
     23         49.085404       50.895234   0.000000   0.000000
     24         49.511156       50.979374   0.000000   0.000000
     25         50.815643       52.718096   0.000000   0.000000
     26         51.843645       53.486322   0.000000   0.000000
     27         57.580533       57.928662   0.000000   0.000000
     28         58.669421       59.010296   0.000000   0.000000
 
  0.5000000E+00 -0.1110223E-15  0.0000000E+00  0.2604167E-02
      1          7.104766        8.074507   1.000000   1.000000
      2          7.275583        8.173163   1.000000   1.000000
      3          7.467657        8.541708   1.000000   1.000000
      4          9.651633       10.487897   1.000000   1.000000
      5          9.883251       11.134982   1.000000   1.000000
      6          9.964648       11.303589   1.000000   1.000000
      7         10.383717       11.821291   1.000000   1.000000
      8         12.284504       14.013969   1.000000   0.000000
      9         12.425716       14.191188   1.000000   0.000000
     10         12.479238       14.225098   1.000000   0.000000
     11         14.496554       15.683429   0.000000   0.000000
     12         16.894365       17.803504   0.000000   0.000000
     13         23.756111       24.200816   0.000000   0.000000
     14         24.612462       25.006993   0.000000   0.000000
     15         26.993294       27.543056   0.000000   0.000000
     16         28.851129       29.328363   0.000000   0.000000
     17         29.177060       29.397540   0.000000   0.000000
     18         36.765057       36.652986   0.000000   0.000000
     19         37.784387       38.252398   0.000000   0.000000
     20         40.602804       40.886875   0.000000   0.000000
     21         43.301402       43.590424   0.000000   0.000000
     22         46.608775       46.987661   0.000000   0.000000
     23         49.179317       50.928808   0.000000   0.000000
     24         49.585724       52.760107   0.000000   0.000000
     25         51.813376       53.339534   0.000000   0.000000
     26         53.291777       53.481035   0.000000   0.000000
     27         54.857856       55.314431   0.000000   0.000000
     28         60.228221       60.438632   0.000000   0.000000
 
  0.8333333E-01  0.8333333E-01  0.0000000E+00  0.5208333E-02
      1          3.625163        3.647127   1.000000   1.000000
      2          7.219115        8.139520   1.000000   1.000000
      3          9.276197       10.665148   1.000000   1.000000
      4          9.884855       10.859108   1.000000   1.000000
      5         10.076773       11.562919   1.000000   1.000000
      6         10.293975       11.812850   1.000000   1.000000
      7         10.296903       11.835489   1.000000   1.000000
      8         10.351960       11.906814   1.000000   1.000000
      9         10.679020       12.245994   1.000000   1.000000
     10         10.793923       12.248902   1.000000   1.000000
     11         12.214069       13.953709   1.000000   0.000000
     12         15.348547       16.211150   0.000000   0.000000
     13         20.719987       21.624302   0.000000   0.000000
     14         32.558038       32.768413   0.000000   0.000000
     15         33.759644       34.100390   0.000000   0.000000
     16         38.945079       39.034550   0.000000   0.000000
     17         39.550693       39.478506   0.000000   0.000000
     18         39.650842       39.566843   0.000000   0.000000
     19         40.130561       40.198871   0.000000   0.000000
     20         43.859048       44.015834   0.000000   0.000000
     21         45.571389       45.985521   0.000000   0.000000
     22         46.154162       46.605933   0.000000   0.000000
     23         47.698082       47.851107   0.000000   0.000000
     24         48.251389       48.435358   0.000000   0.000000
     25         48.558625       49.233176   0.000000   0.000000
     26         48.821285       49.882009   0.000000   0.000000
     27         49.762645       50.051152   0.000000   0.000000
     28         49.767120       52.663000   0.000000   0.000000
 
  0.1666667E+00  0.8333333E-01  0.0000000E+00  0.1041667E-01
      1          4.615924        4.658078   1.000000   1.000000
      2          7.644177        8.641441   1.000000   1.000000
      3          8.924839       10.002767   1.000000   1.000000
      4          9.004976       10.223080   1.000000   1.000000
      5          9.924998       11.360894   1.000000   1.000000
      6         10.063800       11.569138   1.000000   1.000000
      7         10.608061       12.075912   1.000000   1.000000
      8         10.617047       12.181930   1.000000   1.000000
      9         10.832894       12.391367   1.000000   1.000000
     10         11.205309       12.799289   1.000000   0.000645
     11         12.276236       14.023914   1.000000   0.000000
     12         17.175025       17.964537   0.000000   0.000000
     13         20.906206       21.723957   0.000000   0.000000
     14         28.998139       29.393363   0.000000   0.000000
     15         31.433758       31.776618   0.000000   0.000000
     16         36.302544       36.342245   0.000000   0.000000
     17         37.674786       37.842570   0.000000   0.000000
     18         38.538095       38.579165   0.000000   0.000000
     19         40.682117       40.829117   0.000000   0.000000
     20         42.926178       43.390197   0.000000   0.000000
     21         43.832199       43.903141   0.000000   0.000000
     22         46.822543       47.441394   0.000000   0.000000
     23         47.907188       48.096545   0.000000   0.000000
     24         48.365364       48.654124   0.000000   0.000000
     25         49.006264       50.788808   0.000000   0.000000
     26         49.770063       52.165286   0.000000   0.000000
     27         51.028264       52.331591   0.000000   0.000000
     28         52.062033       52.741473   0.000000   0.000000
 
  0.2500000E+00  0.8333333E-01  0.0000000E+00  0.1041667E-01
      1          5.857610        5.983992   1.000000   1.000000
      2          7.759337        8.864451   1.000000   1.000000
      3          8.278668        9.313815   1.000000   1.000000
      4          8.839596        9.979908   1.000000   1.000000
      5          9.824841       11.291458   1.000000   1.000000
      6          9.942494       11.338893   1.000000   1.000000
      7         10.362105       11.799213   1.000000   1.000000
      8         11.126661       12.717193   1.000000   0.185046
      9         11.471713       13.092889   1.000000   0.000000
     10         11.917525       13.518004   1.000000   0.000000
     11         12.328556       14.082574   1.000000   0.000000
     12         19.244549       19.956636   0.000000   0.000000
     13         21.149632       21.836622   0.000000   0.000000
     14         25.405516       25.933699   0.000000   0.000000
     15         29.717927       30.049635   0.000000   0.000000
     16         33.072347       33.260000   0.000000   0.000000
     17         35.063380       35.367746   0.000000   0.000000
     18         37.194997       37.253681   0.000000   0.000000
     19         40.356671       40.655482   0.000000   0.000000
     20         40.944169       41.347131   0.000000   0.000000
     21         44.484230       44.547880   0.000000   0.000000
     22         47.860979       48.066417   0.000000   0.000000
     23         48.151540       48.353167   0.000000   0.000000
     24         48.604724       49.540585   0.000000   0.000000
     25         49.076027       51.998535   0.000000   0.000000
     26         50.463199       53.103804   0.000000   0.000000
     27         53.067193       53.748540   0.000000   0.000000
     28         55.418545       55.488339   0.000000   0.000000
 
  0.3333333E+00  0.8333333E-01  0.0000000E+00  0.1041667E-01
      1          6.871376        7.279824   1.000000   1.000000
      2          7.537973        8.650341   1.000000   1.000000
      3          7.780067        8.844866   1.000000   1.000000
      4          9.145884       10.047661   1.000000   1.000000
      5          9.671844       11.121498   1.000000   1.000000
      6         10.118055       11.511161   1.000000   1.000000
      7         10.182825       11.594327   1.000000   1.000000
      8         11.767118       13.403849   1.000000   0.000000
      9         12.021154       13.703691   1.000000   0.000000
     10         12.360986       14.118519   1.000000   0.000000
     11         12.891533       14.394855   0.000000   0.000000
     12         20.188092       20.839482   0.000000   0.000000
     13         21.457647       22.077232   0.000000   0.000000
     14         23.762527       24.323510   0.000000   0.000000
     15         28.354558       28.654850   0.000000   0.000000
     16         30.091649       30.430465   0.000000   0.000000
     17         32.061965       32.456482   0.000000   0.000000
     18         36.156975       36.193467   0.000000   0.000000
     19         39.584274       39.894357   0.000000   0.000000
     20         39.860005       40.267023   0.000000   0.000000
     21         44.683046       44.806440   0.000000   0.000000
     22         48.091876       48.424407   0.000000   0.000000
     23         49.030401       50.074366   0.000000   0.000000
     24         49.440900       50.803281   0.000000   0.000000
     25         49.896917       52.546375   0.000000   0.000000
     26         51.653028       53.400957   0.000000   0.000000
     27         55.155193       55.498727   0.000000   0.000000
     28         58.994012       59.039033   0.000000   0.000000
 
  0.4166667E+00  0.8333333E-01  0.0000000E+00  0.1041667E-01
      1          7.219633        8.059752   1.000000   1.000000
      2          7.402423        8.393201   1.000000   1.000000
      3          7.528185        8.609266   1.000000   1.000000
      4          9.596022       10.276228   1.000000   1.000000
      5          9.612049       11.072420   1.000000   1.000000
      6          9.956417       11.304154   1.000000   1.000000
      7         10.377920       11.816738   1.000000   1.000000
      8         12.230066       13.943104   1.000000   0.000000
      9         12.321120       14.040293   1.000000   0.000000
     10         12.375336       14.134247   1.000000   0.000000
     11         14.334728       15.557103   0.000000   0.000000
     12         17.716580       18.564556   0.000000   0.000000
     13         23.550094       24.047347   0.000000   0.000000
     14         24.541838       24.967927   0.000000   0.000000
     15         27.452186       27.756231   0.000000   0.000000
     16         27.623714       28.117329   0.000000   0.000000
     17         29.762520       30.202409   0.000000   0.000000
     18         35.606688       35.625004   0.000000   0.000000
     19         38.930519       39.230610   0.000000   0.000000
     20         39.526024       39.938271   0.000000   0.000000
     21         44.654442       44.812740   0.000000   0.000000
     22         48.257156       48.760008   0.000000   0.000000
     23         49.180225       50.983728   0.000000   0.000000
     24         49.692493       52.636032   0.000000   0.000000
     25         51.849389       52.730328   0.000000   0.000000
     26         52.506897       53.462361   0.000000   0.000000
     27         56.220629       56.598920   0.000000   0.000000
     28         58.068916       58.354199   0.000000   0.000000
 
  0.1666667E+00  0.1666667E+00  0.0000000E+00  0.5208333E-02
      1          5.715980        5.806024   1.000000   1.000000
      2          7.991374        9.053780   1.000000   1.000000
      3          8.422200        9.449862   1.000000   1.000000
      4          8.549661        9.775552   1.000000   1.000000
      5          9.733927       11.190663   1.000000   1.000000
      6          9.937808       11.337429   1.000000   1.000000
      7         10.482238       11.938958   1.000000   1.000000
      8         10.828596       12.419749   1.000000   1.000000
      9         11.455394       13.064731   1.000000   0.000000
     10         11.943802       13.535744   1.000000   0.000000
     11         12.278315       14.025810   1.000000   0.000000
     12         18.958502       19.689828   0.000000   0.000000
     13         21.243552       21.954621   0.000000   0.000000
     14         27.039636       27.477339   0.000000   0.000000
     15         27.813315       28.239028   0.000000   0.000000
     16         34.425421       34.459251   0.000000   0.000000
     17         35.892627       36.158942   0.000000   0.000000
     18         37.303577       37.604817   0.000000   0.000000
     19         38.205849       38.466311   0.000000   0.000000
     20         43.329948       43.624132   0.000000   0.000000
     21         44.779479       44.758668   0.000000   0.000000
     22         46.376049       47.034455   0.000000   0.000000
     23         48.933021       50.024174   0.000000   0.000000
     24         49.806473       51.142159   0.000000   0.000000
     25         50.213537       51.400895   0.000000   0.000000
     26         50.967582       52.545680   0.000000   0.000000
     27         51.287557       52.623864   0.000000   0.000000
     28         52.649670       53.102131   0.000000   0.000000
 
  0.2500000E+00  0.1666667E+00  0.0000000E+00  0.1041667E-01
      1          6.882525        7.127975   1.000000   1.000000
      2          7.951360        9.023159   1.000000   1.000000
      3          7.956359        9.077731   1.000000   1.000000
      4          8.531132        9.610909   1.000000   1.000000
      5          9.537699       10.954777   1.000000   1.000000
      6         10.118235       11.516425   1.000000   1.000000
      7         10.239245       11.659574   1.000000   1.000000
      8         11.219367       12.839586   1.000000   0.000007
      9         12.020335       13.694274   1.000000   0.000000
     10         12.275600       14.022620   1.000000   0.000000
     11         12.929712       14.447051   0.000000   0.000000
     12         21.030484       21.690973   0.000000   0.000000
     13         21.476613       22.068583   0.000000   0.000000
     14         24.172997       24.717924   0.000000   0.000000
     15         26.176651       26.592435   0.000000   0.000000
     16         31.867425       32.080926   0.000000   0.000000
     17         34.193662       34.458420   0.000000   0.000000
     18         34.221889       34.558994   0.000000   0.000000
     19         36.924973       37.247618   0.000000   0.000000
     20         43.512259       43.833638   0.000000   0.000000
     21         46.204749       46.166529   0.000000   0.000000
     22         48.184969       49.013496   0.000000   0.000000
     23         49.084582       50.626095   0.000000   0.000000
     24         50.238617       51.180829   0.000000   0.000000
     25         50.651571       52.415401   0.000000   0.000000
     26         51.013783       53.076522   0.000000   0.000000
     27         54.042633       54.399494   0.000000   0.000000
     28         54.624561       54.719071   0.000000   0.000000
 
  0.3333333E+00  0.1666667E+00  0.0000000E+00  0.1041667E-01
      1          7.539820        8.169147   1.000000   1.000000
      2          7.663891        8.761191   1.000000   1.000000
      3          7.710816        8.799322   1.000000   1.000000
      4          8.943132        9.794547   1.000000   1.000000
      5          9.485865       10.890046   1.000000   1.000000
      6          9.975003       11.348491   1.000000   1.000000
      7         10.370250       11.803925   1.000000   1.000000
      8         11.737547       13.394620   1.000000   0.000000
      9         12.272135       14.018448   1.000000   0.000000
     10         12.303807       14.021500   1.000000   0.000000
     11         14.290252       15.580523   0.000000   0.000000
     12         19.508131       20.210657   0.000000   0.000000
     13         23.249223       23.818526   0.000000   0.000000
     14         24.016607       24.501706   0.000000   0.000000
     15         25.330144       25.718380   0.000000   0.000000
     16         29.140918       29.533254   0.000000   0.000000
     17         31.183742       31.599893   0.000000   0.000000
     18         33.416009       33.606181   0.000000   0.000000
     19         36.119508       36.444506   0.000000   0.000000
     20         43.187434       43.540271   0.000000   0.000000
     21         47.126991       47.117498   0.000000   0.000000
     22         49.112973       50.530625   0.000000   0.000000
     23         49.184385       52.128705   0.000000   0.000000
     24         51.017611       52.321887   0.000000   0.000000
     25         52.180026       52.492070   0.000000   0.000000
     26         52.355173       53.406800   0.000000   0.000000
     27         54.305453       54.651908   0.000000   0.000000
     28         57.849382       57.885089   0.000000   0.000000
 
  0.4166667E+00  0.1666667E+00  0.0000000E+00  0.5208333E-02
      1          7.564728        8.546742   1.000000   1.000000
      2          7.570899        8.638139   1.000000   1.000000
      3          7.712885        8.673342   1.000000   1.000000
      4          9.214804        9.962252   1.000000   1.000000
      5          9.509037       10.930571   1.000000   1.000000
      6          9.837301       11.171161   1.000000   1.000000
      7         10.478492       11.932047   1.000000   1.000000
      8         12.090435       13.780852   1.000000   0.000000
      9         12.270457       14.001446   1.000000   0.000000
     10         12.276696       14.016405   1.000000   0.000000
     11         15.634086       16.640547   0.000000   0.000000
     12         17.574767       18.492898   0.000000   0.000000
     13         24.435623       24.842560   0.000000   0.000000
     14         24.821813       25.288828   0.000000   0.000000
     15         25.340611       25.725576   0.000000   0.000000
     16         27.387160       27.907351   0.000000   0.000000
     17         29.684183       30.138185   0.000000   0.000000
     18         33.159052       33.337007   0.000000   0.000000
     19         35.826027       36.147086   0.000000   0.000000
     20         43.051944       43.412070   0.000000   0.000000
     21         47.349428       47.361604   0.000000   0.000000
     22         49.218843       51.075443   0.000000   0.000000
     23         49.234286       51.834859   0.000000   0.000000
     24         51.815085       52.751931   0.000000   0.000000
     25         51.821839       53.338183   0.000000   0.000000
     26         53.746197       53.780266   0.000000   0.000000
     27         56.332639       56.781235   0.000000   0.000000
     28         57.030076       57.231925   0.000000   0.000000
 
  0.2500000E+00  0.2500000E+00  0.0000000E+00  0.5208333E-02
      1          7.741043        8.257610   1.000000   1.000000