    2    2  100    2
  0.1027211E+02  0.2450025E-09  0.2450025E-09  0.3952007E-09  0.5000000E-15
  1.000000000000000E-004
  CAR 
 Co-hcc                                  
     18     95     24
 
  0.0000000E+00  0.0000000E+00  0.0000000E+00  0.8680556E-03
      1          1.820524        1.822357   1.000000   1.000000
      2          5.659006        6.584682   1.000000   1.000000
      3          8.371060        9.971449   1.000000   1.000000
      4          8.381307        9.973355   1.000000   1.000000
      5          8.381307        9.973356   1.000000   1.000000
      6          8.726433       10.373732   1.000000   1.000000
      7          8.726434       10.373733   1.000000   1.000000
      8          9.099250       10.812915   1.000000   1.000000
      9          9.099251       10.812916   1.000000   1.000000
     10         10.305350       10.930638   1.000000   0.999120
     11         10.305351       12.137143   1.000000   0.000000
     12         10.982314       12.137145   0.952179   0.000000
     13         17.943917       18.945810   0.000000   0.000000
     14         33.460723       33.196725   0.000000   0.000000
     15         36.561603       36.608613   0.000000   0.000000
     16         36.561607       36.912947   0.000000   0.000000
     17         36.751943       36.912948   0.000000   0.000000
     18         37.164676       36.944198   0.000000   0.000000
     19         37.858265       38.155316   0.000000   0.000000
     20         37.858268       38.155322   0.000000   0.000000
     21         42.329025       42.277599   0.000000   0.000000
     22         42.329026       42.277603   0.000000   0.000000
     23         43.547185       43.486174   0.000000   0.000000
     24         43.796788       43.799845   0.000000   0.000000
 
  0.8333333E-01  0.1387779E-16  0.0000000E+00  0.5208333E-02
      1          2.073659        2.076516   1.000000   1.000000
      2          5.811731        6.756890   1.000000   1.000000
      3          8.127050        9.675648   1.000000   1.000000
      4          8.503865       10.107344   1.000000   1.000000
      5          8.582977       10.169385   1.000000   1.000000
      6          8.676573       10.206121   1.000000   1.000000
      7          8.834466       10.308149   1.000000   1.000000
      8          8.933188       10.491753   1.000000   1.000000
      9          9.021690       10.723197   1.000000   1.000000
     10          9.455436       10.757973   1.000000   1.000000
     11         10.338869       12.176569   1.000000   0.000000
     12         12.164769       13.104181   0.000000   0.000000
     13         17.982699       18.962502   0.000000   0.000000
     14         31.776668       31.846481   0.000000   0.000000
     15         34.185815       34.267358   0.000000   0.000000
     16         34.334773       34.664133   0.000000   0.000000
     17         37.180541       36.976868   0.000000   0.000000
     18         37.721166       37.680475   0.000000   0.000000
     19         39.120070       39.005277   0.000000   0.000000
     20         40.298901       40.593497   0.000000   0.000000
     21         41.068727       41.303572   0.000000   0.000000
     22         41.855094       41.874827   0.000000   0.000000
     23         43.120082       43.398690   0.000000   0.000000
     24         43.391921       43.681114   0.000000   0.000000
 
  0.1666667E+00 -0.1387779E-16  0.0000000E+00  0.5208333E-02
      1          2.804176        2.814621   1.000000   1.000000
      2          6.187749        7.196128   1.000000   1.000000
      3          7.827654        9.230130   1.000000   1.000000
      4          8.163814        9.295108   1.000000   1.000000
      5          8.491017       10.071373   1.000000   1.000000
      6          8.830738       10.487558   1.000000   1.000000
      7          8.849938       10.503774   1.000000   1.000000
      8          8.912956       10.563851   1.000000   1.000000
      9          9.059601       10.586739   1.000000   1.000000
     10          9.137919       10.824151   1.000000   1.000000
     11         10.410300       12.259655   1.000000   0.000000
     12         13.840696       14.680481   0.000000   0.000000
     13         18.119752       19.030329   0.000000   0.000000
     14         27.972586       28.301969   0.000000   0.000000
     15         31.848111       32.156985   0.000000   0.000000
     16         33.201937       33.293520   0.000000   0.000000
     17         35.133787       35.146703   0.000000   0.000000
     18         37.292815       37.083651   0.000000   0.000000
     19         38.388057       38.498276   0.000000   0.000000
     20         40.737264       41.076798   0.000000   0.000000
     21         41.078340       41.190539   0.000000   0.000000
     22         41.988813       42.253416   0.000000   0.000000
     23         42.470174       42.736059   0.000000   0.000000
     24         44.304040       44.791002   0.000000   0.000000
 
  0.2500000E+00  0.2775558E-16  0.0000000E+00  0.5208333E-02
      1          3.902270        3.951129   1.000000   1.000000
      2          6.482272        7.611954   1.000000   1.000000
      3          7.382795        8.479787   1.000000   1.000000
      4          7.647786        8.972188   1.000000   1.000000
      5          8.394148        9.915696   1.000000   1.000000
      6          8.601565       10.242247   1.000000   1.000000
      7          8.845889       10.358284   1.000000   1.000000
      8          9.352159       11.040441   1.000000   0.508883
      9          9.375430       11.045386   1.000000   0.453190
     10          9.574528       11.304476   1.000000   0.000000
     11         10.477957       12.337280   1.000000   0.000000
     12         15.717582       16.471616   0.000000   0.000000
     13         18.381600       19.170010   0.000000   0.000000
     14         24.206731       24.677871   0.000000   0.000000
     15         29.684708       29.956289   0.000000   0.000000
     16         31.739169       31.873741   0.000000   0.000000
     17         32.014441       32.234822   0.000000   0.000000
     18         36.290760       36.141306   0.000000   0.000000
     19         36.312777       36.772176   0.000000   0.000000
     20         40.442210       40.625007   0.000000   0.000000
     21         40.519396       40.897541   0.000000   0.000000
     22         41.226206       41.309446   0.000000   0.000000
     23         42.516172       42.703560   0.000000   0.000000
     24         45.407976       45.801666   0.000000   0.000000
 
  0.3333333E+00  0.0000000E+00  0.0000000E+00  0.5208333E-02
      1          5.080487        5.290141   1.000000   1.000000
      2          6.401172        7.617834   1.000000   1.000000
      3          6.811820        7.946028   1.000000   1.000000
      4          7.772955        8.877158   1.000000   1.000000
      5          8.395592       10.008381   1.000000   1.000000
      6          8.529153       10.028228   1.000000   1.000000
      7          8.657233       10.134746   1.000000   1.000000
      8          9.887732       11.650310   1.000000   0.000000
      9         10.048281       11.745965   1.000000   0.000000
     10         10.113467       11.828768   1.000000   0.000000
     11         10.524416       12.389897   1.000000   0.000000
     12         17.751942       18.411699   0.000000   0.000000
     13         18.376963       19.018632   0.000000   0.000000
     14         21.324482       21.926138   0.000000   0.000000
     15         27.961567       28.180382   0.000000   0.000000
     16         28.622730       28.891956   0.000000   0.000000
     17         29.797270       30.167898   0.000000   0.000000
     18         34.757990       35.002228   0.000000   0.000000
     19         35.139271       35.212179   0.000000   0.000000
     20         38.656084       39.003826   0.000000   0.000000
     21         40.007752       40.240994   0.000000   0.000000
     22         42.081697       42.250579   0.000000   0.000000
     23         44.336024       44.499094   0.000000   0.000000
     24         46.302344       46.828144   0.000000   0.000000
 
  0.4166667E+00  0.8326673E-16  0.0000000E+00  0.5208333E-02
      1          5.823583        6.434652   1.000000   1.000000
      2          6.204076        7.388670   1.000000   1.000000
      3          6.468599        7.629406   1.000000   1.000000
      4          8.170275        8.959676   1.000000   1.000000
      5          8.254911        9.849132   1.000000   1.000000
      6          8.524420        9.973729   1.000000   1.000000
      7          8.747485       10.270214   1.000000   1.000000
      8         10.289121       12.108361   1.000000   0.000000
      9         10.440692       12.271029   1.000000   0.000000
     10         10.549322       12.417794   1.000000   0.000000
     11         11.300323       12.765443   0.000000   0.000000
     12         16.424622       17.186358   0.000000   0.000000
     13         19.845111       20.388465   0.000000   0.000000
     14         21.226861       21.729711   0.000000   0.000000
     15         25.895610       26.311642   0.000000   0.000000
     16         26.824309       26.990181   0.000000   0.000000
     17         27.179068       27.656434   0.000000   0.000000
     18         34.219218       34.193282   0.000000   0.000000
     19         34.340493       34.671925   0.000000   0.000000
     20         37.435727       37.747617   0.000000   0.000000
     21         39.759153       40.023120   0.000000   0.000000
     22         42.625644       42.878822   0.000000   0.000000
     23         46.708025       46.998714   0.000000   0.000000
     24         46.835123       47.325613   0.000000   0.000000
 
  0.5000000E+00  0.5551115E-16  0.0000000E+00  0.2604167E-02
      1          6.032556        6.941814   1.000000   1.000000
      2          6.097327        7.193649   1.000000   1.000000
      3          6.354202        7.524586   1.000000   1.000000
      4          8.205238        9.079927   1.000000   1.000000
      5          8.434376        9.792999   1.000000   1.000000
      6          8.476456        9.915139   1.000000   1.000000
      7          8.830503       10.366202   1.000000   1.000000
      8         10.434279       12.273027   1.000000   0.000000
      9         10.556910       12.426230   1.000000   0.000000
     10         10.599689       12.454830   1.000000   0.000000
     11         12.506968       13.736755   0.000000   0.000000
     12         14.647875       15.609785   0.000000   0.000000
     13         21.208321       21.633222   0.000000   0.000000
     14         21.926818       22.311957   0.000000   0.000000
     15         24.324334       24.870037   0.000000   0.000000
     16         25.761139       26.318314   0.000000   0.000000
     17         26.422538       26.564835   0.000000   0.000000
     18         34.061471       33.908383   0.000000   0.000000
     19         34.089614       34.546705   0.000000   0.000000
     20         37.010344       37.307248   0.000000   0.000000
     21         39.678688       39.952971   0.000000   0.000000
     22         42.825370       43.114912   0.000000   0.000000
     23         46.822578       47.385246   0.000000   0.000000
     24         47.618664       49.343875   0.000000   0.000000
 
  0.8333333E-01  0.8333333E-01  0.0000000E+00  0.5208333E-02
      1          2.566479        2.573260   1.000000   1.000000
      2          6.082528        7.067651   1.000000   1.000000
      3          7.891032        9.387505   1.000000   1.000000
      4          8.428562        9.477819   1.000000   1.000000
      5          8.562710       10.158479   1.000000   1.000000
      6          8.753133       10.380839   1.000000   1.000000
      7          8.754273       10.396155   1.000000   1.000000
      8          8.801184       10.461309   1.000000   1.000000
      9          9.073918       10.744891   1.000000   1.000000
     10          9.188177       10.750266   1.000000   1.000000
     11         10.380670       12.224983   1.000000   0.000000
     12         13.372229       14.237354   0.000000   0.000000
     13         18.072783       19.007014   0.000000   0.000000
     14         29.694093       29.909042   0.000000   0.000000
     15         30.563189       30.903315   0.000000   0.000000
     16         35.793570       35.855300   0.000000   0.000000
     17         36.636083       36.537399   0.000000   0.000000
     18         36.792403       36.689063   0.000000   0.000000
     19         37.019021       37.070624   0.000000   0.000000
     20         40.360021       40.516986   0.000000   0.000000
     21         41.509326       41.938769   0.000000   0.000000
     22         42.108739       42.567013   0.000000   0.000000
     23         44.011896       44.135795   0.000000   0.000000
     24         44.500869       44.657232   0.000000   0.000000
 
  0.1666667E+00  0.8333333E-01  0.0000000E+00  0.1041667E-01
      1          3.490531        3.516109   1.000000   1.000000
      2          6.466110        7.535772   1.000000   1.000000
      3          7.595106        8.746334   1.000000   1.000000
      4          7.670931        9.000334   1.000000   1.000000
      5          8.434864        9.978761   1.000000   1.000000
      6          8.558677       10.169400   1.000000   1.000000
      7          9.023315       10.594733   1.000000   1.000000
      8          9.027960       10.695215   1.000000   1.000000
      9          9.211140       10.880283   1.000000   0.999997
     10          9.522836       11.226065   1.000000   0.000000
     11         10.432291       12.284370   1.000000   0.000000
     12         15.041945       15.830824   0.000000   0.000000
     13         18.295860       19.134997   0.000000   0.000000
     14         26.126498       26.518408   0.000000   0.000000
     15         28.412090       28.746605   0.000000   0.000000
     16         33.438342       33.470646   0.000000   0.000000
     17         34.541073       34.699300   0.000000   0.000000
     18         35.551775       35.572703   0.000000   0.000000
     19         37.316256       37.477089   0.000000   0.000000
     20         38.945151       39.401136   0.000000   0.000000
     21         40.492413       40.532416   0.000000   0.000000
     22         42.745365       43.227247   0.000000   0.000000
     23         44.105232       44.281640   0.000000   0.000000
     24         44.581337       44.796452   0.000000   0.000000
 
  0.2500000E+00  0.8333333E-01  0.0000000E+00  0.1041667E-01
      1          4.669905        4.776293   1.000000   1.000000
      2          6.582616        7.775101   1.000000   1.000000
      3          7.046502        8.166575   1.000000   1.000000
      4          7.521753        8.762651   1.000000   1.000000
      5          8.355916        9.927074   1.000000   1.000000
      6          8.450764        9.951176   1.000000   1.000000
      7          8.813618       10.354182   1.000000   1.000000
      8          9.461092       11.155913   1.000000   0.000590
      9          9.753272       11.484847   1.000000   0.000000
     10         10.133035       11.841940   1.000000   0.000000
     11         10.475851       12.334069   1.000000   0.000000
     12         16.956868       17.662738   0.000000   0.000000
     13         18.619098       19.314187   0.000000   0.000000
     14         22.623936       23.151699   0.000000   0.000000
     15         26.814171       27.136859   0.000000   0.000000
     16         30.248050       30.432206   0.000000   0.000000
     17         31.867151       32.178144   0.000000   0.000000
     18         34.259519       34.288554   0.000000   0.000000
     19         36.729046       37.050575   0.000000   0.000000
     20         37.192047       37.567307   0.000000   0.000000
     21         41.137999       41.165491   0.000000   0.000000
     22         44.008678       44.200092   0.000000   0.000000
     23         44.275296       44.475344   0.000000   0.000000
     24         45.242278       45.620437   0.000000   0.000000
 
  0.3333333E+00  0.8333333E-01  0.0000000E+00  0.1041667E-01
      1          5.680128        6.067893   1.000000   1.000000
      2          6.392993        7.608130   1.000000   1.000000
      3          6.620981        7.777930   1.000000   1.000000
      4          7.780725        8.771440   1.000000   1.000000
      5          8.224880        9.777898   1.000000   1.000000
      6          8.606553       10.102378   1.000000   1.000000
      7          8.658584       10.170691   1.000000   1.000000
      8         10.003492       11.747406   1.000000   0.000000
      9         10.217233       12.009226   1.000000   0.000000
     10         10.502962       12.364612   1.000000   0.000000
     11         10.991331       12.593542   0.920924   0.000000
     12         17.814287       18.465224   0.000000   0.000000
     13         19.027911       19.635389   0.000000   0.000000
     14         21.005079       21.575061   0.000000   0.000000
     15         25.564825       25.856003   0.000000   0.000000
     16         27.327005       27.659639   0.000000   0.000000
     17         28.880574       29.284004   0.000000   0.000000
     18         33.304068       33.312057   0.000000   0.000000
     19         36.015131       36.334566   0.000000   0.000000
     20         36.146353       36.532758   0.000000   0.000000
     21         41.231172       41.321782   0.000000   0.000000
     22         44.332710       44.556334   0.000000   0.000000
     23         45.949150       46.125796   0.000000   0.000000
     24         46.577130       47.151852   0.000000   0.000000
 
  0.4166667E+00  0.8333333E-01  0.0000000E+00  0.1041667E-01
      1          6.098796        6.918947   1.000000   1.000000
      2          6.234548        7.373716   1.000000   1.000000
      3          6.407138        7.584760   1.000000   1.000000
      4          8.172748        8.910761   1.000000   1.000000
      5          8.176853        9.736759   1.000000   1.000000
      6          8.469324        9.917907   1.000000   1.000000
      7          8.826143       10.364442   1.000000   1.000000
      8         10.391686       12.212705   1.000000   0.000000
      9         10.468794       12.296867   1.000000   0.000000
     10         10.514939       12.377929   1.000000   0.000000
     11         12.334596       13.616680   0.000000   0.000000
     12         15.435106       16.315270   0.000000   0.000000
     13         21.004703       21.483917   0.000000   0.000000
     14         21.837829       22.259480   0.000000   0.000000
     15         24.737714       25.037562   0.000000   0.000000
     16         24.931130       25.418562   0.000000   0.000000
     17         26.614531       27.064075   0.000000   0.000000
     18         32.804095       32.796345   0.000000   0.000000
     19         35.404735       35.715016   0.000000   0.000000
     20         35.835590       36.227101   0.000000   0.000000
     21         41.145185       41.271654   0.000000   0.000000
     22         44.559841       44.843403   0.000000   0.000000
     23         46.860005       47.440316   0.000000   0.000000
     24         47.681665       48.596155   0.000000   0.000000
 
  0.1666667E+00  0.1666667E+00  0.0000000E+00  0.5208333E-02
      1          4.525386        4.598320   1.000000   1.000000
      2          6.777225        7.920262   1.000000   1.000000
      3          7.169847        8.281056   1.000000   1.000000
      4          7.277105        8.607907   1.000000   1.000000
      5          8.280130        9.842148   1.000000   1.000000
      6          8.446552        9.952649   1.000000   1.000000
      7          8.914248       10.474299   1.000000   1.000000
      8          9.208519       10.901628   1.000000   0.999961
      9          9.740450       11.459720   1.000000   0.000000
     10         10.155594       11.856399   1.000000   0.000000
     11         10.434132       12.286092   1.000000   0.000000
     12         16.688124       17.414065   0.000000   0.000000
     13         18.675927       19.398637   0.000000   0.000000
     14         24.312767       24.740064   0.000000   0.000000
     15         24.874963       25.299251   0.000000   0.000000
     16         31.722611       31.732814   0.000000   0.000000
     17         32.754709       33.011923   0.000000   0.000000
     18         33.962550       34.271373   0.000000   0.000000
     19         34.780765       35.059660   0.000000   0.000000
     20         39.611875       39.882225   0.000000   0.000000
     21         41.508023       41.461264   0.000000   0.000000
     22         42.371829       42.860255   0.000000   0.000000
     23         45.762543       46.057309   0.000000   0.000000
     24         47.048472       47.210503   0.000000   0.000000
 
  0.2500000E+00  0.1666667E+00  0.0000000E+00  0.1041667E-01
      1          5.644707        5.874940   1.000000   1.000000
      2          6.753816        7.930401   1.000000   1.000000
      3          6.772805        7.972411   1.000000   1.000000
      4          7.254941        8.431574   1.000000   1.000000
      5          8.113025        9.634332   1.000000   1.000000
      6          8.602645       10.105156   1.000000   1.000000
      7          8.707979       10.231121   1.000000   1.000000
      8          9.540274       11.263436   1.000000   0.000000
      9         10.218454       12.000784   1.000000   0.000000
     10         10.431766       12.283256   1.000000   0.000000
     11         11.017339       12.637626   0.750383   0.000000
     12         18.618776       19.268512   0.000000   0.000000
     13         19.006661       19.596721   0.000000   0.000000
     14         21.472236       22.019147   0.000000   0.000000
     15         23.388384       23.801313   0.000000   0.000000
     16         29.101766       29.317557   0.000000   0.000000
     17         30.900395       31.274555   0.000000   0.000000
     18         31.263506       31.461882   0.000000   0.000000
     19         33.482989       33.817106   0.000000   0.000000
     20         39.777223       40.071662   0.000000   0.000000
     21         42.885695       42.816767   0.000000   0.000000
     22         44.609959       45.018998   0.000000   0.000000
     23         46.370432       46.651275   0.000000   0.000000
     24         47.033653       47.193474   0.000000   0.000000
 
  0.3333333E+00  0.1666667E+00  0.0000000E+00  0.1041667E-01
      1          6.322164        6.951670   1.000000   1.000000
      2          6.525685        7.719936   1.000000   1.000000
      3          6.539757        7.732853   1.000000   1.000000
      4          7.601917        8.534899   1.000000   1.000000
      5          8.067874        9.575209   1.000000   1.000000
      6          8.484130        9.959461   1.000000   1.000000
      7          8.819878       10.356912   1.000000   1.000000
      8          9.979119       11.741442   1.000000   0.000000
      9         10.428875       12.279691   1.000000   0.000000
     10         10.456745       12.280946   1.000000   0.000000
     11         12.261394       13.627914   0.000000   0.000000
     12         17.145433       17.857076   0.000000   0.000000
     13         20.705511       21.258882   0.000000   0.000000
     14         21.383910       21.868212   0.000000   0.000000
     15         22.600947       22.985791   0.000000   0.000000
     16         26.397182       26.783116   0.000000   0.000000
     17         27.971907       28.399565   0.000000   0.000000
     18         30.563619       30.724865   0.000000   0.000000
     19         32.711123       33.046254   0.000000   0.000000
     20         39.440455       39.760211   0.000000   0.000000
     21         43.717303       43.671312   0.000000   0.000000
     22         46.453464       46.807913   0.000000   0.000000
     23         47.410047       48.289769   0.000000   0.000000
     24         47.805736       48.289943   0.000000   0.000000
 
  0.4166667E+00  0.1666667E+00  0.0000000E+00  0.5208333E-02
      1          6.431307        7.373541   1.000000   1.000000
      2          6.442325        7.591595   1.000000   1.000000
      3          6.488438        7.650328   1.000000   1.000000
      4          7.840152        8.642253   1.000000   1.000000
      5          8.086579        9.612226   1.000000   1.000000
      6          8.367537        9.801236   1.000000   1.000000
      7          8.912636       10.468973   1.000000   1.000000
      8         10.276220       12.074019   1.000000   0.000000
      9         10.427377       12.263341   1.000000   0.000000
     10         10.433834       12.277817   1.000000   0.000000
     11         13.565494       14.602944   0.000000   0.000000
     12         15.254435       16.214734   0.000000   0.000000
     13         21.854614       22.255701   0.000000   0.000000
     14         22.188619       22.635969   0.000000   0.000000
     15         22.630695       23.007894   0.000000   0.000000
     16         24.702520       25.214815   0.000000   0.000000
     17         26.482136       26.955050   0.000000   0.000000
     18         30.336093       30.488866   0.000000   0.000000
     19         32.434992       32.766315   0.000000   0.000000
     20         39.304946       39.631000   0.000000   0.000000
     21         43.890670       43.866032   0.000000   0.000000
     22         46.976418       47.553876   0.000000   0.000000
     23         47.282996       47.892084   0.000000   0.000000
     24         47.979138       49.790381   0.000000   0.000000
 
  0.2500000E+00  0.2500000E+00  0.0000000E+00  0.5208333E-02
      1          6.476021        6.988364   1.000000   1.000000
      2          6.593701        7.797776   1.000000   1.000000
      3          6.971431        8.111139   1.000000   1.000000
      4          7.021580        8.147543   1.000000   1.000000
      5          7.998584        9.480125   1.000000   1.000000
      6          8.501016        9.985700   1.000000   1.000000
      7          8.825747       10.357179   1.000000   1.000000
      8          9.734340       11.486893   1.000000   0.000000
      9         10.384599       12.229569   1.000000   0.000000
     10         10.463314       12.286941   1.000000   0.000000
     11         12.272204       13.667013   0.000000   0.000000
     12         18.972910       19.508086   0.000000   0.000000
     13         19.727146       20.310492   0.000000   0.000000
     14         20.587466       21.169478   0.000000   0.000000
     15         22.075593       22.532824   0.000000   0.000000
     16         28.315527       28.495468   0.000000   0.000000
     17         28.367580       28.754844   0.000000   0.000000
     18         29.636001       30.040831   0.000000   0.000000
     19         30.571657       30.919742   0.000000   0.000000
     20         42.783492       42.983208   0.000000   0.000000
     21         44.687111       44.839340   0.000000   0.000000
     22         44.935547       45.189823   0.000000   0.000000
     23         47.159891       47.891744   0.000000   0.000000
     24         48.070828       49.555137   0.000000   0.000000
 
  0.3333333E+00  0.2500000E+00  0.0000000E+00  0.1041667E-01
      1          6.507747        7.655800   1.000000   1.000000
      2          6.744892        7.745646   1.000000   1.000000
      3          6.828606        7.947009   1.000000   1.000000
      4          7.368886        8.283033   1.000000   1.000000
      5          8.020132        9.486885   1.000000   1.000000
      6          8.286459        9.731823   1.000000   1.000000
      7          9.005937       10.567911   1.000000   1.000000
      8         10.030389       11.811585   1.000000   0.000000
      9         10.356778       12.197881   1.000000   0.000000
     10         10.404359       12.228805   1.000000   0.000000
     11         13.996683       15.043983   0.000000   0.000000
     12         16.680132       17.441671   0.000000   0.000000
     13         19.068574       19.618034   0.000000   0.000000
     14         22.687994       23.183273   0.000000   0.000000
     15         23.107536       23.499558   0.000000   0.000000
     16         25.779069       26.206916   0.000000   0.000000
     17         27.438580       27.869183   0.000000   0.000000
     18         27.949926       28.218402   0.000000   0.000000
     19         29.750978       30.112889   0.000000   0.000000
     20         43.232961       43.491214   0.000000   0.000000
     21         46.574248       46.467993   0.000000   0.000000
     22         46.735699       47.289233   0.000000   0.000000
     23         47.482347       49.528212   0.000000   0.000000
     24         48.342580       50.029643   0.000000   0.000000
 
  0.3333333E+00  0.3333333E+00  0.0000000E+00  0.1736111E-02
      1          6.512294        7.771922   1.000000   1.000000
      2          6.945371        7.983488   1.000000   1.000000
      3          6.945372        7.983490   1.000000   1.000000
      4          7.232180        8.187194   1.000000   1.000000
      5          8.103356        9.543096   1.000000   1.000000
      6          8.103356        9.543097   1.000000   1.000000
      7          9.111035       10.680496   1.000000   1.000000
      8         10.187667       11.990559   1.000000   0.000000
      9         10.187667       11.990561   1.000000   0.000000
     10         10.328169       12.165533   1.000000   0.000000
     11         15.763033       16.544725   0.000000   0.000000
     12         16.691296       17.446524   0.000000   0.000000
     13         16.691297       17.446528   0.000000   0.000000
     14         23.963015       24.331772   0.000000   0.000000
     15         24.749941       25.198950   0.000000   0.000000