    2    2  100    2
  0.1030573E+02  0.2450211E-09  0.2450211E-09  0.3964342E-09  0.5000000E-15
  1.000000000000000E-004
  CAR 
 Co-hcc                                  
     18     70     16
 
  0.0000000E+00  0.0000000E+00  0.0000000E+00  0.1250000E-02
      1          1.783858        1.799165   1.000000   1.000000
      2          5.616342        6.561592   1.000000   1.000000
      3          8.303098        9.926407   1.000000   1.000000
      4          8.325003        9.953630   1.000000   1.000000
      5          8.325005        9.953631   1.000000   1.000000
      6          8.664045       10.347937   1.000000   1.000000
      7          8.664047       10.347938   1.000000   1.000000
      8          9.049573       10.797060   1.000000   0.999983
      9          9.049573       10.797061   1.000000   0.999983
     10         10.236762       10.850965   1.000000   0.995619
     11         10.236762       12.102848   1.000000   0.000000
     12         10.893205       12.102849   0.923128   0.000000
     13         17.809166       18.837097   0.000000   0.000000
     14         33.418470       33.167870   0.000000   0.000000
     15         36.510611       36.551456   0.000000   0.000000
     16         36.565822       36.787543   0.000000   0.000000
 
  0.1000000E+00  0.2081668E-16  0.0000000E+00  0.7500000E-02
      1          2.146831        2.163800   1.000000   1.000000
      2          5.833002        6.806836   1.000000   1.000000
      3          8.013069        9.580926   1.000000   1.000000
      4          8.499798        9.919043   1.000000   1.000000
      5          8.532358       10.144992   1.000000   1.000000
      6          8.621141       10.184354   1.000000   1.000000
      7          8.769544       10.284630   1.000000   1.000000
      8          8.818681       10.517153   1.000000   1.000000
      9          8.941357       10.671721   1.000000   1.000000
     10          9.256781       10.709027   1.000000   1.000000
     11         10.282307       12.156515   1.000000   0.000000
     12         12.393117       13.339987   0.000000   0.000000
     13         17.866687       18.862335   0.000000   0.000000
     14         31.014920       31.181094   0.000000   0.000000
     15         33.767161       33.963446   0.000000   0.000000
     16         33.893570       34.109162   0.000000   0.000000
 
  0.2000000E+00  0.4163336E-16  0.0000000E+00  0.7500000E-02
      1          3.172531        3.205396   1.000000   1.000000
      2          6.300912        7.372623   1.000000   1.000000
      3          7.674748        8.865584   1.000000   1.000000
      4          7.772624        9.127387   1.000000   1.000000
      5          8.368189        9.958373   1.000000   1.000000
      6          8.692800       10.386134   1.000000   1.000000
      7          8.911847       10.473077   1.000000   1.000000
      8          8.979793       10.674528   1.000000   1.000000
      9          9.005000       10.690960   1.000000   1.000000
     10          9.239110       10.978843   1.000000   0.159675
     11         10.367960       12.256028   1.000000   0.000000
     12         14.475749       15.305597   0.000000   0.000000
     13         18.078882       18.971898   0.000000   0.000000
     14         26.369395       26.774775   0.000000   0.000000
     15         30.890166       31.201960   0.000000   0.000000
     16         32.745665       32.899315   0.000000   0.000000
 
  0.3000000E+00 -0.2775558E-16  0.0000000E+00  0.7500000E-02
      1          4.592525        4.727127   1.000000   1.000000
      2          6.425907        7.651504   1.000000   1.000000
      3          6.961103        8.103884   1.000000   1.000000
      4          7.643091        8.875011   1.000000   1.000000
      5          8.381964        9.911196   1.000000   1.000000
      6          8.426876       10.082847   1.000000   1.000000
      7          8.665690       10.188326   1.000000   1.000000
      8          9.620467       11.391153   1.000000   0.000000
      9          9.708420       11.392805   1.000000   0.000000
     10          9.798177       11.596253   1.000000   0.000000
     11         10.435060       12.332735   1.000000   0.000000
     12         16.822923       17.542425   0.000000   0.000000
     13         18.387820       19.103399   0.000000   0.000000
     14         22.190192       22.765748   0.000000   0.000000
     15         28.545315       28.801948   0.000000   0.000000
     16         29.727868       29.955551   0.000000   0.000000
 
  0.4000000E+00  0.2775558E-16  0.0000000E+00  0.7500000E-02
      1          5.685021        6.225355   1.000000   1.000000
      2          6.195532        7.423328   1.000000   1.000000
      3          6.470652        7.652661   1.000000   1.000000
      4          8.036664        8.912099   1.000000   1.000000
      5          8.232952        9.862794   1.000000   1.000000
      6          8.480026        9.963135   1.000000   1.000000
      7          8.648039       10.191155   1.000000   1.000000
      8         10.166729       12.016285   1.000000   0.000000
      9         10.311732       12.171554   1.000000   0.000000
     10         10.470868       12.373090   1.000000   0.000000
     11         10.955093       12.495952   0.372958   0.000000
     12         16.850606       17.587010   0.000000   0.000000
     13         19.330782       19.916905   0.000000   0.000000
     14         20.959899       21.519823   0.000000   0.000000
     15         26.291656       26.692739   0.000000   0.000000
     16         26.956200       27.146386   0.000000   0.000000
 
  0.5000000E+00  0.8326673E-16  0.0000000E+00  0.3750000E-02
      1          5.989077        6.923598   1.000000   1.000000
      2          6.053237        7.179919   1.000000   1.000000
      3          6.307226        7.503783   1.000000   1.000000
      4          8.162355        9.060590   1.000000   1.000000
      5          8.393707        9.782848   1.000000   1.000000
      6          8.410807        9.878218   1.000000   1.000000
      7          8.766998       10.327497   1.000000   1.000000
      8         10.373586       12.251543   1.000000   0.000000
      9         10.481316       12.384734   1.000000   0.000000
     10         10.534924       12.429150   1.000000   0.000000
     11         12.445711       13.698747   0.000000   0.000000
     12         14.582679       15.566619   0.000000   0.000000
     13         21.103478       21.541560   0.000000   0.000000
     14         21.817083       22.225399   0.000000   0.000000
     15         24.215838       24.780496   0.000000   0.000000
     16         25.639512       26.219032   0.000000   0.000000
 
  0.1000000E+00  0.1000000E+00  0.0000000E+00  0.7500000E-02
      1          2.844341        2.868805   1.000000   1.000000
      2          6.195250        7.227783   1.000000   1.000000
      3          7.715352        9.139669   1.000000   1.000000
      4          8.073120        9.215517   1.000000   1.000000
      5          8.449220       10.062094   1.000000   1.000000
      6          8.646797       10.320968   1.000000   1.000000
      7          8.766047       10.444888   1.000000   1.000000
      8          8.856637       10.533502   1.000000   1.000000
      9          9.078174       10.687794   1.000000   1.000000
     10          9.169609       10.892613   1.000000   0.925515
     11         10.328173       12.209506   1.000000   0.000000
     12         13.893919       14.755509   0.000000   0.000000
     13         18.008430       18.936870   0.000000   0.000000
     14         28.527485       28.816002   0.000000   0.000000
     15         29.288972       29.664461   0.000000   0.000000
     16         35.445881       35.374063   0.000000   0.000000
 
  0.2000000E+00  0.1000000E+00  0.0000000E+00  0.1500000E-01
      1          4.100463        4.168454   1.000000   1.000000
      2          6.581328        7.738993   1.000000   1.000000
      3          7.259265        8.379389   1.000000   1.000000
      4          7.414183        8.781722   1.000000   1.000000
      5          8.353747        9.902744   1.000000   1.000000
      6          8.359513        9.973772   1.000000   1.000000
      7          8.875936       10.471582   1.000000   1.000000
      8          9.132437       10.843488   1.000000   0.997692
      9          9.469752       11.207728   1.000000   0.000000
     10          9.810518       11.556146   1.000000   0.000000
     11         10.375696       12.264134   1.000000   0.000000
     12         15.986364       16.753963   0.000000   0.000000
     13         18.369010       19.157900   0.000000   0.000000
     14         24.271160       24.742343   0.000000   0.000000
     15         26.936087       27.302677   0.000000   0.000000
     16         31.750402       31.858455   0.000000   0.000000
 
  0.3000000E+00  0.1000000E+00  0.0000000E+00  0.1500000E-01
      1          5.455938        5.746912   1.000000   1.000000
      2          6.454128        7.705370   1.000000   1.000000
      3          6.677248        7.851751   1.000000   1.000000
      4          7.565434        8.684440   1.000000   1.000000
      5          8.172929        9.749110   1.000000   1.000000
      6          8.531352       10.063920   1.000000   1.000000
      7          8.611786       10.158221   1.000000   1.000000
      8          9.716069       11.470749   1.000000   0.000000
      9         10.073243       11.888341   1.000000   0.000000
     10         10.408317       12.301197   1.000000   0.000000
     11         10.729266       12.408855   1.000000   0.000000
     12         18.333889       18.971050   0.000000   0.000000
     13         18.390795       19.048297   0.000000   0.000000
     14         21.037113       21.646172   0.000000   0.000000
     15         25.303577       25.641854   0.000000   0.000000
     16         28.118811       28.417146   0.000000   0.000000
 
  0.4000000E+00  0.1000000E+00  0.0000000E+00  0.1500000E-01
      1          6.090023        6.901267   1.000000   1.000000
      2          6.241862        7.423387   1.000000   1.000000
      3          6.382117        7.588798   1.000000   1.000000
      4          8.035475        8.827236   1.000000   1.000000
      5          8.110654        9.693519   1.000000   1.000000
      6          8.406092        9.891478   1.000000   1.000000
      7          8.759956       10.325191   1.000000   1.000000
      8         10.263633       12.104237   1.000000   0.000000
      9         10.392431       12.257350   1.000000   0.000000
     10         10.422217       12.316684   1.000000   0.000000
     11         12.242885       13.571404   0.000000   0.000000
     12         15.664312       16.535085   0.000000   0.000000
     13         20.833639       21.344544   0.000000   0.000000
     14         21.686872       22.145081   0.000000   0.000000
     15         24.244427       24.571073   0.000000   0.000000
     16         25.064696       25.550073   0.000000   0.000000
 
  0.2000000E+00  0.2000000E+00  0.0000000E+00  0.7500000E-02
      1          5.392609        5.577557   1.000000   1.000000
      2          6.809712        7.981553   1.000000   1.000000
      3          6.868684        8.079595   1.000000   1.000000
      4          7.045960        8.332252   1.000000   1.000000
      5          8.071154        9.628056   1.000000   1.000000
      6          8.490062       10.021074   1.000000   1.000000
      7          8.709138       10.275123   1.000000   1.000000
      8          9.348045       11.092779   1.000000   0.000012
      9         10.078185       11.884020   1.000000   0.000000
     10         10.348097       12.232361   1.000000   0.000000
     11         10.764942       12.445944   1.000000   0.000000
     12         18.078629       18.767843   0.000000   0.000000
     13         18.977500       19.614339   0.000000   0.000000
     14         22.310202       22.818644   0.000000   0.000000
     15         23.001852       23.472151   0.000000   0.000000
     16         30.092126       30.177915   0.000000   0.000000
 
  0.3000000E+00  0.2000000E+00  0.0000000E+00  0.1500000E-01
      1          6.374768        6.953346   1.000000   1.000000
      2          6.522353        7.748498   1.000000   1.000000
      3          6.655959        7.876881   1.000000   1.000000
      4          7.308480        8.356711   1.000000   1.000000
      5          7.974693        9.496065   1.000000   1.000000
      6          8.435646        9.947837   1.000000   1.000000
      7          8.755849       10.321004   1.000000   1.000000
      8          9.761535       11.546196   1.000000   0.000000
      9         10.323607       12.204333   1.000000   0.000000
     10         10.395864       12.254207   1.000000   0.000000
     11         12.207197       13.622810   0.000000   0.000000
     12         17.893757       18.553590   0.000000   0.000000
     13         20.525721       21.114002   0.000000   0.000000
     14         20.672554       21.198579   0.000000   0.000000
     15         22.113368       22.566261   0.000000   0.000000
     16         27.025922       27.383306   0.000000   0.000000
 
  0.4000000E+00  0.2000000E+00  0.0000000E+00  0.7500000E-02
      1          6.425271        7.504753   1.000000   1.000000
      2          6.532615        7.674519   1.000000   1.000000
      3          6.573425        7.716362   1.000000   1.000000
      4          7.625641        8.491347   1.000000   1.000000
      5          8.008809        9.543177   1.000000   1.000000
      6          8.259679        9.721417   1.000000   1.000000
      7          8.888881       10.480808   1.000000   1.000000
      8         10.128324       11.951970   1.000000   0.000000
      9         10.314277       12.193544   1.000000   0.000000
     10         10.339967       12.198731   1.000000   0.000000
     11         13.920182       14.927389   0.000000   0.000000
     12         15.421929       16.383876   0.000000   0.000000
     13         20.654058       21.124625   0.000000   0.000000
     14         22.488864       22.954647   0.000000   0.000000
     15         22.816233       23.215951   0.000000   0.000000
     16         24.749417       25.264718   0.000000   0.000000
 
  0.3000000E+00  0.3000000E+00  0.0000000E+00  0.7500000E-02
      1          6.474714        7.751030   1.000000   1.000000
      2          6.779815        7.769693   1.000000   1.000000
      3          6.941669        8.074665   1.000000   1.000000
      4          7.180379        8.121087   1.000000   1.000000
      5          7.967086        9.448266   1.000000   1.000000
      6          8.177131        9.650765   1.000000   1.000000
      7          8.986181       10.584208   1.000000   1.000000
      8          9.955625       11.770323   1.000000   0.000000
      9         10.260418       12.132623   1.000000   0.000000
     10         10.294299       12.146100   1.000000   0.000000
     11         14.364848       15.382917   0.000000   0.000000
     12         17.436871       18.150313   0.000000   0.000000
     13         17.486573       18.152693   0.000000   0.000000
     14         23.047899       23.554123   0.000000   0.000000
     15         23.310258       23.722118   0.000000   0.000000
     16         25.980707       26.425613   0.000000   0.000000
 
  0.0000000E+00  0.0000000E+00  0.1250000E+00  0.2500000E-02
      1          1.947770        1.963752   1.000000   1.000000
      2          5.588520        6.456193   1.000000   1.000000
      3          8.259098        9.870383   1.000000   1.000000
      4          8.280825        9.907105   1.000000   1.000000
      5          8.280827        9.907106   1.000000   1.000000
      6          8.617852       10.295143   1.000000   1.000000
      7          8.617853       10.295143   1.000000   1.000000
      8          9.154177       10.438898   1.000000   1.000000
      9          9.154178       10.911438   1.000000   0.818777
     10         10.228055       10.911439   1.000000   0.818768
     11         10.228055       12.095413   1.000000   0.000000
     12         10.276792       12.095414   1.000000   0.000000
     13         18.739335       19.640392   0.000000   0.000000
     14         33.342614       33.066190   0.000000   0.000000
     15         35.803158       35.803528   0.000000   0.000000
     16         36.343118       36.187953   0.000000   0.000000
 
  0.1000000E+00  0.2081668E-16  0.1250000E+00  0.1500000E-01
      1          2.306817        2.324948   1.000000   1.000000
      2          5.817556        6.714023   1.000000   1.000000
      3          8.016560        9.585104   1.000000   1.000000
      4          8.412884        9.638221   1.000000   1.000000
      5          8.434220       10.053586   1.000000   1.000000
      6          8.435525       10.077918   1.000000   1.000000
      7          8.763961       10.313926   1.000000   1.000000
      8          8.916296       10.453264   1.000000   1.000000
      9          9.078323       10.821987   1.000000   0.999710
     10          9.235474       10.855502   1.000000   0.993664
     11         10.267131       12.141326   1.000000   0.000000
     12         11.831459       13.030921   0.000000   0.000000
     13         18.869347       19.732988   0.000000   0.000000
     14         31.107093       31.252699   0.000000   0.000000
     15         33.829349       33.873748   0.000000   0.000000
     16         33.927947       34.267148   0.000000   0.000000
 
  0.2000000E+00  0.4163336E-16  0.1250000E+00  0.1500000E-01
      1          3.315895        3.353416   1.000000   1.000000
      2          6.321233        7.322165   1.000000   1.000000
      3          7.626996        8.716192   1.000000   1.000000
      4          7.712372        9.157922   1.000000   1.000000
      5          8.296140        9.899337   1.000000   1.000000
      6          8.649573       10.310049   1.000000   1.000000
      7          8.774178       10.329812   1.000000   1.000000
      8          9.065695       10.770942   1.000000   0.999999
      9          9.208417       10.909342   1.000000   0.833978
     10          9.219474       10.963318   1.000000   0.288873
     11         10.339546       12.225016   1.000000   0.000000
     12         13.578443       14.610779   0.000000   0.000000
     13         19.322958       20.076682   0.000000   0.000000
     14         26.507454       26.908134   0.000000   0.000000
     15         31.087422       31.401849   0.000000   0.000000
     16         32.033679       32.192360   0.000000   0.000000
 
  0.3000000E+00 -0.2775558E-16  0.1250000E+00  0.1500000E-01
      1          4.681051        4.839247   1.000000   1.000000
      2          6.463318        7.637993   1.000000   1.000000
      3          6.932629        8.059904   1.000000   1.000000
      4          7.623690        8.904713   1.000000   1.000000
      5          8.281461        9.788740   1.000000   1.000000
      6          8.473962       10.133214   1.000000   1.000000
      7          8.810018       10.266589   1.000000   1.000000
      8          9.641950       11.413183   1.000000   0.000000
      9          9.703350       11.418007   1.000000   0.000000
     10          9.749767       11.545744   1.000000   0.000000
     11         10.397864       12.290624   1.000000   0.000000
     12         15.339590       16.208147   0.000000   0.000000
     13         20.073943       20.684788   0.000000   0.000000
     14         22.374216       22.936923   0.000000   0.000000
     15         28.498211       28.833933   0.000000   0.000000
     16         28.772988       29.037635   0.000000   0.000000
 
  0.4000000E+00  0.2775558E-16  0.1250000E+00  0.1500000E-01
      1          5.625498        6.238905   1.000000   1.000000
      2          6.188565        7.383987   1.000000   1.000000
      3          6.666491        7.787046   1.000000   1.000000
      4          7.626981        8.753913   1.000000   1.000000
      5          8.299840        9.935471   1.000000   1.000000
      6          8.636581       10.122659   1.000000   1.000000
      7          9.015212       10.286767   1.000000   1.000000
      8         10.169133       12.022308   1.000000   0.000000
      9         10.230978       12.078869   1.000000   0.000000
     10         10.452573       12.347758   1.000000   0.000000
     11         10.864834       12.412744   0.987089   0.000000
     12         16.129289       16.825335   0.000000   0.000000
     13         19.122317       19.877409   0.000000   0.000000
     14         21.915357       22.356746   0.000000   0.000000
     15         25.390714       25.897801   0.000000   0.000000
     16         27.206300       27.409789   0.000000   0.000000
 
  0.5000000E+00  0.8326673E-16  0.1250000E+00  0.7500000E-02
      1          5.815159        6.773150   1.000000   1.000000
      2          6.024030        7.198406   1.000000   1.000000
      3          6.654448        7.788518   1.000000   1.000000
      4          7.659025        8.684780   1.000000   1.000000
      5          8.234757        9.861727   1.000000   1.000000
      6          8.767208       10.296178   1.000000   1.000000
      7          9.258786       10.407684   1.000000   1.000000
      8         10.316888       12.193164   1.000000   0.000000
      9         10.435850       12.323292   1.000000   0.000000
     10         10.530357       12.424096   1.000000   0.000000
     11         12.317020       13.510306   0.000000   0.000000
     12         14.476772       15.426642   0.000000   0.000000
     13         20.541560       21.080877   0.000000   0.000000
     14         20.931413       21.495991   0.000000   0.000000
     15         25.404170       25.832654   0.000000   0.000000
     16         26.528457       26.814920   0.000000   0.000000
 
  0.1000000E+00  0.1000000E+00  0.1250000E+00  0.1500000E-01
      1          2.994436        3.021845   1.000000   1.000000
      2          6.205505        7.163266   1.000000   1.000000
      3          7.736191        8.954148   1.000000   1.000000
      4          7.882970        9.240447   1.000000   1.000000
      5          8.435108       10.066963   1.000000   1.000000
      6          8.521253       10.112634   1.000000   1.000000
      7          8.748547       10.379492   1.000000   1.000000
      8          8.925930       10.620376   1.000000   1.000000
      9          9.191675       10.871454   1.000000   0.979406
     10          9.198394       10.927288   1.000000   0.678109
     11         10.307407       12.186357   1.000000   0.000000
     12         13.108212       14.180795   0.000000   0.000000
     13         19.167708       19.957788   0.000000   0.000000
     14         28.646903       28.927615   0.000000   0.000000
     15         29.440418       29.813452   0.000000   0.000000
     16         34.340839       34.359236   0.000000   0.000000
 
  0.2000000E+00  0.1000000E+00  0.1250000E+00  0.3000000E-01
      1          4.219429        4.299219   1.000000   1.000000
      2          6.630478        7.732786   1.000000   1.000000
      3          7.157805        8.270043   1.000000   1.000000
      4          7.456504        8.823108   1.000000   1.000000
      5          8.222683        9.795718   1.000000   1.000000
      6          8.474785       10.043815   1.000000   1.000000
      7          8.787521       10.389159   1.000000   1.000000
      8          9.185027       10.901413   1.000000   0.883815
      9          9.554868       11.295345   1.000000   0.000000
     10          9.758568       11.513541   1.000000   0.000000
     11         10.363969       12.242367   1.000000   0.000000
     12         14.766037       15.707173   0.000000   0.000000
     13         19.875802       20.535747   0.000000   0.000000
     14         24.421191       24.889474   0.000000   0.000000
     15         27.097609       27.466784   0.000000   0.000000
     16         30.678190       30.889942   0.000000   0.000000
 
  0.3000000E+00  0.1000000E+00  0.1250000E+00  0.3000000E-01
      1          5.477655        5.819278   1.000000   1.000000
      2          6.489874        7.681350   1.000000   1.000000
      3          6.718206        7.878865   1.000000   1.000000
      4          7.494968        8.707158   1.000000   1.000000
      5          8.210259        9.728408   1.000000   1.000000
      6          8.551417       10.118661   1.000000   1.000000
      7          8.709209       10.167323   1.000000   1.000000
      8          9.700110       11.461387   1.000000   0.000000
      9         10.120764       11.938177   1.000000   0.000000
     10         10.262494       12.098048   1.000000   0.000000
     11         10.771476       12.497367   0.999999   0.000000
     12         16.375683       17.115873   0.000000   0.000000
     13         19.954727       20.616445   0.000000   0.000000
     14         21.737362       22.253562   0.000000   0.000000
     15         25.449038       25.807089   0.000000   0.000000
     16         27.068295       27.451818   0.000000   0.000000
 
  0.4000000E+00  0.1000000E+00  0.1250000E+00  0.3000000E-01
      1          5.928664        6.821449   1.000000   1.000000
      2          6.224847        7.410121   1.000000   1.000000
      3          6.709679        7.822166   1.000000   1.000000
      4          7.577374        8.623665   1.000000   1.000000
      5          8.146075        9.725185   1.000000   1.000000
      6          8.786262       10.141633   1.000000   1.000000
      7          8.885649       10.351613   1.000000   1.000000
      8         10.221445       12.064777   1.000000   0.000000
      9         10.330523       12.195450   1.000000   0.000000
     10         10.423553       12.293846   1.000000   0.000000
     11         12.221650       13.517981   0.000000   0.000000
     12         15.493394       16.318021   0.000000   0.000000
     13         19.863871       20.520538   0.000000   0.000000
     14         22.011393       22.460681   0.000000   0.000000
     15         24.380210       24.752904   0.000000   0.000000
     16         25.357723       25.791600   0.000000   0.000000
 
  0.2000000E+00  0.2000000E+00  0.1250000E+00  0.1500000E-01
      1          5.454764        5.671042   1.000000   1.000000
      2          6.718866        7.892603   1.000000   1.000000
      3          6.994686        8.159846   1.000000   1.000000
      4          7.076737        8.374811   1.000000   1.000000
      5          8.116515        9.630287   1.000000   1.000000
      6          8.472664       10.011512   1.000000   1.000000
      7          8.636150       10.199788   1.000000   1.000000
      8          9.379595       11.123936   1.000000   0.000000
      9         10.141274       11.954805   1.000000   0.000000
     10         10.190875       12.030245   1.000000   0.000000
     11         10.843848       12.556123   0.997617   0.000000
     12         16.352011       17.142553   0.000000   0.000000
     13         20.885708       21.451561   0.000000   0.000000
     14         22.467032       22.976355   0.000000   0.000000
     15         23.208525       23.674770   0.000000   0.000000
     16         29.023910       29.236696   0.000000   0.000000
 
  0.3000000E+00  0.2000000E+00  0.1250000E+00  0.3000000E-01
      1          6.266333        6.968693   1.000000   1.000000
      2          6.648882        7.742461   1.000000   1.000000
      3          6.716160        7.936692   1.000000   1.000000
      4          7.271585        8.415848   1.000000   1.000000
      5          8.057601        9.527556   1.000000   1.000000
      6          8.405830        9.873558   1.000000   1.000000
      7          8.773553       10.337255   1.000000   1.000000
      8          9.769651       11.555646   1.000000   0.000000
      9         10.190277       12.047327   1.000000   0.000000
     10         10.438954       12.305335   1.000000   0.000000
     11         12.274699       13.679020   0.000000   0.000000
     12         17.388722       18.023265   0.000000   0.000000
     13         19.631916       20.314367   0.000000   0.000000
     14         21.493981       22.003430   0.000000   0.000000
     15         22.949865       23.371379   0.000000   0.000000
     16         26.102296       26.540428   0.000000   0.000000
 
  0.4000000E+00  0.2000000E+00  0.1250000E+00  0.1500000E-01
      1          6.266984        7.350508   1.000000   1.000000
      2          6.584327        7.760823   1.000000   1.000000
      3          6.842277        7.954061   1.000000   1.000000
      4          7.414391        8.393864   1.000000   1.000000
      5          7.980730        9.500368   1.000000   1.000000
      6          8.418539        9.781784   1.000000   1.000000
      7          8.921832       10.510452   1.000000   1.000000
      8         10.132425       11.957595   1.000000   0.000000
      9         10.167886       12.022111   1.000000   0.000000
     10         10.376313       12.240770   1.000000   0.000000
     11         14.016258       14.997139   0.000000   0.000000
     12         15.413778       16.352161   0.000000   0.000000
     13         20.584393       21.091523   0.000000   0.000000
     14         21.747974       22.274786   0.000000   0.000000
     15         22.047585       22.550513   0.000000   0.000000
     16         26.002689       26.427669   0.000000   0.000000
 
  0.3000000E+00  0.3000000E+00  0.1250000E+00  0.1500000E-01
      1          6.504362        7.758373   1.000000   1.000000
      2          6.801834        7.804064   1.000000   1.000000
      3          6.997110        8.134174   1.000000   1.000000
      4          7.147321        8.161196   1.000000   1.000000
      5          8.018373        9.451126   1.000000   1.000000
      6          8.120129        9.566565   1.000000   1.000000