       N       E                     dE             d eps       ncg     rms          rms(c)
DAV:   1    -0.113676329660E+01   -0.11368E+01   -0.85383E+03 10668   0.775E+02
DAV:   2    -0.148562139538E+02   -0.13719E+02   -0.13628E+02 17416   0.570E+01
DAV:   3    -0.148839856617E+02   -0.27772E-01   -0.27764E-01 12852   0.271E+00
DAV:   4    -0.148839992083E+02   -0.13547E-04   -0.13547E-04 16912   0.304E-02
DAV:   5    -0.148839992105E+02   -0.21957E-08   -0.79382E-09 12600   0.147E-04    0.197E+01
DAV:   6    -0.138952338756E+02    0.98877E+00   -0.20883E+01 15176   0.337E+01    0.508E+00
DAV:   7    -0.137248007332E+02    0.17043E+00   -0.15866E+00 12292   0.886E+00    0.381E+00
DAV:   8    -0.136871336280E+02    0.37667E-01   -0.48794E-02 16380   0.125E+00    0.194E+00
DAV:   9    -0.136768746086E+02    0.10259E-01   -0.87916E-03 16604   0.436E-01    0.400E-01
DAV:  10    -0.136762313686E+02    0.64324E-03   -0.98977E-04 15904   0.182E-01    0.395E-02
DAV:  11    -0.136762311890E+02    0.17963E-06   -0.24566E-05 14924   0.299E-02    0.215E-02
DAV:  12    -0.136762301983E+02    0.99069E-06   -0.44203E-06 16408   0.124E-02
   1 F= -.13676230E+02 E0= -.13675318E+02  d E =-.136762E+02  mag=     2.9207
