 vasp.6.3.2 27Jun22 (build Aug 12 2022 00:53:59) complex                        
  
 executed on               tv2STD date 2024.12.02  17:30:51
 running   24 mpi-ranks, with    1 threads/rank
 distrk:  each k-point on   24 cores,    1 groups
 distr:  one band on NCORE=   1 cores,   24 groups


--------------------------------------------------------------------------------------------------------


 INCAR:
   SYSTEM = Co-hcc
   NWRITE = 2    write-flag
   ISTART = 0    job   : 0-new, 1-cont, 2-samecut
   ICHARG = 2    charge: 0-wave, 1-file, 2-atom, >10-const
   INIWAV = 1    electr: 0-lowe 1-rand  2-diag
   ENCUT = 425.0     energy cutoff in eV
   PREC = Accurate      normal | accurate
   ADDGRID = .FALSE.  (use fine grid)
   NELM = 100     number of ELM steps
   EDIFF = 1E-06    energy stopping-criterion for ELM
   LREAL = .FALSE.      real-space projection (.FALSE., .TRUE., On, Auto)
   ALGO = Normal     Normal, Fast, Very_Fast
   LWAVE = .FALSE.
   LCHARG = .FALSE.
   NSW = 100       max number of geometry steps
   IBRION = 2     ionic relax: 0-MD, 1-quasi-Newton, 2-CG, 3-Damped MD
   EDIFFG = -0.02  force (eV/A) stopping-criterion for geometry steps
   ISIF = 2     (1:force\=y stress\=trace only ions\=y shape\=n volume\=n)
   ISYM = 1     (1-use symmetry, 0-no symmetry)
   ISMEAR = 0     (-1-Fermi, 1-Methfessel/Paxton)
   SIGMA = 0.05   broadening in eV
   LORBIT = 11
   ISPIN = 2
   MAGMOM = 2*3

 POTCAR:    PAW_PBE Co 02Aug2007                  
 POTCAR:    PAW_PBE Co 02Aug2007                  
   SHA256 =  0e690c60710354995174544f52f9f2c30879afabeffe3b3fbd4001cb294e56d4 Co/POTCAR             
   COPYR  = (c) Copyright 02Aug2007 Georg Kresse                                                    
   COPYR  = This file is part of the software VASP. Any use, copying, and all other rights are regul
   COPYR  = If you do not have a valid VASP license, you may not use, copy or distribute this file. 
   VRHFIN =Co: d8 s1                                                                                
   LEXCH  = PE                                                                                      
   EATOM  =   813.3670 eV,   59.7808 Ry                                                             
                                                                                                    
   TITEL  = PAW_PBE Co 02Aug2007                                                                    
   LULTRA =        F    use ultrasoft PP ?                                                          
   IUNSCR =        1    unscreen: 0-lin 1-nonlin 2-no                                               
   RPACOR =    2.000    partial core radius                                                         
   POMASS =   58.933; ZVAL   =    9.000    mass and valenz                                          
   RCORE  =    2.300    outmost cutoff radius                                                       
   RWIGS  =    2.460; RWIGS  =    1.302    wigner-seitz radius (au A)                               
   ENMAX  =  267.968; ENMIN  =  200.976 eV                                                          
   RCLOC  =    1.203    cutoff for local pot                                                        
   LCOR   =        T    correct aug charges                                                         
   LPAW   =        T    paw PP                                                                      
   EAUG   =  477.818                                                                                
   DEXC   =    0.000                                                                                
   RMAX   =    2.360    core radius for proj-oper                                                   
   RAUG   =    1.300    factor for augmentation sphere                                              
   RDEP   =    2.393    radius for radial grids                                                     
   RDEPT  =    1.864    core radius for aug-charge                                                  
                                                                                                    
   Atomic configuration                                                                             
    9 entries                                                                                       
     n  l   j            E        occ.                                                              
     1  0  0.50     -7587.6674   2.0000                                                             
     2  0  0.50      -893.6084   2.0000                                                             
     2  1  1.50      -764.5805   6.0000                                                             
     3  0  0.50       -97.5973   2.0000                                                             
     3  1  1.50       -60.9648   6.0000                                                             
     3  2  2.50        -4.2382   8.0000                                                             
     4  0  0.50        -4.3746   1.0000                                                             
     4  1  1.50        -4.0817   0.0000                                                             
     4  3  2.50        -1.3606   0.0000                                                             
   Description                                                                                      
     l       E           TYP  RCUT    TYP  RCUT                                                     
     2     -4.2382362     23  2.300                                                                 
     2     -5.5988188     23  2.300                                                                 
     0     -4.3745797     23  2.300                                                                 
     0      5.7660125     23  2.300                                                                 
     1     -2.7211652     23  2.300                                                                 
     1     16.9860234     23  2.300                                                                 
  local pseudopotential read in
  partial core-charges read in
  partial kinetic energy density read in
  atomic valenz-charges read in
  non local Contribution for L=           2  read in
    real space projection operators read in
  non local Contribution for L=           2  read in
    real space projection operators read in
  non local Contribution for L=           0  read in
    real space projection operators read in
  non local Contribution for L=           0  read in
    real space projection operators read in
  non local Contribution for L=           1  read in
    real space projection operators read in
  non local Contribution for L=           1  read in
    real space projection operators read in
    PAW grid and wavefunctions read in
 
   number of l-projection  operators is LMAX  =           6
   number of lm-projection operators is LMMAX =          18
 
  PAW_PBE Co 02Aug2007                  :
 energy of atom  1       EATOM= -813.3670
 kinetic energy error for atom=    0.0054 (will be added to EATOM!!)
 
 
 POSCAR: Co
  positions in cartesian coordinates
  No initial velocities read in
 exchange correlation table for  LEXCH =        8
   RHO(1)=    0.500       N(1)  =     2000
   RHO(2)=  100.500       N(2)  =     4000
 


--------------------------------------------------------------------------------------------------------


 ion  position               nearest neighbor table
   1  0.333  0.667  0.250-   2 2.43   2 2.43   2 2.43   2 2.43   2 2.43   2 2.43
   2  0.667  0.333  0.750-   1 2.43   1 2.43   1 2.43   1 2.43   1 2.43   1 2.43
 
  LATTYP: Found a hexagonal cell.
 ALAT       =     2.4500254883
 C/A-ratio  =     1.6130472937
  
  Lattice vectors:
  
 A1 = (   1.2250127441,  -2.1217843128,   0.0000000000)
 A2 = (   1.2250127441,   2.1217843128,   0.0000000000)
 A3 = (   0.0000000000,   0.0000000000,   3.9520069834)


Analysis of symmetry for initial positions (statically):
=====================================================================
 Subroutine PRICEL returns:
 Original cell was already a primitive cell.
 

 Routine SETGRP: Setting up the symmetry group for a 
 hexagonal supercell.


 Subroutine GETGRP returns: Found 24 space group operations
 (whereof 12 operations were pure point group operations)
 out of a pool of 24 trial point group operations.


The static configuration has the point symmetry D_3d.
 The point group associated with its full space group is D_6h.


Analysis of symmetry for dynamics (positions and initial velocities):
=====================================================================
 Subroutine PRICEL returns:
 Original cell was already a primitive cell.
 

 Routine SETGRP: Setting up the symmetry group for a 
 hexagonal supercell.


 Subroutine GETGRP returns: Found 24 space group operations
 (whereof 12 operations were pure point group operations)
 out of a pool of 24 trial point group operations.


The dynamic configuration has the point symmetry D_3d.
 The point group associated with its full space group is D_6h.


Analysis of structural, dynamic, and magnetic symmetry:
=====================================================================
 Subroutine PRICEL returns:
 Original cell was already a primitive cell.
 

 Routine SETGRP: Setting up the symmetry group for a 
 hexagonal supercell.


 Subroutine GETGRP returns: Found 24 space group operations
 (whereof 12 operations were pure point group operations)
 out of a pool of 24 trial point group operations.


The overall configuration has the point symmetry D_3d.
 The point group associated with its full space group is D_6h.


 Subroutine INISYM returns: Found 24 space group operations
 (whereof 12 operations are pure point group operations),
 and found     1 'primitive' translations


----------------------------------------------------------------------------------------

                                     Primitive cell                                     

  volume of cell :      20.5442

  direct lattice vectors                    reciprocal lattice vectors
     1.225012744 -2.121784313  0.000000000     0.408159019 -0.235650720  0.000000000
     1.225012744  2.121784313  0.000000000     0.408159019  0.235650720  0.000000000
     0.000000000  0.000000000  3.952006983     0.000000000  0.000000000  0.253035990

  length of vectors
     2.450025488  2.450025488  3.952006983     0.471301439  0.471301439  0.253035990

  position of ions in fractional coordinates (direct lattice)
     0.333333333  0.666666667  0.250000000
     0.666666667  0.333333333  0.750000000

  ion indices of the primitive-cell ions
   primitive index   ion index
                 1           1
                 2           2

----------------------------------------------------------------------------------------

 
 
 KPOINTS: Automatic mesh                          

Automatic generation of k-mesh.
 Grid dimensions read from file:
 generate k-points for:   12   12    8

 Generating k-lattice:

  Cartesian coordinates                     Fractional coordinates (reciprocal lattice)
     0.034013252 -0.019637560  0.000000000     0.083333333  0.000000000  0.000000000
     0.034013252  0.019637560  0.000000000     0.000000000  0.083333333  0.000000000
     0.000000000  0.000000000  0.031629499     0.000000000  0.000000000  0.125000000

  Length of vectors
     0.039275120  0.039275120  0.031629499

  Shift w.r.t. Gamma in fractional coordinates (k-lattice)
     0.000000000  0.000000000  0.000000000

 
 Subroutine IBZKPT returns following result:
 ===========================================
 
 Found     95 irreducible k-points:
 
 Following reciprocal coordinates:
            Coordinates               Weight
  0.000000  0.000000  0.000000      1.000000
  0.083333  0.000000  0.000000      6.000000
  0.166667 -0.000000  0.000000      6.000000
  0.250000  0.000000  0.000000      6.000000
  0.333333  0.000000  0.000000      6.000000
  0.416667  0.000000  0.000000      6.000000
  0.500000  0.000000  0.000000      3.000000
  0.083333  0.083333  0.000000      6.000000
  0.166667  0.083333  0.000000     12.000000
  0.250000  0.083333  0.000000     12.000000
  0.333333  0.083333  0.000000     12.000000
  0.416667  0.083333  0.000000     12.000000
  0.166667  0.166667  0.000000      6.000000
  0.250000  0.166667  0.000000     12.000000
  0.333333  0.166667  0.000000     12.000000
  0.416667  0.166667  0.000000      6.000000
  0.250000  0.250000  0.000000      6.000000
  0.333333  0.250000  0.000000     12.000000
  0.333333  0.333333  0.000000      2.000000
  0.000000  0.000000  0.125000      2.000000
  0.083333  0.000000  0.125000     12.000000
  0.166667 -0.000000  0.125000     12.000000
  0.250000  0.000000  0.125000     12.000000
  0.333333  0.000000  0.125000     12.000000
  0.416667  0.000000  0.125000     12.000000
  0.500000  0.000000  0.125000      6.000000
  0.083333  0.083333  0.125000     12.000000
  0.166667  0.083333  0.125000     24.000000
  0.250000  0.083333  0.125000     24.000000
  0.333333  0.083333  0.125000     24.000000
  0.416667  0.083333  0.125000     24.000000
  0.166667  0.166667  0.125000     12.000000
  0.250000  0.166667  0.125000     24.000000
  0.333333  0.166667  0.125000     24.000000
  0.416667  0.166667  0.125000     12.000000
  0.250000  0.250000  0.125000     12.000000
  0.333333  0.250000  0.125000     24.000000
  0.333333  0.333333  0.125000      4.000000
  0.000000  0.000000  0.250000      2.000000
  0.083333  0.000000  0.250000     12.000000
  0.166667 -0.000000  0.250000     12.000000
  0.250000  0.000000  0.250000     12.000000
  0.333333  0.000000  0.250000     12.000000
  0.416667  0.000000  0.250000     12.000000
  0.500000  0.000000  0.250000      6.000000
  0.083333  0.083333  0.250000     12.000000
  0.166667  0.083333  0.250000     24.000000
  0.250000  0.083333  0.250000     24.000000
  0.333333  0.083333  0.250000     24.000000
  0.416667  0.083333  0.250000     24.000000
  0.166667  0.166667  0.250000     12.000000
  0.250000  0.166667  0.250000     24.000000
  0.333333  0.166667  0.250000     24.000000
  0.416667  0.166667  0.250000     12.000000
  0.250000  0.250000  0.250000     12.000000
  0.333333  0.250000  0.250000     24.000000
  0.333333  0.333333  0.250000      4.000000
  0.000000  0.000000  0.375000      2.000000
  0.083333  0.000000  0.375000     12.000000
  0.166667 -0.000000  0.375000     12.000000
  0.250000  0.000000  0.375000     12.000000
  0.333333  0.000000  0.375000     12.000000
  0.416667  0.000000  0.375000     12.000000
  0.500000  0.000000  0.375000      6.000000
  0.083333  0.083333  0.375000     12.000000
  0.166667  0.083333  0.375000     24.000000
  0.250000  0.083333  0.375000     24.000000
  0.333333  0.083333  0.375000     24.000000
  0.416667  0.083333  0.375000     24.000000
  0.166667  0.166667  0.375000     12.000000
  0.250000  0.166667  0.375000     24.000000
  0.333333  0.166667  0.375000     24.000000
  0.416667  0.166667  0.375000     12.000000
  0.250000  0.250000  0.375000     12.000000
  0.333333  0.250000  0.375000     24.000000
  0.333333  0.333333  0.375000      4.000000
  0.000000  0.000000  0.500000      1.000000
  0.083333  0.000000  0.500000      6.000000
  0.166667 -0.000000  0.500000      6.000000
  0.250000  0.000000  0.500000      6.000000
  0.333333  0.000000  0.500000      6.000000
  0.416667  0.000000  0.500000      6.000000
  0.500000  0.000000  0.500000      3.000000
  0.083333  0.083333  0.500000      6.000000
  0.166667  0.083333  0.500000     12.000000
  0.250000  0.083333  0.500000     12.000000
  0.333333  0.083333  0.500000     12.000000
  0.416667  0.083333  0.500000     12.000000
  0.166667  0.166667  0.500000      6.000000
  0.250000  0.166667  0.500000     12.000000
  0.333333  0.166667  0.500000     12.000000
  0.416667  0.166667  0.500000      6.000000
  0.250000  0.250000  0.500000      6.000000
  0.333333  0.250000  0.500000     12.000000
  0.333333  0.333333  0.500000      2.000000
 
 Following cartesian coordinates:
            Coordinates               Weight
  0.000000  0.000000  0.000000      1.000000
  0.034013 -0.019638  0.000000      6.000000
  0.068027 -0.039275  0.000000      6.000000
  0.102040 -0.058913  0.000000      6.000000
  0.136053 -0.078550  0.000000      6.000000
  0.170066 -0.098188  0.000000      6.000000
  0.204080 -0.117825  0.000000      3.000000
  0.068027  0.000000  0.000000      6.000000
  0.102040 -0.019638  0.000000     12.000000
  0.136053 -0.039275  0.000000     12.000000
  0.170066 -0.058913  0.000000     12.000000
  0.204080 -0.078550  0.000000     12.000000
  0.136053  0.000000  0.000000      6.000000
  0.170066 -0.019638  0.000000     12.000000
  0.204080 -0.039275  0.000000     12.000000
  0.238093 -0.058913  0.000000      6.000000
  0.204080  0.000000  0.000000      6.000000
  0.238093 -0.019638  0.000000     12.000000
  0.272106  0.000000  0.000000      2.000000
  0.000000  0.000000  0.031629      2.000000
  0.034013 -0.019638  0.031629     12.000000
  0.068027 -0.039275  0.031629     12.000000
  0.102040 -0.058913  0.031629     12.000000
  0.136053 -0.078550  0.031629     12.000000
  0.170066 -0.098188  0.031629     12.000000
  0.204080 -0.117825  0.031629      6.000000
  0.068027  0.000000  0.031629     12.000000
  0.102040 -0.019638  0.031629     24.000000
  0.136053 -0.039275  0.031629     24.000000
  0.170066 -0.058913  0.031629     24.000000
  0.204080 -0.078550  0.031629     24.000000
  0.136053  0.000000  0.031629     12.000000
  0.170066 -0.019638  0.031629     24.000000
  0.204080 -0.039275  0.031629     24.000000
  0.238093 -0.058913  0.031629     12.000000
  0.204080  0.000000  0.031629     12.000000
  0.238093 -0.019638  0.031629     24.000000
  0.272106  0.000000  0.031629      4.000000
  0.000000  0.000000  0.063259      2.000000
  0.034013 -0.019638  0.063259     12.000000
  0.068027 -0.039275  0.063259     12.000000
  0.102040 -0.058913  0.063259     12.000000
  0.136053 -0.078550  0.063259     12.000000
  0.170066 -0.098188  0.063259     12.000000
  0.204080 -0.117825  0.063259      6.000000
  0.068027  0.000000  0.063259     12.000000
  0.102040 -0.019638  0.063259     24.000000
  0.136053 -0.039275  0.063259     24.000000
  0.170066 -0.058913  0.063259     24.000000
  0.204080 -0.078550  0.063259     24.000000
  0.136053  0.000000  0.063259     12.000000
  0.170066 -0.019638  0.063259     24.000000
  0.204080 -0.039275  0.063259     24.000000
  0.238093 -0.058913  0.063259     12.000000
  0.204080  0.000000  0.063259     12.000000
  0.238093 -0.019638  0.063259     24.000000
  0.272106  0.000000  0.063259      4.000000
  0.000000  0.000000  0.094888      2.000000
  0.034013 -0.019638  0.094888     12.000000
  0.068027 -0.039275  0.094888     12.000000
  0.102040 -0.058913  0.094888     12.000000
  0.136053 -0.078550  0.094888     12.000000
  0.170066 -0.098188  0.094888     12.000000
  0.204080 -0.117825  0.094888      6.000000
  0.068027  0.000000  0.094888     12.000000
  0.102040 -0.019638  0.094888     24.000000
  0.136053 -0.039275  0.094888     24.000000
  0.170066 -0.058913  0.094888     24.000000
  0.204080 -0.078550  0.094888     24.000000
  0.136053  0.000000  0.094888     12.000000
  0.170066 -0.019638  0.094888     24.000000
  0.204080 -0.039275  0.094888     24.000000
  0.238093 -0.058913  0.094888     12.000000
  0.204080  0.000000  0.094888     12.000000
  0.238093 -0.019638  0.094888     24.000000
  0.272106  0.000000  0.094888      4.000000
  0.000000  0.000000  0.126518      1.000000
  0.034013 -0.019638  0.126518      6.000000
  0.068027 -0.039275  0.126518      6.000000
  0.102040 -0.058913  0.126518      6.000000
  0.136053 -0.078550  0.126518      6.000000
  0.170066 -0.098188  0.126518      6.000000
  0.204080 -0.117825  0.126518      3.000000
  0.068027  0.000000  0.126518      6.000000
  0.102040 -0.019638  0.126518     12.000000
  0.136053 -0.039275  0.126518     12.000000
  0.170066 -0.058913  0.126518     12.000000
  0.204080 -0.078550  0.126518     12.000000
  0.136053  0.000000  0.126518      6.000000
  0.170066 -0.019638  0.126518     12.000000
  0.204080 -0.039275  0.126518     12.000000
  0.238093 -0.058913  0.126518      6.000000
  0.204080  0.000000  0.126518      6.000000
  0.238093 -0.019638  0.126518     12.000000
  0.272106  0.000000  0.126518      2.000000
 


--------------------------------------------------------------------------------------------------------




 Dimension of arrays:
   k-points           NKPTS =     95   k-points in BZ     NKDIM =     95   number of bands    NBANDS=     24
   number of dos      NEDOS =    301   number of ions     NIONS =      2
   non local maximal  LDIM  =      6   non local SUM 2l+1 LMDIM =     18
   total plane-waves  NPLWV =   7168
   max r-space proj   IRMAX =      1   max aug-charges    IRDMAX=  13958
   dimension x,y,z NGX =    16 NGY =   16 NGZ =   28
   dimension x,y,z NGXF=    32 NGYF=   32 NGZF=   56
   support grid    NGXF=    32 NGYF=   32 NGZF=   56
   ions per type =               2
   NGX,Y,Z   is equivalent  to a cutoff of  10.86, 10.86, 11.78 a.u.
   NGXF,Y,Z  is equivalent  to a cutoff of  21.71, 21.71, 23.56 a.u.

 SYSTEM =  Co-hcc                                  
 POSCAR =  Co                                      

 Startparameter for this run:
   NWRITE =      2    write-flag & timer
   PREC   = accura    normal or accurate (medium, high low for compatibility)
   ISTART =      0    job   : 0-new  1-cont  2-samecut
   ICHARG =      2    charge: 1-file 2-atom 10-const
   ISPIN  =      2    spin polarized calculation?
   LNONCOLLINEAR =      F non collinear calculations
   LSORBIT =      F    spin-orbit coupling
   INIWAV =      1    electr: 0-lowe 1-rand  2-diag
   LASPH  =      F    aspherical Exc in radial PAW
 Electronic Relaxation 1
   ENCUT  =  425.0 eV  31.24 Ry    5.59 a.u.   4.12  4.12  6.64*2*pi/ulx,y,z
   ENINI  =  425.0     initial cutoff
   ENAUG  =  477.8 eV  augmentation charge cutoff
   NELM   =    100;   NELMIN=  2; NELMDL= -5     # of ELM steps 
   EDIFF  = 0.1E-05   stopping-criterion for ELM
   LREAL  =      F    real-space projection
   NLSPLINE    = F    spline interpolate recip. space projectors
   LCOMPAT=      F    compatible to vasp.4.4
   GGA_COMPAT  = T    GGA compatible to vasp.4.4-vasp.4.6
   LMAXPAW     = -100 max onsite density
   LMAXMIX     =    2 max onsite mixed and CHGCAR
   VOSKOWN=      0    Vosko Wilk Nusair interpolation
   ROPT   =    0.00000
 Ionic relaxation
   EDIFFG = -.2E-01   stopping-criterion for IOM
   NSW    =    100    number of steps for IOM
   NBLOCK =      1;   KBLOCK =    100    inner block; outer block 
   IBRION =      2    ionic relax: 0-MD 1-quasi-New 2-CG
   NFREE  =      1    steps in history (QN), initial steepest desc. (CG)
   ISIF   =      2    stress and relaxation
   IWAVPR =     11    prediction:  0-non 1-charg 2-wave 3-comb
   ISYM   =      1    0-nonsym 1-usesym 2-fastsym
   LCORR  =      T    Harris-Foulkes like correction to forces

   POTIM  = 0.5000    time-step for ionic-motion
   TEIN   =    0.0    initial temperature
   TEBEG  =    0.0;   TEEND  =   0.0 temperature during run
   SMASS  =  -3.00    Nose mass-parameter (am)
   estimated Nose-frequenzy (Omega)   =  0.10E-29 period in steps = 0.13E+47 mass=  -0.137E-27a.u.
   SCALEE = 1.0000    scale energy and forces
   NPACO  =    256;   APACO  = 10.0  distance and # of slots for P.C.
   PSTRESS=    0.0 pullay stress

  Mass of Ions in am
   POMASS =  58.93
  Ionic Valenz
   ZVAL   =   9.00
  Atomic Wigner-Seitz radii
   RWIGS  =  -1.00
  virtual crystal weights 
   VCA    =   1.00
   NELECT =      18.0000    total number of electrons
   NUPDOWN=      -1.0000    fix difference up-down

 DOS related values:
   EMIN   =  10.00;   EMAX   =-10.00  energy-range for DOS
   EFERMI =   0.00
   ISMEAR =     0;   SIGMA  =   0.05  broadening in eV -4-tet -1-fermi 0-gaus

 Electronic relaxation 2 (details)
   IALGO  =     38    algorithm
   LDIAG  =      T    sub-space diagonalisation (order eigenvalues)
   LSUBROT=      F    optimize rotation matrix (better conditioning)
   TURBO    =      0    0=normal 1=particle mesh
   IRESTART =      0    0=no restart 2=restart with 2 vectors
   NREBOOT  =      0    no. of reboots
   NMIN     =      0    reboot dimension
   EREF     =   0.00    reference energy to select bands
   IMIX   =      4    mixing-type and parameters
     AMIX     =   0.40;   BMIX     =  1.00
     AMIX_MAG =   1.60;   BMIX_MAG =  1.00
     AMIN     =   0.10
     WC   =   100.;   INIMIX=   1;  MIXPRE=   1;  MAXMIX= -45

 Intra band minimization:
   WEIMIN = 0.0010     energy-eigenvalue tresh-hold
   EBREAK =  0.10E-07  absolut break condition
   DEPER  =   0.30     relativ break condition  

   TIME   =   0.40     timestep for ELM

  volume/ion in A,a.u.               =      10.27        69.32
  Fermi-wavevector in a.u.,A,eV,Ry     =   1.566520  2.960293 33.388473  2.453984
  Thomas-Fermi vector in A             =   2.668835
 
 Write flags
   LWAVE        =      F    write WAVECAR
   LDOWNSAMPLE  =      F    k-point downsampling of WAVECAR
   LCHARG       =      F    write CHGCAR
   LVTOT        =      F    write LOCPOT, total local potential
   LVHAR        =      F    write LOCPOT, Hartree potential only
   LELF         =      F    write electronic localiz. function (ELF)
   LORBIT       =     11    0 simple, 1 ext, 2 COOP (PROOUT), +10 PAW based schemes


 Dipole corrections
   LMONO  =      F    monopole corrections only (constant potential shift)
   LDIPOL =      F    correct potential (dipole corrections)
   IDIPOL =      0    1-x, 2-y, 3-z, 4-all directions 
   EPSILON=  1.0000000 bulk dielectric constant

 Exchange correlation treatment:
   GGA     =    --    GGA type
   LEXCH   =     8    internal setting for exchange type
   LIBXC   =     F    Libxc                    
   VOSKOWN =     0    Vosko Wilk Nusair interpolation
   LHFCALC =     F    Hartree Fock is set to
   LHFONE  =     F    Hartree Fock one center treatment
   AEXX    =    0.0000 exact exchange contribution

 Linear response parameters
   LEPSILON=     F    determine dielectric tensor
   LRPA    =     F    only Hartree local field effects (RPA)
   LNABLA  =     F    use nabla operator in PAW spheres
   LVEL    =     F    velocity operator in full k-point grid
   CSHIFT  =0.1000    complex shift for real part using Kramers Kronig
   OMEGAMAX=  -1.0    maximum frequency
   DEG_THRESHOLD= 0.2000000E-02 threshold for treating states as degnerate
   RTIME   =   -0.100 relaxation time in fs
  (WPLASMAI=    0.000 imaginary part of plasma frequency in eV, 0.658/RTIME)
   DFIELD  = 0.0000000 0.0000000 0.0000000 field for delta impulse in time
 
  Optional k-point grid parameters
   LKPOINTS_OPT  =     F    use optional k-point grid
   KPOINTS_OPT_MODE=     1    mode for optional k-point grid
 
 Orbital magnetization related:
   ORBITALMAG=     F  switch on orbital magnetization
   LCHIMAG   =     F  perturbation theory with respect to B field
   DQ        =  0.001000  dq finite difference perturbation B field
   LLRAUG    =     F  two centre corrections for induced B field



--------------------------------------------------------------------------------------------------------


 conjugate gradient relaxation of ions
 charge density and potential will be updated during run
 spin polarized calculation
 Variant of blocked Davidson
 Davidson routine will perform the subspace rotation
 perform sub-space diagonalisation
    after iterative eigenvector-optimisation
 modified Broyden-mixing scheme, WC =      100.0
 initial mixing is a Kerker type mixing with AMIX =  0.4000 and BMIX =      1.0000
 Hartree-type preconditioning will be used
 using additional bands           15
 reciprocal scheme for non local part
 use partial core corrections
 calculate Harris-corrections to forces 
   (improved forces if not selfconsistent)
 use gradient corrections 
 use of overlap-Matrix (Vanderbilt PP)
 Gauss-broadening in eV      SIGMA  =   0.05


--------------------------------------------------------------------------------------------------------


  energy-cutoff  :      425.00
  volume of cell :       20.54
      direct lattice vectors                 reciprocal lattice vectors
     1.225012744 -2.121784313  0.000000000     0.408159019 -0.235650720  0.000000000
     1.225012744  2.121784313  0.000000000     0.408159019  0.235650720  0.000000000
     0.000000000  0.000000000  3.952006983     0.000000000  0.000000000  0.253035990

  length of vectors
     2.450025488  2.450025488  3.952006983     0.471301439  0.471301439  0.253035990


 
 k-points in units of 2pi/SCALE and weight: Automatic mesh                          
   0.00000000  0.00000000  0.00000000       0.001
   0.03401325 -0.01963756  0.00000000       0.005
   0.06802650 -0.03927512  0.00000000       0.005
   0.10203975 -0.05891268  0.00000000       0.005
   0.13605301 -0.07855024  0.00000000       0.005
   0.17006626 -0.09818780  0.00000000       0.005
   0.20407951 -0.11782536  0.00000000       0.003
   0.06802650  0.00000000  0.00000000       0.005
   0.10203975 -0.01963756  0.00000000       0.010
   0.13605301 -0.03927512  0.00000000       0.010
   0.17006626 -0.05891268  0.00000000       0.010
   0.20407951 -0.07855024  0.00000000       0.010
   0.13605301  0.00000000  0.00000000       0.005
   0.17006626 -0.01963756  0.00000000       0.010
   0.20407951 -0.03927512  0.00000000       0.010
   0.23809276 -0.05891268  0.00000000       0.005
   0.20407951  0.00000000  0.00000000       0.005
   0.23809276 -0.01963756  0.00000000       0.010
   0.27210601  0.00000000  0.00000000       0.002
   0.00000000  0.00000000  0.03162950       0.002
   0.03401325 -0.01963756  0.03162950       0.010
   0.06802650 -0.03927512  0.03162950       0.010
   0.10203975 -0.05891268  0.03162950       0.010
   0.13605301 -0.07855024  0.03162950       0.010
   0.17006626 -0.09818780  0.03162950       0.010
   0.20407951 -0.11782536  0.03162950       0.005
   0.06802650  0.00000000  0.03162950       0.010
   0.10203975 -0.01963756  0.03162950       0.021
   0.13605301 -0.03927512  0.03162950       0.021
   0.17006626 -0.05891268  0.03162950       0.021
   0.20407951 -0.07855024  0.03162950       0.021
   0.13605301  0.00000000  0.03162950       0.010
   0.17006626 -0.01963756  0.03162950       0.021
   0.20407951 -0.03927512  0.03162950       0.021
   0.23809276 -0.05891268  0.03162950       0.010
   0.20407951  0.00000000  0.03162950       0.010
   0.23809276 -0.01963756  0.03162950       0.021
   0.27210601  0.00000000  0.03162950       0.003
   0.00000000  0.00000000  0.06325900       0.002
   0.03401325 -0.01963756  0.06325900       0.010
   0.06802650 -0.03927512  0.06325900       0.010
   0.10203975 -0.05891268  0.06325900       0.010
   0.13605301 -0.07855024  0.06325900       0.010
   0.17006626 -0.09818780  0.06325900       0.010
   0.20407951 -0.11782536  0.06325900       0.005
   0.06802650  0.00000000  0.06325900       0.010
   0.10203975 -0.01963756  0.06325900       0.021
   0.13605301 -0.03927512  0.06325900       0.021
   0.17006626 -0.05891268  0.06325900       0.021
   0.20407951 -0.07855024  0.06325900       0.021
   0.13605301  0.00000000  0.06325900       0.010
   0.17006626 -0.01963756  0.06325900       0.021
   0.20407951 -0.03927512  0.06325900       0.021
   0.23809276 -0.05891268  0.06325900       0.010
   0.20407951  0.00000000  0.06325900       0.010
   0.23809276 -0.01963756  0.06325900       0.021
   0.27210601  0.00000000  0.06325900       0.003
   0.00000000  0.00000000  0.09488850       0.002
   0.03401325 -0.01963756  0.09488850       0.010
   0.06802650 -0.03927512  0.09488850       0.010
   0.10203975 -0.05891268  0.09488850       0.010
   0.13605301 -0.07855024  0.09488850       0.010
   0.17006626 -0.09818780  0.09488850       0.010
   0.20407951 -0.11782536  0.09488850       0.005
   0.06802650  0.00000000  0.09488850       0.010
   0.10203975 -0.01963756  0.09488850       0.021
   0.13605301 -0.03927512  0.09488850       0.021
   0.17006626 -0.05891268  0.09488850       0.021
   0.20407951 -0.07855024  0.09488850       0.021
   0.13605301  0.00000000  0.09488850       0.010
   0.17006626 -0.01963756  0.09488850       0.021
   0.20407951 -0.03927512  0.09488850       0.021
   0.23809276 -0.05891268  0.09488850       0.010
   0.20407951  0.00000000  0.09488850       0.010
   0.23809276 -0.01963756  0.09488850       0.021
   0.27210601  0.00000000  0.09488850       0.003
   0.00000000  0.00000000  0.12651800       0.001
   0.03401325 -0.01963756  0.12651800       0.005
   0.06802650 -0.03927512  0.12651800       0.005
   0.10203975 -0.05891268  0.12651800       0.005
   0.13605301 -0.07855024  0.12651800       0.005
   0.17006626 -0.09818780  0.12651800       0.005
   0.20407951 -0.11782536  0.12651800       0.003
   0.06802650  0.00000000  0.12651800       0.005
   0.10203975 -0.01963756  0.12651800       0.010
   0.13605301 -0.03927512  0.12651800       0.010
   0.17006626 -0.05891268  0.12651800       0.010
   0.20407951 -0.07855024  0.12651800       0.010
   0.13605301  0.00000000  0.12651800       0.005
   0.17006626 -0.01963756  0.12651800       0.010
   0.20407951 -0.03927512  0.12651800       0.010
   0.23809276 -0.05891268  0.12651800       0.005
   0.20407951  0.00000000  0.12651800       0.005
   0.23809276 -0.01963756  0.12651800       0.010
   0.27210601  0.00000000  0.12651800       0.002
 
 k-points in reciprocal lattice and weights: Automatic mesh                          
   0.00000000  0.00000000  0.00000000       0.001
   0.08333333  0.00000000  0.00000000       0.005
   0.16666667 -0.00000000  0.00000000       0.005
   0.25000000  0.00000000  0.00000000       0.005
   0.33333333  0.00000000  0.00000000       0.005
   0.41666667  0.00000000  0.00000000       0.005
   0.50000000  0.00000000  0.00000000       0.003
   0.08333333  0.08333333  0.00000000       0.005
   0.16666667  0.08333333  0.00000000       0.010
   0.25000000  0.08333333  0.00000000       0.010
   0.33333333  0.08333333  0.00000000       0.010
   0.41666667  0.08333333  0.00000000       0.010
   0.16666667  0.16666667  0.00000000       0.005
   0.25000000  0.16666667  0.00000000       0.010
   0.33333333  0.16666667  0.00000000       0.010
   0.41666667  0.16666667  0.00000000       0.005
   0.25000000  0.25000000  0.00000000       0.005
   0.33333333  0.25000000  0.00000000       0.010
   0.33333333  0.33333333  0.00000000       0.002
   0.00000000  0.00000000  0.12500000       0.002
   0.08333333  0.00000000  0.12500000       0.010
   0.16666667 -0.00000000  0.12500000       0.010
   0.25000000  0.00000000  0.12500000       0.010
   0.33333333  0.00000000  0.12500000       0.010
   0.41666667  0.00000000  0.12500000       0.010
   0.50000000  0.00000000  0.12500000       0.005
   0.08333333  0.08333333  0.12500000       0.010
   0.16666667  0.08333333  0.12500000       0.021
   0.25000000  0.08333333  0.12500000       0.021
   0.33333333  0.08333333  0.12500000       0.021
   0.41666667  0.08333333  0.12500000       0.021
   0.16666667  0.16666667  0.12500000       0.010
   0.25000000  0.16666667  0.12500000       0.021
   0.33333333  0.16666667  0.12500000       0.021
   0.41666667  0.16666667  0.12500000       0.010
   0.25000000  0.25000000  0.12500000       0.010
   0.33333333  0.25000000  0.12500000       0.021
   0.33333333  0.33333333  0.12500000       0.003
   0.00000000  0.00000000  0.25000000       0.002
   0.08333333  0.00000000  0.25000000       0.010
   0.16666667 -0.00000000  0.25000000       0.010
   0.25000000  0.00000000  0.25000000       0.010
   0.33333333  0.00000000  0.25000000       0.010
   0.41666667  0.00000000  0.25000000       0.010
   0.50000000  0.00000000  0.25000000       0.005
   0.08333333  0.08333333  0.25000000       0.010
   0.16666667  0.08333333  0.25000000       0.021
   0.25000000  0.08333333  0.25000000       0.021
   0.33333333  0.08333333  0.25000000       0.021
   0.41666667  0.08333333  0.25000000       0.021
   0.16666667  0.16666667  0.25000000       0.010
   0.25000000  0.16666667  0.25000000       0.021
   0.33333333  0.16666667  0.25000000       0.021
   0.41666667  0.16666667  0.25000000       0.010
   0.25000000  0.25000000  0.25000000       0.010
   0.33333333  0.25000000  0.25000000       0.021
   0.33333333  0.33333333  0.25000000       0.003
   0.00000000  0.00000000  0.37500000       0.002
   0.08333333  0.00000000  0.37500000       0.010
   0.16666667 -0.00000000  0.37500000       0.010
   0.25000000  0.00000000  0.37500000       0.010
   0.33333333  0.00000000  0.37500000       0.010
   0.41666667  0.00000000  0.37500000       0.010
   0.50000000  0.00000000  0.37500000       0.005
   0.08333333  0.08333333  0.37500000       0.010
   0.16666667  0.08333333  0.37500000       0.021
   0.25000000  0.08333333  0.37500000       0.021
   0.33333333  0.08333333  0.37500000       0.021
   0.41666667  0.08333333  0.37500000       0.021
   0.16666667  0.16666667  0.37500000       0.010
   0.25000000  0.16666667  0.37500000       0.021
   0.33333333  0.16666667  0.37500000       0.021
   0.41666667  0.16666667  0.37500000       0.010
   0.25000000  0.25000000  0.37500000       0.010
   0.33333333  0.25000000  0.37500000       0.021
   0.33333333  0.33333333  0.37500000       0.003
   0.00000000  0.00000000  0.50000000       0.001
   0.08333333  0.00000000  0.50000000       0.005
   0.16666667 -0.00000000  0.50000000       0.005
   0.25000000  0.00000000  0.50000000       0.005
   0.33333333  0.00000000  0.50000000       0.005
   0.41666667  0.00000000  0.50000000       0.005
   0.50000000  0.00000000  0.50000000       0.003
   0.08333333  0.08333333  0.50000000       0.005
   0.16666667  0.08333333  0.50000000       0.010
   0.25000000  0.08333333  0.50000000       0.010
   0.33333333  0.08333333  0.50000000       0.010
   0.41666667  0.08333333  0.50000000       0.010
   0.16666667  0.16666667  0.50000000       0.005
   0.25000000  0.16666667  0.50000000       0.010
   0.33333333  0.16666667  0.50000000       0.010
   0.41666667  0.16666667  0.50000000       0.005
   0.25000000  0.25000000  0.50000000       0.005
   0.33333333  0.25000000  0.50000000       0.010
   0.33333333  0.33333333  0.50000000       0.002
 
 position of ions in fractional coordinates (direct lattice) 
   0.33333333  0.66666667  0.25000000
   0.66666667  0.33333333  0.75000000
 
 position of ions in cartesian coordinates  (Angst):
   1.22501274  0.70726144  0.98800175
   1.22501274 -0.70726144  2.96400524
 


--------------------------------------------------------------------------------------------------------


 k-point   1 :   0.0000 0.0000 0.0000  plane waves:     391
 k-point   2 :   0.0833 0.0000 0.0000  plane waves:     399
 k-point   3 :   0.1667-0.0000 0.0000  plane waves:     405
 k-point   4 :   0.2500 0.0000 0.0000  plane waves:     407
 k-point   5 :   0.3333 0.0000 0.0000  plane waves:     415
 k-point   6 :   0.4167 0.0000 0.0000  plane waves:     419
 k-point   7 :   0.5000 0.0000 0.0000  plane waves:     428
 k-point   8 :   0.0833 0.0833 0.0000  plane waves:     402
 k-point   9 :   0.1667 0.0833 0.0000  plane waves:     406
 k-point  10 :   0.2500 0.0833 0.0000  plane waves:     410
 k-point  11 :   0.3333 0.0833 0.0000  plane waves:     410
 k-point  12 :   0.4167 0.0833 0.0000  plane waves:     413
 k-point  13 :   0.1667 0.1667 0.0000  plane waves:     406
 k-point  14 :   0.2500 0.1667 0.0000  plane waves:     411
 k-point  15 :   0.3333 0.1667 0.0000  plane waves:     409
 k-point  16 :   0.4167 0.1667 0.0000  plane waves:     422
 k-point  17 :   0.2500 0.2500 0.0000  plane waves:     406
 k-point  18 :   0.3333 0.2500 0.0000  plane waves:     411
 k-point  19 :   0.3333 0.3333 0.0000  plane waves:     420
 k-point  20 :   0.0000 0.0000 0.1250  plane waves:     391
 k-point  21 :   0.0833 0.0000 0.1250  plane waves:     397
 k-point  22 :   0.1667-0.0000 0.1250  plane waves:     403
 k-point  23 :   0.2500 0.0000 0.1250  plane waves:     409
 k-point  24 :   0.3333 0.0000 0.1250  plane waves:     410
 k-point  25 :   0.4167 0.0000 0.1250  plane waves:     417
 k-point  26 :   0.5000 0.0000 0.1250  plane waves:     422
 k-point  27 :   0.0833 0.0833 0.1250  plane waves:     405
 k-point  28 :   0.1667 0.0833 0.1250  plane waves:     404
 k-point  29 :   0.2500 0.0833 0.1250  plane waves:     406
 k-point  30 :   0.3333 0.0833 0.1250  plane waves:     411
 k-point  31 :   0.4167 0.0833 0.1250  plane waves:     414
 k-point  32 :   0.1667 0.1667 0.1250  plane waves:     408
 k-point  33 :   0.2500 0.1667 0.1250  plane waves:     409
 k-point  34 :   0.3333 0.1667 0.1250  plane waves:     413
 k-point  35 :   0.4167 0.1667 0.1250  plane waves:     416
 k-point  36 :   0.2500 0.2500 0.1250  plane waves:     412
 k-point  37 :   0.3333 0.2500 0.1250  plane waves:     411
 k-point  38 :   0.3333 0.3333 0.1250  plane waves:     420
 k-point  39 :   0.0000 0.0000 0.2500  plane waves:     397
 k-point  40 :   0.0833 0.0000 0.2500  plane waves:     402
 k-point  41 :   0.1667-0.0000 0.2500  plane waves:     407
 k-point  42 :   0.2500 0.0000 0.2500  plane waves:     409
 k-point  43 :   0.3333 0.0000 0.2500  plane waves:     412
 k-point  44 :   0.4167 0.0000 0.2500  plane waves:     411
 k-point  45 :   0.5000 0.0000 0.2500  plane waves:     410
 k-point  46 :   0.0833 0.0833 0.2500  plane waves:     399
 k-point  47 :   0.1667 0.0833 0.2500  plane waves:     405
 k-point  48 :   0.2500 0.0833 0.2500  plane waves:     409
 k-point  49 :   0.3333 0.0833 0.2500  plane waves:     409
 k-point  50 :   0.4167 0.0833 0.2500  plane waves:     409
 k-point  51 :   0.1667 0.1667 0.2500  plane waves:     406
 k-point  52 :   0.2500 0.1667 0.2500  plane waves:     409
 k-point  53 :   0.3333 0.1667 0.2500  plane waves:     411
 k-point  54 :   0.4167 0.1667 0.2500  plane waves:     408
 k-point  55 :   0.2500 0.2500 0.2500  plane waves:     409
 k-point  56 :   0.3333 0.2500 0.2500  plane waves:     412
 k-point  57 :   0.3333 0.3333 0.2500  plane waves:     414
 k-point  58 :   0.0000 0.0000 0.3750  plane waves:     398
 k-point  59 :   0.0833 0.0000 0.3750  plane waves:     401
 k-point  60 :   0.1667-0.0000 0.3750  plane waves:     405
 k-point  61 :   0.2500 0.0000 0.3750  plane waves:     411
 k-point  62 :   0.3333 0.0000 0.3750  plane waves:     411
 k-point  63 :   0.4167 0.0000 0.3750  plane waves:     411
 k-point  64 :   0.5000 0.0000 0.3750  plane waves:     406
 k-point  65 :   0.0833 0.0833 0.3750  plane waves:     401
 k-point  66 :   0.1667 0.0833 0.3750  plane waves:     410
 k-point  67 :   0.2500 0.0833 0.3750  plane waves:     409
 k-point  68 :   0.3333 0.0833 0.3750  plane waves:     412
 k-point  69 :   0.4167 0.0833 0.3750  plane waves:     410
 k-point  70 :   0.1667 0.1667 0.3750  plane waves:     410
 k-point  71 :   0.2500 0.1667 0.3750  plane waves:     407
 k-point  72 :   0.3333 0.1667 0.3750  plane waves:     406
 k-point  73 :   0.4167 0.1667 0.3750  plane waves:     405
 k-point  74 :   0.2500 0.2500 0.3750  plane waves:     410
 k-point  75 :   0.3333 0.2500 0.3750  plane waves:     409
 k-point  76 :   0.3333 0.3333 0.3750  plane waves:     417
 k-point  77 :   0.0000 0.0000 0.5000  plane waves:     398
 k-point  78 :   0.0833 0.0000 0.5000  plane waves:     398
 k-point  79 :   0.1667-0.0000 0.5000  plane waves:     402
 k-point  80 :   0.2500 0.0000 0.5000  plane waves:     414
 k-point  81 :   0.3333 0.0000 0.5000  plane waves:     410
 k-point  82 :   0.4167 0.0000 0.5000  plane waves:     408
 k-point  83 :   0.5000 0.0000 0.5000  plane waves:     408
 k-point  84 :   0.0833 0.0833 0.5000  plane waves:     402
 k-point  85 :   0.1667 0.0833 0.5000  plane waves:     406
 k-point  86 :   0.2500 0.0833 0.5000  plane waves:     410
 k-point  87 :   0.3333 0.0833 0.5000  plane waves:     412
 k-point  88 :   0.4167 0.0833 0.5000  plane waves:     406
 k-point  89 :   0.1667 0.1667 0.5000  plane waves:     406
 k-point  90 :   0.2500 0.1667 0.5000  plane waves:     410
 k-point  91 :   0.3333 0.1667 0.5000  plane waves:     410
 k-point  92 :   0.4167 0.1667 0.5000  plane waves:     408
 k-point  93 :   0.2500 0.2500 0.5000  plane waves:     412
 k-point  94 :   0.3333 0.2500 0.5000  plane waves:     414
 k-point  95 :   0.3333 0.3333 0.5000  plane waves:     408

 maximum and minimum number of plane-waves per node :       428      391

 maximum number of plane-waves:       428
 maximum index in each direction: 
   IXMAX=    4   IYMAX=    4   IZMAX=    6
   IXMIN=   -4   IYMIN=   -4   IZMIN=   -7


 serial   3D FFT for wavefunctions
 parallel 3D FFT for charge:
    minimum data exchange during FFTs selected (reduces bandwidth)


 total amount of memory used by VASP MPI-rank0    38436. kBytes
=======================================================================

   base      :      30000. kBytes
   nonl-proj :       5923. kBytes
   fftplans  :        146. kBytes
   grid      :        846. kBytes
   one-center:         62. kBytes
   wavefun   :       1459. kBytes
 
     INWAV:  cpu time      0.0000: real time      0.0003
 Broyden mixing: mesh for mixing (old mesh)
   NGX =  9   NGY =  9   NGZ = 13
  (NGX  = 32   NGY  = 32   NGZ  = 56)
  gives a total of   1053 points

 initial charge density was supplied:
 charge density of overlapping atoms calculated
 number of electron      18.0000000 magnetization       6.0000000
 keeping initial charge density in first step


--------------------------------------------------------------------------------------------------------


 Maximum index for augmentation-charges          956 (set IRDMAX)


--------------------------------------------------------------------------------------------------------


 First call to EWALD:  gamma=   0.647
 Maximum number of real-space cells 3x 3x 2
 Maximum number of reciprocal cells 3x 3x 4

    FEWALD:  cpu time      0.0015: real time      0.0015


--------------------------------------- Iteration      1(   1)  ---------------------------------------


    POTLOK:  cpu time      0.0060: real time      0.0062
    SETDIJ:  cpu time      0.0053: real time      0.0053
     EDDAV:  cpu time      0.7036: real time      0.7075
       DOS:  cpu time      0.0013: real time      0.0013
    --------------------------------------------
      LOOP:  cpu time      0.7162: real time      0.7202

 eigenvalue-minimisations  :  9120
 total energy-change (2. order) : 0.3219935E+01  (-0.8472828E+03)
 number of electron      18.0000000 magnetization       6.0000000
 augmentation part       18.0000000 magnetization       6.0000000

 Free energy of the ion-electron system (eV)
  ---------------------------------------------------
  alpha Z        PSCENC =        82.47127868
  Ewald energy   TEWEN  =     -1549.64478593
  -Hartree energ DENC   =      -288.45706231
  -exchange      EXHF   =         0.00000000
  -V(xc)+E(xc)   XCENC  =        35.99333828
  PAW double counting   =      1439.98163886    -1545.88690193
  entropy T*S    EENTRO =        -0.00298176
  eigenvalues    EBANDS =       202.04218112
  atomic energy  EATOM  =      1626.72322989
  Solvation  Ediel_sol  =         0.00000000
  ---------------------------------------------------
  free energy    TOTEN  =         3.21993491 eV

  energy without entropy =        3.22291666  energy(sigma->0) =        3.22142578


--------------------------------------------------------------------------------------------------------




--------------------------------------- Iteration      1(   2)  ---------------------------------------


     EDDAV:  cpu time      0.9475: real time      0.9529
       DOS:  cpu time      0.0008: real time      0.0008
    --------------------------------------------
      LOOP:  cpu time      0.9483: real time      0.9536

 eigenvalue-minimisations  : 10896
 total energy-change (2. order) :-0.1859506E+02  (-0.1837648E+02)
 number of electron      18.0000000 magnetization       6.0000000
 augmentation part       18.0000000 magnetization       6.0000000

 Free energy of the ion-electron system (eV)
  ---------------------------------------------------
  alpha Z        PSCENC =        82.47127868
  Ewald energy   TEWEN  =     -1549.64478593
  -Hartree energ DENC   =      -288.45706231
  -exchange      EXHF   =         0.00000000
  -V(xc)+E(xc)   XCENC  =        35.99333828
  PAW double counting   =      1439.98163886    -1545.88690193
  entropy T*S    EENTRO =        -0.00194057
  eigenvalues    EBANDS =       183.44608037
  atomic energy  EATOM  =      1626.72322989
  Solvation  Ediel_sol  =         0.00000000
  ---------------------------------------------------
  free energy    TOTEN  =       -15.37512466 eV

  energy without entropy =      -15.37318409  energy(sigma->0) =      -15.37415437


--------------------------------------------------------------------------------------------------------




--------------------------------------- Iteration      1(   3)  ---------------------------------------


     EDDAV:  cpu time      1.1345: real time      1.1403
       DOS:  cpu time      0.0008: real time      0.0008
    --------------------------------------------
      LOOP:  cpu time      1.1352: real time      1.1411

 eigenvalue-minimisations  : 12024
 total energy-change (2. order) :-0.1234996E+00  (-0.1234647E+00)
 number of electron      18.0000000 magnetization       6.0000000
 augmentation part       18.0000000 magnetization       6.0000000

 Free energy of the ion-electron system (eV)
  ---------------------------------------------------
  alpha Z        PSCENC =        82.47127868
  Ewald energy   TEWEN  =     -1549.64478593
  -Hartree energ DENC   =      -288.45706231
  -exchange      EXHF   =         0.00000000
  -V(xc)+E(xc)   XCENC  =        35.99333828
  PAW double counting   =      1439.98163886    -1545.88690193
  entropy T*S    EENTRO =        -0.00197182
  eigenvalues    EBANDS =       183.32261206
  atomic energy  EATOM  =      1626.72322989
  Solvation  Ediel_sol  =         0.00000000
  ---------------------------------------------------
  free energy    TOTEN  =       -15.49862421 eV

  energy without entropy =      -15.49665239  energy(sigma->0) =      -15.49763830


--------------------------------------------------------------------------------------------------------




--------------------------------------- Iteration      1(   4)  ---------------------------------------


     EDDAV:  cpu time      1.2852: real time      1.2915
       DOS:  cpu time      0.0008: real time      0.0008
    --------------------------------------------
      LOOP:  cpu time      1.2860: real time      1.2923

 eigenvalue-minimisations  : 12696
 total energy-change (2. order) :-0.3990902E-03  (-0.3990886E-03)
 number of electron      18.0000000 magnetization       6.0000000
 augmentation part       18.0000000 magnetization       6.0000000

 Free energy of the ion-electron system (eV)
  ---------------------------------------------------
  alpha Z        PSCENC =        82.47127868
  Ewald energy   TEWEN  =     -1549.64478593
  -Hartree energ DENC   =      -288.45706231
  -exchange      EXHF   =         0.00000000
  -V(xc)+E(xc)   XCENC  =        35.99333828
  PAW double counting   =      1439.98163886    -1545.88690193
  entropy T*S    EENTRO =        -0.00197110
  eigenvalues    EBANDS =       183.32221226
  atomic energy  EATOM  =      1626.72322989
  Solvation  Ediel_sol  =         0.00000000
  ---------------------------------------------------
  free energy    TOTEN  =       -15.49902330 eV

  energy without entropy =      -15.49705220  energy(sigma->0) =      -15.49803775


--------------------------------------------------------------------------------------------------------




--------------------------------------- Iteration      1(   5)  ---------------------------------------


     EDDAV:  cpu time      1.4053: real time      1.4122
       DOS:  cpu time      0.0008: real time      0.0008
    CHARGE:  cpu time      0.0241: real time      0.0242
    MIXING:  cpu time      0.0002: real time      0.0002
    --------------------------------------------
      LOOP:  cpu time      1.4304: real time      1.4374

 eigenvalue-minimisations  : 13248
 total energy-change (2. order) :-0.8481879E-06  (-0.8462172E-06)
 number of electron      18.0000008 magnetization       3.3477330
 augmentation part        9.1884924 magnetization       2.6062421

 Broyden mixing:
  rms(total) = 0.17176E+01    rms(broyden)= 0.17176E+01
  rms(prec ) = 0.27532E+01
  weight for this iteration     100.00

 Free energy of the ion-electron system (eV)
  ---------------------------------------------------
  alpha Z        PSCENC =        82.47127868
  Ewald energy   TEWEN  =     -1549.64478593
  -Hartree energ DENC   =      -288.45706231
  -exchange      EXHF   =         0.00000000
  -V(xc)+E(xc)   XCENC  =        35.99333828
  PAW double counting   =      1439.98163886    -1545.88690193
  entropy T*S    EENTRO =        -0.00197109
  eigenvalues    EBANDS =       183.32221140
  atomic energy  EATOM  =      1626.72322989
  Solvation  Ediel_sol  =         0.00000000
  ---------------------------------------------------
  free energy    TOTEN  =       -15.49902415 eV

  energy without entropy =      -15.49705306  energy(sigma->0) =      -15.49803861


--------------------------------------------------------------------------------------------------------




--------------------------------------- Iteration      1(   6)  ---------------------------------------


    POTLOK:  cpu time      0.0049: real time      0.0051
    SETDIJ:  cpu time      0.0052: real time      0.0052
     EDDAV:  cpu time      1.8703: real time      1.8789
       DOS:  cpu time      0.0008: real time      0.0008
    CHARGE:  cpu time      0.0234: real time      0.0235
    MIXING:  cpu time      0.0003: real time      0.0003
    --------------------------------------------
      LOOP:  cpu time      1.9049: real time      1.9138

 eigenvalue-minimisations  : 15984
 total energy-change (2. order) : 0.1147267E+01  (-0.2686364E+01)
 number of electron      18.0000009 magnetization       3.1431718
 augmentation part       10.6109688 magnetization       2.7887346

 Broyden mixing:
  rms(total) = 0.57248E+00    rms(broyden)= 0.57246E+00
  rms(prec ) = 0.75914E+00
  weight for this iteration     100.00

 eigenvalues of (default mixing * dielectric matrix)
  average eigenvalue GAMMA=   0.9652
  0.9652

 Free energy of the ion-electron system (eV)
  ---------------------------------------------------
  alpha Z        PSCENC =        82.47127868
  Ewald energy   TEWEN  =     -1549.64478593
  -Hartree energ DENC   =      -252.85933471
  -exchange      EXHF   =         0.00000000
  -V(xc)+E(xc)   XCENC  =        32.97315266
  PAW double counting   =      1617.77275287    -1714.10762745
  entropy T*S    EENTRO =        -0.00261046
  eigenvalues    EBANDS =       142.32218773
  atomic energy  EATOM  =      1626.72322989
  Solvation  Ediel_sol  =         0.00000000
  ---------------------------------------------------
  free energy    TOTEN  =       -14.35175671 eV

  energy without entropy =      -14.34914625  energy(sigma->0) =      -14.35045148


--------------------------------------------------------------------------------------------------------




--------------------------------------- Iteration      1(   7)  ---------------------------------------


    POTLOK:  cpu time      0.0049: real time      0.0051
    SETDIJ:  cpu time      0.0050: real time      0.0050
     EDDAV:  cpu time      1.8620: real time      1.8705
       DOS:  cpu time      0.0008: real time      0.0008
    CHARGE:  cpu time      0.0228: real time      0.0229
    MIXING:  cpu time      0.0003: real time      0.0003
    --------------------------------------------
      LOOP:  cpu time      1.8958: real time      1.9046

 eigenvalue-minimisations  : 15912
 total energy-change (2. order) : 0.2825846E+00  (-0.2862642E+00)
 number of electron      18.0000009 magnetization       3.1058184
 augmentation part       10.1493379 magnetization       2.7913223

 Broyden mixing:
  rms(total) = 0.37719E+00    rms(broyden)= 0.37719E+00
  rms(prec ) = 0.46232E+00
  weight for this iteration     100.00

 eigenvalues of (default mixing * dielectric matrix)
  average eigenvalue GAMMA=   0.7632
  1.0613  0.4652

 Free energy of the ion-electron system (eV)
  ---------------------------------------------------
  alpha Z        PSCENC =        82.47127868
  Ewald energy   TEWEN  =     -1549.64478593
  -Hartree energ DENC   =      -259.67423065
  -exchange      EXHF   =         0.00000000
  -V(xc)+E(xc)   XCENC  =        33.40291294
  PAW double counting   =      1697.61467321    -1800.63338458
  entropy T*S    EENTRO =        -0.00227672
  eigenvalues    EBANDS =       155.67341102
  atomic energy  EATOM  =      1626.72322989
  Solvation  Ediel_sol  =         0.00000000
  ---------------------------------------------------
  free energy    TOTEN  =       -14.06917213 eV

  energy without entropy =      -14.06689541  energy(sigma->0) =      -14.06803377


--------------------------------------------------------------------------------------------------------




--------------------------------------- Iteration      1(   8)  ---------------------------------------


    POTLOK:  cpu time      0.0047: real time      0.0049
    SETDIJ:  cpu time      0.0050: real time      0.0050
     EDDAV:  cpu time      1.9558: real time      1.9675
       DOS:  cpu time      0.0008: real time      0.0008
    CHARGE:  cpu time      0.0232: real time      0.0233
    MIXING:  cpu time      0.0003: real time      0.0003
    --------------------------------------------
      LOOP:  cpu time      1.9897: real time      2.0018

 eigenvalue-minimisations  : 16416
 total energy-change (2. order) : 0.3033361E-01  (-0.4279418E-02)
 number of electron      18.0000009 magnetization       3.1156660
 augmentation part       10.2000946 magnetization       2.8174182

 Broyden mixing:
  rms(total) = 0.17547E+00    rms(broyden)= 0.17547E+00
  rms(prec ) = 0.22197E+00
  weight for this iteration     100.00

 eigenvalues of (default mixing * dielectric matrix)
  average eigenvalue GAMMA=   1.0419
  1.7708  0.7889  0.5660

 Free energy of the ion-electron system (eV)
  ---------------------------------------------------
  alpha Z        PSCENC =        82.47127868
  Ewald energy   TEWEN  =     -1549.64478593
  -Hartree energ DENC   =      -256.80756140
  -exchange      EXHF   =         0.00000000
  -V(xc)+E(xc)   XCENC  =        33.27746165
  PAW double counting   =      1761.92848105    -1866.16022623
  entropy T*S    EENTRO =        -0.00214449
  eigenvalues    EBANDS =       154.17542826
  atomic energy  EATOM  =      1626.72322989
  Solvation  Ediel_sol  =         0.00000000
  ---------------------------------------------------
  free energy    TOTEN  =       -14.03883853 eV

  energy without entropy =      -14.03669404  energy(sigma->0) =      -14.03776628


--------------------------------------------------------------------------------------------------------




--------------------------------------- Iteration      1(   9)  ---------------------------------------


    POTLOK:  cpu time      0.0048: real time      0.0050
    SETDIJ:  cpu time      0.0049: real time      0.0049
     EDDAV:  cpu time      2.1366: real time      2.1463
       DOS:  cpu time      0.0008: real time      0.0008
    CHARGE:  cpu time      0.0226: real time      0.0229
    MIXING:  cpu time      0.0002: real time      0.0002
    --------------------------------------------
      LOOP:  cpu time      2.1699: real time      2.1801

 eigenvalue-minimisations  : 17472
 total energy-change (2. order) : 0.1364076E-01  (-0.1892069E-02)
 number of electron      18.0000009 magnetization       3.1366333
 augmentation part       10.2370832 magnetization       2.8463626

 Broyden mixing:
  rms(total) = 0.46683E-01    rms(broyden)= 0.46683E-01
  rms(prec ) = 0.54140E-01
  weight for this iteration     100.00

 eigenvalues of (default mixing * dielectric matrix)
  average eigenvalue GAMMA=   1.1624
  2.3248  0.9646  0.7462  0.6139

 Free energy of the ion-electron system (eV)
  ---------------------------------------------------
  alpha Z        PSCENC =        82.47127868
  Ewald energy   TEWEN  =     -1549.64478593
  -Hartree energ DENC   =      -254.19643206
  -exchange      EXHF   =         0.00000000
  -V(xc)+E(xc)   XCENC  =        33.17646113
  PAW double counting   =      1831.87953735    -1937.55327234
  entropy T*S    EENTRO =        -0.00217308
  eigenvalues    EBANDS =       153.12095860
  atomic energy  EATOM  =      1626.72322989
  Solvation  Ediel_sol  =         0.00000000
  ---------------------------------------------------
  free energy    TOTEN  =       -14.02519777 eV

  energy without entropy =      -14.02302469  energy(sigma->0) =      -14.02411123


--------------------------------------------------------------------------------------------------------




--------------------------------------- Iteration      1(  10)  ---------------------------------------


    POTLOK:  cpu time      0.0045: real time      0.0047
    SETDIJ:  cpu time      0.0050: real time      0.0050
     EDDAV:  cpu time      2.0451: real time      2.0543
       DOS:  cpu time      0.0008: real time      0.0008
    CHARGE:  cpu time      0.0236: real time      0.0237
    MIXING:  cpu time      0.0004: real time      0.0004
    --------------------------------------------
      LOOP:  cpu time      2.0793: real time      2.0888

 eigenvalue-minimisations  : 16800
 total energy-change (2. order) : 0.1095239E-02  (-0.1214815E-03)
 number of electron      18.0000009 magnetization       3.1330575
 augmentation part       10.2385155 magnetization       2.8351018

 Broyden mixing:
  rms(total) = 0.45550E-02    rms(broyden)= 0.45549E-02
  rms(prec ) = 0.65455E-02
  weight for this iteration     100.00

 eigenvalues of (default mixing * dielectric matrix)
  average eigenvalue GAMMA=   1.1663
  2.3410  1.0842  1.0842  0.6612  0.6612

 Free energy of the ion-electron system (eV)
  ---------------------------------------------------
  alpha Z        PSCENC =        82.47127868
  Ewald energy   TEWEN  =     -1549.64478593
  -Hartree energ DENC   =      -253.36417376
  -exchange      EXHF   =         0.00000000
  -V(xc)+E(xc)   XCENC  =        33.13205167
  PAW double counting   =      1863.97407977    -1970.40220825
  entropy T*S    EENTRO =        -0.00217133
  eigenvalues    EBANDS =       153.08859674
  atomic energy  EATOM  =      1626.72322989
  Solvation  Ediel_sol  =         0.00000000
  ---------------------------------------------------
  free energy    TOTEN  =       -14.02410253 eV

  energy without entropy =      -14.02193120  energy(sigma->0) =      -14.02301686


--------------------------------------------------------------------------------------------------------




--------------------------------------- Iteration      1(  11)  ---------------------------------------


    POTLOK:  cpu time      0.0047: real time      0.0049
    SETDIJ:  cpu time      0.0050: real time      0.0050
     EDDAV:  cpu time      1.5061: real time      1.5133
       DOS:  cpu time      0.0008: real time      0.0008
    CHARGE:  cpu time      0.0230: real time      0.0231
    MIXING:  cpu time      0.0003: real time      0.0003
    --------------------------------------------
      LOOP:  cpu time      1.5398: real time      1.5473

 eigenvalue-minimisations  : 13728
 total energy-change (2. order) :-0.4521452E-05  (-0.6264989E-05)
 number of electron      18.0000009 magnetization       3.1287385
 augmentation part       10.2396156 magnetization       2.8303178

 Broyden mixing:
  rms(total) = 0.27883E-02    rms(broyden)= 0.27882E-02
  rms(prec ) = 0.35672E-02
  weight for this iteration     100.00

 eigenvalues of (default mixing * dielectric matrix)
  average eigenvalue GAMMA=   1.1213
  2.3025  1.1744  1.1744  0.6228  0.7269  0.7269

 Free energy of the ion-electron system (eV)
  ---------------------------------------------------
  alpha Z        PSCENC =        82.47127868
  Ewald energy   TEWEN  =     -1549.64478593
  -Hartree energ DENC   =      -253.32197723
  -exchange      EXHF   =         0.00000000
  -V(xc)+E(xc)   XCENC  =        33.12495344
  PAW double counting   =      1866.40383850    -1972.84776018
  entropy T*S    EENTRO =        -0.00220643
  eigenvalues    EBANDS =       153.06932221
  atomic energy  EATOM  =      1626.72322989
  Solvation  Ediel_sol  =         0.00000000
  ---------------------------------------------------
  free energy    TOTEN  =       -14.02410705 eV

  energy without entropy =      -14.02190062  energy(sigma->0) =      -14.02300384


--------------------------------------------------------------------------------------------------------




--------------------------------------- Iteration      1(  12)  ---------------------------------------


    POTLOK:  cpu time      0.0047: real time      0.0049
    SETDIJ:  cpu time      0.0048: real time      0.0048
     EDDAV:  cpu time      1.3250: real time      1.3311
       DOS:  cpu time      0.0008: real time      0.0008
    CHARGE:  cpu time      0.0226: real time      0.0226
    MIXING:  cpu time      0.0003: real time      0.0003
    --------------------------------------------
      LOOP:  cpu time      1.3581: real time      1.3646

 eigenvalue-minimisations  : 12912
 total energy-change (2. order) : 0.2426625E-05  (-0.3854993E-06)
 number of electron      18.0000009 magnetization       3.1287599
 augmentation part       10.2396687 magnetization       2.8304156

 Broyden mixing:
  rms(total) = 0.14340E-02    rms(broyden)= 0.14340E-02
  rms(prec ) = 0.22432E-02
  weight for this iteration     100.00

 eigenvalues of (default mixing * dielectric matrix)
  average eigenvalue GAMMA=   1.2384
  2.3439  2.0663  1.1294  1.1294  0.6420  0.6420  0.7157

 Free energy of the ion-electron system (eV)
  ---------------------------------------------------
  alpha Z        PSCENC =        82.47127868
  Ewald energy   TEWEN  =     -1549.64478593
  -Hartree energ DENC   =      -253.30967524
  -exchange      EXHF   =         0.00000000
  -V(xc)+E(xc)   XCENC  =        33.12194445
  PAW double counting   =      1867.82750794    -1974.28109135
  entropy T*S    EENTRO =        -0.00221312
  eigenvalues    EBANDS =       153.06970005
  atomic energy  EATOM  =      1626.72322989
  Solvation  Ediel_sol  =         0.00000000
  ---------------------------------------------------
  free energy    TOTEN  =       -14.02410463 eV

  energy without entropy =      -14.02189151  energy(sigma->0) =      -14.02299807


--------------------------------------------------------------------------------------------------------




--------------------------------------- Iteration      1(  13)  ---------------------------------------


    POTLOK:  cpu time      0.0045: real time      0.0047
    SETDIJ:  cpu time      0.0049: real time      0.0049
     EDDAV:  cpu time      2.0372: real time      2.0465
       DOS:  cpu time      0.0008: real time      0.0008
    --------------------------------------------
      LOOP:  cpu time      2.0474: real time      2.0569

 eigenvalue-minimisations  : 16752
 total energy-change (2. order) : 0.7537499E-06  (-0.4468937E-06)
 number of electron      18.0000009 magnetization       3.1287599
 augmentation part       10.2396687 magnetization       2.8304156

 Free energy of the ion-electron system (eV)
  ---------------------------------------------------
  alpha Z        PSCENC =        82.47127868
  Ewald energy   TEWEN  =     -1549.64478593
  -Hartree energ DENC   =      -253.26590143
  -exchange      EXHF   =         0.00000000
  -V(xc)+E(xc)   XCENC  =        33.12044566
  PAW double counting   =      1870.19859429    -1976.68267831
  entropy T*S    EENTRO =        -0.00222035
  eigenvalues    EBANDS =       153.05793363
  atomic energy  EATOM  =      1626.72322989
  Solvation  Ediel_sol  =         0.00000000
  ---------------------------------------------------
  free energy    TOTEN  =       -14.02410387 eV

  energy without entropy =      -14.02188352  energy(sigma->0) =      -14.02299370


--------------------------------------------------------------------------------------------------------




 average (electrostatic) potential at core
  the test charge radii are     1.0452
  (the norm of the test charge is              1.0000)
       1 -77.5406       2 -77.5406
 
 
 
 E-fermi :  11.0412     XC(G=0): -13.7306     alpha+bet :-18.7249

 Fermi energy:        11.0412282603

 spin component 1

 k-point     1 :       0.0000    0.0000    0.0000
  band No.  band energies     occupation 
      1       1.8205      1.00000
      2       5.6590      1.00000
      3       8.3711      1.00000
      4       8.3813      1.00000
      5       8.3813      1.00000
      6       8.7264      1.00000
      7       8.7264      1.00000
      8       9.0993      1.00000
      9       9.0993      1.00000
     10      10.3054      1.00000
     11      10.3054      1.00000
     12      10.9823      0.95218
     13      17.9439      0.00000
     14      33.4607      0.00000
     15      36.5616      0.00000
     16      36.5616      0.00000
     17      36.7519      0.00000
     18      37.1647      0.00000
     19      37.8583      0.00000
     20      37.8583      0.00000
     21      42.3290      0.00000
     22      42.3290      0.00000
     23      43.5472      0.00000
     24      43.7968      0.00000

 k-point     2 :       0.0833    0.0000    0.0000
  band No.  band energies     occupation 
      1       2.0737      1.00000
      2       5.8117      1.00000
      3       8.1270      1.00000
      4       8.5039      1.00000
      5       8.5830      1.00000
      6       8.6766      1.00000
      7       8.8345      1.00000
      8       8.9332      1.00000
      9       9.0217      1.00000
     10       9.4554      1.00000
     11      10.3389      1.00000
     12      12.1648      0.00000
     13      17.9827      0.00000
     14      31.7767      0.00000
     15      34.1858      0.00000
     16      34.3348      0.00000
     17      37.1805      0.00000
     18      37.7212      0.00000
     19      39.1201      0.00000
     20      40.2989      0.00000
     21      41.0687      0.00000
     22      41.8551      0.00000
     23      43.1201      0.00000
     24      43.3919      0.00000

 k-point     3 :       0.1667   -0.0000    0.0000
  band No.  band energies     occupation 
      1       2.8042      1.00000
      2       6.1877      1.00000
      3       7.8277      1.00000
      4       8.1638      1.00000
      5       8.4910      1.00000
      6       8.8307      1.00000
      7       8.8499      1.00000
      8       8.9130      1.00000
      9       9.0596      1.00000
     10       9.1379      1.00000
     11      10.4103      1.00000
     12      13.8407      0.00000
     13      18.1198      0.00000
     14      27.9726      0.00000
     15      31.8481      0.00000
     16      33.2019      0.00000
     17      35.1338      0.00000
     18      37.2928      0.00000
     19      38.3881      0.00000
     20      40.7373      0.00000
     21      41.0783      0.00000
     22      41.9888      0.00000
     23      42.4702      0.00000
     24      44.3040      0.00000

 k-point     4 :       0.2500    0.0000    0.0000
  band No.  band energies     occupation 
      1       3.9023      1.00000
      2       6.4823      1.00000
      3       7.3828      1.00000
      4       7.6478      1.00000
      5       8.3941      1.00000
      6       8.6016      1.00000
      7       8.8459      1.00000
      8       9.3522      1.00000
      9       9.3754      1.00000
     10       9.5745      1.00000
     11      10.4780      1.00000
     12      15.7176      0.00000
     13      18.3816      0.00000
     14      24.2067      0.00000
     15      29.6847      0.00000
     16      31.7392      0.00000
     17      32.0144      0.00000
     18      36.2908      0.00000
     19      36.3128      0.00000
     20      40.4422      0.00000
     21      40.5194      0.00000
     22      41.2262      0.00000
     23      42.5162      0.00000
     24      45.4080      0.00000

 k-point     5 :       0.3333    0.0000    0.0000
  band No.  band energies     occupation 
      1       5.0805      1.00000
      2       6.4012      1.00000
      3       6.8118      1.00000
      4       7.7730      1.00000
      5       8.3956      1.00000
      6       8.5292      1.00000
      7       8.6572      1.00000
      8       9.8877      1.00000
      9      10.0483      1.00000
     10      10.1135      1.00000
     11      10.5244      1.00000
     12      17.7519      0.00000
     13      18.3770      0.00000
     14      21.3245      0.00000
     15      27.9616      0.00000
     16      28.6227      0.00000
     17      29.7973      0.00000
     18      34.7580      0.00000
     19      35.1393      0.00000
     20      38.6561      0.00000
     21      40.0078      0.00000
     22      42.0817      0.00000
     23      44.3360      0.00000
     24      46.3023      0.00000

 k-point     6 :       0.4167    0.0000    0.0000
  band No.  band energies     occupation 
      1       5.8236      1.00000
      2       6.2041      1.00000
      3       6.4686      1.00000
      4       8.1703      1.00000
      5       8.2549      1.00000
      6       8.5244      1.00000
      7       8.7475      1.00000
      8      10.2891      1.00000
      9      10.4407      1.00000
     10      10.5493      1.00000
     11      11.3003      0.00000
     12      16.4246      0.00000
     13      19.8451      0.00000
     14      21.2269      0.00000
     15      25.8956      0.00000
     16      26.8243      0.00000
     17      27.1791      0.00000
     18      34.2192      0.00000
     19      34.3405      0.00000
     20      37.4357      0.00000
     21      39.7592      0.00000
     22      42.6256      0.00000
     23      46.7080      0.00000
     24      46.8351      0.00000

 k-point     7 :       0.5000    0.0000    0.0000
  band No.  band energies     occupation 
      1       6.0326      1.00000
      2       6.0973      1.00000
      3       6.3542      1.00000
      4       8.2052      1.00000
      5       8.4344      1.00000
      6       8.4765      1.00000
      7       8.8305      1.00000
      8      10.4343      1.00000
      9      10.5569      1.00000
     10      10.5997      1.00000
     11      12.5070      0.00000
     12      14.6479      0.00000
     13      21.2083      0.00000
     14      21.9268      0.00000
     15      24.3243      0.00000
     16      25.7611      0.00000
     17      26.4225      0.00000
     18      34.0615      0.00000
     19      34.0896      0.00000
     20      37.0103      0.00000
     21      39.6787      0.00000
     22      42.8254      0.00000
     23      46.8226      0.00000
     24      47.6187      0.00000

 k-point     8 :       0.0833    0.0833    0.0000
  band No.  band energies     occupation 
      1       2.5665      1.00000
      2       6.0825      1.00000
      3       7.8910      1.00000
      4       8.4286      1.00000
      5       8.5627      1.00000
      6       8.7531      1.00000
      7       8.7543      1.00000
      8       8.8012      1.00000
      9       9.0739      1.00000
     10       9.1882      1.00000
     11      10.3807      1.00000
     12      13.3722      0.00000
     13      18.0728      0.00000
     14      29.6941      0.00000
     15      30.5632      0.00000
     16      35.7936      0.00000
     17      36.6361      0.00000
     18      36.7924      0.00000
     19      37.0190      0.00000
     20      40.3600      0.00000
     21      41.5093      0.00000
     22      42.1087      0.00000
     23      44.0119      0.00000
     24      44.5009      0.00000

 k-point     9 :       0.1667    0.0833    0.0000
  band No.  band energies     occupation 
      1       3.4905      1.00000
      2       6.4661      1.00000
      3       7.5951      1.00000
      4       7.6709      1.00000
      5       8.4349      1.00000
      6       8.5587      1.00000
      7       9.0233      1.00000
      8       9.0280      1.00000
      9       9.2111      1.00000
     10       9.5228      1.00000
     11      10.4323      1.00000
     12      15.0419      0.00000
     13      18.2959      0.00000
     14      26.1265      0.00000
     15      28.4121      0.00000
     16      33.4383      0.00000
     17      34.5411      0.00000
     18      35.5518      0.00000
     19      37.3163      0.00000
     20      38.9452      0.00000
     21      40.4924      0.00000
     22      42.7454      0.00000
     23      44.1052      0.00000
     24      44.5813      0.00000

 k-point    10 :       0.2500    0.0833    0.0000
  band No.  band energies     occupation 
      1       4.6699      1.00000
      2       6.5826      1.00000
      3       7.0465      1.00000
      4       7.5218      1.00000
      5       8.3559      1.00000
      6       8.4508      1.00000
      7       8.8136      1.00000
      8       9.4611      1.00000
      9       9.7533      1.00000
     10      10.1330      1.00000
     11      10.4759      1.00000
     12      16.9569      0.00000
     13      18.6191      0.00000
     14      22.6239      0.00000
     15      26.8142      0.00000
     16      30.2480      0.00000
     17      31.8672      0.00000
     18      34.2595      0.00000
     19      36.7290      0.00000
     20      37.1920      0.00000
     21      41.1380      0.00000
     22      44.0087      0.00000
     23      44.2753      0.00000
     24      45.2423      0.00000

 k-point    11 :       0.3333    0.0833    0.0000
  band No.  band energies     occupation 
      1       5.6801      1.00000
      2       6.3930      1.00000
      3       6.6210      1.00000
      4       7.7807      1.00000
      5       8.2249      1.00000
      6       8.6066      1.00000
      7       8.6586      1.00000
      8      10.0035      1.00000
      9      10.2172      1.00000
     10      10.5030      1.00000
     11      10.9913      0.92092
     12      17.8143      0.00000
     13      19.0279      0.00000
     14      21.0051      0.00000
     15      25.5648      0.00000
     16      27.3270      0.00000
     17      28.8806      0.00000
     18      33.3041      0.00000
     19      36.0151      0.00000
     20      36.1464      0.00000
     21      41.2312      0.00000
     22      44.3327      0.00000
     23      45.9492      0.00000
     24      46.5771      0.00000

 k-point    12 :       0.4167    0.0833    0.0000
  band No.  band energies     occupation 
      1       6.0988      1.00000
      2       6.2345      1.00000
      3       6.4071      1.00000
      4       8.1727      1.00000
      5       8.1769      1.00000
      6       8.4693      1.00000
      7       8.8261      1.00000
      8      10.3917      1.00000
      9      10.4688      1.00000
     10      10.5149      1.00000
     11      12.3346      0.00000
     12      15.4351      0.00000
     13      21.0047      0.00000
     14      21.8378      0.00000
     15      24.7377      0.00000
     16      24.9311      0.00000
     17      26.6145      0.00000
     18      32.8041      0.00000
     19      35.4047      0.00000
     20      35.8356      0.00000
     21      41.1452      0.00000
     22      44.5598      0.00000
     23      46.8600      0.00000
     24      47.6817      0.00000

 k-point    13 :       0.1667    0.1667    0.0000
  band No.  band energies     occupation 
      1       4.5254      1.00000
      2       6.7772      1.00000
      3       7.1698      1.00000
[...]
     22      41.2580      0.00000
     23      45.0747      0.00000
     24      45.0747      0.00000

 k-point    90 :       0.2500    0.1667    0.5000
  band No.  band energies     occupation 
      1       6.9268      1.00000
      2       6.9268      1.00000
      3       8.7685      1.00000
      4       8.7685      1.00000
      5       9.4766      1.00000
      6       9.4766      1.00000
      7      10.7512      1.00000
      8      10.7512      1.00000
      9      12.3146      0.00000
     10      12.3146      0.00000
     11      13.2714      0.00000
     12      13.2714      0.00000
     13      23.8586      0.00000
     14      23.8586      0.00000
     15      26.3169      0.00000
     16      26.3169      0.00000
     17      30.6633      0.00000
     18      30.6633      0.00000
     19      39.2885      0.00000
     20      39.2885      0.00000
     21      42.1737      0.00000
     22      42.1737      0.00000
     23      43.5834      0.00000
     24      43.5834      0.00000

 k-point    91 :       0.3333    0.1667    0.5000
  band No.  band energies     occupation 
      1       7.2093      1.00000
      2       7.2093      1.00000
      3       8.7196      1.00000
      4       8.7196      1.00000
      5       9.6670      1.00000
      6       9.6670      1.00000
      7      10.9125      0.99986
      8      10.9125      0.99986
      9      12.3096      0.00000
     10      12.3096      0.00000
     11      14.4485      0.00000
     12      14.4485      0.00000
     13      21.1619      0.00000
     14      21.1619      0.00000
     15      25.5910      0.00000
     16      25.5910      0.00000
     17      31.9413      0.00000
     18      31.9413      0.00000
     19      37.8359      0.00000
     20      37.8359      0.00000
     21      40.6715      0.00000
     22      40.6715      0.00000
     23      44.5941      0.00000
     24      44.5941      0.00000

 k-point    92 :       0.4167    0.1667    0.5000
  band No.  band energies     occupation 
      1       7.2703      1.00000
      2       7.2703      1.00000
      3       8.7016      1.00000
      4       8.7016      1.00000
      5       9.7267      1.00000
      6       9.7267      1.00000
      7      11.0962      0.06010
      8      11.0962      0.06010
      9      12.2401      0.00000
     10      12.2401      0.00000
     11      15.2212      0.00000
     12      15.2212      0.00000
     13      19.8607      0.00000
     14      19.8607      0.00000
     15      25.3393      0.00000
     16      25.3393      0.00000
     17      32.6828      0.00000
     18      32.6828      0.00000
     19      37.0218      0.00000
     20      37.0218      0.00000
     21      40.0963      0.00000
     22      40.0963      0.00000
     23      44.8898      0.00000
     24      44.8898      0.00000

 k-point    93 :       0.2500    0.2500    0.5000
  band No.  band energies     occupation 
      1       7.4211      1.00000
      2       7.4211      1.00000
      3       8.8033      1.00000
      4       8.8033      1.00000
      5       9.2946      1.00000
      6       9.2946      1.00000
      7      10.7296      1.00000
      8      10.7296      1.00000
      9      12.3355      0.00000
     10      12.3355      0.00000
     11      14.6766      0.00000
     12      14.6766      0.00000
     13      22.4722      0.00000
     14      22.4722      0.00000
     15      23.7185      0.00000
     16      23.7185      0.00000
     17      32.0301      0.00000
     18      32.0301      0.00000
     19      39.0004      0.00000
     20      39.0004      0.00000
     21      40.6297      0.00000
     22      40.6297      0.00000
     23      45.0569      0.00000
     24      45.0569      0.00000

 k-point    94 :       0.3333    0.2500    0.5000
  band No.  band energies     occupation 
      1       7.7191      1.00000
      2       7.7191      1.00000
      3       8.7433      1.00000
      4       8.7433      1.00000
      5       9.2198      1.00000
      6       9.2198      1.00000
      7      10.8446      1.00000
      8      10.8446      1.00000
      9      12.2282      0.00000
     10      12.2282      0.00000
     11      16.2737      0.00000
     12      16.2737      0.00000
     13      20.3430      0.00000
     14      20.3430      0.00000
     15      22.9424      0.00000
     16      22.9424      0.00000
     17      33.5325      0.00000
     18      33.5325      0.00000
     19      37.2221      0.00000
     20      37.2221      0.00000
     21      40.0145      0.00000
     22      40.0145      0.00000
     23      46.5684      0.00000
     24      46.5684      0.00000

 k-point    95 :       0.3333    0.3333    0.5000
  band No.  band energies     occupation 
      1       8.2422      1.00000
      2       8.2422      1.00000
      3       8.3186      1.00000
      4       8.3186      1.00000
      5       9.1764      1.00000
      6       9.1764      1.00000
      7      10.8109      1.00000
      8      10.8109      1.00000
      9      12.1712      0.00000
     10      12.1712      0.00000
     11      17.6989      0.00000
     12      17.6989      0.00000
     13      19.4426      0.00000
     14      19.4426      0.00000
     15      21.8770      0.00000
     16      21.8770      0.00000
     17      35.3696      0.00000
     18      35.3696      0.00000
     19      35.4900      0.00000
     20      35.4900      0.00000
     21      39.6738      0.00000
     22      39.6738      0.00000
     23      49.9000      0.00000
     24      49.9000      0.00000


--------------------------------------------------------------------------------------------------------


 soft charge-density along one line, spin component           1
         0         1         2         3         4         5         6         7         8         9
 total charge-density along one line
 
 soft charge-density along one line, spin component           2
         0         1         2         3         4         5         6         7         8         9
 total charge-density along one line
 
 pseudopotential strength for first ion, spin component:           1
 -0.089   0.000  -0.000   0.000  -0.000  -0.742   0.000  -0.000
  0.000  -0.091  -0.000   0.000   0.000   0.000  -0.744  -0.000
 -0.000  -0.000  -0.093   0.000   0.000  -0.000  -0.000  -0.746
  0.000   0.000   0.000  -0.091   0.000   0.000   0.000   0.000
 -0.000   0.000   0.000   0.000  -0.089  -0.000   0.000   0.000
 -0.742   0.000  -0.000   0.000  -0.000  -1.336   0.000  -0.000
  0.000  -0.744  -0.000   0.000   0.000   0.000  -1.337  -0.000
 -0.000  -0.000  -0.746   0.000   0.000  -0.000  -0.000  -1.339
  0.000   0.000   0.000  -0.744   0.000   0.000   0.000   0.000
 -0.000   0.000   0.000   0.000  -0.742  -0.000   0.000   0.000
 -0.000  -0.000   0.000  -0.000   0.000  -0.000  -0.000   0.000
 -0.000  -0.000   0.001  -0.000   0.000  -0.000  -0.000   0.001
 -0.000   0.000  -0.000   0.000   0.001  -0.000   0.000   0.000
  0.000   0.000   0.000  -0.000   0.000   0.000   0.000   0.000
  0.001   0.000   0.000   0.000  -0.000   0.001   0.000   0.000
 -0.000   0.000  -0.000   0.000   0.001  -0.000   0.000  -0.000
  0.000   0.000   0.000  -0.000   0.000   0.000   0.000   0.000
  0.001   0.000   0.000   0.000  -0.000   0.001   0.000   0.000
 pseudopotential strength for first ion, spin component:           2
  1.210   0.000  -0.000   0.000  -0.000   0.502   0.000  -0.000
  0.000   1.220  -0.000   0.000   0.000   0.000   0.512  -0.000
 -0.000  -0.000   1.204   0.000   0.000  -0.000  -0.000   0.497
  0.000   0.000   0.000   1.220   0.000   0.000   0.000   0.000
 -0.000   0.000   0.000   0.000   1.210  -0.000   0.000   0.000
  0.502   0.000  -0.000   0.000  -0.000  -0.144   0.000  -0.000
  0.000   0.512  -0.000   0.000   0.000   0.000  -0.134  -0.000
 -0.000  -0.000   0.497   0.000   0.000  -0.000  -0.000  -0.149
  0.000   0.000   0.000   0.512   0.000   0.000   0.000   0.000
 -0.000   0.000   0.000   0.000   0.502  -0.000   0.000   0.000
 -0.000   0.000  -0.001  -0.000   0.000  -0.000   0.000  -0.001
 -0.000   0.000  -0.001  -0.000   0.000  -0.000   0.000  -0.001
 -0.000   0.000  -0.000   0.000   0.001  -0.000   0.000  -0.000
  0.000   0.000   0.000  -0.000   0.000   0.000   0.000   0.000
  0.001   0.000   0.000   0.000  -0.000   0.001   0.000   0.000
 -0.000   0.000  -0.000   0.000   0.000  -0.000   0.000  -0.000
  0.000   0.000   0.000  -0.000   0.000   0.000   0.000   0.000
  0.000   0.000   0.000   0.000  -0.000   0.000   0.000   0.000
 total augmentation occupancy for first ion, spin component:           1
  2.992   0.000   0.000   0.000   0.000  -1.732   0.000   0.000   0.000   0.000  -0.000   0.000   0.000   0.000  -0.046  -0.000
  0.000   3.137   0.000   0.000   0.000  -0.000  -1.803   0.000   0.000  -0.000   0.000  -0.000  -0.000   0.000  -0.000   0.000
  0.000   0.000   2.868   0.000   0.000   0.000  -0.000  -1.703  -0.000  -0.000  -0.023   0.001  -0.000  -0.000   0.000   0.000
  0.000   0.000  -0.000   3.137  -0.000   0.000   0.000  -0.000  -1.803   0.000   0.000  -0.000  -0.000   0.000   0.000   0.000
  0.000  -0.000   0.000   0.000   2.992   0.000   0.000  -0.000  -0.000  -1.732   0.000  -0.000  -0.046  -0.000  -0.000   0.004
 -1.732   0.000   0.000   0.000   0.000   2.025  -0.000   0.000   0.000   0.000   0.000  -0.000   0.000  -0.000   0.063   0.000
 -0.000  -1.803  -0.000   0.000  -0.000  -0.000   2.029   0.000   0.000  -0.000  -0.000  -0.000   0.000  -0.000  -0.000   0.000
  0.000  -0.000  -1.703  -0.000  -0.000  -0.000   0.000   2.087  -0.000   0.000   0.026  -0.001   0.000   0.000   0.000  -0.000
 -0.000   0.000   0.000  -1.803  -0.000   0.000  -0.000   0.000   2.029  -0.000   0.000  -0.000   0.000  -0.000  -0.000  -0.000
 -0.000  -0.000  -0.000  -0.000  -1.732   0.000   0.000   0.000   0.000   2.025  -0.000   0.000   0.063  -0.000   0.000  -0.005
  0.000   0.000  -0.023   0.000   0.000   0.000   0.000   0.026   0.000   0.000   2.458  -0.301   0.000  -0.000   0.000   0.000
  0.000   0.000   0.001  -0.000  -0.000   0.000   0.000  -0.001   0.000   0.000  -0.301   0.045  -0.000  -0.000  -0.000  -0.000
  0.000   0.000  -0.000   0.000  -0.046   0.000  -0.000   0.000  -0.000   0.063   0.000   0.000   0.342  -0.000  -0.000  -0.033
 -0.000  -0.000   0.000  -0.000   0.000  -0.000   0.000   0.000   0.000  -0.000  -0.000   0.000   0.000   0.350  -0.000   0.000
 -0.046  -0.000   0.000   0.000  -0.000   0.063  -0.000   0.000   0.000   0.000   0.000   0.000  -0.000   0.000   0.342  -0.000
  0.000   0.000   0.000   0.000   0.004   0.000   0.000  -0.000  -0.000  -0.005  -0.000   0.000  -0.033   0.000   0.000   0.004
  0.000   0.000   0.000  -0.000  -0.000  -0.000   0.000  -0.000  -0.000  -0.000   0.000  -0.000  -0.000  -0.033  -0.000   0.000
  0.004   0.000   0.000   0.000  -0.000  -0.005   0.000   0.000  -0.000  -0.000   0.000   0.000   0.000   0.000  -0.033   0.000
 total augmentation occupancy for first ion, spin component:           2
  2.067  -0.000  -0.000  -0.000   0.000  -0.995  -0.000   0.000  -0.000   0.000   0.000   0.000  -0.000   0.000   0.004  -0.000
  0.000   2.125  -0.000   0.000  -0.000   0.000  -1.035   0.000   0.000   0.000  -0.000  -0.000   0.000  -0.000  -0.000   0.000
  0.000  -0.000   2.107   0.000   0.000   0.000   0.000  -1.016  -0.000  -0.000   0.001  -0.000   0.000  -0.000   0.000   0.000
  0.000   0.000   0.000   2.125   0.000   0.000   0.000   0.000  -1.035   0.000   0.000  -0.000  -0.000  -0.000  -0.000   0.000
  0.000   0.000   0.000  -0.000   2.067   0.000  -0.000  -0.000  -0.000  -0.995   0.000   0.000   0.004   0.000   0.000   0.000
 -0.995   0.000   0.000   0.000   0.000   0.284  -0.000   0.000   0.000   0.000   0.000   0.000  -0.000   0.000  -0.008   0.000
 -0.000  -1.035   0.000  -0.000   0.000  -0.000   0.317   0.000   0.000   0.000  -0.000   0.000   0.000   0.000   0.000   0.000
  0.000  -0.000  -1.016   0.000  -0.000   0.000   0.000   0.282   0.000   0.000  -0.003   0.001  -0.000  -0.000   0.000   0.000
 -0.000   0.000  -0.000  -1.035  -0.000  -0.000   0.000  -0.000   0.317  -0.000   0.000  -0.000   0.000   0.000   0.000   0.000
 -0.000   0.000  -0.000   0.000  -0.995  -0.000   0.000   0.000  -0.000   0.284   0.000  -0.000  -0.008   0.000  -0.000   0.000
  0.000   0.000   0.001  -0.000   0.000   0.000   0.000  -0.003  -0.000   0.000  -0.310   0.093  -0.000   0.000   0.000   0.000
 -0.000   0.000  -0.000   0.000  -0.000   0.000  -0.000   0.001   0.000  -0.000   0.093  -0.017  -0.000   0.000  -0.000   0.000
 -0.000   0.000   0.000   0.000   0.004  -0.000  -0.000  -0.000   0.000  -0.008  -0.000   0.000  -0.036  -0.000  -0.000   0.005
  0.000  -0.000  -0.000   0.000   0.000  -0.000   0.000  -0.000   0.000   0.000   0.000  -0.000   0.000  -0.040  -0.000  -0.000
  0.004  -0.000  -0.000  -0.000  -0.000  -0.008   0.000   0.000   0.000   0.000  -0.000   0.000   0.000   0.000  -0.036   0.000
  0.000  -0.000   0.000  -0.000   0.000  -0.000  -0.000   0.000  -0.000   0.000   0.000  -0.000   0.005   0.000  -0.000  -0.001
  0.000   0.000   0.000   0.000  -0.000  -0.000  -0.000  -0.000   0.000  -0.000   0.000   0.000   0.000   0.005   0.000  -0.000
  0.000   0.000   0.000   0.000   0.000   0.000   0.000   0.000  -0.000   0.000   0.000   0.000   0.000   0.000   0.005  -0.000


------------------------ aborting loop because EDIFF is reached ----------------------------------------





 total charge

# of ion       s       p       d       tot
------------------------------------------
    1        0.512   0.573   7.299   8.384
    2        0.512   0.573   7.299   8.384
--------------------------------------------------
tot          1.025   1.145  14.598  16.768



 magnetization (x)

# of ion       s       p       d       tot
------------------------------------------
    1       -0.016  -0.056   1.645   1.574
    2       -0.016  -0.056   1.645   1.574
--------------------------------------------------
tot         -0.032  -0.112   3.291   3.148
 
    CHARGE:  cpu time      0.0226: real time      0.0227
    FORLOC:  cpu time      0.0001: real time      0.0001
    FORNL :  cpu time      0.0262: real time      0.0262
    STRESS:  cpu time      0.1669: real time      0.1677
    FORCOR:  cpu time      0.0041: real time      0.0041
    FORHAR:  cpu time      0.0004: real time      0.0004
    MIXING:  cpu time      0.0003: real time      0.0003
    OFIELD:  cpu time      0.0000: real time      0.0000

  FORCE on cell =-STRESS in cart. coord.  units (eV):
  Direction    XX          YY          ZZ          XY          YZ          ZX
  --------------------------------------------------------------------------------------
  Alpha Z    82.47128    82.47128    82.47128
  Ewald    -519.51484  -519.51484  -510.61619    -0.00000     0.00000     0.00000
  Hartree    83.10016    83.10016    87.06631     0.00000    -0.00000    -0.00000
  E(xc)     -92.90650   -92.90649   -92.91515     0.00000     0.00000    -0.00000
  Local      -7.67694    -7.67672   -20.24174     0.00000     0.00000     0.00000
  n-local   -13.79339    -1.99675    -7.79092     3.38536    -0.63317     2.42524
  augment   310.40941   310.40919   310.26840    -0.00000    -0.00000    -0.00000
  Kinetic   156.31226   150.80109   153.27937    -3.24886    -0.57512     0.50213
  Fock        0.00000     0.00000     0.00000     0.00000     0.00000     0.00000
  -------------------------------------------------------------------------------------
  Total       1.54418     1.54418     1.52136    -0.00000     0.00000    -0.00000
  in kB     120.42532   120.42532   118.64591    -0.00000     0.00000    -0.00000
  external pressure =      119.83 kB  Pullay stress =        0.00 kB


 VOLUME and BASIS-vectors are now :
 -----------------------------------------------------------------------------
  energy-cutoff  :      425.00
  volume of cell :       20.54
      direct lattice vectors                 reciprocal lattice vectors
     1.225012744 -2.121784313  0.000000000     0.408159019 -0.235650720  0.000000000
     1.225012744  2.121784313  0.000000000     0.408159019  0.235650720  0.000000000
     0.000000000  0.000000000  3.952006983     0.000000000  0.000000000  0.253035990

  length of vectors
     2.450025488  2.450025488  3.952006983     0.471301439  0.471301439  0.253035990


 FORCES acting on ions
    electron-ion (+dipol)            ewald-force                    non-local-force                 convergence-correction
 -----------------------------------------------------------------------------------------------
   0.200E-10 -.320E-06 -.170E-11   0.321E-14 0.252E-11 -.222E-13   -.121E-16 0.000E+00 -.130E-17   -.243E-13 -.221E-08 -.722E-13
   0.186E-10 0.320E-06 -.549E-11   0.139E-14 -.252E-11 0.222E-13   0.173E-16 0.000E+00 -.130E-17   -.138E-13 0.221E-08 0.715E-13
 -----------------------------------------------------------------------------------------------
   0.386E-10 -.262E-12 -.719E-11   0.460E-14 -.153E-14 0.000E+00   0.520E-17 0.000E+00 -.260E-17   -.381E-13 0.403E-14 -.694E-15
 
 
 POSITION                                       TOTAL-FORCE (eV/Angst)
 -----------------------------------------------------------------------------------
      1.22501      0.70726      0.98800        -0.000000     -0.000000      0.000000
      1.22501     -0.70726      2.96401         0.000000      0.000000     -0.000000
 -----------------------------------------------------------------------------------
    total drift:                                0.000000     -0.000000     -0.000000


--------------------------------------------------------------------------------------------------------



  FREE ENERGIE OF THE ION-ELECTRON SYSTEM (eV)
  ---------------------------------------------------
  free  energy   TOTEN  =       -14.02410387 eV

  energy  without entropy=      -14.02188352  energy(sigma->0) =      -14.02299370
 


--------------------------------------------------------------------------------------------------------


    POTLOK:  cpu time      0.0096: real time      0.0097


--------------------------------------------------------------------------------------------------------




--------------------------------------------------------------------------------------------------------


  
 reached required accuracy - stopping structural energy minimisation
     LOOP+:  cpu time     20.7488: real time     20.8550
    4ORBIT:  cpu time      0.0000: real time      0.0000



 total charge

# of ion       s       p       d       tot
------------------------------------------
    1        0.512   0.573   7.299   8.384
    2        0.512   0.573   7.299   8.384
--------------------------------------------------
tot          1.025   1.145  14.598  16.768



 magnetization (x)

# of ion       s       p       d       tot
------------------------------------------
    1       -0.016  -0.056   1.645   1.574
    2       -0.016  -0.056   1.645   1.574
--------------------------------------------------
tot         -0.032  -0.112   3.291   3.148
 

 total amount of memory used by VASP MPI-rank0    38436. kBytes
=======================================================================

   base      :      30000. kBytes
   nonl-proj :       5923. kBytes
   fftplans  :        146. kBytes
   grid      :        846. kBytes
   one-center:         62. kBytes
   wavefun   :       1459. kBytes
 
  
  
 General timing and accounting informations for this job:
 ========================================================
  
                  Total CPU time used (sec):       21.776
                            User time (sec):       21.242
                          System time (sec):        0.534
                         Elapsed time (sec):       23.243
  
                   Maximum memory used (kb):      226476.
                   Average memory used (kb):          N/A
  
                          Minor page faults:        37522
                          Major page faults:           67
                 Voluntary context switches:         2177
