 vasp.6.3.2 27Jun22 (build Aug 12 2022 00:53:59) complex                        
  
 executed on               tv2STD date 2024.12.03  02:35:42
 running   28 mpi-ranks, with    1 threads/rank
 distrk:  each k-point on   28 cores,    1 groups
 distr:  one band on NCORE=   1 cores,   28 groups


--------------------------------------------------------------------------------------------------------


 INCAR:
   SYSTEM = Co-hcc
   NWRITE = 2    write-flag
   ISTART = 0    job   : 0-new, 1-cont, 2-samecut
   ICHARG = 2    charge: 0-wave, 1-file, 2-atom, >10-const
   INIWAV = 1    electr: 0-lowe 1-rand  2-diag
   ENCUT = 425.0     energy cutoff in eV
   PREC = Accurate      normal | accurate
   ADDGRID = .FALSE.  (use fine grid)
   NELM = 100     number of ELM steps
   EDIFF = 1E-06    energy stopping-criterion for ELM
   LREAL = .FALSE.      real-space projection (.FALSE., .TRUE., On, Auto)
   ALGO = Normal     Normal, Fast, Very_Fast
   LWAVE = .FALSE.
   LCHARG = .FALSE.
   NSW = 100       max number of geometry steps
   IBRION = 2     ionic relax: 0-MD, 1-quasi-Newton, 2-CG, 3-Damped MD
   EDIFFG = -0.02  force (eV/A) stopping-criterion for geometry steps
   ISIF = 2     (1:force\=y stress\=trace only ions\=y shape\=n volume\=n)
   ISYM = 1     (1-use symmetry, 0-no symmetry)
   ISMEAR = 0     (-1-Fermi, 1-Methfessel/Paxton)
   SIGMA = 0.05   broadening in eV
   LORBIT = 11
   ISPIN = 2
   MAGMOM = 2*3

 POTCAR:    PAW_PBE Co 02Aug2007                  
 POTCAR:    PAW_PBE Co 02Aug2007                  
   SHA256 =  0e690c60710354995174544f52f9f2c30879afabeffe3b3fbd4001cb294e56d4 Co/POTCAR             
   COPYR  = (c) Copyright 02Aug2007 Georg Kresse                                                    
   COPYR  = This file is part of the software VASP. Any use, copying, and all other rights are regul
   COPYR  = If you do not have a valid VASP license, you may not use, copy or distribute this file. 
   VRHFIN =Co: d8 s1                                                                                
   LEXCH  = PE                                                                                      
   EATOM  =   813.3670 eV,   59.7808 Ry                                                             
                                                                                                    
   TITEL  = PAW_PBE Co 02Aug2007                                                                    
   LULTRA =        F    use ultrasoft PP ?                                                          
   IUNSCR =        1    unscreen: 0-lin 1-nonlin 2-no                                               
   RPACOR =    2.000    partial core radius                                                         
   POMASS =   58.933; ZVAL   =    9.000    mass and valenz                                          
   RCORE  =    2.300    outmost cutoff radius                                                       
   RWIGS  =    2.460; RWIGS  =    1.302    wigner-seitz radius (au A)                               
   ENMAX  =  267.968; ENMIN  =  200.976 eV                                                          
   RCLOC  =    1.203    cutoff for local pot                                                        
   LCOR   =        T    correct aug charges                                                         
   LPAW   =        T    paw PP                                                                      
   EAUG   =  477.818                                                                                
   DEXC   =    0.000                                                                                
   RMAX   =    2.360    core radius for proj-oper                                                   
   RAUG   =    1.300    factor for augmentation sphere                                              
   RDEP   =    2.393    radius for radial grids                                                     
   RDEPT  =    1.864    core radius for aug-charge                                                  
                                                                                                    
   Atomic configuration                                                                             
    9 entries                                                                                       
     n  l   j            E        occ.                                                              
     1  0  0.50     -7587.6674   2.0000                                                             
     2  0  0.50      -893.6084   2.0000                                                             
     2  1  1.50      -764.5805   6.0000                                                             
     3  0  0.50       -97.5973   2.0000                                                             
     3  1  1.50       -60.9648   6.0000                                                             
     3  2  2.50        -4.2382   8.0000                                                             
     4  0  0.50        -4.3746   1.0000                                                             
     4  1  1.50        -4.0817   0.0000                                                             
     4  3  2.50        -1.3606   0.0000                                                             
   Description                                                                                      
     l       E           TYP  RCUT    TYP  RCUT                                                     
     2     -4.2382362     23  2.300                                                                 
     2     -5.5988188     23  2.300                                                                 
     0     -4.3745797     23  2.300                                                                 
     0      5.7660125     23  2.300                                                                 
     1     -2.7211652     23  2.300                                                                 
     1     16.9860234     23  2.300                                                                 
  local pseudopotential read in
  partial core-charges read in
  partial kinetic energy density read in
  atomic valenz-charges read in
  non local Contribution for L=           2  read in
    real space projection operators read in
  non local Contribution for L=           2  read in
    real space projection operators read in
  non local Contribution for L=           0  read in
    real space projection operators read in
  non local Contribution for L=           0  read in
    real space projection operators read in
  non local Contribution for L=           1  read in
    real space projection operators read in
  non local Contribution for L=           1  read in
    real space projection operators read in
    PAW grid and wavefunctions read in
 
   number of l-projection  operators is LMAX  =           6
   number of lm-projection operators is LMMAX =          18
 
  PAW_PBE Co 02Aug2007                  :
 energy of atom  1       EATOM= -813.3670
 kinetic energy error for atom=    0.0054 (will be added to EATOM!!)
 
 
 POSCAR: Co
  positions in cartesian coordinates
  No initial velocities read in
 exchange correlation table for  LEXCH =        8
   RHO(1)=    0.500       N(1)  =     2000
   RHO(2)=  100.500       N(2)  =     4000
 


--------------------------------------------------------------------------------------------------------


 ion  position               nearest neighbor table
   1  0.333  0.667  0.250-   2 2.35   2 2.35   2 2.35   2 2.35   2 2.35   2 2.35
   2  0.667  0.333  0.750-   1 2.35   1 2.35   1 2.35   1 2.35   1 2.35   1 2.35
 
  LATTYP: Found a hexagonal cell.
 ALAT       =     2.3676618294
 C/A-ratio  =     1.6130472937
  
  Lattice vectors:
  
 A1 = (   1.1838309147,  -2.0504552918,   0.0000000000)
 A2 = (   1.1838309147,   2.0504552918,   0.0000000000)
 A3 = (   0.0000000000,   0.0000000000,   3.8191505064)


Analysis of symmetry for initial positions (statically):
=====================================================================
 Subroutine PRICEL returns:
 Original cell was already a primitive cell.
 

 Routine SETGRP: Setting up the symmetry group for a 
 hexagonal supercell.


 Subroutine GETGRP returns: Found 24 space group operations
 (whereof 12 operations were pure point group operations)
 out of a pool of 24 trial point group operations.


The static configuration has the point symmetry D_3d.
 The point group associated with its full space group is D_6h.


Analysis of symmetry for dynamics (positions and initial velocities):
=====================================================================
 Subroutine PRICEL returns:
 Original cell was already a primitive cell.
 

 Routine SETGRP: Setting up the symmetry group for a 
 hexagonal supercell.


 Subroutine GETGRP returns: Found 24 space group operations
 (whereof 12 operations were pure point group operations)
 out of a pool of 24 trial point group operations.


The dynamic configuration has the point symmetry D_3d.
 The point group associated with its full space group is D_6h.


Analysis of structural, dynamic, and magnetic symmetry:
=====================================================================
 Subroutine PRICEL returns:
 Original cell was already a primitive cell.
 

 Routine SETGRP: Setting up the symmetry group for a 
 hexagonal supercell.


 Subroutine GETGRP returns: Found 24 space group operations
 (whereof 12 operations were pure point group operations)
 out of a pool of 24 trial point group operations.


The overall configuration has the point symmetry D_3d.
 The point group associated with its full space group is D_6h.


 Subroutine INISYM returns: Found 24 space group operations
 (whereof 12 operations are pure point group operations),
 and found     1 'primitive' translations


----------------------------------------------------------------------------------------

                                     Primitive cell                                     

  volume of cell :      18.5412

  direct lattice vectors                    reciprocal lattice vectors
     1.183830915 -2.050455292  0.000000000     0.422357614 -0.243848282  0.000000000
     1.183830915  2.050455292  0.000000000     0.422357614  0.243848282  0.000000000
     0.000000000  0.000000000  3.819150506     0.000000000  0.000000000  0.261838332

  length of vectors
     2.367661829  2.367661829  3.819150506     0.487696564  0.487696564  0.261838332

  position of ions in fractional coordinates (direct lattice)
     0.333333333  0.666666667  0.250000000
     0.666666667  0.333333333  0.750000000

  ion indices of the primitive-cell ions
   primitive index   ion index
                 1           1
                 2           2

----------------------------------------------------------------------------------------

 
 
 KPOINTS: Automatic mesh                          

Automatic generation of k-mesh.
 Grid dimensions read from file:
 generate k-points for:   12   12    8

 Generating k-lattice:

  Cartesian coordinates                     Fractional coordinates (reciprocal lattice)
     0.035196468 -0.020320690  0.000000000     0.083333333  0.000000000  0.000000000
     0.035196468  0.020320690  0.000000000     0.000000000  0.083333333  0.000000000
     0.000000000  0.000000000  0.032729792     0.000000000  0.000000000  0.125000000

  Length of vectors
     0.040641380  0.040641380  0.032729792

  Shift w.r.t. Gamma in fractional coordinates (k-lattice)
     0.000000000  0.000000000  0.000000000

 
 Subroutine IBZKPT returns following result:
 ===========================================
 
 Found     95 irreducible k-points:
 
 Following reciprocal coordinates:
            Coordinates               Weight
  0.000000  0.000000  0.000000      1.000000
  0.083333  0.000000  0.000000      6.000000
  0.166667  0.000000  0.000000      6.000000
  0.250000 -0.000000  0.000000      6.000000
  0.333333  0.000000  0.000000      6.000000
  0.416667 -0.000000  0.000000      6.000000
  0.500000 -0.000000  0.000000      3.000000
  0.083333  0.083333  0.000000      6.000000
  0.166667  0.083333  0.000000     12.000000
  0.250000  0.083333  0.000000     12.000000
  0.333333  0.083333  0.000000     12.000000
  0.416667  0.083333  0.000000     12.000000
  0.166667  0.166667  0.000000      6.000000
  0.250000  0.166667  0.000000     12.000000
  0.333333  0.166667  0.000000     12.000000
  0.416667  0.166667  0.000000      6.000000
  0.250000  0.250000  0.000000      6.000000
  0.333333  0.250000  0.000000     12.000000
  0.333333  0.333333  0.000000      2.000000
  0.000000  0.000000  0.125000      2.000000
  0.083333  0.000000  0.125000     12.000000
  0.166667  0.000000  0.125000     12.000000
  0.250000 -0.000000  0.125000     12.000000
  0.333333  0.000000  0.125000     12.000000
  0.416667 -0.000000  0.125000     12.000000
  0.500000 -0.000000  0.125000      6.000000
  0.083333  0.083333  0.125000     12.000000
  0.166667  0.083333  0.125000     24.000000
  0.250000  0.083333  0.125000     24.000000
  0.333333  0.083333  0.125000     24.000000
  0.416667  0.083333  0.125000     24.000000
  0.166667  0.166667  0.125000     12.000000
  0.250000  0.166667  0.125000     24.000000
  0.333333  0.166667  0.125000     24.000000
  0.416667  0.166667  0.125000     12.000000
  0.250000  0.250000  0.125000     12.000000
  0.333333  0.250000  0.125000     24.000000
  0.333333  0.333333  0.125000      4.000000
  0.000000  0.000000  0.250000      2.000000
  0.083333  0.000000  0.250000     12.000000
  0.166667  0.000000  0.250000     12.000000
  0.250000 -0.000000  0.250000     12.000000
  0.333333  0.000000  0.250000     12.000000
  0.416667 -0.000000  0.250000     12.000000
  0.500000 -0.000000  0.250000      6.000000
  0.083333  0.083333  0.250000     12.000000
  0.166667  0.083333  0.250000     24.000000
  0.250000  0.083333  0.250000     24.000000
  0.333333  0.083333  0.250000     24.000000
  0.416667  0.083333  0.250000     24.000000
  0.166667  0.166667  0.250000     12.000000
  0.250000  0.166667  0.250000     24.000000
  0.333333  0.166667  0.250000     24.000000
  0.416667  0.166667  0.250000     12.000000
  0.250000  0.250000  0.250000     12.000000
  0.333333  0.250000  0.250000     24.000000
  0.333333  0.333333  0.250000      4.000000
  0.000000  0.000000  0.375000      2.000000
  0.083333  0.000000  0.375000     12.000000
  0.166667  0.000000  0.375000     12.000000
  0.250000 -0.000000  0.375000     12.000000
  0.333333  0.000000  0.375000     12.000000
  0.416667 -0.000000  0.375000     12.000000
  0.500000 -0.000000  0.375000      6.000000
  0.083333  0.083333  0.375000     12.000000
  0.166667  0.083333  0.375000     24.000000
  0.250000  0.083333  0.375000     24.000000
  0.333333  0.083333  0.375000     24.000000
  0.416667  0.083333  0.375000     24.000000
  0.166667  0.166667  0.375000     12.000000
  0.250000  0.166667  0.375000     24.000000
  0.333333  0.166667  0.375000     24.000000
  0.416667  0.166667  0.375000     12.000000
  0.250000  0.250000  0.375000     12.000000
  0.333333  0.250000  0.375000     24.000000
  0.333333  0.333333  0.375000      4.000000
  0.000000  0.000000  0.500000      1.000000
  0.083333  0.000000  0.500000      6.000000
  0.166667  0.000000  0.500000      6.000000
  0.250000 -0.000000  0.500000      6.000000
  0.333333  0.000000  0.500000      6.000000
  0.416667 -0.000000  0.500000      6.000000
  0.500000 -0.000000  0.500000      3.000000
  0.083333  0.083333  0.500000      6.000000
  0.166667  0.083333  0.500000     12.000000
  0.250000  0.083333  0.500000     12.000000
  0.333333  0.083333  0.500000     12.000000
  0.416667  0.083333  0.500000     12.000000
  0.166667  0.166667  0.500000      6.000000
  0.250000  0.166667  0.500000     12.000000
  0.333333  0.166667  0.500000     12.000000
  0.416667  0.166667  0.500000      6.000000
  0.250000  0.250000  0.500000      6.000000
  0.333333  0.250000  0.500000     12.000000
  0.333333  0.333333  0.500000      2.000000
 
 Following cartesian coordinates:
            Coordinates               Weight
  0.000000  0.000000  0.000000      1.000000
  0.035196 -0.020321  0.000000      6.000000
  0.070393 -0.040641  0.000000      6.000000
  0.105589 -0.060962  0.000000      6.000000
  0.140786 -0.081283  0.000000      6.000000
  0.175982 -0.101603  0.000000      6.000000
  0.211179 -0.121924  0.000000      3.000000
  0.070393  0.000000  0.000000      6.000000
  0.105589 -0.020321  0.000000     12.000000
  0.140786 -0.040641  0.000000     12.000000
  0.175982 -0.060962  0.000000     12.000000
  0.211179 -0.081283  0.000000     12.000000
  0.140786  0.000000  0.000000      6.000000
  0.175982 -0.020321  0.000000     12.000000
  0.211179 -0.040641  0.000000     12.000000
  0.246375 -0.060962  0.000000      6.000000
  0.211179  0.000000  0.000000      6.000000
  0.246375 -0.020321  0.000000     12.000000
  0.281572  0.000000  0.000000      2.000000
  0.000000  0.000000  0.032730      2.000000
  0.035196 -0.020321  0.032730     12.000000
  0.070393 -0.040641  0.032730     12.000000
  0.105589 -0.060962  0.032730     12.000000
  0.140786 -0.081283  0.032730     12.000000
  0.175982 -0.101603  0.032730     12.000000
  0.211179 -0.121924  0.032730      6.000000
  0.070393  0.000000  0.032730     12.000000
  0.105589 -0.020321  0.032730     24.000000
  0.140786 -0.040641  0.032730     24.000000
  0.175982 -0.060962  0.032730     24.000000
  0.211179 -0.081283  0.032730     24.000000
  0.140786  0.000000  0.032730     12.000000
  0.175982 -0.020321  0.032730     24.000000
  0.211179 -0.040641  0.032730     24.000000
  0.246375 -0.060962  0.032730     12.000000
  0.211179  0.000000  0.032730     12.000000
  0.246375 -0.020321  0.032730     24.000000
  0.281572  0.000000  0.032730      4.000000
  0.000000  0.000000  0.065460      2.000000
  0.035196 -0.020321  0.065460     12.000000
  0.070393 -0.040641  0.065460     12.000000
  0.105589 -0.060962  0.065460     12.000000
  0.140786 -0.081283  0.065460     12.000000
  0.175982 -0.101603  0.065460     12.000000
  0.211179 -0.121924  0.065460      6.000000
  0.070393  0.000000  0.065460     12.000000
  0.105589 -0.020321  0.065460     24.000000
  0.140786 -0.040641  0.065460     24.000000
  0.175982 -0.060962  0.065460     24.000000
  0.211179 -0.081283  0.065460     24.000000
  0.140786  0.000000  0.065460     12.000000
  0.175982 -0.020321  0.065460     24.000000
  0.211179 -0.040641  0.065460     24.000000
  0.246375 -0.060962  0.065460     12.000000
  0.211179  0.000000  0.065460     12.000000
  0.246375 -0.020321  0.065460     24.000000
  0.281572  0.000000  0.065460      4.000000
  0.000000  0.000000  0.098189      2.000000
  0.035196 -0.020321  0.098189     12.000000
  0.070393 -0.040641  0.098189     12.000000
  0.105589 -0.060962  0.098189     12.000000
  0.140786 -0.081283  0.098189     12.000000
  0.175982 -0.101603  0.098189     12.000000
  0.211179 -0.121924  0.098189      6.000000
  0.070393  0.000000  0.098189     12.000000
  0.105589 -0.020321  0.098189     24.000000
  0.140786 -0.040641  0.098189     24.000000
  0.175982 -0.060962  0.098189     24.000000
  0.211179 -0.081283  0.098189     24.000000
  0.140786  0.000000  0.098189     12.000000
  0.175982 -0.020321  0.098189     24.000000
  0.211179 -0.040641  0.098189     24.000000
  0.246375 -0.060962  0.098189     12.000000
  0.211179  0.000000  0.098189     12.000000
  0.246375 -0.020321  0.098189     24.000000
  0.281572  0.000000  0.098189      4.000000
  0.000000  0.000000  0.130919      1.000000
  0.035196 -0.020321  0.130919      6.000000
  0.070393 -0.040641  0.130919      6.000000
  0.105589 -0.060962  0.130919      6.000000
  0.140786 -0.081283  0.130919      6.000000
  0.175982 -0.101603  0.130919      6.000000
  0.211179 -0.121924  0.130919      3.000000
  0.070393  0.000000  0.130919      6.000000
  0.105589 -0.020321  0.130919     12.000000
  0.140786 -0.040641  0.130919     12.000000
  0.175982 -0.060962  0.130919     12.000000
  0.211179 -0.081283  0.130919     12.000000
  0.140786  0.000000  0.130919      6.000000
  0.175982 -0.020321  0.130919     12.000000
  0.211179 -0.040641  0.130919     12.000000
  0.246375 -0.060962  0.130919      6.000000
  0.211179  0.000000  0.130919      6.000000
  0.246375 -0.020321  0.130919     12.000000
  0.281572  0.000000  0.130919      2.000000
 


--------------------------------------------------------------------------------------------------------




 Dimension of arrays:
   k-points           NKPTS =     95   k-points in BZ     NKDIM =     95   number of bands    NBANDS=     28
   number of dos      NEDOS =    301   number of ions     NIONS =      2
   non local maximal  LDIM  =      6   non local SUM 2l+1 LMDIM =     18
   total plane-waves  NPLWV =   7168
   max r-space proj   IRMAX =      1   max aug-charges    IRDMAX=  15445
   dimension x,y,z NGX =    16 NGY =   16 NGZ =   28
   dimension x,y,z NGXF=    32 NGYF=   32 NGZF=   56
   support grid    NGXF=    32 NGYF=   32 NGZF=   56
   ions per type =               2
   NGX,Y,Z   is equivalent  to a cutoff of  11.23, 11.23, 12.19 a.u.
   NGXF,Y,Z  is equivalent  to a cutoff of  22.47, 22.47, 24.38 a.u.

 SYSTEM =  Co-hcc                                  
 POSCAR =  Co                                      

 Startparameter for this run:
   NWRITE =      2    write-flag & timer
   PREC   = accura    normal or accurate (medium, high low for compatibility)
   ISTART =      0    job   : 0-new  1-cont  2-samecut
   ICHARG =      2    charge: 1-file 2-atom 10-const
   ISPIN  =      2    spin polarized calculation?
   LNONCOLLINEAR =      F non collinear calculations
   LSORBIT =      F    spin-orbit coupling
   INIWAV =      1    electr: 0-lowe 1-rand  2-diag
   LASPH  =      F    aspherical Exc in radial PAW
 Electronic Relaxation 1
   ENCUT  =  425.0 eV  31.24 Ry    5.59 a.u.   3.98  3.98  6.42*2*pi/ulx,y,z
   ENINI  =  425.0     initial cutoff
   ENAUG  =  477.8 eV  augmentation charge cutoff
   NELM   =    100;   NELMIN=  2; NELMDL= -5     # of ELM steps 
   EDIFF  = 0.1E-05   stopping-criterion for ELM
   LREAL  =      F    real-space projection
   NLSPLINE    = F    spline interpolate recip. space projectors
   LCOMPAT=      F    compatible to vasp.4.4
   GGA_COMPAT  = T    GGA compatible to vasp.4.4-vasp.4.6
   LMAXPAW     = -100 max onsite density
   LMAXMIX     =    2 max onsite mixed and CHGCAR
   VOSKOWN=      0    Vosko Wilk Nusair interpolation
   ROPT   =    0.00000
 Ionic relaxation
   EDIFFG = -.2E-01   stopping-criterion for IOM
   NSW    =    100    number of steps for IOM
   NBLOCK =      1;   KBLOCK =    100    inner block; outer block 
   IBRION =      2    ionic relax: 0-MD 1-quasi-New 2-CG
   NFREE  =      1    steps in history (QN), initial steepest desc. (CG)
   ISIF   =      2    stress and relaxation
   IWAVPR =     11    prediction:  0-non 1-charg 2-wave 3-comb
   ISYM   =      1    0-nonsym 1-usesym 2-fastsym
   LCORR  =      T    Harris-Foulkes like correction to forces

   POTIM  = 0.5000    time-step for ionic-motion
   TEIN   =    0.0    initial temperature
   TEBEG  =    0.0;   TEEND  =   0.0 temperature during run
   SMASS  =  -3.00    Nose mass-parameter (am)
   estimated Nose-frequenzy (Omega)   =  0.10E-29 period in steps = 0.13E+47 mass=  -0.128E-27a.u.
   SCALEE = 1.0000    scale energy and forces
   NPACO  =    256;   APACO  = 10.0  distance and # of slots for P.C.
   PSTRESS=    0.0 pullay stress

  Mass of Ions in am
   POMASS =  58.93
  Ionic Valenz
   ZVAL   =   9.00
  Atomic Wigner-Seitz radii
   RWIGS  =  -1.00
  virtual crystal weights 
   VCA    =   1.00
   NELECT =      18.0000    total number of electrons
   NUPDOWN=      -1.0000    fix difference up-down

 DOS related values:
   EMIN   =  10.00;   EMAX   =-10.00  energy-range for DOS
   EFERMI =   0.00
   ISMEAR =     0;   SIGMA  =   0.05  broadening in eV -4-tet -1-fermi 0-gaus

 Electronic relaxation 2 (details)
   IALGO  =     38    algorithm
   LDIAG  =      T    sub-space diagonalisation (order eigenvalues)
   LSUBROT=      F    optimize rotation matrix (better conditioning)
   TURBO    =      0    0=normal 1=particle mesh
   IRESTART =      0    0=no restart 2=restart with 2 vectors
   NREBOOT  =      0    no. of reboots
   NMIN     =      0    reboot dimension
   EREF     =   0.00    reference energy to select bands
   IMIX   =      4    mixing-type and parameters
     AMIX     =   0.40;   BMIX     =  1.00
     AMIX_MAG =   1.60;   BMIX_MAG =  1.00
     AMIN     =   0.10
     WC   =   100.;   INIMIX=   1;  MIXPRE=   1;  MAXMIX= -45

 Intra band minimization:
   WEIMIN = 0.0010     energy-eigenvalue tresh-hold
   EBREAK =  0.89E-08  absolut break condition
   DEPER  =   0.30     relativ break condition  

   TIME   =   0.40     timestep for ELM

  volume/ion in A,a.u.               =       9.27        62.56
  Fermi-wavevector in a.u.,A,eV,Ry     =   1.621014  3.063272 35.751841  2.627686
  Thomas-Fermi vector in A             =   2.714859
 
 Write flags
   LWAVE        =      F    write WAVECAR
   LDOWNSAMPLE  =      F    k-point downsampling of WAVECAR
   LCHARG       =      F    write CHGCAR
   LVTOT        =      F    write LOCPOT, total local potential
   LVHAR        =      F    write LOCPOT, Hartree potential only
   LELF         =      F    write electronic localiz. function (ELF)
   LORBIT       =     11    0 simple, 1 ext, 2 COOP (PROOUT), +10 PAW based schemes


 Dipole corrections
   LMONO  =      F    monopole corrections only (constant potential shift)
   LDIPOL =      F    correct potential (dipole corrections)
   IDIPOL =      0    1-x, 2-y, 3-z, 4-all directions 
   EPSILON=  1.0000000 bulk dielectric constant

 Exchange correlation treatment:
   GGA     =    --    GGA type
   LEXCH   =     8    internal setting for exchange type
   LIBXC   =     F    Libxc                    
   VOSKOWN =     0    Vosko Wilk Nusair interpolation
   LHFCALC =     F    Hartree Fock is set to
   LHFONE  =     F    Hartree Fock one center treatment
   AEXX    =    0.0000 exact exchange contribution

 Linear response parameters
   LEPSILON=     F    determine dielectric tensor
   LRPA    =     F    only Hartree local field effects (RPA)
   LNABLA  =     F    use nabla operator in PAW spheres
   LVEL    =     F    velocity operator in full k-point grid
   CSHIFT  =0.1000    complex shift for real part using Kramers Kronig
   OMEGAMAX=  -1.0    maximum frequency
   DEG_THRESHOLD= 0.2000000E-02 threshold for treating states as degnerate
   RTIME   =   -0.100 relaxation time in fs
  (WPLASMAI=    0.000 imaginary part of plasma frequency in eV, 0.658/RTIME)
   DFIELD  = 0.0000000 0.0000000 0.0000000 field for delta impulse in time
 
  Optional k-point grid parameters
   LKPOINTS_OPT  =     F    use optional k-point grid
   KPOINTS_OPT_MODE=     1    mode for optional k-point grid
 
 Orbital magnetization related:
   ORBITALMAG=     F  switch on orbital magnetization
   LCHIMAG   =     F  perturbation theory with respect to B field
   DQ        =  0.001000  dq finite difference perturbation B field
   LLRAUG    =     F  two centre corrections for induced B field



--------------------------------------------------------------------------------------------------------


 conjugate gradient relaxation of ions
 charge density and potential will be updated during run
 spin polarized calculation
 Variant of blocked Davidson
 Davidson routine will perform the subspace rotation
 perform sub-space diagonalisation
    after iterative eigenvector-optimisation
 modified Broyden-mixing scheme, WC =      100.0
 initial mixing is a Kerker type mixing with AMIX =  0.4000 and BMIX =      1.0000
 Hartree-type preconditioning will be used
 using additional bands           19
 reciprocal scheme for non local part
 use partial core corrections
 calculate Harris-corrections to forces 
   (improved forces if not selfconsistent)
 use gradient corrections 
 use of overlap-Matrix (Vanderbilt PP)
 Gauss-broadening in eV      SIGMA  =   0.05


--------------------------------------------------------------------------------------------------------


  energy-cutoff  :      425.00
  volume of cell :       18.54
      direct lattice vectors                 reciprocal lattice vectors
     1.183830915 -2.050455292  0.000000000     0.422357614 -0.243848282  0.000000000
     1.183830915  2.050455292  0.000000000     0.422357614  0.243848282  0.000000000
     0.000000000  0.000000000  3.819150506     0.000000000  0.000000000  0.261838332

  length of vectors
     2.367661829  2.367661829  3.819150506     0.487696564  0.487696564  0.261838332


 
 k-points in units of 2pi/SCALE and weight: Automatic mesh                          
   0.00000000  0.00000000  0.00000000       0.001
   0.03519647 -0.02032069  0.00000000       0.005
   0.07039294 -0.04064138  0.00000000       0.005
   0.10558940 -0.06096207  0.00000000       0.005
   0.14078587 -0.08128276  0.00000000       0.005
   0.17598234 -0.10160345  0.00000000       0.005
   0.21117881 -0.12192414  0.00000000       0.003
   0.07039294  0.00000000  0.00000000       0.005
   0.10558940 -0.02032069  0.00000000       0.010
   0.14078587 -0.04064138  0.00000000       0.010
   0.17598234 -0.06096207  0.00000000       0.010
   0.21117881 -0.08128276  0.00000000       0.010
   0.14078587  0.00000000  0.00000000       0.005
   0.17598234 -0.02032069  0.00000000       0.010
   0.21117881 -0.04064138  0.00000000       0.010
   0.24637527 -0.06096207  0.00000000       0.005
   0.21117881  0.00000000  0.00000000       0.005
   0.24637527 -0.02032069  0.00000000       0.010
   0.28157174  0.00000000  0.00000000       0.002
   0.00000000  0.00000000  0.03272979       0.002
   0.03519647 -0.02032069  0.03272979       0.010
   0.07039294 -0.04064138  0.03272979       0.010
   0.10558940 -0.06096207  0.03272979       0.010
   0.14078587 -0.08128276  0.03272979       0.010
   0.17598234 -0.10160345  0.03272979       0.010
   0.21117881 -0.12192414  0.03272979       0.005
   0.07039294  0.00000000  0.03272979       0.010
   0.10558940 -0.02032069  0.03272979       0.021
   0.14078587 -0.04064138  0.03272979       0.021
   0.17598234 -0.06096207  0.03272979       0.021
   0.21117881 -0.08128276  0.03272979       0.021
   0.14078587  0.00000000  0.03272979       0.010
   0.17598234 -0.02032069  0.03272979       0.021
   0.21117881 -0.04064138  0.03272979       0.021
   0.24637527 -0.06096207  0.03272979       0.010
   0.21117881  0.00000000  0.03272979       0.010
   0.24637527 -0.02032069  0.03272979       0.021
   0.28157174  0.00000000  0.03272979       0.003
   0.00000000  0.00000000  0.06545958       0.002
   0.03519647 -0.02032069  0.06545958       0.010
   0.07039294 -0.04064138  0.06545958       0.010
   0.10558940 -0.06096207  0.06545958       0.010
   0.14078587 -0.08128276  0.06545958       0.010
   0.17598234 -0.10160345  0.06545958       0.010
   0.21117881 -0.12192414  0.06545958       0.005
   0.07039294  0.00000000  0.06545958       0.010
   0.10558940 -0.02032069  0.06545958       0.021
   0.14078587 -0.04064138  0.06545958       0.021
   0.17598234 -0.06096207  0.06545958       0.021
   0.21117881 -0.08128276  0.06545958       0.021
   0.14078587  0.00000000  0.06545958       0.010
   0.17598234 -0.02032069  0.06545958       0.021
   0.21117881 -0.04064138  0.06545958       0.021
   0.24637527 -0.06096207  0.06545958       0.010
   0.21117881  0.00000000  0.06545958       0.010
   0.24637527 -0.02032069  0.06545958       0.021
   0.28157174  0.00000000  0.06545958       0.003
   0.00000000  0.00000000  0.09818937       0.002
   0.03519647 -0.02032069  0.09818937       0.010
   0.07039294 -0.04064138  0.09818937       0.010
   0.10558940 -0.06096207  0.09818937       0.010
   0.14078587 -0.08128276  0.09818937       0.010
   0.17598234 -0.10160345  0.09818937       0.010
   0.21117881 -0.12192414  0.09818937       0.005
   0.07039294  0.00000000  0.09818937       0.010
   0.10558940 -0.02032069  0.09818937       0.021
   0.14078587 -0.04064138  0.09818937       0.021
   0.17598234 -0.06096207  0.09818937       0.021
   0.21117881 -0.08128276  0.09818937       0.021
   0.14078587  0.00000000  0.09818937       0.010
   0.17598234 -0.02032069  0.09818937       0.021
   0.21117881 -0.04064138  0.09818937       0.021
   0.24637527 -0.06096207  0.09818937       0.010
   0.21117881  0.00000000  0.09818937       0.010
   0.24637527 -0.02032069  0.09818937       0.021
   0.28157174  0.00000000  0.09818937       0.003
   0.00000000  0.00000000  0.13091917       0.001
   0.03519647 -0.02032069  0.13091917       0.005
   0.07039294 -0.04064138  0.13091917       0.005
   0.10558940 -0.06096207  0.13091917       0.005
   0.14078587 -0.08128276  0.13091917       0.005
   0.17598234 -0.10160345  0.13091917       0.005
   0.21117881 -0.12192414  0.13091917       0.003
   0.07039294  0.00000000  0.13091917       0.005
   0.10558940 -0.02032069  0.13091917       0.010
   0.14078587 -0.04064138  0.13091917       0.010
   0.17598234 -0.06096207  0.13091917       0.010
   0.21117881 -0.08128276  0.13091917       0.010
   0.14078587  0.00000000  0.13091917       0.005
   0.17598234 -0.02032069  0.13091917       0.010
   0.21117881 -0.04064138  0.13091917       0.010
   0.24637527 -0.06096207  0.13091917       0.005
   0.21117881  0.00000000  0.13091917       0.005
   0.24637527 -0.02032069  0.13091917       0.010
   0.28157174  0.00000000  0.13091917       0.002
 
 k-points in reciprocal lattice and weights: Automatic mesh                          
   0.00000000  0.00000000  0.00000000       0.001
   0.08333333  0.00000000  0.00000000       0.005
   0.16666667  0.00000000  0.00000000       0.005
   0.25000000 -0.00000000  0.00000000       0.005
   0.33333333  0.00000000  0.00000000       0.005
   0.41666667 -0.00000000  0.00000000       0.005
   0.50000000 -0.00000000  0.00000000       0.003
   0.08333333  0.08333333  0.00000000       0.005
   0.16666667  0.08333333  0.00000000       0.010
   0.25000000  0.08333333  0.00000000       0.010
   0.33333333  0.08333333  0.00000000       0.010
   0.41666667  0.08333333  0.00000000       0.010
   0.16666667  0.16666667  0.00000000       0.005
   0.25000000  0.16666667  0.00000000       0.010
   0.33333333  0.16666667  0.00000000       0.010
   0.41666667  0.16666667  0.00000000       0.005
   0.25000000  0.25000000  0.00000000       0.005
   0.33333333  0.25000000  0.00000000       0.010
   0.33333333  0.33333333  0.00000000       0.002
   0.00000000  0.00000000  0.12500000       0.002
   0.08333333  0.00000000  0.12500000       0.010
   0.16666667  0.00000000  0.12500000       0.010
   0.25000000 -0.00000000  0.12500000       0.010
   0.33333333  0.00000000  0.12500000       0.010
   0.41666667 -0.00000000  0.12500000       0.010
   0.50000000 -0.00000000  0.12500000       0.005
   0.08333333  0.08333333  0.12500000       0.010
   0.16666667  0.08333333  0.12500000       0.021
   0.25000000  0.08333333  0.12500000       0.021
   0.33333333  0.08333333  0.12500000       0.021
   0.41666667  0.08333333  0.12500000       0.021
   0.16666667  0.16666667  0.12500000       0.010
   0.25000000  0.16666667  0.12500000       0.021
   0.33333333  0.16666667  0.12500000       0.021
   0.41666667  0.16666667  0.12500000       0.010
   0.25000000  0.25000000  0.12500000       0.010
   0.33333333  0.25000000  0.12500000       0.021
   0.33333333  0.33333333  0.12500000       0.003
   0.00000000  0.00000000  0.25000000       0.002
   0.08333333  0.00000000  0.25000000       0.010
   0.16666667  0.00000000  0.25000000       0.010
   0.25000000 -0.00000000  0.25000000       0.010
   0.33333333  0.00000000  0.25000000       0.010
   0.41666667 -0.00000000  0.25000000       0.010
   0.50000000 -0.00000000  0.25000000       0.005
   0.08333333  0.08333333  0.25000000       0.010
   0.16666667  0.08333333  0.25000000       0.021
   0.25000000  0.08333333  0.25000000       0.021
   0.33333333  0.08333333  0.25000000       0.021
   0.41666667  0.08333333  0.25000000       0.021
   0.16666667  0.16666667  0.25000000       0.010
   0.25000000  0.16666667  0.25000000       0.021
   0.33333333  0.16666667  0.25000000       0.021
   0.41666667  0.16666667  0.25000000       0.010
   0.25000000  0.25000000  0.25000000       0.010
   0.33333333  0.25000000  0.25000000       0.021
   0.33333333  0.33333333  0.25000000       0.003
   0.00000000  0.00000000  0.37500000       0.002
   0.08333333  0.00000000  0.37500000       0.010
   0.16666667  0.00000000  0.37500000       0.010
   0.25000000 -0.00000000  0.37500000       0.010
   0.33333333  0.00000000  0.37500000       0.010
   0.41666667 -0.00000000  0.37500000       0.010
   0.50000000 -0.00000000  0.37500000       0.005
   0.08333333  0.08333333  0.37500000       0.010
   0.16666667  0.08333333  0.37500000       0.021
   0.25000000  0.08333333  0.37500000       0.021
   0.33333333  0.08333333  0.37500000       0.021
   0.41666667  0.08333333  0.37500000       0.021
   0.16666667  0.16666667  0.37500000       0.010
   0.25000000  0.16666667  0.37500000       0.021
   0.33333333  0.16666667  0.37500000       0.021
   0.41666667  0.16666667  0.37500000       0.010
   0.25000000  0.25000000  0.37500000       0.010
   0.33333333  0.25000000  0.37500000       0.021
   0.33333333  0.33333333  0.37500000       0.003
   0.00000000  0.00000000  0.50000000       0.001
   0.08333333  0.00000000  0.50000000       0.005
   0.16666667  0.00000000  0.50000000       0.005
   0.25000000 -0.00000000  0.50000000       0.005
   0.33333333  0.00000000  0.50000000       0.005
   0.41666667 -0.00000000  0.50000000       0.005
   0.50000000 -0.00000000  0.50000000       0.003
   0.08333333  0.08333333  0.50000000       0.005
   0.16666667  0.08333333  0.50000000       0.010
   0.25000000  0.08333333  0.50000000       0.010
   0.33333333  0.08333333  0.50000000       0.010
   0.41666667  0.08333333  0.50000000       0.010
   0.16666667  0.16666667  0.50000000       0.005
   0.25000000  0.16666667  0.50000000       0.010
   0.33333333  0.16666667  0.50000000       0.010
   0.41666667  0.16666667  0.50000000       0.005
   0.25000000  0.25000000  0.50000000       0.005
   0.33333333  0.25000000  0.50000000       0.010
   0.33333333  0.33333333  0.50000000       0.002
 
 position of ions in fractional coordinates (direct lattice) 
   0.33333333  0.66666667  0.25000000
   0.66666667  0.33333333  0.75000000
 
 position of ions in cartesian coordinates  (Angst):
   1.18383091  0.68348510  0.95478763
   1.18383091 -0.68348510  2.86436288
 


--------------------------------------------------------------------------------------------------------


 k-point   1 :   0.0000 0.0000 0.0000  plane waves:     373
 k-point   2 :   0.0833 0.0000 0.0000  plane waves:     369
 k-point   3 :   0.1667 0.0000 0.0000  plane waves:     365
 k-point   4 :   0.2500-0.0000 0.0000  plane waves:     369
 k-point   5 :   0.3333 0.0000 0.0000  plane waves:     369
 k-point   6 :   0.4167-0.0000 0.0000  plane waves:     367
 k-point   7 :   0.5000-0.0000 0.0000  plane waves:     358
 k-point   8 :   0.0833 0.0833 0.0000  plane waves:     366
 k-point   9 :   0.1667 0.0833 0.0000  plane waves:     369
 k-point  10 :   0.2500 0.0833 0.0000  plane waves:     369
 k-point  11 :   0.3333 0.0833 0.0000  plane waves:     374
 k-point  12 :   0.4167 0.0833 0.0000  plane waves:     362
 k-point  13 :   0.1667 0.1667 0.0000  plane waves:     372
 k-point  14 :   0.2500 0.1667 0.0000  plane waves:     374
 k-point  15 :   0.3333 0.1667 0.0000  plane waves:     373
 k-point  16 :   0.4167 0.1667 0.0000  plane waves:     370
 k-point  17 :   0.2500 0.2500 0.0000  plane waves:     376
 k-point  18 :   0.3333 0.2500 0.0000  plane waves:     371
 k-point  19 :   0.3333 0.3333 0.0000  plane waves:     372
 k-point  20 :   0.0000 0.0000 0.1250  plane waves:     361
 k-point  21 :   0.0833 0.0000 0.1250  plane waves:     365
 k-point  22 :   0.1667 0.0000 0.1250  plane waves:     359
 k-point  23 :   0.2500-0.0000 0.1250  plane waves:     368
 k-point  24 :   0.3333 0.0000 0.1250  plane waves:     373
 k-point  25 :   0.4167-0.0000 0.1250  plane waves:     369
 k-point  26 :   0.5000-0.0000 0.1250  plane waves:     366
 k-point  27 :   0.0833 0.0833 0.1250  plane waves:     364
 k-point  28 :   0.1667 0.0833 0.1250  plane waves:     368
 k-point  29 :   0.2500 0.0833 0.1250  plane waves:     368
 k-point  30 :   0.3333 0.0833 0.1250  plane waves:     371
 k-point  31 :   0.4167 0.0833 0.1250  plane waves:     369
 k-point  32 :   0.1667 0.1667 0.1250  plane waves:     366
 k-point  33 :   0.2500 0.1667 0.1250  plane waves:     375
 k-point  34 :   0.3333 0.1667 0.1250  plane waves:     376
 k-point  35 :   0.4167 0.1667 0.1250  plane waves:     371
 k-point  36 :   0.2500 0.2500 0.1250  plane waves:     375
 k-point  37 :   0.3333 0.2500 0.1250  plane waves:     371
 k-point  38 :   0.3333 0.3333 0.1250  plane waves:     369
 k-point  39 :   0.0000 0.0000 0.2500  plane waves:     343
 k-point  40 :   0.0833 0.0000 0.2500  plane waves:     355
 k-point  41 :   0.1667 0.0000 0.2500  plane waves:     358
 k-point  42 :   0.2500-0.0000 0.2500  plane waves:     365
 k-point  43 :   0.3333 0.0000 0.2500  plane waves:     367
 k-point  44 :   0.4167-0.0000 0.2500  plane waves:     368
 k-point  45 :   0.5000-0.0000 0.2500  plane waves:     372
 k-point  46 :   0.0833 0.0833 0.2500  plane waves:     356
 k-point  47 :   0.1667 0.0833 0.2500  plane waves:     366
 k-point  48 :   0.2500 0.0833 0.2500  plane waves:     371
 k-point  49 :   0.3333 0.0833 0.2500  plane waves:     371
 k-point  50 :   0.4167 0.0833 0.2500  plane waves:     373
 k-point  51 :   0.1667 0.1667 0.2500  plane waves:     370
 k-point  52 :   0.2500 0.1667 0.2500  plane waves:     371
 k-point  53 :   0.3333 0.1667 0.2500  plane waves:     376
 k-point  54 :   0.4167 0.1667 0.2500  plane waves:     376
 k-point  55 :   0.2500 0.2500 0.2500  plane waves:     371
 k-point  56 :   0.3333 0.2500 0.2500  plane waves:     370
 k-point  57 :   0.3333 0.3333 0.2500  plane waves:     378
 k-point  58 :   0.0000 0.0000 0.3750  plane waves:     343
 k-point  59 :   0.0833 0.0000 0.3750  plane waves:     350
 k-point  60 :   0.1667 0.0000 0.3750  plane waves:     361
 k-point  61 :   0.2500-0.0000 0.3750  plane waves:     364
 k-point  62 :   0.3333 0.0000 0.3750  plane waves:     368
 k-point  63 :   0.4167-0.0000 0.3750  plane waves:     371
 k-point  64 :   0.5000-0.0000 0.3750  plane waves:     374
 k-point  65 :   0.0833 0.0833 0.3750  plane waves:     358
 k-point  66 :   0.1667 0.0833 0.3750  plane waves:     364
 k-point  67 :   0.2500 0.0833 0.3750  plane waves:     369
 k-point  68 :   0.3333 0.0833 0.3750  plane waves:     371
 k-point  69 :   0.4167 0.0833 0.3750  plane waves:     374
 k-point  70 :   0.1667 0.1667 0.3750  plane waves:     374
 k-point  71 :   0.2500 0.1667 0.3750  plane waves:     372
 k-point  72 :   0.3333 0.1667 0.3750  plane waves:     370
 k-point  73 :   0.4167 0.1667 0.3750  plane waves:     371
 k-point  74 :   0.2500 0.2500 0.3750  plane waves:     374
 k-point  75 :   0.3333 0.2500 0.3750  plane waves:     371
 k-point  76 :   0.3333 0.3333 0.3750  plane waves:     369
 k-point  77 :   0.0000 0.0000 0.5000  plane waves:     348
 k-point  78 :   0.0833 0.0000 0.5000  plane waves:     348
 k-point  79 :   0.1667 0.0000 0.5000  plane waves:     354
 k-point  80 :   0.2500-0.0000 0.5000  plane waves:     366
 k-point  81 :   0.3333 0.0000 0.5000  plane waves:     366
 k-point  82 :   0.4167-0.0000 0.5000  plane waves:     368
 k-point  83 :   0.5000-0.0000 0.5000  plane waves:     368
 k-point  84 :   0.0833 0.0833 0.5000  plane waves:     354
 k-point  85 :   0.1667 0.0833 0.5000  plane waves:     364
 k-point  86 :   0.2500 0.0833 0.5000  plane waves:     364
 k-point  87 :   0.3333 0.0833 0.5000  plane waves:     370
 k-point  88 :   0.4167 0.0833 0.5000  plane waves:     372
 k-point  89 :   0.1667 0.1667 0.5000  plane waves:     370
 k-point  90 :   0.2500 0.1667 0.5000  plane waves:     374
 k-point  91 :   0.3333 0.1667 0.5000  plane waves:     374
 k-point  92 :   0.4167 0.1667 0.5000  plane waves:     374
 k-point  93 :   0.2500 0.2500 0.5000  plane waves:     372
 k-point  94 :   0.3333 0.2500 0.5000  plane waves:     372
 k-point  95 :   0.3333 0.3333 0.5000  plane waves:     366

 maximum and minimum number of plane-waves per node :       378      343

 maximum number of plane-waves:       378
 maximum index in each direction: 
   IXMAX=    3   IYMAX=    3   IZMAX=    6
   IXMIN=   -4   IYMIN=   -4   IZMIN=   -6


 serial   3D FFT for wavefunctions
 parallel 3D FFT for charge:
    minimum data exchange during FFTs selected (reduces bandwidth)


 total amount of memory used by VASP MPI-rank0    37788. kBytes
=======================================================================

   base      :      30000. kBytes
   nonl-proj :       5375. kBytes
   fftplans  :        144. kBytes
   grid      :        846. kBytes
   one-center:         62. kBytes
   wavefun   :       1361. kBytes
 
     INWAV:  cpu time      0.0000: real time      0.0003
 Broyden mixing: mesh for mixing (old mesh)
   NGX =  7   NGY =  7   NGZ = 13
  (NGX  = 32   NGY  = 32   NGZ  = 56)
  gives a total of    637 points

 initial charge density was supplied:
 charge density of overlapping atoms calculated
 number of electron      18.0000000 magnetization       6.0000000
 keeping initial charge density in first step


--------------------------------------------------------------------------------------------------------


 Maximum index for augmentation-charges          950 (set IRDMAX)


--------------------------------------------------------------------------------------------------------


 First call to EWALD:  gamma=   0.670
 Maximum number of real-space cells 3x 3x 2
 Maximum number of reciprocal cells 3x 3x 4

    FEWALD:  cpu time      0.0012: real time      0.0012


--------------------------------------- Iteration      1(   1)  ---------------------------------------


    POTLOK:  cpu time      0.0052: real time      0.0062
    SETDIJ:  cpu time      0.0049: real time      0.0050
     EDDAV:  cpu time      0.8465: real time      0.8514
       DOS:  cpu time      0.0014: real time      0.0014
    --------------------------------------------
      LOOP:  cpu time      0.8581: real time      0.8641

 eigenvalue-minimisations  : 10668
 total energy-change (2. order) :-0.1136763E+01  (-0.8538318E+03)
 number of electron      18.0000000 magnetization       6.0000000
 augmentation part       18.0000000 magnetization       6.0000000

 Free energy of the ion-electron system (eV)
  ---------------------------------------------------
  alpha Z        PSCENC =        91.38091821
  Ewald energy   TEWEN  =     -1603.55215266
  -Hartree energ DENC   =      -267.09957557
  -exchange      EXHF   =         0.00000000
  -V(xc)+E(xc)   XCENC  =        36.72671248
  PAW double counting   =      1439.98163886    -1545.88690193
  entropy T*S    EENTRO =        -0.00197984
  eigenvalues    EBANDS =       220.59134726
  atomic energy  EATOM  =      1626.72322989
  Solvation  Ediel_sol  =         0.00000000
  ---------------------------------------------------
  free energy    TOTEN  =        -1.13676330 eV

  energy without entropy =       -1.13478345  energy(sigma->0) =       -1.13577337


--------------------------------------------------------------------------------------------------------




--------------------------------------- Iteration      1(   2)  ---------------------------------------


     EDDAV:  cpu time      2.1052: real time      2.1152
       DOS:  cpu time      0.0008: real time      0.0008
    --------------------------------------------
      LOOP:  cpu time      2.1060: real time      2.1161

 eigenvalue-minimisations  : 17416
 total energy-change (2. order) :-0.1371945E+02  (-0.1362829E+02)
 number of electron      18.0000000 magnetization       6.0000000
 augmentation part       18.0000000 magnetization       6.0000000

 Free energy of the ion-electron system (eV)
  ---------------------------------------------------
  alpha Z        PSCENC =        91.38091821
  Ewald energy   TEWEN  =     -1603.55215266
  -Hartree energ DENC   =      -267.09957557
  -exchange      EXHF   =         0.00000000
  -V(xc)+E(xc)   XCENC  =        36.72671248
  PAW double counting   =      1439.98163886    -1545.88690193
  entropy T*S    EENTRO =        -0.00219199
  eigenvalues    EBANDS =       206.87210875
  atomic energy  EATOM  =      1626.72322989
  Solvation  Ediel_sol  =         0.00000000
  ---------------------------------------------------
  free energy    TOTEN  =       -14.85621395 eV

  energy without entropy =      -14.85402197  energy(sigma->0) =      -14.85511796


--------------------------------------------------------------------------------------------------------




--------------------------------------- Iteration      1(   3)  ---------------------------------------


     EDDAV:  cpu time      1.2715: real time      1.2779
       DOS:  cpu time      0.0008: real time      0.0008
    --------------------------------------------
      LOOP:  cpu time      1.2723: real time      1.2788

 eigenvalue-minimisations  : 12852
 total energy-change (2. order) :-0.2777171E-01  (-0.2776365E-01)
 number of electron      18.0000000 magnetization       6.0000000
 augmentation part       18.0000000 magnetization       6.0000000

 Free energy of the ion-electron system (eV)
  ---------------------------------------------------
  alpha Z        PSCENC =        91.38091821
  Ewald energy   TEWEN  =     -1603.55215266
  -Hartree energ DENC   =      -267.09957557
  -exchange      EXHF   =         0.00000000
  -V(xc)+E(xc)   XCENC  =        36.72671248
  PAW double counting   =      1439.98163886    -1545.88690193
  entropy T*S    EENTRO =        -0.00222227
  eigenvalues    EBANDS =       206.84436732
  atomic energy  EATOM  =      1626.72322989
  Solvation  Ediel_sol  =         0.00000000
  ---------------------------------------------------
  free energy    TOTEN  =       -14.88398566 eV

  energy without entropy =      -14.88176340  energy(sigma->0) =      -14.88287453


--------------------------------------------------------------------------------------------------------




--------------------------------------- Iteration      1(   4)  ---------------------------------------


     EDDAV:  cpu time      1.9855: real time      1.9946
       DOS:  cpu time      0.0008: real time      0.0008
    --------------------------------------------
      LOOP:  cpu time      1.9863: real time      1.9954

 eigenvalue-minimisations  : 16912
 total energy-change (2. order) :-0.1354659E-04  (-0.1354682E-04)
 number of electron      18.0000000 magnetization       6.0000000
 augmentation part       18.0000000 magnetization       6.0000000

 Free energy of the ion-electron system (eV)
  ---------------------------------------------------
  alpha Z        PSCENC =        91.38091821
  Ewald energy   TEWEN  =     -1603.55215266
  -Hartree energ DENC   =      -267.09957557
  -exchange      EXHF   =         0.00000000
  -V(xc)+E(xc)   XCENC  =        36.72671248
  PAW double counting   =      1439.98163886    -1545.88690193
  entropy T*S    EENTRO =        -0.00222264
  eigenvalues    EBANDS =       206.84435415
  atomic energy  EATOM  =      1626.72322989
  Solvation  Ediel_sol  =         0.00000000
  ---------------------------------------------------
  free energy    TOTEN  =       -14.88399921 eV

  energy without entropy =      -14.88177656  energy(sigma->0) =      -14.88288789


--------------------------------------------------------------------------------------------------------




--------------------------------------- Iteration      1(   5)  ---------------------------------------


     EDDAV:  cpu time      1.2279: real time      1.2338
       DOS:  cpu time      0.0008: real time      0.0008
    CHARGE:  cpu time      0.0232: real time      0.0235
    MIXING:  cpu time      0.0002: real time      0.0002
    --------------------------------------------
      LOOP:  cpu time      1.2522: real time      1.2583

 eigenvalue-minimisations  : 12600
 total energy-change (2. order) :-0.2195748E-08  (-0.7938195E-09)
 number of electron      17.9999999 magnetization       3.0730864
 augmentation part        9.2580821 magnetization       2.3951986

 Broyden mixing:
  rms(total) = 0.19712E+01    rms(broyden)= 0.19712E+01
  rms(prec ) = 0.28777E+01
  weight for this iteration     100.00

 Free energy of the ion-electron system (eV)
  ---------------------------------------------------
  alpha Z        PSCENC =        91.38091821
  Ewald energy   TEWEN  =     -1603.55215266
  -Hartree energ DENC   =      -267.09957557
  -exchange      EXHF   =         0.00000000
  -V(xc)+E(xc)   XCENC  =        36.72671248
  PAW double counting   =      1439.98163886    -1545.88690193
  entropy T*S    EENTRO =        -0.00222264
  eigenvalues    EBANDS =       206.84435415
  atomic energy  EATOM  =      1626.72322989
  Solvation  Ediel_sol  =         0.00000000
  ---------------------------------------------------
  free energy    TOTEN  =       -14.88399921 eV

  energy without entropy =      -14.88177657  energy(sigma->0) =      -14.88288789


--------------------------------------------------------------------------------------------------------




--------------------------------------- Iteration      1(   6)  ---------------------------------------


    POTLOK:  cpu time      0.0045: real time      0.0047
    SETDIJ:  cpu time      0.0046: real time      0.0046
     EDDAV:  cpu time      1.6300: real time      1.6373
       DOS:  cpu time      0.0008: real time      0.0008
    CHARGE:  cpu time      0.0221: real time      0.0222
    MIXING:  cpu time      0.0003: real time      0.0003
    --------------------------------------------
      LOOP:  cpu time      1.6623: real time      1.6699

 eigenvalue-minimisations  : 15176
 total energy-change (2. order) : 0.9887653E+00  (-0.2088345E+01)
 number of electron      17.9999999 magnetization       2.9092771
 augmentation part       10.4654533 magnetization       2.6012302

 Broyden mixing:
  rms(total) = 0.50767E+00    rms(broyden)= 0.50763E+00
  rms(prec ) = 0.58252E+00
  weight for this iteration     100.00

 eigenvalues of (default mixing * dielectric matrix)
  average eigenvalue GAMMA=   1.0419
  1.0419

 Free energy of the ion-electron system (eV)
  ---------------------------------------------------
  alpha Z        PSCENC =        91.38091821
  Ewald energy   TEWEN  =     -1603.55215266
  -Hartree energ DENC   =      -234.68466036
  -exchange      EXHF   =         0.00000000
  -V(xc)+E(xc)   XCENC  =        33.69369464
  PAW double counting   =      1686.88905280    -1784.72849401
  entropy T*S    EENTRO =        -0.00245142
  eigenvalues    EBANDS =       170.38562905
  atomic energy  EATOM  =      1626.72322989
  Solvation  Ediel_sol  =         0.00000000
  ---------------------------------------------------
  free energy    TOTEN  =       -13.89523388 eV

  energy without entropy =      -13.89278245  energy(sigma->0) =      -13.89400816


--------------------------------------------------------------------------------------------------------




--------------------------------------- Iteration      1(   7)  ---------------------------------------


    POTLOK:  cpu time      0.0043: real time      0.0045
    SETDIJ:  cpu time      0.0044: real time      0.0044
     EDDAV:  cpu time      1.1427: real time      1.1486
       DOS:  cpu time      0.0007: real time      0.0007
    CHARGE:  cpu time      0.0219: real time      0.0219
    MIXING:  cpu time      0.0003: real time      0.0003
    --------------------------------------------
      LOOP:  cpu time      1.1742: real time      1.1804

 eigenvalue-minimisations  : 12292
 total energy-change (2. order) : 0.1704331E+00  (-0.1586550E+00)
 number of electron      17.9999999 magnetization       2.9049907
 augmentation part       10.1364123 magnetization       2.6321407

 Broyden mixing:
  rms(total) = 0.38075E+00    rms(broyden)= 0.38075E+00
  rms(prec ) = 0.46125E+00
  weight for this iteration     100.00

 eigenvalues of (default mixing * dielectric matrix)
  average eigenvalue GAMMA=   0.8127
  1.1189  0.5064

 Free energy of the ion-electron system (eV)
  ---------------------------------------------------
  alpha Z        PSCENC =        91.38091821
  Ewald energy   TEWEN  =     -1603.55215266
  -Hartree energ DENC   =      -238.66329797
  -exchange      EXHF   =         0.00000000
  -V(xc)+E(xc)   XCENC  =        34.00583635
  PAW double counting   =      1798.08687811    -1902.14267161
  entropy T*S    EENTRO =        -0.00190276
  eigenvalues    EBANDS =       180.43836172
  atomic energy  EATOM  =      1626.72322989
  Solvation  Ediel_sol  =         0.00000000
  ---------------------------------------------------
  free energy    TOTEN  =       -13.72480073 eV

  energy without entropy =      -13.72289797  energy(sigma->0) =      -13.72384935


--------------------------------------------------------------------------------------------------------




--------------------------------------- Iteration      1(   8)  ---------------------------------------


    POTLOK:  cpu time      0.0043: real time      0.0045
    SETDIJ:  cpu time      0.0042: real time      0.0042
     EDDAV:  cpu time      1.8183: real time      1.8267
       DOS:  cpu time      0.0008: real time      0.0008
    CHARGE:  cpu time      0.0222: real time      0.0223
    MIXING:  cpu time      0.0003: real time      0.0003
    --------------------------------------------
      LOOP:  cpu time      1.8502: real time      1.8588

 eigenvalue-minimisations  : 16380
 total energy-change (2. order) : 0.3766711E-01  (-0.4879426E-02)
 number of electron      17.9999999 magnetization       2.9194941
 augmentation part       10.1929205 magnetization       2.6603338

 Broyden mixing:
  rms(total) = 0.19410E+00    rms(broyden)= 0.19410E+00
  rms(prec ) = 0.21956E+00
  weight for this iteration     100.00

 eigenvalues of (default mixing * dielectric matrix)
  average eigenvalue GAMMA=   1.1262
  1.9889  0.8321  0.5575

 Free energy of the ion-electron system (eV)
  ---------------------------------------------------
  alpha Z        PSCENC =        91.38091821
  Ewald energy   TEWEN  =     -1603.55215266
  -Hartree energ DENC   =      -235.28766456
  -exchange      EXHF   =         0.00000000
  -V(xc)+E(xc)   XCENC  =        33.84197794
  PAW double counting   =      1899.54065021    -2005.19408161
  entropy T*S    EENTRO =        -0.00185318
  eigenvalues    EBANDS =       178.86184214
  atomic energy  EATOM  =      1626.72322989
  Solvation  Ediel_sol  =         0.00000000
  ---------------------------------------------------
  free energy    TOTEN  =       -13.68713363 eV

  energy without entropy =      -13.68528045  energy(sigma->0) =      -13.68620704


--------------------------------------------------------------------------------------------------------




--------------------------------------- Iteration      1(   9)  ---------------------------------------


    POTLOK:  cpu time      0.0043: real time      0.0045
    SETDIJ:  cpu time      0.0045: real time      0.0045
     EDDAV:  cpu time      1.8309: real time      1.8393
       DOS:  cpu time      0.0008: real time      0.0008
    CHARGE:  cpu time      0.0222: real time      0.0222
    MIXING:  cpu time      0.0003: real time      0.0003
    --------------------------------------------
      LOOP:  cpu time      1.8629: real time      1.8716

 eigenvalue-minimisations  : 16604
 total energy-change (2. order) : 0.1025902E-01  (-0.8791648E-03)
 number of electron      17.9999999 magnetization       2.9240382
 augmentation part       10.2171208 magnetization       2.6666577

 Broyden mixing:
  rms(total) = 0.39987E-01    rms(broyden)= 0.39987E-01
  rms(prec ) = 0.43254E-01
  weight for this iteration     100.00

 eigenvalues of (default mixing * dielectric matrix)
  average eigenvalue GAMMA=   1.1813
  2.3491  0.9369  0.8324  0.6068

 Free energy of the ion-electron system (eV)
  ---------------------------------------------------
  alpha Z        PSCENC =        91.38091821
  Ewald energy   TEWEN  =     -1603.55215266
  -Hartree energ DENC   =      -233.12167417
  -exchange      EXHF   =         0.00000000
  -V(xc)+E(xc)   XCENC  =        33.75020860
  PAW double counting   =      1981.05384071    -2088.14623138
  entropy T*S    EENTRO =        -0.00181579
  eigenvalues    EBANDS =       178.23680199
  atomic energy  EATOM  =      1626.72322989
  Solvation  Ediel_sol  =         0.00000000
  ---------------------------------------------------
  free energy    TOTEN  =       -13.67687461 eV

  energy without entropy =      -13.67505881  energy(sigma->0) =      -13.67596671


--------------------------------------------------------------------------------------------------------




--------------------------------------- Iteration      1(  10)  ---------------------------------------


    POTLOK:  cpu time      0.0042: real time      0.0044
    SETDIJ:  cpu time      0.0044: real time      0.0045
     EDDAV:  cpu time      1.8039: real time      1.8122
       DOS:  cpu time      0.0008: real time      0.0008
    CHARGE:  cpu time      0.0225: real time      0.0226
    MIXING:  cpu time      0.0003: real time      0.0003
    --------------------------------------------
      LOOP:  cpu time      1.8362: real time      1.8448

 eigenvalue-minimisations  : 15904
 total energy-change (2. order) : 0.6432400E-03  (-0.9897725E-04)
 number of electron      17.9999999 magnetization       2.9207074
 augmentation part       10.2159941 magnetization       2.6574976

 Broyden mixing:
  rms(total) = 0.39461E-02    rms(broyden)= 0.39458E-02
  rms(prec ) = 0.53355E-02
  weight for this iteration     100.00

 eigenvalues of (default mixing * dielectric matrix)
  average eigenvalue GAMMA=   1.1675
  2.3792  1.0481  1.0481  0.7257  0.6364

 Free energy of the ion-electron system (eV)
  ---------------------------------------------------
  alpha Z        PSCENC =        91.38091821
  Ewald energy   TEWEN  =     -1603.55215266
  -Hartree energ DENC   =      -232.59420292
  -exchange      EXHF   =         0.00000000
  -V(xc)+E(xc)   XCENC  =        33.71479559
  PAW double counting   =      2010.21782386    -2117.88099159
  entropy T*S    EENTRO =        -0.00182573
  eigenvalues    EBANDS =       178.31617399
  atomic energy  EATOM  =      1626.72322989
  Solvation  Ediel_sol  =         0.00000000
  ---------------------------------------------------
  free energy    TOTEN  =       -13.67623137 eV

  energy without entropy =      -13.67440564  energy(sigma->0) =      -13.67531850


--------------------------------------------------------------------------------------------------------




--------------------------------------- Iteration      1(  11)  ---------------------------------------


    POTLOK:  cpu time      0.0043: real time      0.0045
    SETDIJ:  cpu time      0.0044: real time      0.0044
     EDDAV:  cpu time      1.5832: real time      1.5907
       DOS:  cpu time      0.0008: real time      0.0008
    CHARGE:  cpu time      0.0220: real time      0.0221
    MIXING:  cpu time      0.0003: real time      0.0003
    --------------------------------------------
      LOOP:  cpu time      1.6150: real time      1.6228

 eigenvalue-minimisations  : 14924
 total energy-change (2. order) : 0.1796329E-06  (-0.2456614E-05)
 number of electron      17.9999999 magnetization       2.9199994
 augmentation part       10.2166648 magnetization       2.6562288

 Broyden mixing:
  rms(total) = 0.21548E-02    rms(broyden)= 0.21546E-02
  rms(prec ) = 0.27309E-02
  weight for this iteration     100.00

 eigenvalues of (default mixing * dielectric matrix)
  average eigenvalue GAMMA=   1.1394
  2.3703  0.6226  0.8167  0.8361  1.0953  1.0953

 Free energy of the ion-electron system (eV)
  ---------------------------------------------------
  alpha Z        PSCENC =        91.38091821
  Ewald energy   TEWEN  =     -1603.55215266
  -Hartree energ DENC   =      -232.55709324
  -exchange      EXHF   =         0.00000000
  -V(xc)+E(xc)   XCENC  =        33.71022856
  PAW double counting   =      2013.32943840    -2121.01127674
  entropy T*S    EENTRO =        -0.00182309
  eigenvalues    EBANDS =       178.30229949
  atomic energy  EATOM  =      1626.72322989
  Solvation  Ediel_sol  =         0.00000000
  ---------------------------------------------------
  free energy    TOTEN  =       -13.67623119 eV

  energy without entropy =      -13.67440810  energy(sigma->0) =      -13.67531965


--------------------------------------------------------------------------------------------------------




--------------------------------------- Iteration      1(  12)  ---------------------------------------


    POTLOK:  cpu time      0.0042: real time      0.0044
    SETDIJ:  cpu time      0.0043: real time      0.0043
     EDDAV:  cpu time      1.9029: real time      1.9117
       DOS:  cpu time      0.0008: real time      0.0008
    --------------------------------------------
      LOOP:  cpu time      1.9122: real time      1.9212

 eigenvalue-minimisations  : 16408
 total energy-change (2. order) : 0.9906882E-06  (-0.4420275E-06)
 number of electron      17.9999999 magnetization       2.9199994
 augmentation part       10.2166648 magnetization       2.6562288

 Free energy of the ion-electron system (eV)
  ---------------------------------------------------
  alpha Z        PSCENC =        91.38091821
  Ewald energy   TEWEN  =     -1603.55215266
  -Hartree energ DENC   =      -232.53683300
  -exchange      EXHF   =         0.00000000
  -V(xc)+E(xc)   XCENC  =        33.70885184
  PAW double counting   =      2015.79987534    -2123.49617890
  entropy T*S    EENTRO =        -0.00182370
  eigenvalues    EBANDS =       178.29788280
  atomic energy  EATOM  =      1626.72322989
  Solvation  Ediel_sol  =         0.00000000
  ---------------------------------------------------
  free energy    TOTEN  =       -13.67623020 eV

  energy without entropy =      -13.67440649  energy(sigma->0) =      -13.67531835


--------------------------------------------------------------------------------------------------------




 average (electrostatic) potential at core
  the test charge radii are     1.0452
  (the norm of the test charge is              1.0000)
       1 -75.9969       2 -75.9969
 
 
 
 E-fermi :  12.6855     XC(G=0): -14.3573     alpha+bet :-20.7478

 Fermi energy:        12.6855042647

 spin component 1

 k-point     1 :       0.0000    0.0000    0.0000
  band No.  band energies     occupation 
      1       2.8183      1.00000
      2       6.7461      1.00000
      3       9.8436      1.00000
      4       9.8603      1.00000
      5       9.8603      1.00000
      6      10.2719      1.00000
      7      10.2719      1.00000
      8      10.7085      1.00000
      9      10.7085      1.00000
     10      12.1226      1.00000
     11      12.1226      1.00000
     12      12.5762      0.99900
     13      20.6176      0.00000
     14      35.9409      0.00000
     15      39.5674      0.00000
     16      39.8878      0.00000
     17      40.2168      0.00000
     18      40.2168      0.00000
     19      41.4002      0.00000
     20      41.4002      0.00000
     21      45.5300      0.00000
     22      45.5300      0.00000
     23      47.1211      0.00000
     24      47.4597      0.00000
     25      48.9592      0.00000
     26      49.1502      0.00000
     27      49.7240      0.00000
     28      49.7240      0.00000

 k-point     2 :       0.0833    0.0000    0.0000
  band No.  band energies     occupation 
      1       3.0927      1.00000
      2       6.9169      1.00000
      3       9.5570      1.00000
      4      10.0036      1.00000
      5      10.0952      1.00000
      6      10.2113      1.00000
      7      10.3987      1.00000
      8      10.5011      1.00000
      9      10.6160      1.00000
     10      11.0635      1.00000
     11      12.1634      1.00000
     12      14.0082      0.00000
     13      20.6475      0.00000
     14      34.5914      0.00000
     15      37.2353      0.00000
     16      37.7742      0.00000
     17      39.9245      0.00000
     18      40.7841      0.00000
     19      42.1712      0.00000
     20      44.0199      0.00000
     21      44.7734      0.00000
     22      45.1565      0.00000
     23      47.0362      0.00000
     24      47.3719      0.00000
     25      48.8328      0.00000
     26      49.0735      0.00000
     27      50.5164      0.00000
     28      50.5850      0.00000

 k-point     3 :       0.1667    0.0000    0.0000
  band No.  band energies     occupation 
      1       3.8806      1.00000
      2       7.3354      1.00000
      3       9.2006      1.00000
      4       9.5774      1.00000
      5       9.9911      1.00000
      6      10.3890      1.00000
      7      10.4093      1.00000
      8      10.4817      1.00000
      9      10.6421      1.00000
     10      10.7549      1.00000
     11      12.2499      1.00000
     12      15.8628      0.00000
     13      20.7572      0.00000
     14      30.9009      0.00000
     15      35.0994      0.00000
     16      36.1357      0.00000
     17      38.0871      0.00000
     18      40.0575      0.00000
     19      41.7355      0.00000
     20      44.4999      0.00000
     21      44.6488      0.00000
     22      45.8558      0.00000
     23      46.2545      0.00000
     24      48.1399      0.00000
     25      48.7789      0.00000
     26      49.0494      0.00000
     27      49.6802      0.00000
     28      50.7299      0.00000

 k-point     4 :       0.2500   -0.0000    0.0000
  band No.  band energies     occupation 
      1       5.0497      1.00000
      2       7.6531      1.00000
      3       8.6705      1.00000
      4       8.9866      1.00000
      5       9.8768      1.00000
      6      10.1179      1.00000
      7      10.3955      1.00000
      8      10.9995      1.00000
      9      11.0240      1.00000
     10      11.2682      1.00000
     11      12.3314      1.00000
     12      17.9060      0.00000
     13      20.9627      0.00000
     14      27.0395      0.00000
     15      32.7573      0.00000
     16      34.6153      0.00000
     17      34.9943      0.00000
     18      39.1024      0.00000
     19      40.1973      0.00000
     20      43.9513      0.00000
     21      44.4193      0.00000
     22      44.7319      0.00000
     23      46.2827      0.00000
     24      48.6671      0.00000
     25      49.1076      0.00000
     26      50.6359      0.00000
     27      51.6485      0.00000
     28      54.4250      0.00000

 k-point     5 :       0.3333    0.0000    0.0000
  band No.  band energies     occupation 
      1       6.2645      1.00000
      2       7.5463      1.00000
      3       8.0050      1.00000
      4       9.1343      1.00000
      5       9.8751      1.00000
      6      10.0329      1.00000
      7      10.1751      1.00000
      8      11.6330      1.00000
      9      11.8266      1.00000
     10      11.8816      1.00000
     11      12.3870      1.00000
     12      20.0933      0.00000
     13      20.8144      0.00000
     14      24.1103      0.00000
     15      30.8755      0.00000
     16      31.4235      0.00000
     17      32.8644      0.00000
     18      37.9184      0.00000
     19      38.5473      0.00000
     20      42.4125      0.00000
     21      43.5790      0.00000
     22      45.7302      0.00000
     23      48.1652      0.00000
     24      48.9474      0.00000
     25      49.3407      0.00000
     26      51.4569      0.00000
     27      55.3006      0.00000
     28      57.8037      0.00000

 k-point     6 :       0.4167   -0.0000    0.0000
  band No.  band energies     occupation 
      1       6.9711      1.00000
      2       7.3336      1.00000
      3       7.6022      1.00000
      4       9.5899      1.00000
      5       9.7099      1.00000
      6      10.0202      1.00000
      7      10.2860      1.00000
      8      12.1110      1.00000
      9      12.2904      1.00000
     10      12.4167      1.00000
     11      13.2137      0.00000
     12      18.7327      0.00000
     13      22.3182      0.00000
     14      23.9594      0.00000
     15      28.6194      0.00000
     16      29.6225      0.00000
     17      30.2607      0.00000
     18      37.0662      0.00000
     19      37.9304      0.00000
     20      41.0727      0.00000
     21      43.3685      0.00000
     22      46.3737      0.00000
     23      49.0854      0.00000
     24      49.5112      0.00000
     25      50.8156      0.00000
     26      51.8436      0.00000
     27      57.5805      0.00000
     28      58.6694      0.00000

 k-point     7 :       0.5000   -0.0000    0.0000
  band No.  band energies     occupation 
      1       7.1048      1.00000
      2       7.2756      1.00000
      3       7.4677      1.00000
      4       9.6516      1.00000
      5       9.8833      1.00000
      6       9.9646      1.00000
      7      10.3837      1.00000
      8      12.2845      1.00000
      9      12.4257      1.00000
     10      12.4792      1.00000
     11      14.4966      0.00000
     12      16.8944      0.00000
     13      23.7561      0.00000
     14      24.6125      0.00000
     15      26.9933      0.00000
     16      28.8511      0.00000
     17      29.1771      0.00000
     18      36.7651      0.00000
     19      37.7844      0.00000
     20      40.6028      0.00000
     21      43.3014      0.00000
     22      46.6088      0.00000
     23      49.1793      0.00000
     24      49.5857      0.00000
     25      51.8134      0.00000
     26      53.2918      0.00000
     27      54.8579      0.00000
     28      60.2282      0.00000

 k-point     8 :       0.0833    0.0833    0.0000
  band No.  band energies     occupation 
      1       3.6252      1.00000
      2       7.2191      1.00000
      3       9.2762      1.00000
      4       9.8849      1.00000
      5      10.0768      1.00000
      6      10.2940      1.00000
      7      10.2969      1.00000
      8      10.3520      1.00000
      9      10.6790      1.00000
     10      10.7939      1.00000
     11      12.2141      1.00000
     12      15.3485      0.00000
     13      20.7200      0.00000
     14      32.5580      0.00000
     15      33.7596      0.00000
     16      38.9451      0.00000
     17      39.5507      0.00000
     18      39.6508      0.00000
     19      40.1306      0.00000
     20      43.8590      0.00000
     21      45.5714      0.00000
     22      46.1542      0.00000
     23      47.6981      0.00000
     24      48.2514      0.00000
     25      48.5586      0.00000
     26      48.8213      0.00000
     27      49.7626      0.00000
     28      49.7671      0.00000

 k-point     9 :       0.1667    0.0833    0.0000
  band No.  band energies     occupation 
      1       4.6159      1.00000
      2       7.6442      1.00000
      3       8.9248      1.00000
      4       9.0050      1.00000
      5       9.9250      1.00000
      6      10.0638      1.00000
      7      10.6081      1.00000
      8      10.6170      1.00000
      9      10.8329      1.00000
     10      11.2053      1.00000
     11      12.2762      1.00000
     12      17.1750      0.00000
     13      20.9062      0.00000
     14      28.9981      0.00000
     15      31.4338      0.00000
     16      36.3025      0.00000
     17      37.6748      0.00000
     18      38.5381      0.00000
     19      40.6821      0.00000
     20      42.9262      0.00000
     21      43.8322      0.00000
     22      46.8225      0.00000
     23      47.9072      0.00000
     24      48.3654      0.00000
     25      49.0063      0.00000
     26      49.7701      0.00000
     27      51.0283      0.00000
     28      52.0620      0.00000

 k-point    10 :       0.2500    0.0833    0.0000
  band No.  band energies     occupation 
      1       5.8576      1.00000
      2       7.7593      1.00000
      3       8.2787      1.00000
      4       8.8396      1.00000
      5       9.8248      1.00000
      6       9.9425      1.00000
      7      10.3621      1.00000
      8      11.1267      1.00000
      9      11.4717      1.00000
     10      11.9175      1.00000
     11      12.3286      1.00000
     12      19.2445      0.00000
     13      21.1496      0.00000
     14      25.4055      0.00000
     15      29.7179      0.00000
     16      33.0723      0.00000
     17      35.0634      0.00000
     18      37.1950      0.00000
     19      40.3567      0.00000
     20      40.9442      0.00000
     21      44.4842      0.00000
     22      47.8610      0.00000
     23      48.1515      0.00000
     24      48.6047      0.00000
     25      49.0760      0.00000
     26      50.4632      0.00000
     27      53.0672      0.00000
     28      55.4185      0.00000

 k-point    11 :       0.3333    0.0833    0.0000
  band No.  band energies     occupation 
      1       6.8714      1.00000
      2       7.5380      1.00000
      3       7.7801      1.00000
      4       9.1459      1.00000
      5       9.6718      1.00000
      6      10.1181      1.00000
      7      10.1828      1.00000
      8      11.7671      1.00000
      9      12.0212      1.00000
     10      12.3610      1.00000
     11      12.8915      0.00000
     12      20.1881      0.00000
     13      21.4576      0.00000
     14      23.7625      0.00000
     15      28.3546      0.00000
     16      30.0916      0.00000
     17      32.0620      0.00000
     18      36.1570      0.00000
     19      39.5843      0.00000
     20      39.8600      0.00000
     21      44.6830      0.00000
     22      48.0919      0.00000
     23      49.0304      0.00000
     24      49.4409      0.00000
     25      49.8969      0.00000
     26      51.6530      0.00000
     27      55.1552      0.00000
     28      58.9940      0.00000

 k-point    12 :       0.4167    0.0833    0.0000
  band No.  band energies     occupation 
      1       7.2196      1.00000
      2       7.4024      1.00000
      3       7.5282      1.00000
      4       9.5960      1.00000
      5       9.6120      1.00000
      6       9.9564      1.00000
      7      10.3779      1.00000
      8      12.2301      1.00000
      9      12.3211      1.00000
     10      12.3753      1.00000
     11      14.3347      0.00000
     12      17.7166      0.00000
     13      23.5501      0.00000
     14      24.5418      0.00000
     15      27.4522      0.00000
     16      27.6237      0.00000
     17      29.7625      0.00000
     18      35.6067      0.00000
     19      38.9305      0.00000
     20      39.5260      0.00000
     21      44.6544      0.00000
     22      48.2572      0.00000
     23      49.1802      0.00000
     24      49.6925      0.00000
     25      51.8494      0.00000
     26      52.5069      0.00000
     27      56.2206      0.00000
     28      58.0689      0.00000

 k-point    13 :       0.1667    0.1667    0.0000
  band No.  band energies     occupation 
      1       5.7160      1.00000
      2       7.9914      1.00000
      3       8.4222      1.00000
      4       8.5497      1.00000
      5       9.7339      1.00000
      6       9.9378      1.00000
      7      10.4822      1.00000
      8      10.8286      1.00000
      9      11.4554      1.00000
     10      11.9438      1.00000
     11      12.2783      1.00000
     12      18.9585      0.00000
[...]
     19      42.6131      0.00000
     20      42.6131      0.00000
     21      45.8803      0.00000
     22      45.8803      0.00000
     23      47.5247      0.00000
     24      47.5247      0.00000
     25      52.1393      0.00000
     26      52.1393      0.00000
     27      56.2023      0.00000
     28      56.2023      0.00000

 k-point    91 :       0.3333    0.1667    0.5000
  band No.  band energies     occupation 
      1       8.2827      1.00000
      2       8.2827      1.00000
      3       9.9311      1.00000
      4       9.9311      1.00000
      5      11.0469      1.00000
      6      11.0469      1.00000
      7      12.4358      1.00000
      8      12.4358      1.00000
      9      14.0554      0.00000
     10      14.0554      0.00000
     11      16.4774      0.00000
     12      16.4774      0.00000
     13      23.8333      0.00000
     14      23.8333      0.00000
     15      28.4829      0.00000
     16      28.4829      0.00000
     17      34.9907      0.00000
     18      34.9907      0.00000
     19      41.1822      0.00000
     20      41.1822      0.00000
     21      44.4171      0.00000
     22      44.4171      0.00000
     23      48.4958      0.00000
     24      48.4958      0.00000
     25      52.7349      0.00000
     26      52.7349      0.00000
     27      57.9806      0.00000
     28      57.9806      0.00000

 k-point    92 :       0.4167    0.1667    0.5000
  band No.  band energies     occupation 
      1       8.3214      1.00000
      2       8.3214      1.00000
      3       9.9001      1.00000
      4       9.9001      1.00000
      5      11.1153      1.00000
      6      11.1153      1.00000
      7      12.6533      0.81907
      8      12.6533      0.81907
      9      13.9731      0.00000
     10      13.9731      0.00000
     11      17.2994      0.00000
     12      17.2994      0.00000
     13      22.4943      0.00000
     14      22.4943      0.00000
     15      28.2121      0.00000
     16      28.2121      0.00000
     17      35.7162      0.00000
     18      35.7162      0.00000
     19      40.4280      0.00000
     20      40.4280      0.00000
     21      43.7688      0.00000
     22      43.7688      0.00000
     23      48.8255      0.00000
     24      48.8255      0.00000
     25      53.0086      0.00000
     26      53.0086      0.00000
     27      60.2400      0.00000
     28      60.2400      0.00000

 k-point    93 :       0.2500    0.2500    0.5000
  band No.  band energies     occupation 
      1       8.5316      1.00000
      2       8.5316      1.00000
      3      10.0536      1.00000
      4      10.0536      1.00000
      5      10.6017      1.00000
      6      10.6017      1.00000
      7      12.2171      1.00000
      8      12.2171      1.00000
      9      14.0861      0.00000
     10      14.0861      0.00000
     11      16.7427      0.00000
     12      16.7427      0.00000
     13      25.0985      0.00000
     14      25.0985      0.00000
     15      26.6244      0.00000
     16      26.6244      0.00000
     17      35.1188      0.00000
     18      35.1188      0.00000
     19      42.3790      0.00000
     20      42.3790      0.00000
     21      44.2178      0.00000
     22      44.2178      0.00000
     23      49.0527      0.00000
     24      49.0527      0.00000
     25      52.0214      0.00000
     26      52.0214      0.00000
     27      56.1942      0.00000
     28      56.1942      0.00000

 k-point    94 :       0.3333    0.2500    0.5000
  band No.  band energies     occupation 
      1       8.8205      1.00000
      2       8.8205      1.00000
      3       9.9549      1.00000
      4       9.9549      1.00000
      5      10.5473      1.00000
      6      10.5473      1.00000
      7      12.3518      1.00000
      8      12.3518      1.00000
      9      13.9597      0.00000
     10      13.9597      0.00000
     11      18.4711      0.00000
     12      18.4711      0.00000
     13      22.8986      0.00000
     14      22.8986      0.00000
     15      25.7813      0.00000
     16      25.7813      0.00000
     17      36.6706      0.00000
     18      36.6706      0.00000
     19      40.6230      0.00000
     20      40.6230      0.00000
     21      43.5198      0.00000
     22      43.5198      0.00000
     23      50.5756      0.00000
     24      50.5756      0.00000
     25      52.6913      0.00000
     26      52.6913      0.00000
     27      56.9120      0.00000
     28      56.9120      0.00000

 k-point    95 :       0.3333    0.3333    0.5000
  band No.  band energies     occupation 
      1       9.3919      1.00000
      2       9.3919      1.00000
      3       9.4825      1.00000
      4       9.4825      1.00000
      5      10.5015      1.00000
      6      10.5015      1.00000
      7      12.3087      1.00000
      8      12.3087      1.00000
      9      13.8930      0.00000
     10      13.8930      0.00000
     11      20.0163      0.00000
     12      20.0163      0.00000
     13      21.8552      0.00000
     14      21.8552      0.00000
     15      24.7397      0.00000
     16      24.7397      0.00000
     17      38.5891      0.00000
     18      38.5891      0.00000
     19      38.8086      0.00000
     20      38.8086      0.00000
     21      43.1803      0.00000
     22      43.1803      0.00000
     23      52.4377      0.00000
     24      52.4377      0.00000
     25      54.0816      0.00000
     26      54.0816      0.00000
     27      54.5937      0.00000
     28      54.5937      0.00000


--------------------------------------------------------------------------------------------------------


 soft charge-density along one line, spin component           1
         0         1         2         3         4         5         6         7         8         9
 total charge-density along one line
 
 soft charge-density along one line, spin component           2
         0         1         2         3         4         5         6         7         8         9
 total charge-density along one line
 
 pseudopotential strength for first ion, spin component:           1
  1.021   0.000  -0.000   0.000  -0.000   0.327   0.000  -0.000
  0.000   1.017  -0.000   0.000   0.000   0.000   0.323  -0.000
 -0.000  -0.000   1.008   0.000   0.000  -0.000  -0.000   0.314
  0.000   0.000   0.000   1.017   0.000   0.000   0.000   0.000
 -0.000   0.000   0.000   0.000   1.021  -0.000   0.000   0.000
  0.327   0.000  -0.000   0.000  -0.000  -0.306   0.000  -0.000
  0.000   0.323  -0.000   0.000   0.000   0.000  -0.310  -0.000
 -0.000  -0.000   0.314   0.000   0.000  -0.000  -0.000  -0.319
  0.000   0.000   0.000   0.323   0.000   0.000   0.000   0.000
 -0.000   0.000   0.000   0.000   0.327  -0.000   0.000   0.000
 -0.000  -0.000   0.001  -0.000   0.000  -0.000  -0.000   0.001
 -0.000  -0.000   0.002  -0.000   0.000  -0.000  -0.000   0.002
 -0.000   0.000  -0.000  -0.000   0.002  -0.000   0.000  -0.000
 -0.000   0.000   0.000  -0.000  -0.000  -0.000   0.000   0.000
  0.002  -0.000   0.000   0.000  -0.000   0.002  -0.000   0.000
 -0.000   0.000  -0.000  -0.000   0.002  -0.000   0.000  -0.000
 -0.000   0.000   0.000  -0.000  -0.000  -0.000   0.000   0.000
  0.002  -0.000   0.000   0.000  -0.000   0.002  -0.000   0.000
 pseudopotential strength for first ion, spin component:           2
  2.238  -0.000  -0.000   0.000  -0.000   1.492  -0.000  -0.000
 -0.000   2.248  -0.000   0.000   0.000  -0.000   1.503  -0.000
 -0.000  -0.000   2.230   0.000  -0.000  -0.000  -0.000   1.485
  0.000   0.000   0.000   2.248   0.000   0.000   0.000   0.000
 -0.000   0.000  -0.000   0.000   2.238  -0.000   0.000  -0.000
  1.492  -0.000  -0.000   0.000  -0.000   0.811  -0.000  -0.000
 -0.000   1.503  -0.000   0.000   0.000  -0.000   0.821  -0.000
 -0.000  -0.000   1.485   0.000  -0.000  -0.000  -0.000   0.804
  0.000   0.000   0.000   1.503   0.000   0.000   0.000   0.000
 -0.000   0.000  -0.000   0.000   1.492  -0.000   0.000  -0.000
 -0.000  -0.000  -0.001  -0.000  -0.000  -0.000  -0.000  -0.001
 -0.000  -0.000  -0.001  -0.000  -0.000  -0.000  -0.000  -0.001
 -0.000   0.000  -0.000  -0.000   0.001  -0.000   0.000  -0.000
 -0.000   0.000   0.000  -0.000  -0.000  -0.000   0.000   0.000
  0.001  -0.000   0.000   0.000  -0.000   0.001  -0.000   0.000
 -0.000   0.000  -0.000  -0.000   0.000  -0.000   0.000  -0.000
 -0.000   0.000   0.000  -0.000  -0.000  -0.000   0.000   0.000
  0.000  -0.000   0.000   0.000  -0.000   0.000  -0.000   0.000
 total augmentation occupancy for first ion, spin component:           1
  3.230   0.000   0.000  -0.000  -0.000  -2.147  -0.000   0.000   0.000  -0.000   0.000   0.000  -0.000  -0.000  -0.057   0.000
 -0.000   3.431   0.000  -0.000   0.000  -0.000  -2.254  -0.000   0.000   0.000   0.000   0.000  -0.000  -0.000  -0.000   0.000
  0.000   0.000   3.097   0.000   0.000   0.000  -0.000  -2.127   0.000  -0.000  -0.016   0.004  -0.000  -0.000  -0.000   0.000
  0.000   0.000   0.000   3.431   0.000   0.000   0.000  -0.000  -2.254   0.000   0.000   0.000   0.000   0.000   0.000   0.000
 -0.000  -0.000   0.000   0.000   3.230   0.000   0.000  -0.000  -0.000  -2.147   0.000   0.000  -0.057  -0.000  -0.000   0.004
 -2.147   0.000  -0.000  -0.000   0.000   2.630  -0.000   0.000   0.000  -0.000   0.000   0.000  -0.000   0.000   0.075   0.000
 -0.000  -2.254   0.000   0.000   0.000  -0.000   2.652   0.000   0.000   0.000   0.000   0.000   0.000   0.000   0.000  -0.000
  0.000   0.000  -2.127  -0.000  -0.000   0.000   0.000   2.712   0.000   0.000   0.021  -0.003   0.000   0.000   0.000  -0.000
  0.000   0.000  -0.000  -2.254  -0.000   0.000   0.000  -0.000   2.652  -0.000  -0.000   0.000   0.000  -0.000  -0.000   0.000
  0.000  -0.000  -0.000  -0.000  -2.147   0.000   0.000   0.000  -0.000   2.630   0.000   0.000   0.075  -0.000   0.000  -0.004
  0.000  -0.000  -0.016   0.000   0.000   0.000  -0.000   0.021   0.000   0.000   2.796  -0.367   0.000   0.000   0.000   0.000
 -0.000   0.000   0.004   0.000  -0.000   0.000   0.000  -0.003   0.000   0.000  -0.367   0.057   0.000  -0.000   0.000   0.000
  0.000  -0.000  -0.000  -0.000  -0.057   0.000  -0.000   0.000  -0.000   0.075   0.000  -0.000   0.402   0.000   0.000  -0.039
 -0.000  -0.000   0.000   0.000   0.000   0.000   0.000   0.000   0.000   0.000   0.000   0.000   0.000   0.411   0.000   0.000
 -0.057  -0.000  -0.000  -0.000   0.000   0.075   0.000   0.000   0.000  -0.000   0.000   0.000  -0.000  -0.000   0.402   0.000
  0.000   0.000   0.000   0.000   0.004  -0.000   0.000  -0.000  -0.000  -0.004  -0.000   0.000  -0.039  -0.000  -0.000   0.004
  0.000  -0.000   0.000   0.000  -0.000  -0.000  -0.000   0.000   0.000  -0.000   0.000  -0.000  -0.000  -0.039   0.000  -0.000
  0.004  -0.000   0.000   0.000   0.000  -0.004   0.000   0.000   0.000   0.000   0.000  -0.000   0.000  -0.000  -0.039   0.000
 total augmentation occupancy for first ion, spin component:           2
  2.044   0.000   0.000  -0.000   0.000  -1.004   0.000   0.000   0.000  -0.000   0.000   0.000   0.000   0.000  -0.000  -0.000
  0.000   2.150  -0.000   0.000   0.000   0.000  -1.079  -0.000   0.000  -0.000   0.000  -0.000  -0.000   0.000  -0.000   0.000
 -0.000   0.000   2.113  -0.000   0.000   0.000  -0.000  -1.041   0.000  -0.000   0.009   0.003  -0.000   0.000  -0.000   0.000
  0.000  -0.000  -0.000   2.150   0.000  -0.000   0.000   0.000  -1.079   0.000   0.000   0.000   0.000   0.000  -0.000  -0.000
 -0.000   0.000   0.000   0.000   2.044   0.000   0.000  -0.000   0.000  -1.004   0.000   0.000  -0.000   0.000   0.000   0.001
 -1.004   0.000   0.000   0.000  -0.000   0.296   0.000   0.000   0.000  -0.000   0.000  -0.000   0.000  -0.000  -0.005   0.000
 -0.000  -1.079   0.000  -0.000   0.000   0.000   0.354   0.000   0.000   0.000  -0.000   0.000   0.000  -0.000  -0.000   0.000
 -0.000   0.000  -1.041   0.000  -0.000   0.000  -0.000   0.305   0.000   0.000  -0.008  -0.001  -0.000  -0.000   0.000  -0.000
  0.000  -0.000   0.000  -1.079   0.000   0.000   0.000   0.000   0.354   0.000  -0.000   0.000  -0.000   0.000  -0.000  -0.000
  0.000  -0.000  -0.000  -0.000  -1.004  -0.000   0.000   0.000  -0.000   0.296   0.000   0.000  -0.005  -0.000   0.000  -0.000
  0.000   0.000   0.009  -0.000   0.000   0.000  -0.000  -0.008  -0.000   0.000  -0.321   0.097  -0.000   0.000  -0.000   0.000
  0.000   0.000   0.003   0.000   0.000   0.000   0.000  -0.001   0.000  -0.000   0.097  -0.019  -0.000  -0.000   0.000   0.000
 -0.000  -0.000  -0.000   0.000  -0.000  -0.000   0.000  -0.000   0.000  -0.005  -0.000   0.000  -0.038   0.000  -0.000   0.005
  0.000   0.000   0.000   0.000  -0.000   0.000  -0.000  -0.000   0.000   0.000   0.000  -0.000   0.000  -0.041   0.000   0.000
 -0.000  -0.000  -0.000   0.000   0.000  -0.005  -0.000  -0.000  -0.000  -0.000   0.000   0.000  -0.000   0.000  -0.038  -0.000
  0.000  -0.000   0.000  -0.000   0.001  -0.000  -0.000  -0.000   0.000  -0.000   0.000   0.000   0.005   0.000   0.000  -0.001
  0.000   0.000   0.000  -0.000   0.000   0.000  -0.000   0.000   0.000   0.000   0.000   0.000   0.000   0.005   0.000  -0.000
  0.001   0.000  -0.000   0.000   0.000  -0.000   0.000   0.000  -0.000   0.000  -0.000   0.000  -0.000   0.000   0.005   0.000


------------------------ aborting loop because EDIFF is reached ----------------------------------------





 total charge

# of ion       s       p       d       tot
------------------------------------------
    1        0.562   0.675   7.394   8.630
    2        0.562   0.675   7.394   8.630
--------------------------------------------------
tot          1.123   1.349  14.788  17.260



 magnetization (x)

# of ion       s       p       d       tot
------------------------------------------
    1       -0.017  -0.059   1.527   1.450
    2       -0.017  -0.059   1.527   1.450
--------------------------------------------------
tot         -0.035  -0.118   3.053   2.901
 
    CHARGE:  cpu time      0.0219: real time      0.0220
    FORLOC:  cpu time      0.0001: real time      0.0001
    FORNL :  cpu time      0.0211: real time      0.0212
    STRESS:  cpu time      0.1359: real time      0.1364
    FORCOR:  cpu time      0.0036: real time      0.0036
    FORHAR:  cpu time      0.0004: real time      0.0004
    MIXING:  cpu time      0.0002: real time      0.0002
    OFIELD:  cpu time      0.0000: real time      0.0000

  FORCE on cell =-STRESS in cart. coord.  units (eV):
  Direction    XX          YY          ZZ          XY          YZ          ZX
  --------------------------------------------------------------------------------------
  Alpha Z    91.38092    91.38092    91.38092
  Ewald    -537.58716  -537.58716  -528.37895     0.00000    -0.00000     0.00000
  Hartree    76.19334    76.19334    80.11743    -0.00000     0.00000    -0.00000
  E(xc)     -93.75362   -93.75360   -93.76308     0.00000     0.00000     0.00000
  Local       7.22914     7.22931    -5.52796     0.00000     0.00000     0.00000
  n-local   -10.74471     2.81392    -3.65665     3.71825    -0.70701     2.62073
  augment   309.16333   309.16318   308.88276    -0.00000    -0.00000     0.00000
  Kinetic   159.11704   154.29995   156.31703    -3.18353    -0.43613     0.47247
  Fock        0.00000     0.00000     0.00000     0.00000     0.00000     0.00000
  -------------------------------------------------------------------------------------
  Total       5.36907     5.36907     5.37148     0.00000    -0.00000    -0.00000
  in kB     463.95179   463.95179   464.16026     0.00000    -0.00000    -0.00000
  external pressure =      464.02 kB  Pullay stress =        0.00 kB


 VOLUME and BASIS-vectors are now :
 -----------------------------------------------------------------------------
  energy-cutoff  :      425.00
  volume of cell :       18.54
      direct lattice vectors                 reciprocal lattice vectors
     1.183830915 -2.050455292  0.000000000     0.422357614 -0.243848282  0.000000000
     1.183830915  2.050455292  0.000000000     0.422357614  0.243848282  0.000000000
     0.000000000  0.000000000  3.819150506     0.000000000  0.000000000  0.261838332

  length of vectors
     2.367661829  2.367661829  3.819150506     0.487696564  0.487696564  0.261838332


 FORCES acting on ions
    electron-ion (+dipol)            ewald-force                    non-local-force                 convergence-correction
 -----------------------------------------------------------------------------------------------
   0.355E-12 -.262E-06 -.162E-11   -.339E-16 0.267E-11 -.263E-13   0.121E-16 0.694E-17 0.000E+00   -.174E-13 0.149E-06 -.107E-12
   -.702E-12 0.262E-06 -.528E-11   0.174E-13 -.267E-11 0.263E-13   0.000E+00 0.694E-17 0.000E+00   0.862E-14 -.149E-06 0.130E-12
 -----------------------------------------------------------------------------------------------
   -.348E-12 -.270E-12 -.690E-11   0.174E-13 -.308E-14 0.000E+00   0.121E-16 0.139E-16 0.000E+00   -.877E-14 -.892E-14 0.235E-13
 
 
 POSITION                                       TOTAL-FORCE (eV/Angst)
 -----------------------------------------------------------------------------------
      1.18383      0.68349      0.95479         0.000000      0.000000      0.000000
      1.18383     -0.68349      2.86436         0.000000     -0.000000     -0.000000
 -----------------------------------------------------------------------------------
    total drift:                               -0.000000     -0.000000     -0.000000


--------------------------------------------------------------------------------------------------------



  FREE ENERGIE OF THE ION-ELECTRON SYSTEM (eV)
  ---------------------------------------------------
  free  energy   TOTEN  =       -13.67623020 eV

  energy  without entropy=      -13.67440649  energy(sigma->0) =      -13.67531835
 


--------------------------------------------------------------------------------------------------------


    POTLOK:  cpu time      0.0085: real time      0.0085


--------------------------------------------------------------------------------------------------------




--------------------------------------------------------------------------------------------------------


  
 reached required accuracy - stopping structural energy minimisation
     LOOP+:  cpu time     19.5976: real time     19.6980
    4ORBIT:  cpu time      0.0000: real time      0.0000



 total charge

# of ion       s       p       d       tot
------------------------------------------
    1        0.562   0.675   7.394   8.630
    2        0.562   0.675   7.394   8.630
--------------------------------------------------
tot          1.123   1.349  14.788  17.260



 magnetization (x)

# of ion       s       p       d       tot
------------------------------------------
    1       -0.017  -0.059   1.527   1.450
    2       -0.017  -0.059   1.527   1.450
--------------------------------------------------
tot         -0.035  -0.118   3.053   2.901
 

 total amount of memory used by VASP MPI-rank0    37788. kBytes
=======================================================================

   base      :      30000. kBytes
   nonl-proj :       5375. kBytes
   fftplans  :        144. kBytes
   grid      :        846. kBytes
   one-center:         62. kBytes
   wavefun   :       1361. kBytes
 
  
  
 General timing and accounting informations for this job:
 ========================================================
  
                  Total CPU time used (sec):       20.694
                            User time (sec):       20.115
                          System time (sec):        0.579
                         Elapsed time (sec):       22.035
  
                   Maximum memory used (kb):      245476.
                   Average memory used (kb):          N/A
  
                          Minor page faults:        37232
                          Major page faults:           94
                 Voluntary context switches:         2270
