PROCAR lm decomposed
# of k-points:   95         # of bands:   28         # of ions:    2

 k-point     1 :    0.00000000 0.00000000 0.00000000     weight = 0.00086806

band     1 # energy    2.81833915 # occ.  1.00000000
 
ion      s     py     pz     px    dxy    dyz    dz2    dxz  x2-y2    tot
    1  0.436  0.000  0.000  0.000  0.000  0.000  0.000  0.000  0.000  0.436
    2  0.436  0.000  0.000  0.000  0.000  0.000  0.000  0.000  0.000  0.436
tot    0.873  0.000  0.000  0.000  0.000  0.000  0.000  0.000  0.000  0.873
 
band     2 # energy    6.74614209 # occ.  1.00000000
 
ion      s     py     pz     px    dxy    dyz    dz2    dxz  x2-y2    tot
    1  0.095  0.000  0.000  0.000  0.000  0.000  0.385  0.000  0.000  0.480
    2  0.095  0.000  0.000  0.000  0.000  0.000  0.385  0.000  0.000  0.480
tot    0.190  0.000  0.000  0.000  0.000  0.000  0.770  0.000  0.000  0.960
 
band     3 # energy    9.84361966 # occ.  1.00000000
 
ion      s     py     pz     px    dxy    dyz    dz2    dxz  x2-y2    tot
    1  0.000  0.000  0.000  0.000  0.000  0.000  0.494  0.000  0.000  0.494
    2  0.000  0.000  0.000  0.000  0.000  0.000  0.494  0.000  0.000  0.494
tot    0.000  0.000  0.000  0.000  0.000  0.000  0.987  0.000  0.000  0.987
 
band     4 # energy    9.86031641 # occ.  1.00000000
 
ion      s     py     pz     px    dxy    dyz    dz2    dxz  x2-y2    tot
    1  0.000  0.001  0.000  0.000  0.000  0.000  0.000  0.000  0.489  0.490
    2  0.000  0.001  0.000  0.000  0.000  0.000  0.000  0.000  0.489  0.490
tot    0.000  0.002  0.000  0.000  0.000  0.000  0.000  0.000  0.978  0.980
 
band     5 # energy    9.86031657 # occ.  1.00000000
 
ion      s     py     pz     px    dxy    dyz    dz2    dxz  x2-y2    tot
    1  0.000  0.000  0.000  0.001  0.489  0.000  0.000  0.000  0.000  0.490
    2  0.000  0.000  0.000  0.001  0.489  0.000  0.000  0.000  0.000  0.490
tot    0.000  0.000  0.000  0.002  0.978  0.000  0.000  0.000  0.000  0.980
 
band     6 # energy   10.27193510 # occ.  1.00000000
 
ion      s     py     pz     px    dxy    dyz    dz2    dxz  x2-y2    tot
    1  0.000  0.001  0.000  0.000  0.000  0.000  0.000  0.000  0.492  0.493
    2  0.000  0.001  0.000  0.000  0.000  0.000  0.000  0.000  0.492  0.493
tot    0.000  0.002  0.000  0.000  0.000  0.000  0.000  0.000  0.984  0.987
 
band     7 # energy   10.27193535 # occ.  1.00000000
 
ion      s     py     pz     px    dxy    dyz    dz2    dxz  x2-y2    tot
    1  0.000  0.000  0.000  0.001  0.492  0.000  0.000  0.000  0.000  0.493
    2  0.000  0.000  0.000  0.001  0.492  0.000  0.000  0.000  0.000  0.493
tot    0.000  0.000  0.000  0.002  0.984  0.000  0.000  0.000  0.000  0.987
 
band     8 # energy   10.70854435 # occ.  1.00000000
 
ion      s     py     pz     px    dxy    dyz    dz2    dxz  x2-y2    tot
    1  0.000  0.000  0.000  0.000  0.000  0.000  0.000  0.494  0.000  0.494
    2  0.000  0.000  0.000  0.000  0.000  0.000  0.000  0.494  0.000  0.494
tot    0.000  0.000  0.000  0.000  0.000  0.000  0.000  0.988  0.000  0.988
 
band     9 # energy   10.70854441 # occ.  1.00000000
 
ion      s     py     pz     px    dxy    dyz    dz2    dxz  x2-y2    tot
    1  0.000  0.000  0.000  0.000  0.000  0.494  0.000  0.000  0.000  0.494
    2  0.000  0.000  0.000  0.000  0.000  0.494  0.000  0.000  0.000  0.494
tot    0.000  0.000  0.000  0.000  0.000  0.988  0.000  0.000  0.000  0.988
 
band    10 # energy   12.12264190 # occ.  1.00000000
 
ion      s     py     pz     px    dxy    dyz    dz2    dxz  x2-y2    tot
    1  0.000  0.000  0.000  0.000  0.000  0.000  0.000  0.493  0.000  0.493
    2  0.000  0.000  0.000  0.000  0.000  0.000  0.000  0.493  0.000  0.493
tot    0.000  0.000  0.000  0.000  0.000  0.000  0.000  0.985  0.000  0.985
 
band    11 # energy   12.12264223 # occ.  1.00000000
 
ion      s     py     pz     px    dxy    dyz    dz2    dxz  x2-y2    tot
    1  0.000  0.000  0.000  0.000  0.000  0.493  0.000  0.000  0.000  0.493
    2  0.000  0.000  0.000  0.000  0.000  0.493  0.000  0.000  0.000  0.493
tot    0.000  0.000  0.000  0.000  0.000  0.985  0.000  0.000  0.000  0.985
 
band    12 # energy   12.57620650 # occ.  0.99900395
 
ion      s     py     pz     px    dxy    dyz    dz2    dxz  x2-y2    tot
    1  0.000  0.000  0.421  0.000  0.000  0.000  0.000  0.000  0.000  0.421
    2  0.000  0.000  0.421  0.000  0.000  0.000  0.000  0.000  0.000  0.421
tot    0.000  0.000  0.842  0.000  0.000  0.000  0.000  0.000  0.000  0.842
 
band    13 # energy   20.61760778 # occ.  0.00000000
 
ion      s     py     pz     px    dxy    dyz    dz2    dxz  x2-y2    tot
    1  0.234  0.000  0.000  0.000  0.000  0.000  0.265  0.000  0.000  0.499
    2  0.234  0.000  0.000  0.000  0.000  0.000  0.265  0.000  0.000  0.499
tot    0.468  0.000  0.000  0.000  0.000  0.000  0.531  0.000  0.000  0.999
 
band    14 # energy   35.94086229 # occ.  0.00000000
 
ion      s     py     pz     px    dxy    dyz    dz2    dxz  x2-y2    tot
    1  0.007  0.000  0.000  0.000  0.000  0.000  0.034  0.000  0.000  0.041
    2  0.007  0.000  0.000  0.000  0.000  0.000  0.034  0.000  0.000  0.041
tot    0.014  0.000  0.000  0.000  0.000  0.000  0.067  0.000  0.000  0.081
 
band    15 # energy   39.56737765 # occ.  0.00000000
 
ion      s     py     pz     px    dxy    dyz    dz2    dxz  x2-y2    tot
    1  0.022  0.000  0.000  0.000  0.000  0.000  0.078  0.000  0.000  0.100
    2  0.022  0.000  0.000  0.000  0.000  0.000  0.078  0.000  0.000  0.100
tot    0.043  0.000  0.000  0.000  0.000  0.000  0.157  0.000  0.000  0.200
 
band    16 # energy   39.88775591 # occ.  0.00000000
 
ion      s     py     pz     px    dxy    dyz    dz2    dxz  x2-y2    tot
    1  0.000  0.000  0.020  0.000  0.000  0.000  0.000  0.000  0.000  0.020
    2  0.000  0.000  0.020  0.000  0.000  0.000  0.000  0.000  0.000  0.020
tot    0.000  0.000  0.040  0.000  0.000  0.000  0.000  0.000  0.000  0.040
 
band    17 # energy   40.21682361 # occ.  0.00000000
 
ion      s     py     pz     px    dxy    dyz    dz2    dxz  x2-y2    tot
    1  0.000  0.263  0.000  0.000  0.000  0.000  0.000  0.000  0.168  0.430
    2  0.000  0.263  0.000  0.000  0.000  0.000  0.000  0.000  0.168  0.430
tot    0.000  0.525  0.000  0.000  0.000  0.000  0.000  0.000  0.336  0.861
 
band    18 # energy   40.21682960 # occ.  0.00000000
 
ion      s     py     pz     px    dxy    dyz    dz2    dxz  x2-y2    tot
    1  0.000  0.000  0.000  0.263  0.168  0.000  0.000  0.000  0.000  0.430
    2  0.000  0.000  0.000  0.263  0.168  0.000  0.000  0.000  0.000  0.430
tot    0.000  0.000  0.000  0.525  0.336  0.000  0.000  0.000  0.000  0.861
 
band    19 # energy   41.40017952 # occ.  0.00000000
 
ion      s     py     pz     px    dxy    dyz    dz2    dxz  x2-y2    tot
    1  0.000  0.079  0.000  0.000  0.000  0.000  0.000  0.000  0.489  0.568
    2  0.000  0.079  0.000  0.000  0.000  0.000  0.000  0.000  0.489  0.568
tot    0.000  0.157  0.000  0.000  0.000  0.000  0.000  0.000  0.979  1.136
 
band    20 # energy   41.40018302 # occ.  0.00000000
 
ion      s     py     pz     px    dxy    dyz    dz2    dxz  x2-y2    tot
    1  0.000  0.000  0.000  0.079  0.489  0.000  0.000  0.000  0.000  0.568
    2  0.000  0.000  0.000  0.079  0.489  0.000  0.000  0.000  0.000  0.568
tot    0.000  0.000  0.000  0.157  0.979  0.000  0.000  0.000  0.000  1.136
 
band    21 # energy   45.52997633 # occ.  0.00000000
 
ion      s     py     pz     px    dxy    dyz    dz2    dxz  x2-y2    tot
    1  0.000  0.000  0.000  0.000  0.000  0.158  0.000  0.000  0.000  0.158
    2  0.000  0.000  0.000  0.000  0.000  0.158  0.000  0.000  0.000  0.158
tot    0.000  0.000  0.000  0.000  0.000  0.317  0.000  0.000  0.000  0.317
 
band    22 # energy   45.52997901 # occ.  0.00000000
 
ion      s     py     pz     px    dxy    dyz    dz2    dxz  x2-y2    tot
    1  0.000  0.000  0.000  0.000  0.000  0.000  0.000  0.158  0.000  0.158
    2  0.000  0.000  0.000  0.000  0.000  0.000  0.000  0.158  0.000  0.158
tot    0.000  0.000  0.000  0.000  0.000  0.000  0.000  0.317  0.000  0.317
 
band    23 # energy   47.12110549 # occ.  0.00000000
 
ion      s     py     pz     px    dxy    dyz    dz2    dxz  x2-y2    tot
    1  0.000  0.000  0.052  0.000  0.000  0.000  0.000  0.000  0.000  0.052
    2  0.000  0.000  0.052  0.000  0.000  0.000  0.000  0.000  0.000  0.052
tot    0.000  0.000  0.103  0.000  0.000  0.000  0.000  0.000  0.000  0.103
 
band    24 # energy   47.45970049 # occ.  0.00000000
 
ion      s     py     pz     px    dxy    dyz    dz2    dxz  x2-y2    tot
    1  0.026  0.000  0.000  0.000  0.000  0.000  0.763  0.000  0.000  0.788
    2  0.026  0.000  0.000  0.000  0.000  0.000  0.763  0.000  0.000  0.788
tot    0.051  0.000  0.000  0.000  0.000  0.000  1.526  0.000  0.000  1.577
 
band    25 # energy   48.95922923 # occ.  0.00000000
 
ion      s     py     pz     px    dxy    dyz    dz2    dxz  x2-y2    tot
    1  2.988  0.000  0.000  0.000  0.000  0.000  0.014  0.000  0.000  3.002
    2  2.988  0.000  0.000  0.000  0.000  0.000  0.014  0.000  0.000  3.002
tot    5.976  0.000  0.000  0.000  0.000  0.000  0.028  0.000  0.000  6.004
 
band    26 # energy   49.15019984 # occ.  0.00000000
 
ion      s     py     pz     px    dxy    dyz    dz2    dxz  x2-y2    tot
    1  3.073  0.000  0.000  0.000  0.000  0.000  0.008  0.000  0.000  3.081
    2  3.073  0.000  0.000  0.000  0.000  0.000  0.008  0.000  0.000  3.081
tot    6.146  0.000  0.000  0.000  0.000  0.000  0.015  0.000  0.000  6.162
 
band    27 # energy   49.72402982 # occ.  0.00000000
 
ion      s     py     pz     px    dxy    dyz    dz2    dxz  x2-y2    tot
    1  0.000  0.000  0.000  0.000  0.000  0.611  0.000  0.000  0.000  0.611
    2  0.000  0.000  0.000  0.000  0.000  0.611  0.000  0.000  0.000  0.611
tot    0.000  0.000  0.000  0.000  0.000  1.223  0.000  0.000  0.000  1.223
 
band    28 # energy   49.72403405 # occ.  0.00000000
 
ion      s     py     pz     px    dxy    dyz    dz2    dxz  x2-y2    tot
    1  0.000  0.000  0.000  0.000  0.000  0.000  0.000  0.611  0.000  0.611
    2  0.000  0.000  0.000  0.000  0.000  0.000  0.000  0.611  0.000  0.611
tot    0.000  0.000  0.000  0.000  0.000  0.000  0.000  1.223  0.000  1.223
 

 k-point     2 :    0.08333333 0.00000000 0.00000000     weight = 0.00520833

band     1 # energy    3.09274146 # occ.  1.00000000
 
ion      s     py     pz     px    dxy    dyz    dz2    dxz  x2-y2    tot
    1  0.425  0.003  0.000  0.008  0.000  0.000  0.000  0.000  0.000  0.437
    2  0.425  0.003  0.000  0.008  0.000  0.000  0.000  0.000  0.000  0.437
tot    0.851  0.005  0.000  0.016  0.000  0.000  0.000  0.000  0.000  0.873
 
band     2 # energy    6.91687881 # occ.  1.00000000
 
ion      s     py     pz     px    dxy    dyz    dz2    dxz  x2-y2    tot
    1  0.086  0.002  0.000  0.005  0.002  0.000  0.384  0.000  0.001  0.480
    2  0.086  0.002  0.000  0.005  0.002  0.000  0.384  0.000  0.001  0.480
tot    0.173  0.003  0.000  0.010  0.004  0.000  0.768  0.000  0.001  0.960
 
band     3 # energy    9.55701714 # occ.  1.00000000
 
ion      s     py     pz     px    dxy    dyz    dz2    dxz  x2-y2    tot
    1  0.000  0.000  0.000  0.001  0.240  0.000  0.167  0.000  0.080  0.489
    2  0.000  0.000  0.000  0.001  0.240  0.000  0.167  0.000  0.080  0.489
tot    0.000  0.001  0.000  0.003  0.480  0.000  0.334  0.000  0.160  0.978
 
band     4 # energy   10.00360408 # occ.  1.00000000
 
ion      s     py     pz     px    dxy    dyz    dz2    dxz  x2-y2    tot
    1  0.000  0.001  0.000  0.000  0.122  0.000  0.000  0.000  0.366  0.489
    2  0.000  0.001  0.000  0.000  0.122  0.000  0.000  0.000  0.366  0.489
tot    0.000  0.002  0.000  0.001  0.244  0.000  0.000  0.000  0.732  0.979
 
band     5 # energy   10.09523773 # occ.  1.00000000
 
ion      s     py     pz     px    dxy    dyz    dz2    dxz  x2-y2    tot
    1  0.000  0.000  0.000  0.000  0.149  0.000  0.293  0.000  0.050  0.492
    2  0.000  0.000  0.000  0.000  0.149  0.000  0.293  0.000  0.050  0.492
tot    0.000  0.000  0.000  0.001  0.298  0.000  0.585  0.000  0.099  0.985
 
band     6 # energy   10.21128525 # occ.  1.00000000
 
ion      s     py     pz     px    dxy    dyz    dz2    dxz  x2-y2    tot
    1  0.001  0.000  0.000  0.001  0.341  0.000  0.035  0.000  0.114  0.492
    2  0.001  0.000  0.000  0.001  0.341  0.000  0.035  0.000  0.114  0.492
tot    0.003  0.001  0.000  0.002  0.681  0.000  0.071  0.000  0.227  0.984
 
band     7 # energy   10.39868790 # occ.  1.00000000
 
ion      s     py     pz     px    dxy    dyz    dz2    dxz  x2-y2    tot
    1  0.000  0.001  0.000  0.000  0.123  0.000  0.000  0.000  0.369  0.493
    2  0.000  0.001  0.000  0.000  0.123  0.000  0.000  0.000  0.369  0.493
tot    0.000  0.002  0.000  0.001  0.246  0.000  0.000  0.000  0.737  0.986
 
band     8 # energy   10.50105346 # occ.  1.00000000
 
ion      s     py     pz     px    dxy    dyz    dz2    dxz  x2-y2    tot
    1  0.000  0.000  0.023  0.000  0.000  0.116  0.000  0.348  0.000  0.487
    2  0.000  0.000  0.023  0.000  0.000  0.116  0.000  0.348  0.000  0.487
tot    0.000  0.000  0.046  0.000  0.000  0.232  0.000  0.696  0.000  0.974
 
band     9 # energy   10.61602132 # occ.  1.00000000
 
ion      s     py     pz     px    dxy    dyz    dz2    dxz  x2-y2    tot
    1  0.000  0.000  0.000  0.000  0.000  0.370  0.000  0.123  0.000  0.493
    2  0.000  0.000  0.000  0.000  0.000  0.370  0.000  0.123  0.000  0.493
tot    0.000  0.000  0.000  0.000  0.000  0.740  0.000  0.247  0.000  0.986
 
band    10 # energy   11.06347896 # occ.  1.00000000
 
ion      s     py     pz     px    dxy    dyz    dz2    dxz  x2-y2    tot
    1  0.000  0.000  0.128  0.000  0.000  0.085  0.000  0.255  0.000  0.468
    2  0.000  0.000  0.128  0.000  0.000  0.085  0.000  0.255  0.000  0.468
tot    0.000  0.000  0.256  0.000  0.000  0.170  0.000  0.511  0.000  0.937
 
band    11 # energy   12.16343001 # occ.  1.00000000
 
ion      s     py     pz     px    dxy    dyz    dz2    dxz  x2-y2    tot
    1  0.000  0.000  0.000  0.000  0.000  0.370  0.000  0.123  0.000  0.493
    2  0.000  0.000  0.000  0.000  0.000  0.370  0.000  0.123  0.000  0.493
tot    0.000  0.000  0.000  0.000  0.000  0.740  0.000  0.247  0.000  0.987
 
band    12 # energy   14.00815899 # occ.  0.00000000
 
ion      s     py     pz     px    dxy    dyz    dz2    dxz  x2-y2    tot
    1  0.000  0.000  0.265  0.000  0.000  0.047  0.000  0.141  0.000  0.453
    2  0.000  0.000  0.265  0.000  0.000  0.047  0.000  0.141  0.000  0.453
tot    0.000  0.000  0.530  0.000  0.000  0.094  0.000  0.282  0.000  0.907
 
band    13 # energy   20.64754894 # occ.  0.00000000
 
ion      s     py     pz     px    dxy    dyz    dz2    dxz  x2-y2    tot
    1  0.229  0.002  0.000  0.006  0.000  0.000  0.259  0.000  0.000  0.497
    2  0.229  0.002  0.000  0.006  0.000  0.000  0.259  0.000  0.000  0.497
tot    0.459  0.004  0.000  0.013  0.000  0.000  0.518  0.000  0.000  0.994
 
band    14 # energy   34.59142505 # occ.  0.00000000
 
ion      s     py     pz     px    dxy    dyz    dz2    dxz  x2-y2    tot
    1  0.012  0.015  0.000  0.044  0.121  0.000  0.029  0.000  0.040  0.261
    2  0.012  0.015  0.000  0.044  0.121  0.000  0.029  0.000  0.040  0.261
tot    0.024  0.029  0.000  0.088  0.243  0.000  0.057  0.000  0.081  0.522
 
band    15 # energy   37.23531130 # occ.  0.00000000
 
ion      s     py     pz     px    dxy    dyz    dz2    dxz  x2-y2    tot
    1  0.024  0.025  0.000  0.075  0.088  0.000  0.047  0.000  0.029  0.289
    2  0.024  0.025  0.000  0.075  0.088  0.000  0.047  0.000  0.029  0.289
tot    0.049  0.050  0.000  0.151  0.176  0.000  0.094  0.000  0.059  0.579
 
band    16 # energy   37.77417676 # occ.  0.00000000
 
ion      s     py     pz     px    dxy    dyz    dz2    dxz  x2-y2    tot
    1  0.000  0.172  0.000  0.057  0.057  0.000  0.000  0.000  0.170  0.456
    2  0.000  0.172  0.000  0.057  0.057  0.000  0.000  0.000  0.170  0.456
tot    0.000  0.344  0.000  0.115  0.113  0.000  0.000  0.000  0.340  0.912
 
band    17 # energy   39.92451309 # occ.  0.00000000
 
ion      s     py     pz     px    dxy    dyz    dz2    dxz  x2-y2    tot
    1  0.000  0.000  0.008  0.000  0.000  0.013  0.000  0.038  0.000  0.059
    2  0.000  0.000  0.008  0.000  0.000  0.013  0.000  0.038  0.000  0.059
tot    0.000  0.000  0.016  0.000  0.000  0.025  0.000  0.076  0.000  0.118
 
band    18 # energy   40.78413608 # occ.  0.00000000
 
ion      s     py     pz     px    dxy    dyz    dz2    dxz  x2-y2    tot
    1  0.002  0.020  0.000  0.060  0.050  0.000  0.031  0.000  0.017  0.180
    2  0.002  0.020  0.000  0.060  0.050  0.000  0.031  0.000  0.017  0.180
tot    0.004  0.040  0.000  0.120  0.100  0.000  0.062  0.000  0.033  0.359
 
band    19 # energy   42.17120445 # occ.  0.00000000
 
ion      s     py     pz     px    dxy    dyz    dz2    dxz  x2-y2    tot
    1  0.000  0.000  0.028  0.000  0.000  0.032  0.000  0.096  0.000  0.156
    2  0.000  0.000  0.028  0.000  0.000  0.032  0.000  0.096  0.000  0.156
tot    0.000  0.000  0.055  0.000  0.000  0.064  0.000  0.193  0.000  0.313
 
band    20 # energy   44.01992802 # occ.  0.00000000
 
ion      s     py     pz     px    dxy    dyz    dz2    dxz  x2-y2    tot
    1  0.000  0.072  0.000  0.024  0.114  0.000  0.000  0.000  0.341  0.551
    2  0.000  0.072  0.000  0.024  0.114  0.000  0.000  0.000  0.341  0.551
tot    0.000  0.143  0.000  0.048  0.228  0.000  0.000  0.000  0.683  1.101
 
band    21 # energy   44.77337653 # occ.  0.00000000
 
ion      s     py     pz     px    dxy    dyz    dz2    dxz  x2-y2    tot
    1  0.012  0.031  0.000  0.092  0.210  0.000  0.004  0.000  0.070  0.418
    2  0.012  0.031  0.000  0.092  0.210  0.000  0.004  0.000  0.070  0.418
tot    0.024  0.062  0.000  0.185  0.419  0.000  0.008  0.000  0.140  0.837
 
band    22 # energy   45.15649455 # occ.  0.00000000
 
ion      s     py     pz     px    dxy    dyz    dz2    dxz  x2-y2    tot
    1  0.000  0.000  0.000  0.000  0.000  0.205  0.000  0.068  0.000  0.273
    2  0.000  0.000  0.000  0.000  0.000  0.205  0.000  0.068  0.000  0.273
tot    0.000  0.000  0.000  0.000  0.000  0.409  0.000  0.136  0.000  0.545
 
band    23 # energy   47.03623001 # occ.  0.00000000
 
ion      s     py     pz     px    dxy    dyz    dz2    dxz  x2-y2    tot
    1  0.007  0.008  0.000  0.023  0.037  0.000  0.643  0.000  0.012  0.730
    2  0.007  0.008  0.000  0.023  0.037  0.000  0.643  0.000  0.012  0.730
tot    0.014  0.015  0.000  0.046  0.074  0.000  1.286  0.000  0.025  1.460
 
band    24 # energy   47.37187814 # occ.  0.00000000
 
ion      s     py     pz     px    dxy    dyz    dz2    dxz  x2-y2    tot
    1  0.000  0.000  0.165  0.000  0.000  0.064  0.000  0.191  0.000  0.420
    2  0.000  0.000  0.165  0.000  0.000  0.064  0.000  0.191  0.000  0.420
tot    0.000  0.000  0.330  0.000  0.000  0.127  0.000  0.382  0.000  0.839
 
band    25 # energy   48.83283016 # occ.  0.00000000
 
ion      s     py     pz     px    dxy    dyz    dz2    dxz  x2-y2    tot
    1  2.602  0.002  0.000  0.007  0.047  0.000  0.034  0.000  0.016  2.708
    2  2.602  0.002  0.000  0.007  0.047  0.000  0.034  0.000  0.016  2.708
tot    5.203  0.005  0.000  0.014  0.093  0.000  0.069  0.000  0.031  5.415
 
band    26 # energy   49.07353197 # occ.  0.00000000
 
ion      s     py     pz     px    dxy    dyz    dz2    dxz  x2-y2    tot
    1  3.037  0.001  0.000  0.003  0.003  0.000  0.002  0.000  0.001  3.046
    2  3.037  0.001  0.000  0.003  0.003  0.000  0.002  0.000  0.001  3.046
tot    6.074  0.002  0.000  0.005  0.005  0.000  0.004  0.000  0.002  6.092
 
band    27 # energy   50.51636852 # occ.  0.00000000
 
ion      s     py     pz     px    dxy    dyz    dz2    dxz  x2-y2    tot
    1  0.000  0.202  0.000  0.067  0.082  0.000  0.000  0.000  0.247  0.600
    2  0.000  0.202  0.000  0.067  0.082  0.000  0.000  0.000  0.247  0.600
tot    0.000  0.405  0.000  0.135  0.165  0.000  0.000  0.000  0.495  1.200
 
band    28 # energy   50.58504764 # occ.  0.00000000
 
ion      s     py     pz     px    dxy    dyz    dz2    dxz  x2-y2    tot
    1  0.000  0.000  0.000  0.000  0.000  0.373  0.000  0.124  0.000  0.497
    2  0.000  0.000  0.000  0.000  0.000  0.373  0.000  0.124  0.000  0.497
tot    0.000  0.000  0.000  0.000  0.000  0.746  0.000  0.249  0.000  0.994
 

 k-point     3 :    0.16666667 0.00000000 0.00000000     weight = 0.00520833

band     1 # energy    3.88060923 # occ.  1.00000000
 
ion      s     py     pz     px    dxy    dyz    dz2    dxz  x2-y2    tot
    1  0.392  0.010  0.000  0.031  0.003  0.000  0.001  0.000  0.001  0.438
    2  0.392  0.010  0.000  0.031  0.003  0.000  0.001  0.000  0.001  0.438
tot    0.785  0.020  0.000  0.061  0.005  0.000  0.002  0.000  0.002  0.875
 
band     2 # energy    7.33541069 # occ.  1.00000000
 
ion      s     py     pz     px    dxy    dyz    dz2    dxz  x2-y2    tot
    1  0.062  0.005  0.000  0.016  0.021  0.000  0.370  0.000  0.007  0.481
    2  0.062  0.005  0.000  0.016  0.021  0.000  0.370  0.000  0.007  0.481
tot    0.123  0.011  0.000  0.032  0.042  0.000  0.741  0.000  0.014  0.962
 
band     3 # energy    9.20063099 # occ.  1.00000000
 
ion      s     py     pz     px    dxy    dyz    dz2    dxz  x2-y2    tot
    1  0.000  0.002  0.000  0.006  0.269  0.000  0.117  0.000  0.090  0.484
    2  0.000  0.002  0.000  0.006  0.269  0.000  0.117  0.000  0.090  0.484
tot    0.001  0.004  0.000  0.012  0.537  0.000  0.235  0.000  0.179  0.969
 
band     4 # energy    9.57742170 # occ.  1.00000000
 
ion      s     py     pz     px    dxy    dyz    dz2    dxz  x2-y2    tot
    1  0.000  0.000  0.087  0.000  0.000  0.095  0.000  0.286  0.000  0.468
    2  0.000  0.000  0.087  0.000  0.000  0.095  0.000  0.286  0.000  0.468
tot    0.000  0.000  0.174  0.000  0.000  0.191  0.000  0.572  0.000  0.936
 
band     5 # energy    9.99112240 # occ.  1.00000000
 
ion      s     py     pz     px    dxy    dyz    dz2    dxz  x2-y2    tot
    1  0.006  0.001  0.000  0.002  0.316  0.000  0.060  0.000  0.105  0.490
    2  0.006  0.001  0.000  0.002  0.316  0.000  0.060  0.000  0.105  0.490
tot    0.011  0.001  0.000  0.004  0.633  0.000  0.119  0.000  0.211  0.980
 
band     6 # energy   10.38895482 # occ.  1.00000000
 
ion      s     py     pz     px    dxy    dyz    dz2    dxz  x2-y2    tot
    1  0.000  0.000  0.000  0.000  0.000  0.369  0.000  0.123  0.000  0.492
    2  0.000  0.000  0.000  0.000  0.000  0.369  0.000  0.123  0.000  0.492
tot    0.000  0.000  0.000  0.000  0.000  0.738  0.000  0.246  0.000  0.984
 
band     7 # energy   10.40926952 # occ.  1.00000000
 
ion      s     py     pz     px    dxy    dyz    dz2    dxz  x2-y2    tot
    1  0.000  0.002  0.000  0.001  0.121  0.000  0.000  0.000  0.364  0.489
    2  0.000  0.002  0.000  0.001  0.121  0.000  0.000  0.000  0.364  0.489
tot    0.000  0.004  0.000  0.001  0.243  0.000  0.000  0.000  0.728  0.977
 
band     8 # energy   10.48169432 # occ.  1.00000000
 
ion      s     py     pz     px    dxy    dyz    dz2    dxz  x2-y2    tot
    1  0.002  0.001  0.000  0.002  0.115  0.000  0.334  0.000  0.038  0.491
    2  0.002  0.001  0.000  0.002  0.115  0.000  0.334  0.000  0.038  0.491
tot    0.004  0.001  0.000  0.003  0.230  0.000  0.668  0.000  0.077  0.983
 
band     9 # energy   10.64213857 # occ.  1.00000000
 
ion      s     py     pz     px    dxy    dyz    dz2    dxz  x2-y2    tot
    1  0.000  0.000  0.048  0.000  0.000  0.109  0.000  0.328  0.000  0.485
    2  0.000  0.000  0.048  0.000  0.000  0.109  0.000  0.328  0.000  0.485
tot    0.000  0.000  0.095  0.000  0.000  0.218  0.000  0.655  0.000  0.969
 
band    10 # energy   10.75491229 # occ.  1.00000000
 
ion      s     py     pz     px    dxy    dyz    dz2    dxz  x2-y2    tot
    1  0.000  0.002  0.000  0.001  0.122  0.000  0.000  0.000  0.367  0.492
    2  0.000  0.002  0.000  0.001  0.122  0.000  0.000  0.000  0.367  0.492
tot    0.000  0.004  0.000  0.001  0.245  0.000  0.000  0.000  0.734  0.985
 
band    11 # energy   12.24992716 # occ.  1.00000000
 
ion      s     py     pz     px    dxy    dyz    dz2    dxz  x2-y2    tot
    1  0.000  0.000  0.000  0.000  0.000  0.371  0.000  0.124  0.000  0.495
    2  0.000  0.000  0.000  0.000  0.000  0.371  0.000  0.124  0.000  0.495
tot    0.000  0.000  0.000  0.000  0.000  0.742  0.000  0.247  0.000  0.990
 
band    12 # energy   15.86276422 # occ.  0.00000000
 
ion      s     py     pz     px    dxy    dyz    dz2    dxz  x2-y2    tot
    1  0.000  0.000  0.268  0.000  0.000  0.048  0.000  0.144  0.000  0.459
    2  0.000  0.000  0.268  0.000  0.000  0.048  0.000  0.144  0.000  0.459
tot    0.000  0.000  0.535  0.000  0.000  0.096  0.000  0.287  0.000  0.918
 
band    13 # energy   20.75716136 # occ.  0.00000000
 
ion      s     py     pz     px    dxy    dyz    dz2    dxz  x2-y2    tot
    1  0.212  0.009  0.000  0.028  0.001  0.000  0.240  0.000  0.000  0.491
    2  0.212  0.009  0.000  0.028  0.001  0.000  0.240  0.000  0.000  0.491
tot    0.425  0.019  0.000  0.057  0.001  0.000  0.480  0.000  0.000  0.982
 
band    14 # energy   30.90086861 # occ.  0.00000000
 
ion      s     py     pz     px    dxy    dyz    dz2    dxz  x2-y2    tot
    1  0.041  0.035  0.000  0.106  0.156  0.000  0.026  0.000  0.052  0.417
    2  0.041  0.035  0.000  0.106  0.156  0.000  0.026  0.000  0.052  0.417
tot    0.082  0.070  0.000  0.211  0.313  0.000  0.053  0.000  0.104  0.834
 
band    15 # energy   35.09937008 # occ.  0.00000000
 
ion      s     py     pz     px    dxy    dyz    dz2    dxz  x2-y2    tot
    1  0.000  0.194  0.000  0.065  0.043  0.000  0.000  0.000  0.130  0.432
    2  0.000  0.194  0.000  0.065  0.043  0.000  0.000  0.000  0.130  0.432
tot    0.000  0.388  0.000  0.129  0.086  0.000  0.000  0.000  0.259  0.863
 
band    16 # energy   36.13574161 # occ.  0.00000000
 
ion      s     py     pz     px    dxy    dyz    dz2    dxz  x2-y2    tot
    1  0.023  0.007  0.000  0.021  0.167  0.000  0.055  0.000  0.056  0.330
    2  0.023  0.007  0.000  0.021  0.167  0.000  0.055  0.000  0.056  0.330
tot    0.046  0.014  0.000  0.042  0.335  0.000  0.110  0.000  0.112  0.659
 
band    17 # energy   38.08710705 # occ.  0.00000000
 
ion      s     py     pz     px    dxy    dyz    dz2    dxz  x2-y2    tot
    1  0.000  0.000  0.036  0.000  0.000  0.062  0.000  0.186  0.000  0.285
    2  0.000  0.000  0.036  0.000  0.000  0.062  0.000  0.186  0.000  0.285
tot    0.000  0.000  0.073  0.000  0.000  0.124  0.000  0.373  0.000  0.570
 
band    18 # energy   40.05750703 # occ.  0.00000000
 
ion      s     py     pz     px    dxy    dyz    dz2    dxz  x2-y2    tot
    1  0.000  0.000  0.008  0.000  0.000  0.016  0.000  0.047  0.000  0.071
    2  0.000  0.000  0.008  0.000  0.000  0.016  0.000  0.047  0.000  0.071
tot    0.000  0.000  0.017  0.000  0.000  0.031  0.000  0.094  0.000  0.142
 
band    19 # energy   41.73548497 # occ.  0.00000000
 
ion      s     py     pz     px    dxy    dyz    dz2    dxz  x2-y2    tot
    1  0.020  0.028  0.000  0.084  0.049  0.000  0.021  0.000  0.016  0.219
    2  0.020  0.028  0.000  0.084  0.049  0.000  0.021  0.000  0.016  0.219
tot    0.040  0.056  0.000  0.168  0.099  0.000  0.042  0.000  0.033  0.438
 
band    20 # energy   44.49988385 # occ.  0.00000000
 
ion      s     py     pz     px    dxy    dyz    dz2    dxz  x2-y2    tot
    1  0.000  0.000  0.000  0.000  0.000  0.324  0.000  0.108  0.000  0.433
    2  0.000  0.000  0.000  0.000  0.000  0.324  0.000  0.108  0.000  0.433
tot    0.000  0.000  0.000  0.000  0.000  0.649  0.000  0.216  0.000  0.865
 
band    21 # energy   44.64878572 # occ.  0.00000000
 
ion      s     py     pz     px    dxy    dyz    dz2    dxz  x2-y2    tot
    1  0.107  0.045  0.000  0.136  0.003  0.000  0.210  0.000  0.001  0.503
    2  0.107  0.045  0.000  0.136  0.003  0.000  0.210  0.000  0.001  0.503
tot    0.214  0.091  0.000  0.273  0.006  0.000  0.421  0.000  0.002  1.006
 
band    22 # energy   45.85580675 # occ.  0.00000000
 
ion      s     py     pz     px    dxy    dyz    dz2    dxz  x2-y2    tot
    1  0.000  0.000  0.221  0.000  0.000  0.017  0.000  0.051  0.000  0.289
    2  0.000  0.000  0.221  0.000  0.000  0.017  0.000  0.051  0.000  0.289
tot    0.000  0.000  0.442  0.000  0.000  0.034  0.000  0.102  0.000  0.577
 
band    23 # energy   46.25448858 # occ.  0.00000000
 
ion      s     py     pz     px    dxy    dyz    dz2    dxz  x2-y2    tot
    1  0.000  0.024  0.000  0.008  0.145  0.000  0.000  0.000  0.434  0.610
    2  0.000  0.024  0.000  0.008  0.145  0.000  0.000  0.000  0.434  0.610
tot    0.000  0.047  0.000  0.016  0.289  0.000  0.000  0.000  0.867  1.220
 
band    24 # energy   48.13992396 # occ.  0.00000000
 
ion      s     py     pz     px    dxy    dyz    dz2    dxz  x2-y2    tot
    1  0.870  0.004  0.000  0.013  0.056  0.000  0.309  0.000  0.019  1.271
    2  0.870  0.004  0.000  0.013  0.056  0.000  0.309  0.000  0.019  1.271
tot    1.741  0.009  0.000  0.027  0.111  0.000  0.618  0.000  0.037  2.542
 
band    25 # energy   48.77890703 # occ.  0.00000000
 
ion      s     py     pz     px    dxy    dyz    dz2    dxz  x2-y2    tot
    1  0.000  0.262  0.000  0.087  0.020  0.000  0.000  0.000  0.061  0.430
    2  0.000  0.262  0.000  0.087  0.020  0.000  0.000  0.000  0.061  0.430
tot    0.000  0.524  0.000  0.175  0.041  0.000  0.000  0.000  0.122  0.861
 
band    26 # energy   49.04941893 # occ.  0.00000000
 
ion      s     py     pz     px    dxy    dyz    dz2    dxz  x2-y2    tot
    1  2.944  0.000  0.000  0.000  0.011  0.000  0.011  0.000  0.004  2.969
    2  2.944  0.000  0.000  0.000  0.011  0.000  0.011  0.000  0.004  2.969
tot    5.887  0.000  0.000  0.001  0.022  0.000  0.022  0.000  0.007  5.939
 
band    27 # energy   49.68022083 # occ.  0.00000000
 
ion      s     py     pz     px    dxy    dyz    dz2    dxz  x2-y2    tot
    1  1.707  0.006  0.000  0.019  0.099  0.000  0.012  0.000  0.033  1.877