PROCAR lm decomposed
# of k-points:   70         # of bands:   16         # of ions:    2

 k-point     1 :    0.00000000 0.00000000 0.00000000     weight = 0.00125000

band     1 # energy    1.78385790 # occ.  1.00000000
 
ion      s     py     pz     px    dxy    dyz    dz2    dxz  x2-y2    tot
    1  0.384  0.000  0.000  0.000  0.000  0.000  0.000  0.000  0.000  0.385
    2  0.384  0.000  0.000  0.000  0.000  0.000  0.000  0.000  0.000  0.385
tot    0.769  0.000  0.000  0.000  0.000  0.000  0.000  0.000  0.000  0.769
 
band     2 # energy    5.61634178 # occ.  1.00000000
 
ion      s     py     pz     px    dxy    dyz    dz2    dxz  x2-y2    tot
    1  0.085  0.000  0.000  0.000  0.000  0.000  0.371  0.000  0.000  0.456
    2  0.085  0.000  0.000  0.000  0.000  0.000  0.371  0.000  0.000  0.456
tot    0.170  0.000  0.000  0.000  0.000  0.000  0.742  0.000  0.000  0.913
 
band     3 # energy    8.30309777 # occ.  1.00000000
 
ion      s     py     pz     px    dxy    dyz    dz2    dxz  x2-y2    tot
    1  0.000  0.000  0.000  0.000  0.000  0.000  0.488  0.000  0.000  0.488
    2  0.000  0.000  0.000  0.000  0.000  0.000  0.488  0.000  0.000  0.488
tot    0.000  0.000  0.000  0.000  0.000  0.000  0.976  0.000  0.000  0.976
 
band     4 # energy    8.32500335 # occ.  1.00000000
 
ion      s     py     pz     px    dxy    dyz    dz2    dxz  x2-y2    tot
    1  0.000  0.000  0.000  0.000  0.363  0.000  0.000  0.000  0.121  0.485
    2  0.000  0.000  0.000  0.000  0.363  0.000  0.000  0.000  0.121  0.485
tot    0.000  0.000  0.000  0.001  0.726  0.000  0.000  0.000  0.242  0.969
 
band     5 # energy    8.32500514 # occ.  1.00000000
 
ion      s     py     pz     px    dxy    dyz    dz2    dxz  x2-y2    tot
    1  0.000  0.000  0.000  0.000  0.121  0.000  0.000  0.000  0.363  0.485
    2  0.000  0.000  0.000  0.000  0.121  0.000  0.000  0.000  0.363  0.485
tot    0.000  0.001  0.000  0.000  0.242  0.000  0.000  0.000  0.726  0.969
 
band     6 # energy    8.66404511 # occ.  1.00000000
 
ion      s     py     pz     px    dxy    dyz    dz2    dxz  x2-y2    tot
    1  0.000  0.000  0.000  0.001  0.366  0.000  0.000  0.000  0.122  0.489
    2  0.000  0.000  0.000  0.001  0.366  0.000  0.000  0.000  0.122  0.489
tot    0.000  0.000  0.000  0.001  0.732  0.000  0.000  0.000  0.244  0.978
 
band     7 # energy    8.66404690 # occ.  1.00000000
 
ion      s     py     pz     px    dxy    dyz    dz2    dxz  x2-y2    tot
    1  0.000  0.001  0.000  0.000  0.122  0.000  0.000  0.000  0.366  0.489
    2  0.000  0.001  0.000  0.000  0.122  0.000  0.000  0.000  0.366  0.489
tot    0.000  0.001  0.000  0.000  0.244  0.000  0.000  0.000  0.732  0.978
 
band     8 # energy    9.04957262 # occ.  1.00000000
 
ion      s     py     pz     px    dxy    dyz    dz2    dxz  x2-y2    tot
    1  0.000  0.000  0.000  0.000  0.000  0.123  0.000  0.368  0.000  0.491
    2  0.000  0.000  0.000  0.000  0.000  0.123  0.000  0.368  0.000  0.491
tot    0.000  0.000  0.000  0.000  0.000  0.245  0.000  0.736  0.000  0.982
 
band     9 # energy    9.04957276 # occ.  1.00000000
 
ion      s     py     pz     px    dxy    dyz    dz2    dxz  x2-y2    tot
    1  0.000  0.000  0.000  0.000  0.000  0.368  0.000  0.123  0.000  0.491
    2  0.000  0.000  0.000  0.000  0.000  0.368  0.000  0.123  0.000  0.491
tot    0.000  0.000  0.000  0.000  0.000  0.736  0.000  0.245  0.000  0.982
 
band    10 # energy   10.23676231 # occ.  1.00000000
 
ion      s     py     pz     px    dxy    dyz    dz2    dxz  x2-y2    tot
    1  0.000  0.000  0.000  0.000  0.000  0.369  0.000  0.123  0.000  0.493
    2  0.000  0.000  0.000  0.000  0.000  0.369  0.000  0.123  0.000  0.493
tot    0.000  0.000  0.000  0.000  0.000  0.739  0.000  0.246  0.000  0.985
 
band    11 # energy   10.23676238 # occ.  1.00000000
 
ion      s     py     pz     px    dxy    dyz    dz2    dxz  x2-y2    tot
    1  0.000  0.000  0.000  0.000  0.000  0.123  0.000  0.369  0.000  0.493
    2  0.000  0.000  0.000  0.000  0.000  0.123  0.000  0.369  0.000  0.493
tot    0.000  0.000  0.000  0.000  0.000  0.246  0.000  0.739  0.000  0.985
 
band    12 # energy   10.89320488 # occ.  0.92312783
 
ion      s     py     pz     px    dxy    dyz    dz2    dxz  x2-y2    tot
    1  0.000  0.000  0.367  0.000  0.000  0.000  0.000  0.000  0.000  0.367
    2  0.000  0.000  0.367  0.000  0.000  0.000  0.000  0.000  0.000  0.367
tot    0.000  0.000  0.735  0.000  0.000  0.000  0.000  0.000  0.000  0.735
 
band    13 # energy   17.80916583 # occ.  0.00000000
 
ion      s     py     pz     px    dxy    dyz    dz2    dxz  x2-y2    tot
    1  0.228  0.000  0.000  0.000  0.000  0.000  0.239  0.000  0.000  0.467
    2  0.228  0.000  0.000  0.000  0.000  0.000  0.239  0.000  0.000  0.467
tot    0.456  0.000  0.000  0.000  0.000  0.000  0.478  0.000  0.000  0.934
 
band    14 # energy   33.41847042 # occ.  0.00000000
 
ion      s     py     pz     px    dxy    dyz    dz2    dxz  x2-y2    tot
    1  0.007  0.000  0.000  0.000  0.000  0.000  0.033  0.000  0.000  0.039
    2  0.007  0.000  0.000  0.000  0.000  0.000  0.033  0.000  0.000  0.039
tot    0.013  0.000  0.000  0.000  0.000  0.000  0.065  0.000  0.000  0.079
 
band    15 # energy   36.51061138 # occ.  0.00000000
 
ion      s     py     pz     px    dxy    dyz    dz2    dxz  x2-y2    tot
    1  0.000  0.225  0.000  0.043  0.022  0.000  0.000  0.000  0.112  0.402
    2  0.000  0.225  0.000  0.043  0.022  0.000  0.000  0.000  0.112  0.401
tot    0.000  0.449  0.000  0.086  0.043  0.000  0.000  0.000  0.225  0.803
 
band    16 # energy   36.56582201 # occ.  0.00000000
 
ion      s     py     pz     px    dxy    dyz    dz2    dxz  x2-y2    tot
    1  0.007  0.029  0.000  0.156  0.079  0.000  0.023  0.000  0.016  0.310
    2  0.007  0.030  0.000  0.157  0.078  0.000  0.023  0.000  0.015  0.309
tot    0.013  0.059  0.000  0.313  0.157  0.000  0.046  0.000  0.031  0.619
 

 k-point     2 :    0.10000000 0.00000000 0.00000000     weight = 0.00750000

band     1 # energy    2.14683135 # occ.  1.00000000
 
ion      s     py     pz     px    dxy    dyz    dz2    dxz  x2-y2    tot
    1  0.372  0.003  0.000  0.010  0.000  0.000  0.000  0.000  0.000  0.385
    2  0.372  0.003  0.000  0.010  0.000  0.000  0.000  0.000  0.000  0.385
tot    0.743  0.006  0.000  0.019  0.001  0.000  0.000  0.000  0.000  0.770
 
band     2 # energy    5.83300156 # occ.  1.00000000
 
ion      s     py     pz     px    dxy    dyz    dz2    dxz  x2-y2    tot
    1  0.074  0.002  0.000  0.006  0.003  0.000  0.371  0.000  0.001  0.457
    2  0.074  0.002  0.000  0.006  0.003  0.000  0.371  0.000  0.001  0.457
tot    0.148  0.004  0.000  0.012  0.007  0.000  0.743  0.000  0.002  0.915
 
band     3 # energy    8.01306949 # occ.  1.00000000
 
ion      s     py     pz     px    dxy    dyz    dz2    dxz  x2-y2    tot
    1  0.000  0.000  0.000  0.001  0.245  0.000  0.153  0.000  0.082  0.482
    2  0.000  0.000  0.000  0.001  0.245  0.000  0.153  0.000  0.082  0.482
tot    0.000  0.001  0.000  0.003  0.490  0.000  0.306  0.000  0.163  0.964
 
band     4 # energy    8.49979760 # occ.  1.00000000
 
ion      s     py     pz     px    dxy    dyz    dz2    dxz  x2-y2    tot
    1  0.000  0.001  0.000  0.000  0.121  0.000  0.000  0.000  0.363  0.485
    2  0.000  0.001  0.000  0.000  0.121  0.000  0.000  0.000  0.363  0.485
tot    0.000  0.002  0.000  0.001  0.242  0.000  0.000  0.000  0.725  0.970
 
band     5 # energy    8.53235791 # occ.  1.00000000
 
ion      s     py     pz     px    dxy    dyz    dz2    dxz  x2-y2    tot
    1  0.001  0.000  0.000  0.001  0.231  0.000  0.177  0.000  0.077  0.487
    2  0.001  0.000  0.000  0.001  0.231  0.000  0.177  0.000  0.077  0.487
tot    0.001  0.001  0.000  0.002  0.462  0.000  0.355  0.000  0.154  0.975
 
band     6 # energy    8.62114116 # occ.  1.00000000
 
ion      s     py     pz     px    dxy    dyz    dz2    dxz  x2-y2    tot
    1  0.001  0.000  0.000  0.000  0.244  0.000  0.160  0.000  0.081  0.487
    2  0.001  0.000  0.000  0.000  0.244  0.000  0.160  0.000  0.081  0.487
tot    0.002  0.000  0.000  0.001  0.488  0.000  0.320  0.000  0.163  0.975
 
band     7 # energy    8.76954377 # occ.  1.00000000
 
ion      s     py     pz     px    dxy    dyz    dz2    dxz  x2-y2    tot
    1  0.000  0.000  0.033  0.000  0.000  0.110  0.000  0.331  0.000  0.474
    2  0.000  0.000  0.033  0.000  0.000  0.110  0.000  0.331  0.000  0.474
tot    0.000  0.000  0.066  0.000  0.000  0.221  0.000  0.662  0.000  0.948
 
band     8 # energy    8.81868108 # occ.  1.00000000
 
ion      s     py     pz     px    dxy    dyz    dz2    dxz  x2-y2    tot
    1  0.000  0.001  0.000  0.000  0.122  0.000  0.000  0.000  0.366  0.489
    2  0.000  0.001  0.000  0.000  0.122  0.000  0.000  0.000  0.366  0.489
tot    0.000  0.002  0.000  0.001  0.244  0.000  0.000  0.000  0.732  0.978
 
band     9 # energy    8.94135707 # occ.  1.00000000
 
ion      s     py     pz     px    dxy    dyz    dz2    dxz  x2-y2    tot
    1  0.000  0.000  0.000  0.000  0.000  0.367  0.000  0.122  0.000  0.490
    2  0.000  0.000  0.000  0.000  0.000  0.367  0.000  0.122  0.000  0.490
tot    0.000  0.000  0.000  0.000  0.000  0.735  0.000  0.245  0.000  0.979
 
band    10 # energy    9.25678089 # occ.  1.00000000
 
ion      s     py     pz     px    dxy    dyz    dz2    dxz  x2-y2    tot
    1  0.000  0.000  0.083  0.000  0.000  0.094  0.000  0.283  0.000  0.460
    2  0.000  0.000  0.083  0.000  0.000  0.094  0.000  0.283  0.000  0.460
tot    0.000  0.000  0.166  0.000  0.000  0.189  0.000  0.566  0.000  0.921
 
band    11 # energy   10.28230742 # occ.  1.00000000
 
ion      s     py     pz     px    dxy    dyz    dz2    dxz  x2-y2    tot
    1  0.000  0.000  0.000  0.000  0.000  0.370  0.000  0.123  0.000  0.494
    2  0.000  0.000  0.000  0.000  0.000  0.370  0.000  0.123  0.000  0.494
tot    0.000  0.000  0.000  0.000  0.000  0.740  0.000  0.247  0.000  0.987
 
band    12 # energy   12.39311658 # occ.  0.00000000
 
ion      s     py     pz     px    dxy    dyz    dz2    dxz  x2-y2    tot
    1  0.000  0.000  0.246  0.000  0.000  0.043  0.000  0.128  0.000  0.417
    2  0.000  0.000  0.246  0.000  0.000  0.043  0.000  0.128  0.000  0.417
tot    0.000  0.000  0.492  0.000  0.000  0.085  0.000  0.256  0.000  0.833
 
band    13 # energy   17.86668657 # occ.  0.00000000
 
ion      s     py     pz     px    dxy    dyz    dz2    dxz  x2-y2    tot
    1  0.222  0.003  0.000  0.008  0.000  0.000  0.230  0.000  0.000  0.464
    2  0.222  0.003  0.000  0.008  0.000  0.000  0.230  0.000  0.000  0.464
tot    0.444  0.006  0.000  0.017  0.000  0.000  0.460  0.000  0.000  0.927
 
band    14 # energy   31.01491984 # occ.  0.00000000
 
ion      s     py     pz     px    dxy    dyz    dz2    dxz  x2-y2    tot
    1  0.018  0.026  0.000  0.079  0.126  0.000  0.025  0.000  0.042  0.316
    2  0.018  0.026  0.000  0.079  0.126  0.000  0.025  0.000  0.042  0.316
tot    0.035  0.053  0.000  0.158  0.252  0.000  0.049  0.000  0.084  0.632
 
band    15 # energy   33.76716099 # occ.  0.00000000
 
ion      s     py     pz     px    dxy    dyz    dz2    dxz  x2-y2    tot
    1  0.000  0.177  0.000  0.059  0.044  0.000  0.000  0.000  0.133  0.413
    2  0.000  0.177  0.000  0.059  0.044  0.000  0.000  0.000  0.133  0.413
tot    0.000  0.354  0.000  0.118  0.089  0.000  0.000  0.000  0.266  0.827
 
band    16 # energy   33.89356969 # occ.  0.00000000
 
ion      s     py     pz     px    dxy    dyz    dz2    dxz  x2-y2    tot
    1  0.024  0.017  0.000  0.052  0.079  0.000  0.045  0.000  0.026  0.243
    2  0.024  0.017  0.000  0.052  0.079  0.000  0.045  0.000  0.026  0.243
tot    0.047  0.035  0.000  0.104  0.158  0.000  0.089  0.000  0.053  0.486
 

 k-point     3 :    0.20000000 0.00000000 0.00000000     weight = 0.00750000

band     1 # energy    3.17253076 # occ.  1.00000000
 
ion      s     py     pz     px    dxy    dyz    dz2    dxz  x2-y2    tot
    1  0.332  0.012  0.000  0.035  0.005  0.000  0.002  0.000  0.002  0.387
    2  0.332  0.012  0.000  0.035  0.005  0.000  0.002  0.000  0.002  0.387
tot    0.663  0.023  0.000  0.070  0.010  0.000  0.004  0.000  0.003  0.774
 
band     2 # energy    6.30091205 # occ.  1.00000000
 
ion      s     py     pz     px    dxy    dyz    dz2    dxz  x2-y2    tot
    1  0.044  0.005  0.000  0.015  0.042  0.000  0.341  0.000  0.014  0.462
    2  0.044  0.005  0.000  0.015  0.042  0.000  0.341  0.000  0.014  0.462
tot    0.087  0.010  0.000  0.030  0.085  0.000  0.683  0.000  0.028  0.924
 
band     3 # energy    7.67474764 # occ.  1.00000000
 
ion      s     py     pz     px    dxy    dyz    dz2    dxz  x2-y2    tot
    1  0.001  0.003  0.000  0.009  0.260  0.000  0.114  0.000  0.087  0.474
    2  0.001  0.003  0.000  0.009  0.260  0.000  0.114  0.000  0.087  0.474
tot    0.001  0.006  0.000  0.019  0.519  0.000  0.229  0.000  0.173  0.947
 
band     4 # energy    7.77262388 # occ.  1.00000000
 
ion      s     py     pz     px    dxy    dyz    dz2    dxz  x2-y2    tot
    1  0.000  0.000  0.067  0.000  0.000  0.096  0.000  0.289  0.000  0.452
    2  0.000  0.000  0.067  0.000  0.000  0.096  0.000  0.289  0.000  0.452
tot    0.000  0.000  0.134  0.000  0.000  0.193  0.000  0.578  0.000  0.904
 
band     5 # energy    8.36818931 # occ.  1.00000000
 
ion      s     py     pz     px    dxy    dyz    dz2    dxz  x2-y2    tot
    1  0.007  0.001  0.000  0.002  0.299  0.000  0.074  0.000  0.100  0.483
    2  0.007  0.001  0.000  0.002  0.299  0.000  0.074  0.000  0.100  0.483
tot    0.014  0.002  0.000  0.005  0.598  0.000  0.148  0.000  0.199  0.966
 
band     6 # energy    8.69279979 # occ.  1.00000000
 
ion      s     py     pz     px    dxy    dyz    dz2    dxz  x2-y2    tot
    1  0.000  0.000  0.000  0.000  0.000  0.366  0.000  0.122  0.000  0.487
    2  0.000  0.000  0.000  0.000  0.000  0.366  0.000  0.122  0.000  0.487
tot    0.000  0.000  0.000  0.000  0.000  0.731  0.000  0.244  0.000  0.975
 
band     7 # energy    8.91184665 # occ.  1.00000000
 
ion      s     py     pz     px    dxy    dyz    dz2    dxz  x2-y2    tot
    1  0.000  0.000  0.033  0.000  0.000  0.111  0.000  0.334  0.000  0.478
    2  0.000  0.000  0.033  0.000  0.000  0.111  0.000  0.334  0.000  0.478
tot    0.000  0.000  0.066  0.000  0.000  0.223  0.000  0.668  0.000  0.956
 
band     8 # energy    8.97979341 # occ.  1.00000000
 
ion      s     py     pz     px    dxy    dyz    dz2    dxz  x2-y2    tot
    1  0.000  0.002  0.000  0.001  0.121  0.000  0.000  0.000  0.362  0.486
    2  0.000  0.002  0.000  0.001  0.121  0.000  0.000  0.000  0.362  0.486
tot    0.000  0.004  0.000  0.001  0.241  0.000  0.000  0.000  0.724  0.971
 
band     9 # energy    9.00499993 # occ.  1.00000000
 
ion      s     py     pz     px    dxy    dyz    dz2    dxz  x2-y2    tot
    1  0.003  0.001  0.000  0.002  0.105  0.000  0.341  0.000  0.035  0.488
    2  0.003  0.001  0.000  0.002  0.105  0.000  0.341  0.000  0.035  0.488
tot    0.006  0.002  0.000  0.005  0.211  0.000  0.682  0.000  0.070  0.975
 
band    10 # energy    9.23911019 # occ.  1.00000000
 
ion      s     py     pz     px    dxy    dyz    dz2    dxz  x2-y2    tot
    1  0.000  0.002  0.000  0.001  0.122  0.000  0.000  0.000  0.365  0.490
    2  0.000  0.002  0.000  0.001  0.122  0.000  0.000  0.000  0.365  0.490
tot    0.000  0.004  0.000  0.001  0.244  0.000  0.000  0.000  0.731  0.979
 
band    11 # energy   10.36795960 # occ.  1.00000000
 
ion      s     py     pz     px    dxy    dyz    dz2    dxz  x2-y2    tot
    1  0.000  0.000  0.000  0.000  0.000  0.371  0.000  0.124  0.000  0.495
    2  0.000  0.000  0.000  0.000  0.000  0.371  0.000  0.124  0.000  0.495
tot    0.000  0.000  0.000  0.000  0.000  0.743  0.000  0.248  0.000  0.990
 
band    12 # energy   14.47574881 # occ.  0.00000000
 
ion      s     py     pz     px    dxy    dyz    dz2    dxz  x2-y2    tot
    1  0.000  0.000  0.248  0.000  0.000  0.044  0.000  0.132  0.000  0.423
    2  0.000  0.000  0.248  0.000  0.000  0.044  0.000  0.132  0.000  0.423
tot    0.000  0.000  0.495  0.000  0.000  0.088  0.000  0.263  0.000  0.846
 
band    13 # energy   18.07888181 # occ.  0.00000000
 
ion      s     py     pz     px    dxy    dyz    dz2    dxz  x2-y2    tot
    1  0.198  0.013  0.000  0.038  0.001  0.000  0.204  0.000  0.000  0.454
    2  0.198  0.013  0.000  0.038  0.001  0.000  0.204  0.000  0.000  0.454
tot    0.395  0.026  0.000  0.077  0.001  0.000  0.408  0.000  0.000  0.907
 
band    14 # energy   26.36939523 # occ.  0.00000000
 
ion      s     py     pz     px    dxy    dyz    dz2    dxz  x2-y2    tot
    1  0.059  0.038  0.000  0.113  0.124  0.000  0.023  0.000  0.041  0.398
    2  0.059  0.038  0.000  0.113  0.124  0.000  0.023  0.000  0.041  0.398
tot    0.119  0.075  0.000  0.225  0.248  0.000  0.045  0.000  0.083  0.795
 
band    15 # energy   30.89016564 # occ.  0.00000000
 
ion      s     py     pz     px    dxy    dyz    dz2    dxz  x2-y2    tot
    1  0.000  0.200  0.000  0.067  0.031  0.000  0.000  0.000  0.092  0.388
    2  0.000  0.200  0.000  0.067  0.031  0.000  0.000  0.000  0.092  0.388
tot    0.000  0.399  0.000  0.133  0.061  0.000  0.000  0.000  0.183  0.777
 
band    16 # energy   32.74566483 # occ.  0.00000000
 
ion      s     py     pz     px    dxy    dyz    dz2    dxz  x2-y2    tot
    1  0.017  0.005  0.000  0.014  0.189  0.000  0.049  0.000  0.063  0.336
    2  0.017  0.005  0.000  0.014  0.189  0.000  0.049  0.000  0.063  0.336
tot    0.033  0.009  0.000  0.028  0.378  0.000  0.098  0.000  0.126  0.673
 

 k-point     4 :    0.30000000-0.00000000 0.00000000     weight = 0.00750000

band     1 # energy    4.59252502 # occ.  1.00000000
 
ion      s     py     pz     px    dxy    dyz    dz2    dxz  x2-y2    tot
    1  0.256  0.019  0.000  0.058  0.040  0.000  0.012  0.000  0.013  0.398
    2  0.256  0.019  0.000  0.058  0.040  0.000  0.012  0.000  0.013  0.398
tot    0.511  0.039  0.000  0.116  0.080  0.000  0.023  0.000  0.027  0.796
 
band     2 # energy    6.42590714 # occ.  1.00000000
 
ion      s     py     pz     px    dxy    dyz    dz2    dxz  x2-y2    tot
    1  0.018  0.002  0.000  0.006  0.181  0.000  0.200  0.000  0.060  0.468
    2  0.018  0.002  0.000  0.006  0.181  0.000  0.200  0.000  0.060  0.468
tot    0.036  0.004  0.000  0.013  0.362  0.000  0.400  0.000  0.121  0.935
 
band     3 # energy    6.96110333 # occ.  1.00000000
 
ion      s     py     pz     px    dxy    dyz    dz2    dxz  x2-y2    tot
    1  0.000  0.000  0.045  0.000  0.000  0.102  0.000  0.305  0.000  0.452
    2  0.000  0.000  0.045  0.000  0.000  0.102  0.000  0.305  0.000  0.452
tot    0.000  0.000  0.091  0.000  0.000  0.203  0.000  0.609  0.000  0.903
 
band     4 # energy    7.64309077 # occ.  1.00000000
 
ion      s     py     pz     px    dxy    dyz    dz2    dxz  x2-y2    tot
    1  0.004  0.014  0.000  0.041  0.195  0.000  0.139  0.000  0.065  0.459
    2  0.004  0.014  0.000  0.041  0.195  0.000  0.139  0.000  0.065  0.459
tot    0.008  0.028  0.000  0.083  0.390  0.000  0.278  0.000  0.130  0.917
 
band     5 # energy    8.38196360 # occ.  1.00000000
 
ion      s     py     pz     px    dxy    dyz    dz2    dxz  x2-y2    tot
    1  0.012  0.003  0.000  0.009  0.176  0.000  0.222  0.000  0.059  0.481
    2  0.012  0.003  0.000  0.009  0.176  0.000  0.222  0.000  0.059  0.481
tot    0.023  0.006  0.000  0.018  0.352  0.000  0.445  0.000  0.117  0.961
 
band     6 # energy    8.42687566 # occ.  1.00000000
 
ion      s     py     pz     px    dxy    dyz    dz2    dxz  x2-y2    tot
    1  0.000  0.000  0.000  0.000  0.000  0.364  0.000  0.121  0.000  0.486
    2  0.000  0.000  0.000  0.000  0.000  0.364  0.000  0.121  0.000  0.486
tot    0.000  0.000  0.000  0.000  0.000  0.729  0.000  0.243  0.000  0.972
 
band     7 # energy    8.66568953 # occ.  1.00000000
 
ion      s     py     pz     px    dxy    dyz    dz2    dxz  x2-y2    tot
    1  0.000  0.000  0.030  0.000  0.000  0.112  0.000  0.336  0.000  0.478
    2  0.000  0.000  0.030  0.000  0.000  0.112  0.000  0.336  0.000  0.478
tot    0.000  0.000  0.061  0.000  0.000  0.224  0.000  0.671  0.000  0.956
 
band     8 # energy    9.62046658 # occ.  1.00000000
 
ion      s     py     pz     px    dxy    dyz    dz2    dxz  x2-y2    tot
    1  0.000  0.002  0.000  0.001  0.122  0.000  0.000  0.000  0.365  0.489
    2  0.000  0.002  0.000  0.001  0.122  0.000  0.000  0.000  0.365  0.489
tot    0.000  0.003  0.000  0.001  0.243  0.000  0.000  0.000  0.730  0.977
 
band     9 # energy    9.70842000 # occ.  1.00000000
 
ion      s     py     pz     px    dxy    dyz    dz2    dxz  x2-y2    tot
    1  0.012  0.004  0.000  0.012  0.103  0.000  0.319  0.000  0.034  0.485
    2  0.012  0.004  0.000  0.012  0.103  0.000  0.319  0.000  0.034  0.485
tot    0.025  0.008  0.000  0.024  0.205  0.000  0.639  0.000  0.068  0.970
 
band    10 # energy    9.79817748 # occ.  1.00000000
 
ion      s     py     pz     px    dxy    dyz    dz2    dxz  x2-y2    tot
    1  0.000  0.003  0.000  0.001  0.122  0.000  0.000  0.000  0.366  0.492
    2  0.000  0.003  0.000  0.001  0.122  0.000  0.000  0.000  0.366  0.492
tot    0.000  0.005  0.000  0.002  0.244  0.000  0.000  0.000  0.733  0.984
 
band    11 # energy   10.43506010 # occ.  1.00000000
 
ion      s     py     pz     px    dxy    dyz    dz2    dxz  x2-y2    tot
    1  0.000  0.000  0.000  0.000  0.000  0.372  0.000  0.124  0.000  0.496
    2  0.000  0.000  0.000  0.000  0.000  0.372  0.000  0.124  0.000  0.496
tot    0.000  0.000  0.000  0.000  0.000  0.744  0.000  0.248  0.000  0.992
 
band    12 # energy   16.82292291 # occ.  0.00000000
 
ion      s     py     pz     px    dxy    dyz    dz2    dxz  x2-y2    tot
    1  0.000  0.000  0.252  0.000  0.000  0.043  0.000  0.130  0.000  0.426
    2  0.000  0.000  0.252  0.000  0.000  0.043  0.000  0.130  0.000  0.426
tot    0.000  0.000  0.505  0.000  0.000  0.087  0.000  0.260  0.000  0.851
 
band    13 # energy   18.38781978 # occ.  0.00000000
 
ion      s     py     pz     px    dxy    dyz    dz2    dxz  x2-y2    tot
    1  0.109  0.040  0.000  0.121  0.000  0.000  0.168  0.000  0.000  0.439
    2  0.109  0.040  0.000  0.121  0.000  0.000  0.168  0.000  0.000  0.439
tot    0.217  0.081  0.000  0.243  0.001  0.000  0.336  0.000  0.000  0.878
 
band    14 # energy   22.19019166 # occ.  0.00000000
 
ion      s     py     pz     px    dxy    dyz    dz2    dxz  x2-y2    tot
    1  0.160  0.024  0.000  0.071  0.112  0.000  0.012  0.000  0.037  0.416
    2  0.160  0.024  0.000  0.071  0.112  0.000  0.012  0.000  0.037  0.416
tot    0.320  0.047  0.000  0.141  0.225  0.000  0.023  0.000  0.075  0.831
 
band    15 # energy   28.54531546 # occ.  0.00000000
 
ion      s     py     pz     px    dxy    dyz    dz2    dxz  x2-y2    tot
    1  0.000  0.223  0.000  0.074  0.016  0.000  0.000  0.000  0.048  0.361
    2  0.000  0.223  0.000  0.074  0.016  0.000  0.000  0.000  0.048  0.361
tot    0.000  0.445  0.000  0.148  0.032  0.000  0.000  0.000  0.097  0.723
 
band    16 # energy   29.72786828 # occ.  0.00000000
 
ion      s     py     pz     px    dxy    dyz    dz2    dxz  x2-y2    tot
    1  0.000  0.000  0.089  0.000  0.000  0.065  0.000  0.196  0.000  0.350
    2  0.000  0.000  0.089  0.000  0.000  0.065  0.000  0.196  0.000  0.350
tot    0.000  0.000  0.178  0.000  0.000  0.130  0.000  0.391  0.000  0.700
 

 k-point     5 :    0.40000000 0.00000000 0.00000000     weight = 0.00750000

band     1 # energy    5.68502124 # occ.  1.00000000
 
ion      s     py     pz     px    dxy    dyz    dz2    dxz  x2-y2    tot
    1  0.130  0.013  0.000  0.038  0.164  0.000  0.032  0.000  0.055  0.432
    2  0.130  0.013  0.000  0.038  0.164  0.000  0.032  0.000  0.055  0.432
tot    0.261  0.025  0.000  0.076  0.328  0.000  0.064  0.000  0.109  0.864
 
band     2 # energy    6.19553175 # occ.  1.00000000
 
ion      s     py     pz     px    dxy    dyz    dz2    dxz  x2-y2    tot
    1  0.023  0.001  0.000  0.002  0.245  0.000  0.114  0.000  0.082  0.466
    2  0.023  0.001  0.000  0.002  0.245  0.000  0.114  0.000  0.082  0.466
tot    0.045  0.001  0.000  0.004  0.491  0.000  0.227  0.000  0.164  0.932
 
band     3 # energy    6.47065214 # occ.  1.00000000
 
ion      s     py     pz     px    dxy    dyz    dz2    dxz  x2-y2    tot
    1  0.000  0.000  0.026  0.000  0.000  0.107  0.000  0.321  0.000  0.453
    2  0.000  0.000  0.026  0.000  0.000  0.107  0.000  0.321  0.000  0.453
tot    0.000  0.000  0.051  0.000  0.000  0.214  0.000  0.641  0.000  0.906
 
band     4 # energy    8.03666367 # occ.  1.00000000
 
ion      s     py     pz     px    dxy    dyz    dz2    dxz  x2-y2    tot
    1  0.026  0.030  0.000  0.091  0.090  0.000  0.166  0.000  0.030  0.434
    2  0.026  0.030  0.000  0.091  0.090  0.000  0.166  0.000  0.030  0.434
tot    0.053  0.061  0.000  0.183  0.180  0.000  0.332  0.000  0.060  0.869
 
band     5 # energy    8.23295238 # occ.  1.00000000
 
ion      s     py     pz     px    dxy    dyz    dz2    dxz  x2-y2    tot
    1  0.000  0.000  0.000  0.000  0.000  0.364  0.000  0.121  0.000  0.485
    2  0.000  0.000  0.000  0.000  0.000  0.364  0.000  0.121  0.000  0.485
tot    0.000  0.000  0.000  0.000  0.000  0.727  0.000  0.242  0.000  0.970
 
band     6 # energy    8.48002589 # occ.  1.00000000
 
ion      s     py     pz     px    dxy    dyz    dz2    dxz  x2-y2    tot
    1  0.000  0.000  0.032  0.000  0.000  0.111  0.000  0.334  0.000  0.477
    2  0.000  0.000  0.032  0.000  0.000  0.111  0.000  0.334  0.000  0.477
tot    0.000  0.000  0.064  0.000  0.000  0.222  0.000  0.667  0.000  0.954
 
band     7 # energy    8.64803932 # occ.  1.00000000
 
ion      s     py     pz     px    dxy    dyz    dz2    dxz  x2-y2    tot
    1  0.004  0.005  0.000  0.016  0.077  0.000  0.355  0.000  0.026  0.483
    2  0.004  0.005  0.000  0.016  0.077  0.000  0.355  0.000  0.026  0.483
tot    0.007  0.011  0.000  0.032  0.154  0.000  0.710  0.000  0.051  0.965
 
band     8 # energy   10.16672877 # occ.  1.00000000
 
ion      s     py     pz     px    dxy    dyz    dz2    dxz  x2-y2    tot
    1  0.000  0.000  0.000  0.000  0.123  0.000  0.000  0.000  0.370  0.493
    2  0.000  0.000  0.000  0.000  0.123  0.000  0.000  0.000  0.370  0.493
tot    0.000  0.001  0.000  0.000  0.247  0.000  0.000  0.000  0.740  0.987
 
band     9 # energy   10.31173163 # occ.  1.00000000
 
ion      s     py     pz     px    dxy    dyz    dz2    dxz  x2-y2    tot
    1  0.000  0.002  0.000  0.001  0.123  0.000  0.000  0.000  0.370  0.495
    2  0.000  0.002  0.000  0.001  0.123  0.000  0.000  0.000  0.370  0.495
tot    0.000  0.003  0.000  0.001  0.246  0.000  0.000  0.000  0.739  0.990
 
band    10 # energy   10.47086840 # occ.  1.00000000
 
ion      s     py     pz     px    dxy    dyz    dz2    dxz  x2-y2    tot
    1  0.000  0.000  0.000  0.000  0.000  0.372  0.000  0.124  0.000  0.496
    2  0.000  0.000  0.000  0.000  0.000  0.372  0.000  0.124  0.000  0.496
tot    0.000  0.000  0.000  0.000  0.000  0.745  0.000  0.248  0.000  0.993
 
band    11 # energy   10.95509299 # occ.  0.37295752
 
ion      s     py     pz     px    dxy    dyz    dz2    dxz  x2-y2    tot
    1  0.036  0.016  0.000  0.047  0.098  0.000  0.241  0.000  0.033  0.471
    2  0.036  0.016  0.000  0.047  0.098  0.000  0.241  0.000  0.033  0.471
tot    0.072  0.031  0.000  0.094  0.197  0.000  0.483  0.000  0.066  0.942
 
band    12 # energy   16.85060639 # occ.  0.00000000
 
ion      s     py     pz     px    dxy    dyz    dz2    dxz  x2-y2    tot
    1  0.031  0.059  0.000  0.176  0.048  0.000  0.108  0.000  0.016  0.437
    2  0.031  0.059  0.000  0.176  0.048  0.000  0.108  0.000  0.016  0.437
tot    0.062  0.117  0.000  0.352  0.095  0.000  0.216  0.000  0.032  0.873
 
band    13 # energy   19.33078214 # occ.  0.00000000
 
ion      s     py     pz     px    dxy    dyz    dz2    dxz  x2-y2    tot
    1  0.000  0.000  0.258  0.000  0.000  0.042  0.000  0.125  0.000  0.425
    2  0.000  0.000  0.258  0.000  0.000  0.042  0.000  0.125  0.000  0.425
tot    0.000  0.000  0.516  0.000  0.000  0.083  0.000  0.250  0.000  0.850
 
band    14 # energy   20.95989934 # occ.  0.00000000
 
ion      s     py     pz     px    dxy    dyz    dz2    dxz  x2-y2    tot
    1  0.226  0.017  0.000  0.052  0.069  0.000  0.023  0.000  0.023  0.410
    2  0.226  0.017  0.000  0.052  0.069  0.000  0.023  0.000  0.023  0.410
tot    0.451  0.035  0.000  0.105  0.138  0.000  0.045  0.000  0.046  0.821
 
band    15 # energy   26.29165595 # occ.  0.00000000
 
ion      s     py     pz     px    dxy    dyz    dz2    dxz  x2-y2    tot
    1  0.000  0.000  0.112  0.000  0.000  0.069  0.000  0.208  0.000  0.389
    2  0.000  0.000  0.112  0.000  0.000  0.069  0.000  0.208  0.000  0.389
tot    0.000  0.000  0.223  0.000  0.000  0.139  0.000  0.416  0.000  0.778
 
band    16 # energy   26.95620007 # occ.  0.00000000
 
ion      s     py     pz     px    dxy    dyz    dz2    dxz  x2-y2    tot
    1  0.000  0.241  0.000  0.080  0.005  0.000  0.000  0.000  0.014  0.339
    2  0.000  0.241  0.000  0.080  0.005  0.000  0.000  0.000  0.014  0.339
tot    0.000  0.481  0.000  0.160  0.009  0.000  0.000  0.000  0.028  0.678
 

 k-point     6 :    0.50000000 0.00000000 0.00000000     weight = 0.00375000

band     1 # energy    5.98907681 # occ.  1.00000000
 
ion      s     py     pz     px    dxy    dyz    dz2    dxz  x2-y2    tot
    1  0.010  0.000  0.000  0.001  0.265  0.000  0.096  0.000  0.088  0.461
    2  0.010  0.000  0.000  0.001  0.265  0.000  0.096  0.000  0.088  0.461
tot    0.020  0.001  0.000  0.002  0.530  0.000  0.192  0.000  0.177  0.922
 
band     2 # energy    6.05323656 # occ.  1.00000000
 
ion      s     py     pz     px    dxy    dyz    dz2    dxz  x2-y2    tot
    1  0.090  0.006  0.000  0.019  0.228  0.000  0.035  0.000  0.076  0.454
    2  0.090  0.006  0.000  0.019  0.228  0.000  0.035  0.000  0.076  0.454
tot    0.181  0.013  0.000  0.039  0.455  0.000  0.069  0.000  0.152  0.908