<?xml version="1.0" encoding="ISO-8859-1"?>
<modeling>
 <generator>
  <i name="program" type="string">vasp </i>
  <i name="version" type="string">6.3.2  </i>
  <i name="subversion" type="string">27Jun22 (build Aug 12 2022 00:53:59) complex                          parallel </i>
  <i name="platform" type="string">tv2STD </i>
  <i name="date" type="string">2024 11 30 </i>
  <i name="time" type="string">17:12:50 </i>
 </generator>
 <incar>
  <i type="string" name="SYSTEM">Co-hcc</i>
  <i type="int" name="ISTART">     0</i>
  <i type="string" name="PREC">Accurate      normal | accurate</i>
  <i type="string" name="ALGO">Normal     Normal, Fast, Very_Fast</i>
  <i type="logical" name="ADDGRID"> F  </i>
  <i type="int" name="ISPIN">     2</i>
  <i type="int" name="ICHARG">     2</i>
  <i type="int" name="INIWAV">     1</i>
  <i type="int" name="NELM">   100</i>
  <i type="int" name="IBRION">     2</i>
  <i name="EDIFF">      0.00000100</i>
  <i name="EDIFFG">     -0.02000000</i>
  <i type="int" name="NSW">   100</i>
  <i type="int" name="ISIF">     2</i>
  <i type="int" name="ISYM">     1</i>
  <i name="ENCUT">    400.00000000</i>
  <v name="MAGMOM">      3.00000000      3.00000000</v>
  <i type="logical" name="LREAL"> F  </i>
  <i type="int" name="ISMEAR">     0</i>
  <i name="SIGMA">      0.05000000</i>
  <i type="int" name="NWRITE">     2</i>
  <i type="logical" name="LWAVE"> T  </i>
  <i type="logical" name="LCHARG"> T  </i>
  <i type="int" name="LORBIT">    11</i>
 </incar>
 <primitive_cell>
  <structure name="primitive_cell" >
   <crystal>
    <varray name="basis" >
     <v>       2.45021142       0.00000000       0.00000000 </v>
     <v>      -1.22510571       2.12194533       0.00000000 </v>
     <v>       0.00000000       0.00000000       3.96434235 </v>
    </varray>
    <i name="volume">     20.61146700 </i>
    <varray name="rec_basis" >
     <v>       0.40812805       0.23563284       0.00000000 </v>
     <v>       0.00000000       0.47126567       0.00000000 </v>
     <v>       0.00000000       0.00000000       0.25224865 </v>
    </varray>
   </crystal>
   <varray name="positions" >
    <v>       0.00000000       0.00000000       0.00000000 </v>
    <v>       0.33333333       0.66666667       0.50000000 </v>
   </varray>
  </structure>
  <varray name="primitive_index" >
   <v type="int" >        1 </v>
   <v type="int" >        2 </v>
  </varray>
 </primitive_cell>
 <kpoints>
  <generation param="Gamma">
   <v type="int" name="divisions">      10       10        8 </v>
   <v name="usershift">      0.00000000       0.00000000       0.00000000 </v>
   <v name="genvec1">      0.10000000      -0.00000000       0.00000000 </v>
   <v name="genvec2">      0.00000000       0.10000000       0.00000000 </v>
   <v name="genvec3">      0.00000000       0.00000000       0.12500000 </v>
   <v name="shift">      0.00000000       0.00000000       0.00000000 </v>
  </generation>
  <varray name="kpointlist" >
   <v>       0.00000000       0.00000000       0.00000000 </v>
   <v>       0.10000000       0.00000000       0.00000000 </v>
   <v>       0.20000000       0.00000000       0.00000000 </v>
   <v>       0.30000000      -0.00000000       0.00000000 </v>
   <v>       0.40000000       0.00000000       0.00000000 </v>
   <v>       0.50000000       0.00000000       0.00000000 </v>
   <v>       0.10000000       0.10000000       0.00000000 </v>
   <v>       0.20000000       0.10000000       0.00000000 </v>
   <v>       0.30000000       0.10000000       0.00000000 </v>
   <v>       0.40000000       0.10000000       0.00000000 </v>
   <v>       0.20000000       0.20000000       0.00000000 </v>
   <v>       0.30000000       0.20000000       0.00000000 </v>
   <v>       0.40000000       0.20000000       0.00000000 </v>
   <v>       0.30000000       0.30000000       0.00000000 </v>
   <v>       0.00000000       0.00000000       0.12500000 </v>
   <v>       0.10000000       0.00000000       0.12500000 </v>
   <v>       0.20000000       0.00000000       0.12500000 </v>
   <v>       0.30000000      -0.00000000       0.12500000 </v>
   <v>       0.40000000       0.00000000       0.12500000 </v>
   <v>       0.50000000       0.00000000       0.12500000 </v>
   <v>       0.10000000       0.10000000       0.12500000 </v>
   <v>       0.20000000       0.10000000       0.12500000 </v>
   <v>       0.30000000       0.10000000       0.12500000 </v>
   <v>       0.40000000       0.10000000       0.12500000 </v>
   <v>       0.20000000       0.20000000       0.12500000 </v>
   <v>       0.30000000       0.20000000       0.12500000 </v>
   <v>       0.40000000       0.20000000       0.12500000 </v>
   <v>       0.30000000       0.30000000       0.12500000 </v>
   <v>       0.00000000       0.00000000       0.25000000 </v>
   <v>       0.10000000       0.00000000       0.25000000 </v>
   <v>       0.20000000       0.00000000       0.25000000 </v>
   <v>       0.30000000      -0.00000000       0.25000000 </v>
   <v>       0.40000000       0.00000000       0.25000000 </v>
   <v>       0.50000000       0.00000000       0.25000000 </v>
   <v>       0.10000000       0.10000000       0.25000000 </v>
   <v>       0.20000000       0.10000000       0.25000000 </v>
   <v>       0.30000000       0.10000000       0.25000000 </v>
   <v>       0.40000000       0.10000000       0.25000000 </v>
   <v>       0.20000000       0.20000000       0.25000000 </v>
   <v>       0.30000000       0.20000000       0.25000000 </v>
   <v>       0.40000000       0.20000000       0.25000000 </v>
   <v>       0.30000000       0.30000000       0.25000000 </v>
   <v>       0.00000000       0.00000000       0.37500000 </v>
   <v>       0.10000000       0.00000000       0.37500000 </v>
   <v>       0.20000000       0.00000000       0.37500000 </v>
   <v>       0.30000000      -0.00000000       0.37500000 </v>
   <v>       0.40000000       0.00000000       0.37500000 </v>
   <v>       0.50000000       0.00000000       0.37500000 </v>
   <v>       0.10000000       0.10000000       0.37500000 </v>
   <v>       0.20000000       0.10000000       0.37500000 </v>
   <v>       0.30000000       0.10000000       0.37500000 </v>
   <v>       0.40000000       0.10000000       0.37500000 </v>
   <v>       0.20000000       0.20000000       0.37500000 </v>
   <v>       0.30000000       0.20000000       0.37500000 </v>
   <v>       0.40000000       0.20000000       0.37500000 </v>
   <v>       0.30000000       0.30000000       0.37500000 </v>
   <v>       0.00000000       0.00000000       0.50000000 </v>
   <v>       0.10000000       0.00000000       0.50000000 </v>
   <v>       0.20000000       0.00000000       0.50000000 </v>
   <v>       0.30000000      -0.00000000       0.50000000 </v>
   <v>       0.40000000       0.00000000       0.50000000 </v>
   <v>       0.50000000       0.00000000       0.50000000 </v>
   <v>       0.10000000       0.10000000       0.50000000 </v>
   <v>       0.20000000       0.10000000       0.50000000 </v>
   <v>       0.30000000       0.10000000       0.50000000 </v>
   <v>       0.40000000       0.10000000       0.50000000 </v>
   <v>       0.20000000       0.20000000       0.50000000 </v>
   <v>       0.30000000       0.20000000       0.50000000 </v>
   <v>       0.40000000       0.20000000       0.50000000 </v>
   <v>       0.30000000       0.30000000       0.50000000 </v>
  </varray>
  <varray name="weights" >
   <v>       0.00125000 </v>
   <v>       0.00750000 </v>
   <v>       0.00750000 </v>
   <v>       0.00750000 </v>
   <v>       0.00750000 </v>
   <v>       0.00375000 </v>
   <v>       0.00750000 </v>
   <v>       0.01500000 </v>
   <v>       0.01500000 </v>
   <v>       0.01500000 </v>
   <v>       0.00750000 </v>
   <v>       0.01500000 </v>
   <v>       0.00750000 </v>
   <v>       0.00750000 </v>
   <v>       0.00250000 </v>
   <v>       0.01500000 </v>
   <v>       0.01500000 </v>
   <v>       0.01500000 </v>
   <v>       0.01500000 </v>
   <v>       0.00750000 </v>
   <v>       0.01500000 </v>
   <v>       0.03000000 </v>
   <v>       0.03000000 </v>
   <v>       0.03000000 </v>
   <v>       0.01500000 </v>
   <v>       0.03000000 </v>
   <v>       0.01500000 </v>
   <v>       0.01500000 </v>
   <v>       0.00250000 </v>
   <v>       0.01500000 </v>
   <v>       0.01500000 </v>
   <v>       0.01500000 </v>
   <v>       0.01500000 </v>
   <v>       0.00750000 </v>
   <v>       0.01500000 </v>
   <v>       0.03000000 </v>
   <v>       0.03000000 </v>
   <v>       0.03000000 </v>
   <v>       0.01500000 </v>
   <v>       0.03000000 </v>
   <v>       0.01500000 </v>
   <v>       0.01500000 </v>
   <v>       0.00250000 </v>
   <v>       0.01500000 </v>
   <v>       0.01500000 </v>
   <v>       0.01500000 </v>
   <v>       0.01500000 </v>
   <v>       0.00750000 </v>
   <v>       0.01500000 </v>
   <v>       0.03000000 </v>
   <v>       0.03000000 </v>
   <v>       0.03000000 </v>
   <v>       0.01500000 </v>
   <v>       0.03000000 </v>
   <v>       0.01500000 </v>
   <v>       0.01500000 </v>
   <v>       0.00125000 </v>
   <v>       0.00750000 </v>
   <v>       0.00750000 </v>
   <v>       0.00750000 </v>
   <v>       0.00750000 </v>
   <v>       0.00375000 </v>
   <v>       0.00750000 </v>
   <v>       0.01500000 </v>
   <v>       0.01500000 </v>
   <v>       0.01500000 </v>
   <v>       0.00750000 </v>
   <v>       0.01500000 </v>
   <v>       0.00750000 </v>
   <v>       0.00750000 </v>
  </varray>
 </kpoints>
 <parameters>
  <separator name="general" >
   <i type="string" name="SYSTEM">Co-hcc</i>
   <i type="logical" name="LCOMPAT"> F  </i>
  </separator>
  <separator name="electronic" >
   <i type="string" name="PREC">accura</i>
   <i name="ENMAX">    400.00000000</i>
   <i name="ENAUG">    477.81800000</i>
   <i name="EDIFF">      0.00000100</i>
   <i type="int" name="IALGO">    38</i>
   <i type="int" name="IWAVPR">    11</i>
   <i type="int" name="NBANDS">    16</i>
   <i type="int" name="NBANDSLOW">    -1</i>
   <i type="int" name="NBANDSHIGH">    -1</i>
   <i name="NELECT">     18.00000000</i>
   <i type="int" name="TURBO">     0</i>
   <i type="int" name="IRESTART">     0</i>
   <i type="int" name="NREBOOT">     0</i>
   <i type="int" name="NMIN">     0</i>
   <i name="EREF">      0.00000000</i>
   <separator name="electronic smearing" >
    <i type="int" name="ISMEAR">     0</i>
    <i name="SIGMA">      0.05000000</i>
    <i name="KSPACING">      0.50000000</i>
    <i type="logical" name="KGAMMA"> T  </i>
    <i type="logical" name="KBLOWUP"> T  </i>
   </separator>
   <separator name="electronic projectors" >
    <i type="logical" name="LREAL"> F  </i>
    <v name="ROPT">      0.00000000</v>
    <i type="int" name="LMAXPAW">  -100</i>
    <i type="int" name="LMAXMIX">     2</i>
    <i type="logical" name="NLSPLINE"> F  </i>
   </separator>
   <separator name="electronic startup" >
    <i type="int" name="ISTART">     0</i>
    <i type="int" name="ICHARG">     2</i>
    <i type="int" name="INIWAV">     1</i>
   </separator>
   <separator name="electronic spin" >
    <i type="int" name="ISPIN">     2</i>
    <i type="logical" name="LNONCOLLINEAR"> F  </i>
    <v name="MAGMOM">      3.00000000      3.00000000</v>
    <i name="NUPDOWN">     -1.00000000</i>
    <i type="logical" name="LSORBIT"> F  </i>
    <v name="SAXIS">      0.00000000      0.00000000      1.00000000</v>
    <i type="logical" name="LSPIRAL"> F  </i>
    <v name="QSPIRAL">      0.00000000      0.00000000      0.00000000</v>
    <i type="logical" name="LZEROZ"> F  </i>
   </separator>
   <separator name="electronic exchange-correlation" >
    <i type="logical" name="LASPH"> F  </i>
    <i type="logical" name="LMETAGGA"> F  </i>
   </separator>
   <separator name="electronic convergence" >
    <i type="int" name="NELM">   100</i>
    <i type="int" name="NELMDL">    -5</i>
    <i type="int" name="NELMIN">     2</i>
    <i name="ENINI">    400.00000000</i>
    <separator name="electronic convergence detail" >
     <i type="logical" name="LDIAG"> T  </i>
     <i type="logical" name="LSUBROT"> F  </i>
     <i name="WEIMIN">      0.00100000</i>
     <i name="EBREAK">      0.00000002</i>
     <i name="DEPER">      0.30000000</i>
     <i type="int" name="NRMM">     4</i>
     <i name="TIME">      0.40000000</i>
    </separator>
   </separator>
   <separator name="electronic mixer" >
    <i name="AMIX">      0.40000000</i>
    <i name="BMIX">      1.00000000</i>
    <i name="AMIN">      0.10000000</i>
    <i name="AMIX_MAG">      1.60000000</i>
    <i name="BMIX_MAG">      1.00000000</i>
    <separator name="electronic mixer details" >
     <i type="int" name="IMIX">     4</i>
     <i type="logical" name="MIXFIRST"> F  </i>
     <i type="int" name="MAXMIX">   -45</i>
     <i name="WC">    100.00000000</i>
     <i type="int" name="INIMIX">     1</i>
     <i type="int" name="MIXPRE">     1</i>
     <i type="int" name="MREMOVE">     5</i>
    </separator>
   </separator>
   <separator name="electronic dipolcorrection" >
    <i type="logical" name="LDIPOL"> F  </i>
    <i type="logical" name="LMONO"> F  </i>
    <i type="int" name="IDIPOL">     0</i>
    <i name="EPSILON">      1.00000000</i>
    <v name="DIPOL">   -100.00000000   -100.00000000   -100.00000000</v>
    <i name="EFIELD">      0.00000000</i>
   </separator>
  </separator>
  <separator name="grids" >
   <i type="int" name="NGX">    16</i>
   <i type="int" name="NGY">    16</i>
   <i type="int" name="NGZ">    28</i>
   <i type="int" name="NGXF">    32</i>
   <i type="int" name="NGYF">    32</i>
   <i type="int" name="NGZF">    56</i>
   <i type="logical" name="ADDGRID"> F  </i>
  </separator>
  <separator name="ionic" >
   <i type="int" name="NSW">   100</i>
   <i type="int" name="IBRION">     2</i>
   <i type="int" name="MDALGO">     0</i>
   <i type="int" name="ISIF">     2</i>
   <i name="PSTRESS">      0.00000000</i>
   <i name="EDIFFG">     -0.02000000</i>
   <i type="int" name="NFREE">     1</i>
   <i name="POTIM">      0.50000000</i>
   <i name="SMASS">     -3.00000000</i>
   <i name="SCALEE">      1.00000000</i>
  </separator>
  <separator name="ionic md" >
   <i name="TEBEG">      0.00010000</i>
   <i name="TEEND">      0.00010000</i>
   <i type="int" name="NBLOCK">     1</i>
   <i type="int" name="KBLOCK">   100</i>
   <i type="int" name="NPACO">   256</i>
   <i name="APACO">     10.00000000</i>
  </separator>
  <separator name="symmetry" >
   <i type="int" name="ISYM">     1</i>
   <i name="SYMPREC">      0.00001000</i>
  </separator>
  <separator name="dos" >
   <i type="int" name="LORBIT">    11</i>
   <v name="RWIGS">     -1.00000000</v>
   <i type="int" name="NEDOS">   301</i>
   <i name="EMIN">     10.00000000</i>
   <i name="EMAX">    -10.00000000</i>
   <i name="EFERMI">      0.00000000</i>
  </separator>
  <separator name="writing" >
   <i type="int" name="NWRITE">     2</i>
   <i type="logical" name="LWAVE"> T  </i>
   <i type="logical" name="LDOWNSAMPLE"> F  </i>
   <i type="logical" name="LCHARG"> T  </i>
   <i type="logical" name="LPARD"> F  </i>
   <i type="logical" name="LVTOT"> F  </i>
   <i type="logical" name="LVHAR"> F  </i>
   <i type="logical" name="LELF"> F  </i>
   <i type="logical" name="LOPTICS"> F  </i>
   <v name="STM">      0.00000000      0.00000000      0.00000000      0.00000000      0.00000000      0.00000000      0.00000000</v>
  </separator>
  <separator name="performance" >
   <i type="int" name="NPAR">     4</i>
   <i type="int" name="NSIM">     4</i>
   <i type="int" name="NBLK">    -1</i>
   <i type="logical" name="LPLANE"> T  </i>
   <i type="logical" name="LSCALAPACK"> T  </i>
   <i type="logical" name="LSCAAWARE"> F  </i>
   <i type="logical" name="LSCALU"> F  </i>
   <i type="logical" name="LASYNC"> F  </i>
   <i type="logical" name="LORBITALREAL"> F  </i>
  </separator>
  <separator name="miscellaneous" >
   <i type="int" name="IDIOT">     3</i>
   <i type="int" name="PHON_NSTRUCT">    -1</i>
   <i type="logical" name="LMUSIC"> F  </i>
   <v name="POMASS">     58.93300000</v>
   <v name="DARWINR">      0.00000000</v>
   <v name="DARWINV">      1.00000000</v>
   <i type="logical" name="LCORR"> T  </i>
  </separator>
  <i type="logical" name="GGA_COMPAT"> T  </i>
  <i type="logical" name="LBERRY"> F  </i>
  <i type="int" name="ICORELEVEL">     0</i>
  <i type="logical" name="LDAU"> F  </i>
  <i type="int" name="I_CONSTRAINED_M">     0</i>
  <separator name="electronic exchange-correlation" >
   <i type="string" name="GGA">--</i>
   <i type="int" name="VOSKOWN">     0</i>
   <i type="logical" name="LHFCALC"> F  </i>
   <i type="string" name="PRECFOCK"></i>
   <i type="logical" name="LSYMGRAD"> F  </i>
   <i type="logical" name="LHFONE"> F  </i>
   <i type="logical" name="LRHFCALC"> F  </i>
   <i type="logical" name="LTHOMAS"> F  </i>
   <i type="logical" name="LMODELHF"> F  </i>
   <i type="logical" name="LFOCKACE"> F  </i>
   <i name="ENCUT4O">     -1.00000000</i>
   <i type="int" name="EXXOEP">     0</i>
   <i type="int" name="FOURORBIT">     0</i>
   <i name="AEXX">      0.00000000</i>
   <i name="HFALPHA">      0.00000000</i>
   <i name="MCALPHA">      0.00000000</i>
   <i name="ALDAX">      1.00000000</i>
   <i name="AGGAX">      1.00000000</i>
   <i name="ALDAC">      1.00000000</i>
   <i name="AGGAC">      1.00000000</i>
   <i type="int" name="NKREDX">     1</i>
   <i type="int" name="NKREDY">     1</i>
   <i type="int" name="NKREDZ">     1</i>
   <i type="logical" name="SHIFTRED"> F  </i>
   <i type="logical" name="ODDONLY"> F  </i>
   <i type="logical" name="EVENONLY"> F  </i>
   <i type="int" name="LMAXFOCK">     0</i>
   <i type="int" name="NMAXFOCKAE">     0</i>
   <i type="logical" name="LFOCKAEDFT"> F  </i>
   <i name="HFSCREEN">      0.00000000</i>
   <i name="HFSCREENC">      0.00000000</i>
   <i type="int" name="NBANDSGWLOW">     0</i>
  </separator>
  <separator name="vdW DFT" >
   <i type="logical" name="LUSE_VDW"> F  </i>
   <i name="Zab_VDW">     -0.84910000</i>
   <i name="PARAM1">      0.12340000</i>
   <i name="PARAM2">      1.00000000</i>
   <i name="PARAM3">      0.00000000</i>
  </separator>
  <separator name="model GW" >
   <i type="int" name="MODEL_GW">     0</i>
   <i name="MODEL_EPS0">      6.18344010</i>
   <i name="MODEL_ALPHA">      1.00000000</i>
  </separator>
  <separator name="linear response parameters" >
   <i type="logical" name="LEPSILON"> F  </i>
   <i type="logical" name="LRPA"> F  </i>
   <i type="logical" name="LNABLA"> F  </i>
   <i type="logical" name="LVEL"> F  </i>
   <i name="CSHIFT">      0.10000000</i>
   <i name="OMEGAMAX">     -1.00000000</i>
   <i name="DEG_THRESHOLD">      0.00200000</i>
   <i name="RTIME">     -0.10000000</i>
   <i name="WPLASMAI">      0.00000000</i>
   <v name="DFIELD">      0.00000000      0.00000000      0.00000000</v>
   <v name="WPLASMA">      0.00000000      0.00000000      0.00000000      0.00000000      0.00000000      0.00000000      0.00000000      0.00000000      0.00000000</v>
  </separator>
  <separator name="orbital magnetization" >
   <i type="logical" name="NUCIND"> F  </i>
   <v name="MAGPOS">      0.00000000      0.00000000      0.00000000</v>
   <i type="logical" name="LNICSALL"> T  </i>
   <i type="logical" name="ORBITALMAG"> F  </i>
   <i type="logical" name="LMAGBLOCH"> F  </i>
   <i type="logical" name="LCHIMAG"> F  </i>
   <i type="logical" name="LGAUGE"> T  </i>
   <i type="int" name="MAGATOM">     0</i>
   <v name="MAGDIPOL">      0.00000000      0.00000000      0.00000000</v>
   <v name="AVECCONST">      0.00000000      0.00000000      0.00000000</v>
  </separator>
  <separator name="response functions" >
   <i type="logical" name="LFINITE_TEMPERATURE"> F  </i>
   <i type="logical" name="LADDER"> F  </i>
   <i type="logical" name="LRPAFORCE"> F  </i>
   <i type="logical" name="LFXC"> F  </i>
   <i type="logical" name="LHARTREE"> T  </i>
   <i type="int" name="IBSE">     0</i>
   <v type="int" name="KPOINT">    -1     0     0     0</v>
   <i type="logical" name="LTCTC"> F  </i>
   <i type="logical" name="LTCTE"> F  </i>
   <i type="logical" name="LTETE"> F  </i>
   <i type="logical" name="LTRIPLET"> F  </i>
   <i type="logical" name="LFXCEPS"> F  </i>
   <i type="logical" name="LFXHEG"> F  </i>
   <i type="int" name="NATURALO">     2</i>
   <i type="logical" name="LHOLEGF"> F  </i>
   <i type="logical" name="L2ORDER"> F  </i>
   <i type="logical" name="LDMP1"> F  </i>
   <i type="logical" name="LMP2LT"> F  </i>
   <i type="logical" name="LSMP2LT"> F  </i>
   <i type="logical" name="LGWLF"> F  </i>
   <i name="ENCUTGW">     -2.00000000</i>
   <i name="ENCUTGWSOFT">     -2.00000000</i>
   <i name="ENCUTLF">     -1.00000000</i>
   <i type="logical" name="LESF_SPLINES"> F  </i>
   <i type="int" name="LMAXMP2">    -1</i>
   <i name="SCISSOR">      0.00000000</i>
   <i type="int" name="NOMEGA">     0</i>
   <i type="int" name="NOMEGAR">     0</i>
   <i type="int" name="NBANDSGW">    -1</i>
   <i type="int" name="NBANDSO">    -1</i>
   <i type="int" name="NBANDSV">    -1</i>
   <i type="int" name="NELMGW">     1</i>
   <i type="int" name="NELMHF">     1</i>
   <i type="int" name="DIM">     3</i>
   <i type="int" name="IESPILON">     4</i>
   <i type="int" name="ANTIRES">     0</i>
   <i name="OMEGAMAX">    -30.00000000</i>
   <i name="OMEGAMIN">    -30.00000000</i>
   <i name="OMEGATL">   -200.00000000</i>
   <i type="int" name="OMEGAGRID">     0</i>
   <i name="CSHIFT">     -0.10000000</i>
   <i type="logical" name="LSELFENERGY"> F  </i>
   <i type="logical" name="LSPECTRAL"> F  </i>
   <i type="logical" name="LSPECTRALGW"> F  </i>
   <i type="logical" name="LSINGLES"> F  </i>
   <i type="logical" name="LFERMIGW"> F  </i>
   <i type="logical" name="ODDONLYGW"> F  </i>
   <i type="logical" name="EVENONLYGW"> F  </i>
   <i type="int" name="NKREDLFX">     1</i>
   <i type="int" name="NKREDLFY">     1</i>
   <i type="int" name="NKREDLFZ">     1</i>
   <i type="int" name="MAXMEM">  2800</i>
   <i type="int" name="TELESCOPE">     0</i>
   <i type="int" name="NTAUPAR">    -1</i>
   <i type="int" name="NOMEGAPAR">    -1</i>
   <i name="DAMP_NEWTON">      0.80000001</i>
   <i name="LAMBDA">      1.00000000</i>
  </separator>
  <separator name="External order field" >
   <i name="OFIELD_KAPPA">      0.00000000</i>
   <v name="OFIELD_K">      0.00000000      0.00000000      0.00000000</v>
   <i name="OFIELD_Q6_NEAR">      0.00000000</i>
   <i name="OFIELD_Q6_FAR">      0.00000000</i>
   <i name="OFIELD_A">      0.00000000</i>
  </separator>
  <separator name="optional k-points parameters" >
   <i type="int" name="KPOINTS_OPT_MODE">     1</i>
   <i type="logical" name="LKPOINTS_OPT"> F  </i>
  </separator>
 </parameters>
 <atominfo>
  <atoms>       2 </atoms>
  <types>       1 </types>
  <array name="atoms" >
   <dimension dim="1">ion</dimension>
   <field type="string">element</field>
   <field type="int">atomtype</field>
   <set>
    <rc><c>Co</c><c>   1</c></rc>
    <rc><c>Co</c><c>   1</c></rc>
   </set>
  </array>
  <array name="atomtypes" >
   <dimension dim="1">type</dimension>
   <field type="int">atomspertype</field>
   <field type="string">element</field>
   <field>mass</field>
   <field>valence</field>
   <field type="string">pseudopotential</field>
   <set>
    <rc><c>   2</c><c>Co</c><c>     58.93300000</c><c>      9.00000000</c><c>  PAW_PBE Co 02Aug2007                  </c></rc>
   </set>
  </array>
 </atominfo>
 <structure name="initialpos" >
  <crystal>
   <varray name="basis" >
    <v>       2.45021142       0.00000000       0.00000000 </v>
    <v>      -1.22510571       2.12194533       0.00000000 </v>
    <v>       0.00000000       0.00000000       3.96434235 </v>
   </varray>
   <i name="volume">     20.61146700 </i>
   <varray name="rec_basis" >
    <v>       0.40812805       0.23563284       0.00000000 </v>
    <v>       0.00000000       0.47126567       0.00000000 </v>
    <v>       0.00000000       0.00000000       0.25224865 </v>
   </varray>
  </crystal>
  <varray name="positions" >
   <v>       0.00000000       0.00000000       0.00000000 </v>
   <v>       0.33333333       0.66666667       0.50000000 </v>
  </varray>
 </structure>
 <calculation>
  <scstep>
   <time name="dav">    0.42    0.43</time>
   <time name="total">    0.44    0.44</time>
   <energy>
    <i name="alphaZ">     82.20218560 </i>
    <i name="ewald">  -1547.97361065 </i>
    <i name="hartreedc">   -289.13275229 </i>
    <i name="XCdc">     35.97094334 </i>
    <i name="pawpsdc">   1439.98163886 </i>
    <i name="pawaedc">  -1545.88690193 </i>
    <i name="eentropy">     -0.00200084 </i>
    <i name="bandstr">    266.79462259 </i>
    <i name="atom">   1626.71546820 </i>
    <i name="e_fr_energy">     68.66959287 </i>
    <i name="e_wo_entrp">     68.67159372 </i>
    <i name="e_0_energy">     68.67059329 </i>
   </energy>
  </scstep>
  <scstep>
   <time name="dav">    0.39    0.40</time>
   <time name="total">    0.40    0.40</time>
   <energy>
    <i name="e_fr_energy">    -13.47085609 </i>
    <i name="e_wo_entrp">    -13.46929989 </i>
    <i name="e_0_energy">    -13.47007799 </i>
   </energy>
  </scstep>
  <scstep>
   <time name="dav">    0.48    0.48</time>
   <time name="total">    0.48    0.48</time>
   <energy>
    <i name="e_fr_energy">    -15.47707612 </i>
    <i name="e_wo_entrp">    -15.47519509 </i>
    <i name="e_0_energy">    -15.47613560 </i>
   </energy>
  </scstep>
  <scstep>
   <time name="dav">    0.54    0.55</time>
   <time name="total">    0.55    0.55</time>
   <energy>
    <i name="e_fr_energy">    -15.51214390 </i>
    <i name="e_wo_entrp">    -15.51026139 </i>
    <i name="e_0_energy">    -15.51120265 </i>
   </energy>
  </scstep>
  <scstep>
   <time name="dav">    0.48    0.48</time>
   <time name="total">    0.50    0.50</time>
   <energy>
    <i name="e_fr_energy">    -15.51233784 </i>
    <i name="e_wo_entrp">    -15.51045517 </i>
    <i name="e_0_energy">    -15.51139650 </i>
   </energy>
  </scstep>
  <scstep>
   <time name="dav">    0.42    0.42</time>
   <time name="total">    0.45    0.45</time>
   <energy>
    <i name="e_fr_energy">    -14.33724614 </i>
    <i name="e_wo_entrp">    -14.33472508 </i>
    <i name="e_0_energy">    -14.33598561 </i>
   </energy>
  </scstep>
  <scstep>
   <time name="dav">    0.44    0.44</time>
   <time name="total">    0.47    0.47</time>
   <energy>
    <i name="e_fr_energy">    -14.07264157 </i>
    <i name="e_wo_entrp">    -14.07007757 </i>
    <i name="e_0_energy">    -14.07135957 </i>
   </energy>
  </scstep>
  <scstep>
   <time name="dav">    0.55    0.55</time>
   <time name="total">    0.57    0.58</time>
   <energy>
    <i name="e_fr_energy">    -14.04624240 </i>
    <i name="e_wo_entrp">    -14.04355271 </i>
    <i name="e_0_energy">    -14.04489755 </i>
   </energy>
  </scstep>
  <scstep>
   <time name="dav">    0.53    0.54</time>
   <time name="total">    0.56    0.57</time>
   <energy>
    <i name="e_fr_energy">    -14.03194235 </i>
    <i name="e_wo_entrp">    -14.02908802 </i>
    <i name="e_0_energy">    -14.03051518 </i>
   </energy>
  </scstep>
  <scstep>
   <time name="dav">    0.51    0.51</time>
   <time name="total">    0.54    0.54</time>
   <energy>
    <i name="e_fr_energy">    -14.03109786 </i>
    <i name="e_wo_entrp">    -14.02821977 </i>
    <i name="e_0_energy">    -14.02965881 </i>
   </energy>
  </scstep>
  <scstep>
   <time name="dav">    0.55    0.55</time>
   <time name="total">    0.58    0.58</time>
   <energy>
    <i name="e_fr_energy">    -14.03112722 </i>
    <i name="e_wo_entrp">    -14.02833919 </i>
    <i name="e_0_energy">    -14.02973320 </i>
   </energy>
  </scstep>
  <scstep>
   <time name="dav">    0.44    0.44</time>
   <time name="total">    0.47    0.47</time>
   <energy>
    <i name="e_fr_energy">    -14.03112912 </i>
    <i name="e_wo_entrp">    -14.02836887 </i>
    <i name="e_0_energy">    -14.02974900 </i>
   </energy>
  </scstep>
  <scstep>
   <time name="dav">    0.34    0.34</time>
   <time name="total">    0.35    0.35</time>
   <energy>
    <i name="alphaZ">     82.20218560 </i>
    <i name="ewald">  -1547.97361065 </i>
    <i name="hartreedc">   -253.87442674 </i>
    <i name="XCdc">     33.13728471 </i>
    <i name="pawpsdc">   1867.09555329 </i>
    <i name="pawaedc">  -1973.62041982 </i>
    <i name="eentropy">     -0.00273089 </i>
    <i name="bandstr">    152.28956751 </i>
    <i name="atom">   1626.71546820 </i>
    <i name="e_fr_energy">    -14.03112880 </i>
    <i name="e_wo_entrp">    -14.02839790 </i>
    <i name="e_0_energy">    -14.02976335 </i>
   </energy>
  </scstep>
  <structure>
   <crystal>
    <varray name="basis" >
     <v>       2.45021142       0.00000000       0.00000000 </v>
     <v>      -1.22510571       2.12194533       0.00000000 </v>
     <v>       0.00000000       0.00000000       3.96434235 </v>
    </varray>
    <i name="volume">     20.61146700 </i>
    <varray name="rec_basis" >
     <v>       0.40812805       0.23563284       0.00000000 </v>
     <v>       0.00000000       0.47126567       0.00000000 </v>
     <v>       0.00000000       0.00000000       0.25224865 </v>
    </varray>
   </crystal>
   <varray name="positions" >
    <v>       0.00000000       0.00000000       0.00000000 </v>
    <v>       0.33333333       0.66666667       0.50000000 </v>
   </varray>
  </structure>
  <varray name="forces" >
   <v>      -0.00000000       0.00000000       0.00000000 </v>
   <v>       0.00000000       0.00000000       0.00000000 </v>
  </varray>
  <varray name="stress" >
   <v>     118.56504022       0.00000000       0.00000000 </v>
   <v>       0.00000000     118.56504022      -0.00000000 </v>
   <v>       0.00000000       0.00000000     109.87605239 </v>
  </varray>
  <energy>
   <i name="e_fr_energy">    -14.03112880 </i>
   <i name="e_wo_entrp">    -14.02839790 </i>
   <i name="e_0_energy">    -14.02976335 </i>
  </energy>
  <time name="totalsc">    6.57    6.70</time>
  <eigenvalues>
   <array>
    <dimension dim="1">band</dimension>
    <dimension dim="2">kpoint</dimension>
    <dimension dim="3">spin</dimension>
    <field>eigene</field>
    <field>occ</field>
    <set>
     <set comment="spin 1">
      <set comment="kpoint 1">
       <r>    1.7839    1.0000 </r>
       <r>    5.6163    1.0000 </r>
       <r>    8.3031    1.0000 </r>
       <r>    8.3250    1.0000 </r>
       <r>    8.3250    1.0000 </r>
       <r>    8.6640    1.0000 </r>
       <r>    8.6640    1.0000 </r>
       <r>    9.0496    1.0000 </r>
       <r>    9.0496    1.0000 </r>
       <r>   10.2368    1.0000 </r>
       <r>   10.2368    1.0000 </r>
       <r>   10.8932    0.9231 </r>
       <r>   17.8092    0.0000 </r>
       <r>   33.4185    0.0000 </r>
       <r>   36.5106    0.0000 </r>
       <r>   36.5658    0.0000 </r>
      </set>
      <set comment="kpoint 2">
       <r>    2.1468    1.0000 </r>
       <r>    5.8330    1.0000 </r>
       <r>    8.0131    1.0000 </r>
       <r>    8.4998    1.0000 </r>
       <r>    8.5324    1.0000 </r>
       <r>    8.6211    1.0000 </r>
       <r>    8.7695    1.0000 </r>
       <r>    8.8187    1.0000 </r>
       <r>    8.9414    1.0000 </r>
       <r>    9.2568    1.0000 </r>
       <r>   10.2823    1.0000 </r>
       <r>   12.3931    0.0000 </r>
       <r>   17.8667    0.0000 </r>
       <r>   31.0149    0.0000 </r>
       <r>   33.7672    0.0000 </r>
       <r>   33.8936    0.0000 </r>
      </set>
      <set comment="kpoint 3">
       <r>    3.1725    1.0000 </r>
       <r>    6.3009    1.0000 </r>
       <r>    7.6747    1.0000 </r>
       <r>    7.7726    1.0000 </r>
       <r>    8.3682    1.0000 </r>
       <r>    8.6928    1.0000 </r>
       <r>    8.9118    1.0000 </r>
       <r>    8.9798    1.0000 </r>
       <r>    9.0050    1.0000 </r>
       <r>    9.2391    1.0000 </r>
       <r>   10.3680    1.0000 </r>
       <r>   14.4757    0.0000 </r>
       <r>   18.0789    0.0000 </r>
       <r>   26.3694    0.0000 </r>
       <r>   30.8902    0.0000 </r>
       <r>   32.7457    0.0000 </r>
      </set>
      <set comment="kpoint 4">
       <r>    4.5925    1.0000 </r>
       <r>    6.4259    1.0000 </r>
       <r>    6.9611    1.0000 </r>
       <r>    7.6431    1.0000 </r>
       <r>    8.3820    1.0000 </r>
       <r>    8.4269    1.0000 </r>
       <r>    8.6657    1.0000 </r>
       <r>    9.6205    1.0000 </r>
       <r>    9.7084    1.0000 </r>
       <r>    9.7982    1.0000 </r>
       <r>   10.4351    1.0000 </r>
       <r>   16.8229    0.0000 </r>
       <r>   18.3878    0.0000 </r>
       <r>   22.1902    0.0000 </r>
       <r>   28.5453    0.0000 </r>
       <r>   29.7279    0.0000 </r>
      </set>
      <set comment="kpoint 5">
       <r>    5.6850    1.0000 </r>
       <r>    6.1955    1.0000 </r>
       <r>    6.4707    1.0000 </r>
       <r>    8.0367    1.0000 </r>
       <r>    8.2330    1.0000 </r>
       <r>    8.4800    1.0000 </r>
       <r>    8.6480    1.0000 </r>
       <r>   10.1667    1.0000 </r>
       <r>   10.3117    1.0000 </r>
       <r>   10.4709    1.0000 </r>
       <r>   10.9551    0.3730 </r>
       <r>   16.8506    0.0000 </r>
       <r>   19.3308    0.0000 </r>
       <r>   20.9599    0.0000 </r>
       <r>   26.2917    0.0000 </r>
       <r>   26.9562    0.0000 </r>
      </set>
      <set comment="kpoint 6">
       <r>    5.9891    1.0000 </r>
       <r>    6.0532    1.0000 </r>
       <r>    6.3072    1.0000 </r>
       <r>    8.1624    1.0000 </r>
       <r>    8.3937    1.0000 </r>
       <r>    8.4108    1.0000 </r>
       <r>    8.7670    1.0000 </r>
       <r>   10.3736    1.0000 </r>
       <r>   10.4813    1.0000 </r>
       <r>   10.5349    1.0000 </r>
       <r>   12.4457    0.0000 </r>
       <r>   14.5827    0.0000 </r>
       <r>   21.1035    0.0000 </r>
       <r>   21.8171    0.0000 </r>
       <r>   24.2158    0.0000 </r>
       <r>   25.6395    0.0000 </r>
      </set>
      <set comment="kpoint 7">
       <r>    2.8443    1.0000 </r>
       <r>    6.1952    1.0000 </r>
       <r>    7.7154    1.0000 </r>
       <r>    8.0731    1.0000 </r>
       <r>    8.4492    1.0000 </r>
       <r>    8.6468    1.0000 </r>
       <r>    8.7660    1.0000 </r>
       <r>    8.8566    1.0000 </r>
       <r>    9.0782    1.0000 </r>
       <r>    9.1696    1.0000 </r>
       <r>   10.3282    1.0000 </r>
       <r>   13.8939    0.0000 </r>
       <r>   18.0084    0.0000 </r>
       <r>   28.5275    0.0000 </r>
       <r>   29.2890    0.0000 </r>
       <r>   35.4459    0.0000 </r>
      </set>
      <set comment="kpoint 8">
       <r>    4.1005    1.0000 </r>
       <r>    6.5813    1.0000 </r>
       <r>    7.2593    1.0000 </r>
       <r>    7.4142    1.0000 </r>
       <r>    8.3537    1.0000 </r>
       <r>    8.3595    1.0000 </r>
       <r>    8.8759    1.0000 </r>
       <r>    9.1324    1.0000 </r>
       <r>    9.4698    1.0000 </r>
       <r>    9.8105    1.0000 </r>
       <r>   10.3757    1.0000 </r>
       <r>   15.9864    0.0000 </r>
       <r>   18.3690    0.0000 </r>
       <r>   24.2712    0.0000 </r>
       <r>   26.9361    0.0000 </r>
       <r>   31.7504    0.0000 </r>
      </set>
      <set comment="kpoint 9">
       <r>    5.4559    1.0000 </r>
       <r>    6.4541    1.0000 </r>
       <r>    6.6772    1.0000 </r>
       <r>    7.5654    1.0000 </r>
       <r>    8.1729    1.0000 </r>
       <r>    8.5314    1.0000 </r>
       <r>    8.6118    1.0000 </r>
       <r>    9.7161    1.0000 </r>
       <r>   10.0732    1.0000 </r>
       <r>   10.4083    1.0000 </r>
       <r>   10.7293    1.0000 </r>
       <r>   18.3339    0.0000 </r>
       <r>   18.3908    0.0000 </r>
       <r>   21.0371    0.0000 </r>
       <r>   25.3036    0.0000 </r>
       <r>   28.1188    0.0000 </r>
      </set>
      <set comment="kpoint 10">
       <r>    6.0900    1.0000 </r>
       <r>    6.2419    1.0000 </r>
       <r>    6.3821    1.0000 </r>
       <r>    8.0355    1.0000 </r>
       <r>    8.1107    1.0000 </r>
       <r>    8.4061    1.0000 </r>
       <r>    8.7600    1.0000 </r>
       <r>   10.2636    1.0000 </r>
       <r>   10.3924    1.0000 </r>
       <r>   10.4222    1.0000 </r>
       <r>   12.2429    0.0000 </r>
       <r>   15.6643    0.0000 </r>
       <r>   20.8336    0.0000 </r>
       <r>   21.6869    0.0000 </r>
       <r>   24.2444    0.0000 </r>
       <r>   25.0647    0.0000 </r>
      </set>
      <set comment="kpoint 11">
       <r>    5.3926    1.0000 </r>
       <r>    6.8097    1.0000 </r>
       <r>    6.8687    1.0000 </r>
       <r>    7.0460    1.0000 </r>
       <r>    8.0712    1.0000 </r>
       <r>    8.4901    1.0000 </r>
       <r>    8.7091    1.0000 </r>
       <r>    9.3480    1.0000 </r>
       <r>   10.0782    1.0000 </r>
       <r>   10.3481    1.0000 </r>
       <r>   10.7649    1.0000 </r>
       <r>   18.0786    0.0000 </r>
       <r>   18.9775    0.0000 </r>
       <r>   22.3102    0.0000 </r>
       <r>   23.0019    0.0000 </r>
       <r>   30.0921    0.0000 </r>
      </set>
      <set comment="kpoint 12">
       <r>    6.3748    1.0000 </r>
       <r>    6.5224    1.0000 </r>
       <r>    6.6560    1.0000 </r>
       <r>    7.3085    1.0000 </r>
       <r>    7.9747    1.0000 </r>
       <r>    8.4356    1.0000 </r>
       <r>    8.7558    1.0000 </r>
       <r>    9.7615    1.0000 </r>
       <r>   10.3236    1.0000 </r>
       <r>   10.3959    1.0000 </r>
       <r>   12.2072    0.0000 </r>
       <r>   17.8938    0.0000 </r>
       <r>   20.5257    0.0000 </r>
       <r>   20.6726    0.0000 </r>
       <r>   22.1134    0.0000 </r>
       <r>   27.0259    0.0000 </r>
      </set>
      <set comment="kpoint 13">
       <r>    6.4253    1.0000 </r>
       <r>    6.5326    1.0000 </r>
       <r>    6.5734    1.0000 </r>
       <r>    7.6256    1.0000 </r>
       <r>    8.0088    1.0000 </r>
       <r>    8.2597    1.0000 </r>
       <r>    8.8889    1.0000 </r>
       <r>   10.1283    1.0000 </r>
       <r>   10.3143    1.0000 </r>
       <r>   10.3400    1.0000 </r>
       <r>   13.9202    0.0000 </r>
       <r>   15.4219    0.0000 </r>
       <r>   20.6541    0.0000 </r>
       <r>   22.4889    0.0000 </r>
       <r>   22.8162    0.0000 </r>
       <r>   24.7494    0.0000 </r>
      </set>
      <set comment="kpoint 14">
       <r>    6.4747    1.0000 </r>
       <r>    6.7798    1.0000 </r>
       <r>    6.9417    1.0000 </r>
       <r>    7.1804    1.0000 </r>
       <r>    7.9671    1.0000 </r>
       <r>    8.1771    1.0000 </r>
       <r>    8.9862    1.0000 </r>
       <r>    9.9556    1.0000 </r>
       <r>   10.2604    1.0000 </r>
       <r>   10.2943    1.0000 </r>
       <r>   14.3648    0.0000 </r>
       <r>   17.4369    0.0000 </r>
       <r>   17.4866    0.0000 </r>
       <r>   23.0479    0.0000 </r>
       <r>   23.3103    0.0000 </r>
       <r>   25.9807    0.0000 </r>
      </set>
      <set comment="kpoint 15">
       <r>    1.9478    1.0000 </r>
       <r>    5.5885    1.0000 </r>
       <r>    8.2591    1.0000 </r>
       <r>    8.2808    1.0000 </r>
       <r>    8.2808    1.0000 </r>
       <r>    8.6179    1.0000 </r>
       <r>    8.6179    1.0000 </r>
       <r>    9.1542    1.0000 </r>
       <r>    9.1542    1.0000 </r>
       <r>   10.2281    1.0000 </r>
       <r>   10.2281    1.0000 </r>
       <r>   10.2768    1.0000 </r>
       <r>   18.7393    0.0000 </r>
       <r>   33.3426    0.0000 </r>
       <r>   35.8032    0.0000 </r>
       <r>   36.3431    0.0000 </r>
      </set>
      <set comment="kpoint 16">
       <r>    2.3068    1.0000 </r>
       <r>    5.8176    1.0000 </r>
       <r>    8.0166    1.0000 </r>
       <r>    8.4129    1.0000 </r>
       <r>    8.4342    1.0000 </r>
       <r>    8.4355    1.0000 </r>
       <r>    8.7640    1.0000 </r>
       <r>    8.9163    1.0000 </r>
       <r>    9.0783    1.0000 </r>
       <r>    9.2355    1.0000 </r>
       <r>   10.2671    1.0000 </r>
       <r>   11.8315    0.0000 </r>
       <r>   18.8693    0.0000 </r>
       <r>   31.1071    0.0000 </r>
       <r>   33.8293    0.0000 </r>
       <r>   33.9279    0.0000 </r>
      </set>
      <set comment="kpoint 17">
       <r>    3.3159    1.0000 </r>
       <r>    6.3212    1.0000 </r>
       <r>    7.6270    1.0000 </r>
       <r>    7.7124    1.0000 </r>
       <r>    8.2961    1.0000 </r>
       <r>    8.6496    1.0000 </r>
       <r>    8.7742    1.0000 </r>
       <r>    9.0657    1.0000 </r>
       <r>    9.2084    1.0000 </r>
       <r>    9.2195    1.0000 </r>
       <r>   10.3395    1.0000 </r>
       <r>   13.5784    0.0000 </r>
       <r>   19.3230    0.0000 </r>
       <r>   26.5075    0.0000 </r>
       <r>   31.0874    0.0000 </r>
       <r>   32.0337    0.0000 </r>
      </set>
      <set comment="kpoint 18">
       <r>    4.6811    1.0000 </r>
       <r>    6.4633    1.0000 </r>
       <r>    6.9326    1.0000 </r>
       <r>    7.6237    1.0000 </r>
       <r>    8.2815    1.0000 </r>
       <r>    8.4740    1.0000 </r>
       <r>    8.8100    1.0000 </r>
       <r>    9.6420    1.0000 </r>
       <r>    9.7033    1.0000 </r>
       <r>    9.7498    1.0000 </r>
       <r>   10.3979    1.0000 </r>
       <r>   15.3396    0.0000 </r>
       <r>   20.0739    0.0000 </r>
       <r>   22.3742    0.0000 </r>
       <r>   28.4982    0.0000 </r>
       <r>   28.7730    0.0000 </r>
      </set>
      <set comment="kpoint 19">
       <r>    5.6255    1.0000 </r>
       <r>    6.1886    1.0000 </r>
       <r>    6.6665    1.0000 </r>
       <r>    7.6270    1.0000 </r>
       <r>    8.2998    1.0000 </r>
       <r>    8.6366    1.0000 </r>
       <r>    9.0152    1.0000 </r>
       <r>   10.1691    1.0000 </r>
       <r>   10.2310    1.0000 </r>
       <r>   10.4526    1.0000 </r>
       <r>   10.8648    0.9871 </r>
       <r>   16.1293    0.0000 </r>
       <r>   19.1223    0.0000 </r>
       <r>   21.9154    0.0000 </r>
       <r>   25.3907    0.0000 </r>
       <r>   27.2063    0.0000 </r>
      </set>
      <set comment="kpoint 20">
       <r>    5.8152    1.0000 </r>
       <r>    6.0240    1.0000 </r>
       <r>    6.6544    1.0000 </r>
       <r>    7.6590    1.0000 </r>
       <r>    8.2348    1.0000 </r>
       <r>    8.7672    1.0000 </r>
       <r>    9.2588    1.0000 </r>
       <r>   10.3169    1.0000 </r>
       <r>   10.4359    1.0000 </r>
       <r>   10.5304    1.0000 </r>
       <r>   12.3170    0.0000 </r>
       <r>   14.4768    0.0000 </r>
       <r>   20.5416    0.0000 </r>
       <r>   20.9314    0.0000 </r>
       <r>   25.4042    0.0000 </r>
       <r>   26.5285    0.0000 </r>
      </set>
      <set comment="kpoint 21">
       <r>    2.9944    1.0000 </r>
       <r>    6.2055    1.0000 </r>
       <r>    7.7362    1.0000 </r>
       <r>    7.8830    1.0000 </r>
       <r>    8.4351    1.0000 </r>
       <r>    8.5213    1.0000 </r>
       <r>    8.7485    1.0000 </r>
       <r>    8.9259    1.0000 </r>
       <r>    9.1917    1.0000 </r>
       <r>    9.1984    1.0000 </r>
       <r>   10.3074    1.0000 </r>
       <r>   13.1082    0.0000 </r>
       <r>   19.1677    0.0000 </r>
       <r>   28.6469    0.0000 </r>
       <r>   29.4404    0.0000 </r>
       <r>   34.3408    0.0000 </r>
      </set>
      <set comment="kpoint 22">
       <r>    4.2194    1.0000 </r>
       <r>    6.6305    1.0000 </r>
       <r>    7.1578    1.0000 </r>
       <r>    7.4565    1.0000 </r>
       <r>    8.2227    1.0000 </r>
       <r>    8.4748    1.0000 </r>
       <r>    8.7875    1.0000 </r>
       <r>    9.1850    1.0000 </r>
       <r>    9.5549    1.0000 </r>
       <r>    9.7586    1.0000 </r>
       <r>   10.3640    1.0000 </r>
       <r>   14.7660    0.0000 </r>
       <r>   19.8758    0.0000 </r>
       <r>   24.4212    0.0000 </r>
       <r>   27.0976    0.0000 </r>
       <r>   30.6782    0.0000 </r>
      </set>
      <set comment="kpoint 23">
       <r>    5.4777    1.0000 </r>
       <r>    6.4899    1.0000 </r>
       <r>    6.7182    1.0000 </r>
       <r>    7.4950    1.0000 </r>
       <r>    8.2103    1.0000 </r>
       <r>    8.5514    1.0000 </r>
       <r>    8.7092    1.0000 </r>
       <r>    9.7001    1.0000 </r>
       <r>   10.1208    1.0000 </r>
       <r>   10.2625    1.0000 </r>
       <r>   10.7715    1.0000 </r>
       <r>   16.3757    0.0000 </r>
       <r>   19.9547    0.0000 </r>
       <r>   21.7374    0.0000 </r>
       <r>   25.4490    0.0000 </r>
       <r>   27.0683    0.0000 </r>
      </set>
      <set comment="kpoint 24">
       <r>    5.9287    1.0000 </r>
       <r>    6.2248    1.0000 </r>
       <r>    6.7097    1.0000 </r>
       <r>    7.5774    1.0000 </r>
       <r>    8.1461    1.0000 </r>
       <r>    8.7863    1.0000 </r>
       <r>    8.8856    1.0000 </r>
       <r>   10.2214    1.0000 </r>
       <r>   10.3305    1.0000 </r>
       <r>   10.4236    1.0000 </r>
       <r>   12.2217    0.0000 </r>
       <r>   15.4934    0.0000 </r>
       <r>   19.8639    0.0000 </r>
       <r>   22.0114    0.0000 </r>
       <r>   24.3802    0.0000 </r>
       <r>   25.3577    0.0000 </r>
      </set>
      <set comment="kpoint 25">
       <r>    5.4548    1.0000 </r>
       <r>    6.7189    1.0000 </r>
       <r>    6.9947    1.0000 </r>
       <r>    7.0767    1.0000 </r>
       <r>    8.1165    1.0000 </r>
       <r>    8.4727    1.0000 </r>
       <r>    8.6361    1.0000 </r>
       <r>    9.3796    1.0000 </r>
       <r>   10.1413    1.0000 </r>
       <r>   10.1909    1.0000 </r>
       <r>   10.8438    0.9976 </r>
       <r>   16.3520    0.0000 </r>
       <r>   20.8857    0.0000 </r>
       <r>   22.4670    0.0000 </r>
       <r>   23.2085    0.0000 </r>
       <r>   29.0239    0.0000 </r>
      </set>
      <set comment="kpoint 26">
       <r>    6.2663    1.0000 </r>
       <r>    6.6489    1.0000 </r>
       <r>    6.7162    1.0000 </r>
       <r>    7.2716    1.0000 </r>
       <r>    8.0576    1.0000 </r>
       <r>    8.4058    1.0000 </r>
       <r>    8.7736    1.0000 </r>
       <r>    9.7697    1.0000 </r>
       <r>   10.1903    1.0000 </r>
       <r>   10.4390    1.0000 </r>
       <r>   12.2747    0.0000 </r>
       <r>   17.3887    0.0000 </r>
       <r>   19.6319    0.0000 </r>
       <r>   21.4940    0.0000 </r>
       <r>   22.9499    0.0000 </r>
       <r>   26.1023    0.0000 </r>
      </set>
      <set comment="kpoint 27">
       <r>    6.2670    1.0000 </r>
       <r>    6.5843    1.0000 </r>
       <r>    6.8423    1.0000 </r>
       <r>    7.4144    1.0000 </r>
       <r>    7.9807    1.0000 </r>
       <r>    8.4185    1.0000 </r>
       <r>    8.9218    1.0000 </r>
       <r>   10.1324    1.0000 </r>
       <r>   10.1679    1.0000 </r>
       <r>   10.3763    1.0000 </r>
       <r>   14.0163    0.0000 </r>
       <r>   15.4138    0.0000 </r>
       <r>   20.5844    0.0000 </r>
       <r>   21.7480    0.0000 </r>
       <r>   22.0476    0.0000 </r>
       <r>   26.0027    0.0000 </r>
      </set>
      <set comment="kpoint 28">
       <r>    6.5044    1.0000 </r>
       <r>    6.8018    1.0000 </r>
       <r>    6.9971    1.0000 </r>
       <r>    7.1473    1.0000 </r>
       <r>    8.0184    1.0000 </r>
       <r>    8.1201    1.0000 </r>
       <r>    8.9746    1.0000 </r>
       <r>    9.9777    1.0000 </r>
       <r>   10.1168    1.0000 </r>
       <r>   10.3229    1.0000 </r>
       <r>   14.4949    0.0000 </r>
       <r>   17.4526    0.0000 </r>
       <r>   17.5901    0.0000 </r>
       <r>   21.7105    0.0000 </r>
       <r>   23.7520    0.0000 </r>
       <r>   24.9561    0.0000 </r>
      </set>
      <set comment="kpoint 29">
       <r>    2.4274    1.0000 </r>
       <r>    5.4320    1.0000 </r>
       <r>    8.1437    1.0000 </r>
       <r>    8.2161    1.0000 </r>
       <r>    8.2161    1.0000 </r>
       <r>    8.5021    1.0000 </r>
       <r>    8.5021    1.0000 </r>
       <r>    9.1200    1.0000 </r>
       <r>    9.3907    1.0000 </r>
       <r>    9.3907    1.0000 </r>
       <r>   10.1863    1.0000 </r>
       <r>   10.1863    1.0000 </r>
       <r>   20.9009    0.0000 </r>
       <r>   32.4966    0.0000 </r>
       <r>   33.9812    0.0000 </r>
       <r>   35.5872    0.0000 </r>
      </set>
      <set comment="kpoint 30">
       <r>    2.7747    1.0000 </r>
       <r>    5.6929    1.0000 </r>
       <r>    8.0426    1.0000 </r>
       <r>    8.0964    1.0000 </r>
       <r>    8.1817    1.0000 </r>
       <r>    8.3555    1.0000 </r>
       <r>    8.6463    1.0000 </r>
       <r>    8.7905    1.0000 </r>
       <r>    9.3414    1.0000 </r>
       <r>    9.4043    1.0000 </r>
       <r>   10.2086    1.0000 </r>
       <r>   10.9737    0.1976 </r>
       <r>   21.1027    0.0000 </r>
       <r>   31.3609    0.0000 </r>
       <r>   32.9181    0.0000 </r>
       <r>   34.0250    0.0000 </r>
      </set>
      <set comment="kpoint 31">
       <r>    3.7328    1.0000 </r>
       <r>    6.2909    1.0000 </r>
       <r>    7.3487    1.0000 </r>
       <r>    7.7795    1.0000 </r>
       <r>    8.0953    1.0000 </r>
       <r>    8.6166    1.0000 </r>
       <r>    8.6403    1.0000 </r>
       <r>    9.0338    1.0000 </r>
       <r>    9.3615    1.0000 </r>
       <r>    9.5053    1.0000 </r>
       <r>   10.2494    1.0000 </r>
       <r>   12.2205    0.0000 </r>
       <r>   21.7287    0.0000 </r>
       <r>   26.9167    0.0000 </r>
       <r>   30.7480    0.0000 </r>
       <r>   31.6703    0.0000 </r>
      </set>
      <set comment="kpoint 32">
       <r>    4.9318    1.0000 </r>
       <r>    6.4618    1.0000 </r>
       <r>    6.8900    1.0000 </r>
       <r>    7.6141    1.0000 </r>
       <r>    8.2090    1.0000 </r>
       <r>    8.6095    1.0000 </r>
       <r>    8.9556    1.0000 </r>
       <r>    9.5701    1.0000 </r>
       <r>    9.7448    1.0000 </r>
       <r>    9.7844    1.0000 </r>
       <r>   10.2977    1.0000 </r>
       <r>   13.5528    0.0000 </r>
       <r>   22.1365    0.0000 </r>
       <r>   23.2125    0.0000 </r>
       <r>   27.0478    0.0000 </r>
       <r>   29.4384    0.0000 </r>
      </set>
      <set comment="kpoint 33">
       <r>    5.5686    1.0000 </r>
       <r>    6.1939    1.0000 </r>
       <r>    6.8928    1.0000 </r>
       <r>    7.3272    1.0000 </r>
       <r>    8.4951    1.0000 </r>
       <r>    8.6979    1.0000 </r>
       <r>    9.8063    1.0000 </r>
       <r>    9.9572    1.0000 </r>
       <r>   10.2149    1.0000 </r>
       <r>   10.4154    1.0000 </r>
       <r>   10.5972    1.0000 </r>
       <r>   14.6497    0.0000 </r>
       <r>   19.2718    0.0000 </r>
       <r>   22.3108    0.0000 </r>
       <r>   25.7781    0.0000 </r>
       <r>   27.9307    0.0000 </r>
      </set>
      <set comment="kpoint 34">
       <r>    5.6388    1.0000 </r>
       <r>    6.0776    1.0000 </r>
       <r>    7.0591    1.0000 </r>
       <r>    7.1198    1.0000 </r>
       <r>    8.4452    1.0000 </r>
       <r>    8.8668    1.0000 </r>
       <r>   10.0424    1.0000 </r>
       <r>   10.1183    1.0000 </r>
       <r>   10.4305    1.0000 </r>
       <r>   10.5167    1.0000 </r>
       <r>   11.9921    0.0000 </r>
       <r>   14.1322    0.0000 </r>
       <r>   19.6131    0.0000 </r>
       <r>   19.7596    0.0000 </r>
       <r>   27.3892    0.0000 </r>
       <r>   27.4972    0.0000 </r>
      </set>
      <set comment="kpoint 35">
       <r>    3.4324    1.0000 </r>
       <r>    6.1474    1.0000 </r>
       <r>    7.5360    1.0000 </r>
       <r>    7.8028    1.0000 </r>
       <r>    8.1553    1.0000 </r>
       <r>    8.5649    1.0000 </r>
       <r>    8.5967    1.0000 </r>
       <r>    8.9066    1.0000 </r>
       <r>    9.4055    1.0000 </r>
       <r>    9.4250    1.0000 </r>
       <r>   10.2362    1.0000 </r>
       <r>   11.8831    0.0000 </r>
       <r>   21.5246    0.0000 </r>
       <r>   28.9987    0.0000 </r>
       <r>   29.8745    0.0000 </r>
       <r>   32.9524    0.0000 </r>
      </set>
      <set comment="kpoint 36">
       <r>    4.5608    1.0000 </r>
       <r>    6.6726    1.0000 </r>
       <r>    6.9691    1.0000 </r>
       <r>    7.5556    1.0000 </r>
       <r>    8.0626    1.0000 </r>
       <r>    8.5175    1.0000 </r>
       <r>    8.6783    1.0000 </r>
       <r>    9.2923    1.0000 </r>
       <r>    9.6923    1.0000 </r>
       <r>    9.7372    1.0000 </r>
       <r>   10.3192    1.0000 </r>
       <r>   13.1234    0.0000 </r>
       <r>   22.3674    0.0000 </r>
       <r>   24.8685    0.0000 </r>
       <r>   27.5305    0.0000 </r>
       <r>   29.2567    0.0000 </r>
      </set>
      <set comment="kpoint 37">
       <r>    5.5588    1.0000 </r>
       <r>    6.4753    1.0000 </r>
       <r>    6.8132    1.0000 </r>
       <r>    7.4955    1.0000 </r>
       <r>    8.2069    1.0000 </r>
       <r>    8.6305    1.0000 </r>
       <r>    8.9384    1.0000 </r>
       <r>    9.6732    1.0000 </r>
       <r>   10.0027    1.0000 </r>
       <r>   10.2488    1.0000 </r>
       <r>   10.8155    0.9999 </r>
       <r>   14.5220    0.0000 </r>
       <r>   20.7290    0.0000 </r>
       <r>   23.4263    0.0000 </r>
       <r>   25.5194    0.0000 </r>
       <r>   26.5146    0.0000 </r>
      </set>
      <set comment="kpoint 38">
       <r>    5.7855    1.0000 </r>
       <r>    6.2811    1.0000 </r>
       <r>    7.0081    1.0000 </r>
       <r>    7.2617    1.0000 </r>
       <r>    8.1713    1.0000 </r>
       <r>    8.9513    1.0000 </r>
       <r>    9.3989    1.0000 </r>
       <r>    9.9492    1.0000 </r>
       <r>   10.2636    1.0000 </r>
       <r>   10.4994    1.0000 </r>
       <r>   12.2180    0.0000 </r>
       <r>   14.9216    0.0000 </r>
       <r>   19.0682    0.0000 </r>
       <r>   21.1414    0.0000 </r>
       <r>   25.1643    0.0000 </r>
       <r>   26.9689    0.0000 </r>
      </set>
      <set comment="kpoint 39">
       <r>    5.6275    1.0000 </r>
       <r>    6.5915    1.0000 </r>
       <r>    7.1812    1.0000 </r>
       <r>    7.1952    1.0000 </r>
       <r>    8.1549    1.0000 </r>
       <r>    8.3340    1.0000 </r>
       <r>    8.5938    1.0000 </r>
       <r>    9.5034    1.0000 </r>
       <r>    9.9312    1.0000 </r>
       <r>   10.2751    1.0000 </r>
       <r>   10.9599    0.3231 </r>
       <r>   14.4967    0.0000 </r>
       <r>   22.9190    0.0000 </r>
       <r>   23.0009    0.0000 </r>
       <r>   24.0324    0.0000 </r>
       <r>   27.6721    0.0000 </r>
      </set>
      <set comment="kpoint 40">
       <r>    6.1913    1.0000 </r>
       <r>    6.6601    1.0000 </r>
       <r>    6.8714    1.0000 </r>
       <r>    7.4101    1.0000 </r>
       <r>    8.0161    1.0000 </r>
       <r>    8.4245    1.0000 </r>
       <r>    8.8468    1.0000 </r>
       <r>    9.7344    1.0000 </r>
       <r>    9.9770    1.0000 </r>
       <r>   10.5224    1.0000 </r>
       <r>   12.4716    0.0000 </r>
       <r>   16.0573    0.0000 </r>
       <r>   19.6703    0.0000 </r>
       <r>   22.0273    0.0000 </r>
       <r>   23.3282    0.0000 </r>
       <r>   26.1701    0.0000 </r>
      </set>
      <set comment="kpoint 41">
       <r>    6.1732    1.0000 </r>
       <r>    6.7010    1.0000 </r>
       <r>    7.0905    1.0000 </r>
       <r>    7.2607    1.0000 </r>
       <r>    7.8652    1.0000 </r>
       <r>    8.6051    1.0000 </r>
       <r>    9.0334    1.0000 </r>
       <r>    9.8249    1.0000 </r>
       <r>   10.1548    1.0000 </r>
       <r>   10.4328    1.0000 </r>
       <r>   14.2749    0.0000 </r>
       <r>   15.3762    0.0000 </r>
       <r>   19.9778    0.0000 </r>
       <r>   20.3777    0.0000 </r>
       <r>   22.0300    0.0000 </r>
       <r>   26.2505    0.0000 </r>
      </set>
      <set comment="kpoint 42">
       <r>    6.5789    1.0000 </r>
       <r>    6.8308    1.0000 </r>
       <r>    7.1255    1.0000 </r>
       <r>    7.1484    1.0000 </r>
       <r>    7.9873    1.0000 </r>
       <r>    8.0941    1.0000 </r>
       <r>    8.9540    1.0000 </r>
       <r>    9.7483    1.0000 </r>
       <r>   10.0722    1.0000 </r>
       <r>   10.3753    1.0000 </r>
       <r>   14.8375    0.0000 </r>
       <r>   17.2444    0.0000 </r>
       <r>   18.0381    0.0000 </r>
       <r>   20.5981    0.0000 </r>
       <r>   22.7339    0.0000 </r>
       <r>   23.4897    0.0000 </r>
      </set>
      <set comment="kpoint 43">
       <r>    3.1793    1.0000 </r>
       <r>    4.9461    1.0000 </r>
       <r>    8.0108    1.0000 </r>
       <r>    8.2013    1.0000 </r>
       <r>    8.2013    1.0000 </r>
       <r>    8.2678    1.0000 </r>
       <r>    8.3654    1.0000 </r>
       <r>    8.3654    1.0000 </r>
       <r>    9.6600    1.0000 </r>
       <r>    9.6600    1.0000 </r>
       <r>   10.0819    1.0000 </r>
       <r>   10.0819    1.0000 </r>
       <r>   23.6172    0.0000 </r>
       <r>   29.6981    0.0000 </r>
       <r>   33.8425    0.0000 </r>
       <r>   34.7968    0.0000 </r>
      </set>
      <set comment="kpoint 44">
       <r>    3.5078    1.0000 </r>
       <r>    5.2338    1.0000 </r>
       <r>    7.7844    1.0000 </r>
       <r>    7.9330    1.0000 </r>
       <r>    8.1207    1.0000 </r>
       <r>    8.3389    1.0000 </r>
       <r>    8.5019    1.0000 </r>
       <r>    8.5086    1.0000 </r>
       <r>    9.6268    1.0000 </r>
       <r>    9.7130    1.0000 </r>
       <r>   10.0838    1.0000 </r>
       <r>   10.4197    1.0000 </r>
       <r>   23.8507    0.0000 </r>
       <r>   29.9417    0.0000 </r>
       <r>   31.9146    0.0000 </r>
       <r>   33.2831    0.0000 </r>
      </set>
      <set comment="kpoint 45">
       <r>    4.3789    1.0000 </r>
       <r>    5.8997    1.0000 </r>
       <r>    7.2725    1.0000 </r>
       <r>    7.7433    1.0000 </r>
       <r>    8.0027    1.0000 </r>
       <r>    8.4453    1.0000 </r>
       <r>    8.6495    1.0000 </r>
       <r>    8.8889    1.0000 </r>
       <r>    9.6178    1.0000 </r>
       <r>    9.8916    1.0000 </r>
       <r>   10.0917    1.0000 </r>
       <r>   11.1501    0.0000 </r>
       <r>   24.5155    0.0000 </r>
       <r>   27.5837    0.0000 </r>
       <r>   29.4220    0.0000 </r>
       <r>   30.9356    0.0000 </r>
      </set>
      <set comment="kpoint 46">
       <r>    5.3039    1.0000 </r>
       <r>    6.1706    1.0000 </r>
       <r>    7.0539    1.0000 </r>
       <r>    7.5315    1.0000 </r>
       <r>    8.3318    1.0000 </r>
       <r>    8.8189    1.0000 </r>
       <r>    8.8700    1.0000 </r>
       <r>    9.3423    1.0000 </r>
       <r>    9.8608    1.0000 </r>
       <r>   10.1591    1.0000 </r>
       <r>   10.1724    1.0000 </r>
       <r>   12.0585    0.0000 </r>
       <r>   23.1640    0.0000 </r>
       <r>   24.7430    0.0000 </r>
       <r>   26.5902    0.0000 </r>
       <r>   30.4955    0.0000 </r>
      </set>
      <set comment="kpoint 47">
       <r>    5.6236    1.0000 </r>
       <r>    6.0465    1.0000 </r>
       <r>    6.9638    1.0000 </r>
       <r>    7.2968    1.0000 </r>
       <r>    8.7996    1.0000 </r>
       <r>    9.0279    1.0000 </r>
       <r>    9.5882    1.0000 </r>
       <r>   10.1525    1.0000 </r>
       <r>   10.2592    1.0000 </r>
       <r>   10.3676    1.0000 </r>
       <r>   10.7321    1.0000 </r>
       <r>   13.1412    0.0000 </r>
       <r>   19.7577    0.0000 </r>
       <r>   21.4276    0.0000 </r>
       <r>   27.9366    0.0000 </r>
       <r>   29.0649    0.0000 </r>
      </set>
      <set comment="kpoint 48">
       <r>    5.6275    1.0000 </r>
       <r>    5.9843    1.0000 </r>
       <r>    6.9460    1.0000 </r>
       <r>    7.1922    1.0000 </r>
       <r>    8.7749    1.0000 </r>
       <r>    9.2851    1.0000 </r>
       <r>    9.6352    1.0000 </r>
       <r>   10.4484    1.0000 </r>
       <r>   10.4963    1.0000 </r>
       <r>   10.4964    1.0000 </r>
       <r>   11.9561    0.0000 </r>
       <r>   13.5134    0.0000 </r>
       <r>   18.9575    0.0000 </r>
       <r>   18.9941    0.0000 </r>
       <r>   28.5516    0.0000 </r>
       <r>   29.7350    0.0000 </r>
      </set>
      <set comment="kpoint 49">
       <r>    4.1154    1.0000 </r>
       <r>    5.7329    1.0000 </r>
       <r>    7.3829    1.0000 </r>
       <r>    7.8000    1.0000 </r>
       <r>    7.9879    1.0000 </r>
       <r>    8.3936    1.0000 </r>
       <r>    8.5950    1.0000 </r>
       <r>    8.7820    1.0000 </r>
       <r>    9.6471    1.0000 </r>
       <r>    9.7963    1.0000 </r>
       <r>   10.1072    1.0000 </r>
       <r>   10.9408    0.5319 </r>
       <r>   24.3142    0.0000 </r>
       <r>   29.5599    0.0000 </r>
       <r>   30.3491    0.0000 </r>
       <r>   30.4411    0.0000 </r>
      </set>
      <set comment="kpoint 50">
       <r>    5.0764    1.0000 </r>
       <r>    6.2733    1.0000 </r>
       <r>    7.1310    1.0000 </r>
       <r>    7.6236    1.0000 </r>
       <r>    7.9336    1.0000 </r>
       <r>    8.3253    1.0000 </r>
       <r>    8.7924    1.0000 </r>
       <r>    9.2029    1.0000 </r>
       <r>    9.8661    1.0000 </r>
       <r>   10.0099    1.0000 </r>
       <r>   10.2657    1.0000 </r>
       <r>   11.7649    0.0000 </r>
       <r>   24.9582    0.0000 </r>
       <r>   25.6986    0.0000 </r>
       <r>   27.5449    0.0000 </r>
       <r>   28.7553    0.0000 </r>
      </set>
      <set comment="kpoint 51">
       <r>    5.7210    1.0000 </r>
       <r>    6.2472    1.0000 </r>
       <r>    7.0331    1.0000 </r>
       <r>    7.5017    1.0000 </r>
       <r>    8.3189    1.0000 </r>
       <r>    8.7241    1.0000 </r>
       <r>    9.0370    1.0000 </r>
       <r>    9.4454    1.0000 </r>
       <r>   10.1013    1.0000 </r>
       <r>   10.3841    1.0000 </r>
       <r>   10.9764    0.1767 </r>
       <r>   12.9298    0.0000 </r>
       <r>   21.4573    0.0000 </r>
       <r>   23.3302    0.0000 </r>
       <r>   26.6617    0.0000 </r>
       <r>   27.6491    0.0000 </r>
      </set>
      <set comment="kpoint 52">
       <r>    5.7920    1.0000 </r>
       <r>    6.1705    1.0000 </r>
       <r>    6.9907    1.0000 </r>
       <r>    7.3449    1.0000 </r>
       <r>    8.3934    1.0000 </r>
       <r>    9.2412    1.0000 </r>
       <r>    9.4078    1.0000 </r>
       <r>    9.7641    1.0000 </r>
       <r>   10.2685    1.0000 </r>
       <r>   10.5217    1.0000 </r>
       <r>   12.4573    0.0000 </r>
       <r>   14.0262    0.0000 </r>
       <r>   18.9456    0.0000 </r>
       <r>   20.1129    0.0000 </r>
       <r>   26.1462    0.0000 </r>
       <r>   28.6060    0.0000 </r>
      </set>
      <set comment="kpoint 53">
       <r>    5.8750    1.0000 </r>
       <r>    6.4023    1.0000 </r>
       <r>    7.3624    1.0000 </r>
       <r>    7.4211    1.0000 </r>
       <r>    8.0611    1.0000 </r>
       <r>    8.0809    1.0000 </r>
       <r>    8.7316    1.0000 </r>
       <r>    9.3486    1.0000 </r>
       <r>   10.1159    1.0000 </r>
       <r>   10.3907    1.0000 </r>
       <r>   11.1454    0.0000 </r>
       <r>   12.9306    0.0000 </r>
       <r>   23.6147    0.0000 </r>
       <r>   24.1531    0.0000 </r>
       <r>   25.2505    0.0000 </r>
       <r>   26.6368    0.0000 </r>
      </set>
      <set comment="kpoint 54">
       <r>    6.2128    1.0000 </r>
       <r>    6.4940    1.0000 </r>
       <r>    7.1290    1.0000 </r>
       <r>    7.6758    1.0000 </r>
       <r>    7.8636    1.0000 </r>
       <r>    8.3971    1.0000 </r>
       <r>    8.9464    1.0000 </r>
       <r>    9.3897    1.0000 </r>
       <r>   10.1697    1.0000 </r>
       <r>   10.5490    1.0000 </r>
       <r>   12.8566    0.0000 </r>
       <r>   14.6708    0.0000 </r>
       <r>   20.2278    0.0000 </r>
       <r>   21.9891    0.0000 </r>
       <r>   23.1592    0.0000 </r>
       <r>   25.2608    0.0000 </r>
      </set>
      <set comment="kpoint 55">
       <r>    6.2049    1.0000 </r>
       <r>    6.5953    1.0000 </r>
       <r>    7.0973    1.0000 </r>
       <r>    7.6430    1.0000 </r>
       <r>    7.7445    1.0000 </r>
       <r>    8.5760    1.0000 </r>
       <r>    9.1892    1.0000 </r>
       <r>    9.4872    1.0000 </r>
       <r>   10.2234    1.0000 </r>
       <r>   10.4331    1.0000 </r>
       <r>   14.6366    0.0000 </r>
       <r>   15.2619    0.0000 </r>
       <r>   19.2539    0.0000 </r>
       <r>   19.3925    0.0000 </r>
       <r>   22.7099    0.0000 </r>
       <r>   24.9276    0.0000 </r>
      </set>
      <set comment="kpoint 56">
       <r>    6.6667    1.0000 </r>
       <r>    6.8038    1.0000 </r>
       <r>    7.2083    1.0000 </r>
       <r>    7.3186    1.0000 </r>
       <r>    7.8818    1.0000 </r>
       <r>    8.0793    1.0000 </r>
       <r>    8.9691    1.0000 </r>
       <r>    9.3598    1.0000 </r>
       <r>   10.1995    1.0000 </r>
       <r>   10.3885    1.0000 </r>
       <r>   15.3377    0.0000 </r>
       <r>   16.7001    0.0000 </r>
       <r>   18.7297    0.0000 </r>
       <r>   20.0713    0.0000 </r>
       <r>   21.7134    0.0000 </r>
       <r>   22.2812    0.0000 </r>
      </set>
      <set comment="kpoint 57">
       <r>    4.0977    1.0000 </r>
       <r>    4.0977    1.0000 </r>
       <r>    7.9756    1.0000 </r>
       <r>    7.9756    1.0000 </r>
       <r>    8.2547    1.0000 </r>
       <r>    8.2547    1.0000 </r>
       <r>    8.2547    1.0000 </r>
       <r>    8.2547    1.0000 </r>
       <r>    9.9022    1.0000 </r>
       <r>    9.9022    1.0000 </r>
       <r>    9.9022    1.0000 </r>
       <r>    9.9022    1.0000 </r>
       <r>   26.6072    0.0000 </r>
       <r>   26.6072    0.0000 </r>
       <r>   34.1836    0.0000 </r>
       <r>   34.1836    0.0000 </r>
      </set>
      <set comment="kpoint 58">
       <r>    4.4040    1.0000 </r>
       <r>    4.4040    1.0000 </r>
       <r>    7.7555    1.0000 </r>
       <r>    7.7555    1.0000 </r>
       <r>    8.2714    1.0000 </r>
       <r>    8.2714    1.0000 </r>
       <r>    8.3953    1.0000 </r>
       <r>    8.3953    1.0000 </r>
       <r>    9.8852    1.0000 </r>
       <r>    9.8852    1.0000 </r>
       <r>   10.0452    1.0000 </r>
       <r>   10.0452    1.0000 </r>
       <r>   26.8550    0.0000 </r>
       <r>   26.8550    0.0000 </r>
       <r>   32.5297    0.0000 </r>
       <r>   32.5297    0.0000 </r>
      </set>
      <set comment="kpoint 59">
       <r>    5.1613    1.0000 </r>
       <r>    5.1613    1.0000 </r>
       <r>    7.4739    1.0000 </r>
       <r>    7.4739    1.0000 </r>
       <r>    8.2025    1.0000 </r>
       <r>    8.2025    1.0000 </r>
       <r>    8.7476    1.0000 </r>
       <r>    8.7476    1.0000 </r>
       <r>    9.8737    1.0000 </r>
       <r>    9.8737    1.0000 </r>
       <r>   10.4109    1.0000 </r>
       <r>   10.4109    1.0000 </r>
       <r>   27.3775    0.0000 </r>
       <r>   27.3775    0.0000 </r>
       <r>   28.7018    0.0000 </r>
       <r>   28.7018    0.0000 </r>
      </set>
      <set comment="kpoint 60">
       <r>    5.7404    1.0000 </r>
       <r>    5.7404    1.0000 </r>
       <r>    7.3128    1.0000 </r>
       <r>    7.3128    1.0000 </r>
       <r>    8.6115    1.0000 </r>
       <r>    8.6115    1.0000 </r>
       <r>    9.0757    1.0000 </r>
       <r>    9.0757    1.0000 </r>
       <r>   10.0063    1.0000 </r>
       <r>   10.0064    1.0000 </r>
       <r>   10.9274    0.6771 </r>
       <r>   10.9274    0.6771 </r>
       <r>   24.0824    0.0000 </r>
       <r>   24.0824    0.0000 </r>
       <r>   28.9670    0.0000 </r>
       <r>   28.9670    0.0000 </r>
      </set>
      <set comment="kpoint 61">
       <r>    5.8016    1.0000 </r>
       <r>    5.8016    1.0000 </r>
       <r>    7.1444    1.0000 </r>
       <r>    7.1444    1.0000 </r>
       <r>    9.1803    1.0000 </r>
       <r>    9.1803    1.0000 </r>
       <r>    9.5907    1.0000 </r>
       <r>    9.5907    1.0000 </r>
       <r>   10.3131    1.0000 </r>
       <r>   10.3131    1.0000 </r>
       <r>   11.8235    0.0000 </r>
       <r>   11.8235    0.0000 </r>
       <r>   20.4945    0.0000 </r>
       <r>   20.4945    0.0000 </r>
       <r>   30.3388    0.0000 </r>
       <r>   30.3389    0.0000 </r>
      </set>
      <set comment="kpoint 62">
       <r>    5.7679    1.0000 </r>
       <r>    5.7679    1.0000 </r>
       <r>    7.0709    1.0000 </r>
       <r>    7.0709    1.0000 </r>
       <r>    9.1888    1.0000 </r>
       <r>    9.1888    1.0000 </r>
       <r>    9.9668    1.0000 </r>
       <r>    9.9668    1.0000 </r>
       <r>   10.4722    1.0000 </r>
       <r>   10.4722    1.0000 </r>
       <r>   12.6876    0.0000 </r>
       <r>   12.6876    0.0000 </r>
       <r>   18.7352    0.0000 </r>
       <r>   18.7352    0.0000 </r>
       <r>   30.0417    0.0000 </r>
       <r>   30.0417    0.0000 </r>
      </set>
      <set comment="kpoint 63">
       <r>    4.9490    1.0000 </r>
       <r>    4.9490    1.0000 </r>
       <r>    7.5376    1.0000 </r>
       <r>    7.5376    1.0000 </r>
       <r>    8.1660    1.0000 </r>
       <r>    8.1660    1.0000 </r>
       <r>    8.6651    1.0000 </r>
       <r>    8.6651    1.0000 </r>
       <r>    9.8816    1.0000 </r>
       <r>    9.8816    1.0000 </r>
       <r>   10.3004    1.0000 </r>
       <r>   10.3004    1.0000 </r>
       <r>   27.3191    0.0000 </r>
       <r>   27.3191    0.0000 </r>
       <r>   30.2533    0.0000 </r>
       <r>   30.2533    0.0000 </r>
      </set>
      <set comment="kpoint 64">
       <r>    5.6836    1.0000 </r>
       <r>    5.6836    1.0000 </r>
       <r>    7.4152    1.0000 </r>
       <r>    7.4152    1.0000 </r>
       <r>    8.0826    1.0000 </r>
       <r>    8.0826    1.0000 </r>
       <r>    8.9902    1.0000 </r>
       <r>    8.9902    1.0000 </r>
       <r>   10.0388    1.0000 </r>
       <r>   10.0388    1.0000 </r>
       <r>   10.7645    1.0000 </r>
       <r>   10.7645    1.0000 </r>
       <r>   26.2733    0.0000 </r>
       <r>   26.2733    0.0000 </r>
       <r>   28.3031    0.0000 </r>
       <r>   28.3031    0.0000 </r>
      </set>
      <set comment="kpoint 65">
       <r>    5.9623    1.0000 </r>
       <r>    5.9623    1.0000 </r>
       <r>    7.3032    1.0000 </r>
       <r>    7.3032    1.0000 </r>
       <r>    8.6075    1.0000 </r>
       <r>    8.6075    1.0000 </r>
       <r>    9.1484    1.0000 </r>
       <r>    9.1484    1.0000 </r>
       <r>   10.3342    1.0000 </r>
       <r>   10.3342    1.0000 </r>
       <r>   11.6891    0.0000 </r>
       <r>   11.6891    0.0000 </r>
       <r>   22.3477    0.0000 </r>
       <r>   22.3477    0.0000 </r>
       <r>   27.9832    0.0000 </r>
       <r>   27.9832    0.0000 </r>
      </set>
      <set comment="kpoint 66">
       <r>    5.9409    1.0000 </r>
       <r>    5.9409    1.0000 </r>
       <r>    7.1803    1.0000 </r>
       <r>    7.1803    1.0000 </r>
       <r>    8.8672    1.0000 </r>
       <r>    8.8672    1.0000 </r>
       <r>    9.6219    1.0000 </r>
       <r>    9.6219    1.0000 </r>
       <r>   10.3910    1.0000 </r>
       <r>   10.3910    1.0000 </r>
       <r>   13.1122    0.0000 </r>
       <r>   13.1122    0.0000 </r>
       <r>   19.3420    0.0000 </r>
       <r>   19.3420    0.0000 </r>
       <r>   27.3166    0.0000 </r>
       <r>   27.3166    0.0000 </r>
      </set>
      <set comment="kpoint 67">
       <r>    6.1498    1.0000 </r>
       <r>    6.1498    1.0000 </r>
       <r>    7.5299    1.0000 </r>
       <r>    7.5299    1.0000 </r>
       <r>    7.9362    1.0000 </r>
       <r>    7.9362    1.0000 </r>
       <r>    9.0059    1.0000 </r>
       <r>    9.0059    1.0000 </r>
       <r>   10.3904    1.0000 </r>
       <r>   10.3904    1.0000 </r>
       <r>   11.7517    0.0000 </r>
       <r>   11.7517    0.0000 </r>
       <r>   24.4303    0.0000 </r>
       <r>   24.4303    0.0000 </r>
       <r>   25.4120    0.0000 </r>
       <r>   25.4120    0.0000 </r>
      </set>
      <set comment="kpoint 68">
       <r>    6.3236    1.0000 </r>
       <r>    6.3236    1.0000 </r>
       <r>    7.4330    1.0000 </r>
       <r>    7.4330    1.0000 </r>
       <r>    8.1743    1.0000 </r>
       <r>    8.1743    1.0000 </r>
       <r>    9.0970    1.0000 </r>
       <r>    9.0970    1.0000 </r>
       <r>   10.4303    1.0000 </r>
       <r>   10.4303    1.0000 </r>
       <r>   13.5691    0.0000 </r>
       <r>   13.5691    0.0000 </r>
       <r>   21.0556    0.0000 </r>
       <r>   21.0556    0.0000 </r>
       <r>   24.0766    0.0000 </r>
       <r>   24.0766    0.0000 </r>
      </set>
      <set comment="kpoint 69">
       <r>    6.3567    1.0000 </r>
       <r>    6.3567    1.0000 </r>
       <r>    7.3629    1.0000 </r>
       <r>    7.3629    1.0000 </r>
       <r>    8.2307    1.0000 </r>
       <r>    8.2307    1.0000 </r>
       <r>    9.3181    1.0000 </r>
       <r>    9.3181    1.0000 </r>
       <r>   10.3413    1.0000 </r>
       <r>   10.3413    1.0000 </r>
       <r>   15.0068    0.0000 </r>
       <r>   15.0068    0.0000 </r>
       <r>   18.9990    0.0000 </r>
       <r>   18.9990    0.0000 </r>
       <r>   23.7129    0.0000 </r>
       <r>   23.7129    0.0000 </r>
      </set>
      <set comment="kpoint 70">
       <r>    6.7435    1.0000 </r>
       <r>    6.7435    1.0000 </r>
       <r>    7.3268    1.0000 </r>
       <r>    7.3268    1.0000 </r>
       <r>    7.9517    1.0000 </r>
       <r>    7.9517    1.0000 </r>
       <r>    9.0861    1.0000 </r>
       <r>    9.0861    1.0000 </r>
       <r>   10.3247    1.0000 </r>
       <r>   10.3247    1.0000 </r>
       <r>   15.9830    0.0000 </r>
       <r>   15.9830    0.0000 </r>
       <r>   19.5243    0.0000 </r>
       <r>   19.5243    0.0000 </r>
       <r>   21.5452    0.0000 </r>
       <r>   21.5452    0.0000 </r>
      </set>
     </set>
     <set comment="spin 2">
      <set comment="kpoint 1">
       <r>    1.7992    1.0000 </r>
       <r>    6.5616    1.0000 </r>
       <r>    9.9264    1.0000 </r>
       <r>    9.9536    1.0000 </r>
       <r>    9.9536    1.0000 </r>
       <r>   10.3479    1.0000 </r>
       <r>   10.3479    1.0000 </r>
       <r>   10.7971    1.0000 </r>
       <r>   10.7971    1.0000 </r>
       <r>   10.8510    0.9956 </r>
       <r>   12.1028    0.0000 </r>
       <r>   12.1028    0.0000 </r>
       <r>   18.8371    0.0000 </r>
       <r>   33.1679    0.0000 </r>
       <r>   36.5515    0.0000 </r>
       <r>   36.7875    0.0000 </r>
      </set>
      <set comment="kpoint 2">
       <r>    2.1638    1.0000 </r>
       <r>    6.8068    1.0000 </r>
       <r>    9.5809    1.0000 </r>
       <r>    9.9190    1.0000 </r>
       <r>   10.1450    1.0000 </r>
       <r>   10.1844    1.0000 </r>
       <r>   10.2846    1.0000 </r>
       <r>   10.5172    1.0000 </r>
       <r>   10.6717    1.0000 </r>
       <r>   10.7090    1.0000 </r>
       <r>   12.1565    0.0000 </r>
       <r>   13.3400    0.0000 </r>
       <r>   18.8623    0.0000 </r>
       <r>   31.1811    0.0000 </r>
       <r>   33.9634    0.0000 </r>
       <r>   34.1092    0.0000 </r>
      </set>
      <set comment="kpoint 3">
       <r>    3.2054    1.0000 </r>
       <r>    7.3726    1.0000 </r>
       <r>    8.8656    1.0000 </r>
       <r>    9.1274    1.0000 </r>
       <r>    9.9584    1.0000 </r>
       <r>   10.3861    1.0000 </r>
       <r>   10.4731    1.0000 </r>
       <r>   10.6745    1.0000 </r>
       <r>   10.6910    1.0000 </r>
       <r>   10.9788    0.1597 </r>
       <r>   12.2560    0.0000 </r>
       <r>   15.3056    0.0000 </r>
       <r>   18.9719    0.0000 </r>
       <r>   26.7748    0.0000 </r>
       <r>   31.2020    0.0000 </r>
       <r>   32.8993    0.0000 </r>
      </set>
      <set comment="kpoint 4">
       <r>    4.7271    1.0000 </r>
       <r>    7.6515    1.0000 </r>
       <r>    8.1039    1.0000 </r>
       <r>    8.8750    1.0000 </r>
       <r>    9.9112    1.0000 </r>
       <r>   10.0828    1.0000 </r>
       <r>   10.1883    1.0000 </r>
       <r>   11.3912    0.0000 </r>
       <r>   11.3928    0.0000 </r>
       <r>   11.5963    0.0000 </r>
       <r>   12.3327    0.0000 </r>
       <r>   17.5424    0.0000 </r>
       <r>   19.1034    0.0000 </r>
       <r>   22.7657    0.0000 </r>
       <r>   28.8019    0.0000 </r>
       <r>   29.9556    0.0000 </r>
      </set>
      <set comment="kpoint 5">
       <r>    6.2254    1.0000 </r>
       <r>    7.4233    1.0000 </r>
       <r>    7.6527    1.0000 </r>
       <r>    8.9121    1.0000 </r>
       <r>    9.8628    1.0000 </r>
       <r>    9.9631    1.0000 </r>
       <r>   10.1912    1.0000 </r>
       <r>   12.0163    0.0000 </r>
       <r>   12.1716    0.0000 </r>
       <r>   12.3731    0.0000 </r>
       <r>   12.4960    0.0000 </r>
       <r>   17.5870    0.0000 </r>
       <r>   19.9169    0.0000 </r>
       <r>   21.5198    0.0000 </r>
       <r>   26.6927    0.0000 </r>
       <r>   27.1464    0.0000 </r>
      </set>
      <set comment="kpoint 6">
       <r>    6.9236    1.0000 </r>
       <r>    7.1799    1.0000 </r>
       <r>    7.5038    1.0000 </r>
       <r>    9.0606    1.0000 </r>
       <r>    9.7828    1.0000 </r>
       <r>    9.8782    1.0000 </r>
       <r>   10.3275    1.0000 </r>
       <r>   12.2515    0.0000 </r>
       <r>   12.3847    0.0000 </r>
       <r>   12.4292    0.0000 </r>
       <r>   13.6987    0.0000 </r>
       <r>   15.5666    0.0000 </r>
       <r>   21.5416    0.0000 </r>
       <r>   22.2254    0.0000 </r>
       <r>   24.7805    0.0000 </r>
       <r>   26.2190    0.0000 </r>
      </set>
      <set comment="kpoint 7">
       <r>    2.8688    1.0000 </r>
       <r>    7.2278    1.0000 </r>
       <r>    9.1397    1.0000 </r>
       <r>    9.2155    1.0000 </r>
       <r>   10.0621    1.0000 </r>
       <r>   10.3210    1.0000 </r>
       <r>   10.4449    1.0000 </r>
       <r>   10.5335    1.0000 </r>
       <r>   10.6878    1.0000 </r>
       <r>   10.8926    0.9255 </r>
       <r>   12.2095    0.0000 </r>
       <r>   14.7555    0.0000 </r>
       <r>   18.9369    0.0000 </r>
       <r>   28.8160    0.0000 </r>
       <r>   29.6645    0.0000 </r>
       <r>   35.3741    0.0000 </r>
      </set>
      <set comment="kpoint 8">
       <r>    4.1685    1.0000 </r>
       <r>    7.7390    1.0000 </r>
       <r>    8.3794    1.0000 </r>
       <r>    8.7817    1.0000 </r>
       <r>    9.9027    1.0000 </r>
       <r>    9.9738    1.0000 </r>
       <r>   10.4716    1.0000 </r>
       <r>   10.8435    0.9977 </r>
       <r>   11.2077    0.0000 </r>
       <r>   11.5561    0.0000 </r>
       <r>   12.2641    0.0000 </r>
       <r>   16.7540    0.0000 </r>
       <r>   19.1579    0.0000 </r>
       <r>   24.7423    0.0000 </r>
       <r>   27.3027    0.0000 </r>
       <r>   31.8585    0.0000 </r>
      </set>
      <set comment="kpoint 9">
       <r>    5.7469    1.0000 </r>
       <r>    7.7054    1.0000 </r>
       <r>    7.8518    1.0000 </r>
       <r>    8.6844    1.0000 </r>
       <r>    9.7491    1.0000 </r>
       <r>   10.0639    1.0000 </r>
       <r>   10.1582    1.0000 </r>
       <r>   11.4707    0.0000 </r>
       <r>   11.8883    0.0000 </r>
       <r>   12.3012    0.0000 </r>
       <r>   12.4089    0.0000 </r>
       <r>   18.9710    0.0000 </r>
       <r>   19.0483    0.0000 </r>
       <r>   21.6462    0.0000 </r>
       <r>   25.6419    0.0000 </r>
       <r>   28.4171    0.0000 </r>
      </set>
      <set comment="kpoint 10">
       <r>    6.9013    1.0000 </r>
       <r>    7.4234    1.0000 </r>
       <r>    7.5888    1.0000 </r>
       <r>    8.8272    1.0000 </r>
       <r>    9.6935    1.0000 </r>
       <r>    9.8915    1.0000 </r>
       <r>   10.3252    1.0000 </r>
       <r>   12.1042    0.0000 </r>
       <r>   12.2574    0.0000 </r>
       <r>   12.3167    0.0000 </r>
       <r>   13.5714    0.0000 </r>
       <r>   16.5351    0.0000 </r>
       <r>   21.3445    0.0000 </r>
       <r>   22.1451    0.0000 </r>
       <r>   24.5711    0.0000 </r>
       <r>   25.5501    0.0000 </r>
      </set>
      <set comment="kpoint 11">
       <r>    5.5776    1.0000 </r>
       <r>    7.9816    1.0000 </r>
[...]
       </set>
       <set comment="band 12">
        <r>  0.0692  0.0498  0.0000  0.0531  0.1556  0.0000  0.1192  0.0000  0.1054 </r>
        <r>  0.0000  0.0000  0.0488  0.0000  0.0000  0.1602  0.0000  0.1755  0.0000 </r>
       </set>
       <set comment="band 13">
        <r>  0.0019  0.0002  0.0482  0.0022  0.0014  0.0250  0.0004  0.1292  0.0011 </r>
        <r>  0.1758  0.0184  0.0005  0.1963  0.1286  0.0003  0.0379  0.0014  0.0978 </r>
       </set>
       <set comment="band 14">
        <r>  0.1758  0.0184  0.0005  0.1963  0.1286  0.0003  0.0379  0.0014  0.0978 </r>
        <r>  0.0019  0.0002  0.0482  0.0022  0.0014  0.0250  0.0004  0.1292  0.0011 </r>
       </set>
       <set comment="band 15">
        <r>  0.0002  0.0009  0.0094  0.0001  0.0001  0.1509  0.0002  0.0154  0.0003 </r>
        <r>  0.0547  0.3129  0.0000  0.0231  0.0346  0.0004  0.0852  0.0000  0.1139 </r>
       </set>
       <set comment="band 16">
        <r>  0.0547  0.3129  0.0000  0.0231  0.0346  0.0004  0.0852  0.0000  0.1139 </r>
        <r>  0.0002  0.0009  0.0094  0.0001  0.0001  0.1509  0.0002  0.0154  0.0003 </r>
       </set>
      </set>
      <set comment="kpoint 66">
       <set comment="band 1">
        <r>  0.0000  0.0000  0.0105  0.0000  0.0000  0.1211  0.0000  0.2778  0.0000 </r>
        <r>  0.1234  0.0194  0.0000  0.0103  0.2238  0.0000  0.0233  0.0000  0.0676 </r>
       </set>
       <set comment="band 2">
        <r>  0.1234  0.0194  0.0000  0.0103  0.2238  0.0000  0.0233  0.0000  0.0676 </r>
        <r>  0.0000  0.0000  0.0105  0.0000  0.0000  0.1211  0.0000  0.2778  0.0000 </r>
       </set>
       <set comment="band 3">
        <r>  0.0000  0.0000  0.0138  0.0000  0.0000  0.0712  0.0000  0.1285  0.0000 </r>
        <r>  0.0017  0.0132  0.0000  0.0247  0.3135  0.0000  0.2424  0.0000  0.1318 </r>
       </set>
       <set comment="band 4">
        <r>  0.0017  0.0132  0.0000  0.0247  0.3135  0.0000  0.2424  0.0000  0.1318 </r>
        <r>  0.0000  0.0000  0.0138  0.0000  0.0000  0.0712  0.0000  0.1285  0.0000 </r>
       </set>
       <set comment="band 5">
        <r>  0.0000  0.0000  0.0404  0.0000  0.0000  0.3118  0.0000  0.1700  0.0000 </r>
        <r>  0.0153  0.0367  0.0000  0.1033  0.0116  0.0000  0.1386  0.0000  0.0770 </r>
       </set>
       <set comment="band 6">
        <r>  0.0153  0.0367  0.0000  0.1033  0.0116  0.0000  0.1386  0.0000  0.0770 </r>
        <r>  0.0000  0.0000  0.0404  0.0000  0.0000  0.3118  0.0000  0.1700  0.0000 </r>
       </set>
       <set comment="band 7">
        <r>  0.0000  0.0000  0.0194  0.0000  0.0000  0.2653  0.0000  0.1413  0.0000 </r>
        <r>  0.0034  0.0213  0.0000  0.0577  0.0413  0.0000  0.1170  0.0000  0.2853 </r>
       </set>
       <set comment="band 8">
        <r>  0.0034  0.0213  0.0000  0.0577  0.0413  0.0000  0.1170  0.0000  0.2853 </r>
        <r>  0.0000  0.0000  0.0194  0.0000  0.0000  0.2653  0.0000  0.1413  0.0000 </r>
       </set>
       <set comment="band 9">
        <r>  0.0000  0.0000  0.0028  0.0000  0.0000  0.1084  0.0000  0.1122  0.0000 </r>
        <r>  0.0005  0.0018  0.0000  0.0005  0.1670  0.0000  0.3866  0.0000  0.2082 </r>
       </set>
       <set comment="band 10">
        <r>  0.0005  0.0018  0.0000  0.0005  0.1670  0.0000  0.3866  0.0000  0.2082 </r>
        <r>  0.0000  0.0000  0.0028  0.0000  0.0000  0.1084  0.0000  0.1122  0.0000 </r>
       </set>
       <set comment="band 11">
        <r>  0.0000  0.0000  0.0744  0.0000  0.0000  0.0670  0.0000  0.0686  0.0000 </r>
        <r>  0.0307  0.0875  0.0000  0.1797  0.1560  0.0000  0.0545  0.0000  0.1751 </r>
       </set>
       <set comment="band 12">
        <r>  0.0307  0.0875  0.0000  0.1797  0.1560  0.0000  0.0545  0.0000  0.1751 </r>
        <r>  0.0000  0.0000  0.0744  0.0000  0.0000  0.0670  0.0000  0.0686  0.0000 </r>
       </set>
       <set comment="band 13">
        <r>  0.3233  0.0045  0.0000  0.0757  0.1500  0.0000  0.0231  0.0001  0.0825 </r>
        <r>  0.0003  0.0000  0.0377  0.0001  0.0001  0.0434  0.0000  0.1650  0.0001 </r>
       </set>
       <set comment="band 14">
        <r>  0.0003  0.0000  0.0377  0.0001  0.0001  0.0434  0.0000  0.1650  0.0001 </r>
        <r>  0.3233  0.0045  0.0000  0.0757  0.1500  0.0000  0.0231  0.0001  0.0825 </r>
       </set>
       <set comment="band 15">
        <r>  0.0017  0.0063  0.0096  0.0015  0.0013  0.1299  0.0010  0.0342  0.0012 </r>
        <r>  0.0775  0.2883  0.0002  0.0679  0.0615  0.0028  0.0467  0.0007  0.0529 </r>
       </set>
       <set comment="band 16">
        <r>  0.0775  0.2883  0.0002  0.0679  0.0615  0.0028  0.0467  0.0007  0.0529 </r>
        <r>  0.0017  0.0063  0.0096  0.0015  0.0013  0.1299  0.0010  0.0342  0.0012 </r>
       </set>
      </set>
      <set comment="kpoint 67">
       <set comment="band 1">
        <r>  0.0005  0.0002  0.0750  0.0001  0.0001  0.2425  0.0000  0.0809  0.0001 </r>
        <r>  0.2387  0.0780  0.0002  0.0278  0.0476  0.0006  0.0085  0.0002  0.0245 </r>
       </set>
       <set comment="band 2">
        <r>  0.2387  0.0780  0.0002  0.0278  0.0476  0.0006  0.0085  0.0002  0.0245 </r>
        <r>  0.0005  0.0002  0.0750  0.0001  0.0001  0.2425  0.0000  0.0809  0.0001 </r>
       </set>
       <set comment="band 3">
        <r>  0.0000  0.0000  0.0258  0.0000  0.0000  0.0442  0.0000  0.0172  0.0000 </r>
        <r>  0.0265  0.0353  0.0000  0.0348  0.1916  0.0000  0.0811  0.0000  0.4699 </r>
       </set>
       <set comment="band 4">
        <r>  0.0265  0.0353  0.0000  0.0348  0.1916  0.0000  0.0811  0.0000  0.4699 </r>
        <r>  0.0000  0.0000  0.0258  0.0000  0.0000  0.0442  0.0000  0.0172  0.0000 </r>
       </set>
       <set comment="band 5">
        <r>  0.0000  0.0000  0.0008  0.0000  0.0000  0.0824  0.0000  0.1113  0.0000 </r>
        <r>  0.0015  0.0343  0.0000  0.0162  0.0763  0.0000  0.4837  0.0000  0.1347 </r>
       </set>
       <set comment="band 6">
        <r>  0.0015  0.0343  0.0000  0.0162  0.0763  0.0000  0.4837  0.0000  0.1347 </r>
        <r>  0.0000  0.0000  0.0008  0.0000  0.0000  0.0824  0.0000  0.1113  0.0000 </r>
       </set>
       <set comment="band 7">
        <r>  0.0000  0.0000  0.0011  0.0000  0.0000  0.2027  0.0000  0.5182  0.0000 </r>
        <r>  0.0038  0.0029  0.0000  0.0012  0.1358  0.0000  0.0067  0.0000  0.0949 </r>
       </set>
       <set comment="band 8">
        <r>  0.0038  0.0029  0.0000  0.0012  0.1358  0.0000  0.0067  0.0000  0.0949 </r>
        <r>  0.0000  0.0000  0.0011  0.0000  0.0000  0.2027  0.0000  0.5182  0.0000 </r>
       </set>
       <set comment="band 9">
        <r>  0.0000  0.0000  0.0021  0.0000  0.0000  0.1494  0.0000  0.1376  0.0000 </r>
        <r>  0.0000  0.0000  0.0000  0.0000  0.2845  0.0000  0.3197  0.0000  0.0986 </r>
       </set>
       <set comment="band 10">
        <r>  0.0000  0.0000  0.0000  0.0000  0.2845  0.0000  0.3197  0.0000  0.0986 </r>
        <r>  0.0000  0.0000  0.0021  0.0000  0.0000  0.1494  0.0000  0.1376  0.0000 </r>
       </set>
       <set comment="band 11">
        <r>  0.0000  0.0000  0.0535  0.0000  0.0000  0.2382  0.0000  0.0859  0.0000 </r>
        <r>  0.0795  0.0738  0.0000  0.0256  0.2330  0.0000  0.0492  0.0000  0.0982 </r>
       </set>
       <set comment="band 12">
        <r>  0.0795  0.0738  0.0000  0.0256  0.2330  0.0000  0.0492  0.0000  0.0982 </r>
        <r>  0.0000  0.0000  0.0535  0.0000  0.0000  0.2382  0.0000  0.0859  0.0000 </r>
       </set>
       <set comment="band 13">
        <r>  0.0000  0.0000  0.0668  0.0000  0.0000  0.0519  0.0000  0.0529  0.0001 </r>
        <r>  0.0022  0.0811  0.0000  0.2062  0.0894  0.0000  0.0116  0.0000  0.2681 </r>
       </set>
       <set comment="band 14">
        <r>  0.0022  0.0811  0.0000  0.2062  0.0894  0.0000  0.0116  0.0000  0.2681 </r>
        <r>  0.0000  0.0000  0.0668  0.0000  0.0000  0.0519  0.0000  0.0529  0.0001 </r>
       </set>
       <set comment="band 15">
        <r>  0.2298  0.2068  0.0000  0.0773  0.0116  0.0000  0.0994  0.0000  0.0141 </r>
        <r>  0.0001  0.0001  0.0033  0.0000  0.0000  0.1121  0.0000  0.0963  0.0000 </r>
       </set>
       <set comment="band 16">
        <r>  0.0001  0.0001  0.0033  0.0000  0.0000  0.1121  0.0000  0.0963  0.0000 </r>
        <r>  0.2298  0.2068  0.0000  0.0773  0.0116  0.0000  0.0994  0.0000  0.0141 </r>
       </set>
      </set>
      <set comment="kpoint 68">
       <set comment="band 1">
        <r>  0.0001  0.0000  0.0212  0.0000  0.0001  0.2462  0.0000  0.2103  0.0000 </r>
        <r>  0.1167  0.0514  0.0000  0.0179  0.1264  0.0002  0.0456  0.0001  0.0309 </r>
       </set>
       <set comment="band 2">
        <r>  0.1167  0.0514  0.0000  0.0179  0.1264  0.0002  0.0456  0.0001  0.0309 </r>
        <r>  0.0001  0.0000  0.0212  0.0000  0.0001  0.2462  0.0000  0.2103  0.0000 </r>
       </set>
       <set comment="band 3">
        <r>  0.0000  0.0000  0.0269  0.0000  0.0000  0.0924  0.0000  0.0169  0.0000 </r>
        <r>  0.0151  0.0274  0.0000  0.0363  0.2941  0.0000  0.1103  0.0000  0.3109 </r>
       </set>
       <set comment="band 4">
        <r>  0.0151  0.0274  0.0000  0.0363  0.2941  0.0000  0.1103  0.0000  0.3109 </r>
        <r>  0.0000  0.0000  0.0269  0.0000  0.0000  0.0924  0.0000  0.0169  0.0000 </r>
       </set>
       <set comment="band 5">
        <r>  0.0000  0.0000  0.0226  0.0000  0.0000  0.0829  0.0000  0.2131  0.0000 </r>
        <r>  0.0122  0.0502  0.0000  0.0766  0.0455  0.0000  0.2495  0.0000  0.1565 </r>
       </set>
       <set comment="band 6">
        <r>  0.0122  0.0502  0.0000  0.0766  0.0455  0.0000  0.2495  0.0000  0.1565 </r>
        <r>  0.0000  0.0000  0.0226  0.0000  0.0000  0.0829  0.0000  0.2131  0.0000 </r>
       </set>
       <set comment="band 7">
        <r>  0.0000  0.0000  0.0013  0.0000  0.0000  0.2528  0.0000  0.3067  0.0000 </r>
        <r>  0.0087  0.0032  0.0000  0.0069  0.1164  0.0000  0.0468  0.0000  0.2229 </r>
       </set>
       <set comment="band 8">
        <r>  0.0087  0.0032  0.0000  0.0069  0.1164  0.0000  0.0468  0.0000  0.2229 </r>
        <r>  0.0000  0.0000  0.0013  0.0000  0.0000  0.2528  0.0000  0.3067  0.0000 </r>
       </set>
       <set comment="band 9">
        <r>  0.0000  0.0000  0.0038  0.0000  0.0000  0.1717  0.0000  0.1262  0.0000 </r>
        <r>  0.0001  0.0028  0.0000  0.0008  0.1282  0.0000  0.5020  0.0000  0.0539 </r>
       </set>
       <set comment="band 10">
        <r>  0.0001  0.0028  0.0000  0.0008  0.1282  0.0000  0.5020  0.0000  0.0539 </r>
        <r>  0.0000  0.0000  0.0038  0.0000  0.0000  0.1717  0.0000  0.1262  0.0000 </r>
       </set>
       <set comment="band 11">
        <r>  0.0000  0.0000  0.0798  0.0000  0.0000  0.1033  0.0000  0.0439  0.0000 </r>
        <r>  0.0730  0.1215  0.0000  0.0905  0.2503  0.0000  0.0050  0.0000  0.1404 </r>
       </set>
       <set comment="band 12">
        <r>  0.0730  0.1215  0.0000  0.0905  0.2503  0.0000  0.0050  0.0000  0.1404 </r>
        <r>  0.0000  0.0000  0.0798  0.0000  0.0000  0.1033  0.0000  0.0439  0.0000 </r>
       </set>
       <set comment="band 13">
        <r>  0.0006  0.0000  0.0498  0.0009  0.0004  0.0201  0.0001  0.1399  0.0006 </r>
        <r>  0.1589  0.0070  0.0002  0.2214  0.0977  0.0001  0.0188  0.0006  0.1544 </r>
       </set>
       <set comment="band 14">
        <r>  0.1589  0.0070  0.0002  0.2214  0.0977  0.0001  0.0188  0.0006  0.1544 </r>
        <r>  0.0006  0.0000  0.0498  0.0009  0.0004  0.0201  0.0001  0.1399  0.0006 </r>
       </set>
       <set comment="band 15">
        <r>  0.2210  0.2415  0.0001  0.0171  0.0303  0.0005  0.0510  0.0001  0.0616 </r>
        <r>  0.0007  0.0008  0.0192  0.0001  0.0001  0.1449  0.0002  0.0433  0.0002 </r>
       </set>
       <set comment="band 16">
        <r>  0.0007  0.0008  0.0192  0.0001  0.0001  0.1449  0.0002  0.0433  0.0002 </r>
        <r>  0.2210  0.2415  0.0001  0.0171  0.0303  0.0005  0.0510  0.0001  0.0616 </r>
       </set>
      </set>
      <set comment="kpoint 69">
       <set comment="band 1">
        <r>  0.0000  0.0000  0.0032  0.0000  0.0000  0.1146  0.0000  0.3438  0.0000 </r>
        <r>  0.0800  0.0297  0.0000  0.0225  0.1744  0.0000  0.0516  0.0001  0.0637 </r>
       </set>
       <set comment="band 2">
        <r>  0.0800  0.0297  0.0000  0.0225  0.1744  0.0000  0.0516  0.0001  0.0637 </r>
        <r>  0.0000  0.0000  0.0032  0.0000  0.0000  0.1146  0.0000  0.3438  0.0000 </r>
       </set>
       <set comment="band 3">
        <r>  0.0000  0.0000  0.0098  0.0000  0.0000  0.1062  0.0000  0.1073  0.0000 </r>
        <r>  0.0015  0.0312  0.0000  0.0160  0.3229  0.0000  0.2297  0.0000  0.1151 </r>
       </set>
       <set comment="band 4">
        <r>  0.0015  0.0312  0.0000  0.0160  0.3229  0.0000  0.2297  0.0000  0.1151 </r>
        <r>  0.0000  0.0000  0.0098  0.0000  0.0000  0.1062  0.0000  0.1073  0.0000 </r>
       </set>
       <set comment="band 5">
        <r>  0.0000  0.0000  0.0421  0.0000  0.0000  0.2714  0.0000  0.1009  0.0000 </r>
        <r>  0.0181  0.0377  0.0000  0.1132  0.0928  0.0000  0.0432  0.0000  0.1740 </r>
       </set>
       <set comment="band 6">
        <r>  0.0181  0.0377  0.0000  0.1132  0.0928  0.0000  0.0432  0.0000  0.1740 </r>
        <r>  0.0000  0.0000  0.0421  0.0000  0.0000  0.2714  0.0000  0.1009  0.0000 </r>
       </set>
       <set comment="band 7">
        <r>  0.0000  0.0000  0.0058  0.0000  0.0000  0.2768  0.0000  0.1372  0.0000 </r>
        <r>  0.0008  0.0100  0.0000  0.0270  0.1491  0.0000  0.0175  0.0000  0.3395 </r>
       </set>
       <set comment="band 8">
        <r>  0.0008  0.0100  0.0000  0.0270  0.1491  0.0000  0.0175  0.0000  0.3395 </r>
        <r>  0.0000  0.0000  0.0058  0.0000  0.0000  0.2768  0.0000  0.1372  0.0000 </r>
       </set>
       <set comment="band 9">
        <r>  0.0000  0.0000  0.0014  0.0000  0.0000  0.1181  0.0000  0.1664  0.0000 </r>
        <r>  0.0007  0.0012  0.0000  0.0004  0.0433  0.0000  0.6166  0.0000  0.0392 </r>
       </set>
       <set comment="band 10">
        <r>  0.0007  0.0012  0.0000  0.0004  0.0433  0.0000  0.6166  0.0000  0.0392 </r>
        <r>  0.0000  0.0000  0.0014  0.0000  0.0000  0.1181  0.0000  0.1664  0.0000 </r>
       </set>
       <set comment="band 11">
        <r>  0.0000  0.0000  0.1084  0.0000  0.0000  0.0341  0.0000  0.0327  0.0000 </r>
        <r>  0.0087  0.0875  0.0000  0.2491  0.1038  0.0000  0.0077  0.0000  0.2475 </r>
       </set>
       <set comment="band 12">
        <r>  0.0087  0.0875  0.0000  0.2491  0.1038  0.0000  0.0077  0.0000  0.2475 </r>
        <r>  0.0000  0.0000  0.1084  0.0000  0.0000  0.0341  0.0000  0.0327  0.0000 </r>
       </set>
       <set comment="band 13">
        <r>  0.2788  0.0758  0.0000  0.0407  0.1799  0.0000  0.0133  0.0001  0.0645 </r>
        <r>  0.0002  0.0001  0.0317  0.0000  0.0001  0.0535  0.0000  0.1602  0.0000 </r>
       </set>
       <set comment="band 14">
        <r>  0.0002  0.0001  0.0317  0.0000  0.0001  0.0535  0.0000  0.1602  0.0000 </r>
        <r>  0.2788  0.0758  0.0000  0.0407  0.1799  0.0000  0.0133  0.0001  0.0645 </r>
       </set>
       <set comment="band 15">
        <r>  0.2179  0.1908  0.0004  0.0637  0.0673  0.0029  0.0416  0.0013  0.0225 </r>
        <r>  0.0049  0.0043  0.0198  0.0014  0.0015  0.1296  0.0009  0.0554  0.0005 </r>
       </set>
       <set comment="band 16">
        <r>  0.0049  0.0043  0.0198  0.0014  0.0015  0.1296  0.0009  0.0554  0.0005 </r>
        <r>  0.2179  0.1908  0.0004  0.0637  0.0673  0.0029  0.0416  0.0013  0.0225 </r>
       </set>
      </set>
      <set comment="kpoint 70">
       <set comment="band 1">
        <r>  0.0000  0.0000  0.0020  0.0000  0.0000  0.3843  0.0000  0.1281  0.0000 </r>
        <r>  0.0527  0.0398  0.0000  0.0340  0.0691  0.0001  0.0913  0.0000  0.0834 </r>
       </set>
       <set comment="band 2">
        <r>  0.0527  0.0398  0.0000  0.0340  0.0691  0.0001  0.0913  0.0000  0.0834 </r>
        <r>  0.0000  0.0000  0.0020  0.0000  0.0000  0.3843  0.0000  0.1281  0.0000 </r>
       </set>
       <set comment="band 3">
        <r>  0.0000  0.0000  0.0050  0.0000  0.0000  0.1146  0.0000  0.3112  0.0000 </r>
        <r>  0.0279  0.0201  0.0000  0.0403  0.0632  0.0000  0.1579  0.0000  0.1731 </r>
       </set>
       <set comment="band 4">
        <r>  0.0279  0.0201  0.0000  0.0403  0.0632  0.0000  0.1579  0.0000  0.1731 </r>
        <r>  0.0000  0.0000  0.0050  0.0000  0.0000  0.1146  0.0000  0.3112  0.0000 </r>
       </set>
       <set comment="band 5">
        <r>  0.0000  0.0000  0.0462  0.0000  0.0000  0.0153  0.0000  0.0454  0.0000 </r>
        <r>  0.0011  0.0928  0.0000  0.0542  0.3146  0.0000  0.0414  0.0000  0.3040 </r>
       </set>
       <set comment="band 6">
        <r>  0.0011  0.0928  0.0000  0.0542  0.3146  0.0000  0.0414  0.0000  0.3040 </r>
        <r>  0.0000  0.0000  0.0462  0.0000  0.0000  0.0153  0.0000  0.0454  0.0000 </r>
       </set>
       <set comment="band 7">
        <r>  0.0000  0.0000  0.0003  0.0000  0.0000  0.1878  0.0000  0.2673  0.0000 </r>
        <r>  0.0029  0.0068  0.0000  0.0028  0.2728  0.0000  0.0151  0.0000  0.2104 </r>
       </set>
       <set comment="band 8">
        <r>  0.0029  0.0068  0.0000  0.0028  0.2728  0.0000  0.0151  0.0000  0.2104 </r>
        <r>  0.0000  0.0000  0.0003  0.0000  0.0000  0.1878  0.0000  0.2673  0.0000 </r>
       </set>
       <set comment="band 9">
        <r>  0.0000  0.0000  0.0008  0.0000  0.0000  0.1606  0.0000  0.1280  0.0000 </r>
        <r>  0.0022  0.0011  0.0000  0.0004  0.0244  0.0000  0.6592  0.0000  0.0103 </r>
       </set>
       <set comment="band 10">
        <r>  0.0022  0.0011  0.0000  0.0004  0.0244  0.0000  0.6592  0.0000  0.0103 </r>
        <r>  0.0000  0.0000  0.0008  0.0000  0.0000  0.1606  0.0000  0.1280  0.0000 </r>
       </set>
       <set comment="band 11">
        <r>  0.0000  0.0000  0.1242  0.0000  0.0000  0.0451  0.0000  0.0193  0.0000 </r>
        <r>  0.0339  0.2218  0.0000  0.0882  0.2487  0.0000  0.0004  0.0000  0.1080 </r>
       </set>
       <set comment="band 12">
        <r>  0.0339  0.2218  0.0000  0.0882  0.2487  0.0000  0.0004  0.0000  0.1080 </r>
        <r>  0.0000  0.0000  0.1242  0.0000  0.0000  0.0451  0.0000  0.0193  0.0000 </r>
       </set>
       <set comment="band 13">
        <r>  0.0000  0.0001  0.0464  0.0002  0.0001  0.0817  0.0000  0.0609  0.0002 </r>
        <r>  0.0043  0.1004  0.0000  0.2522  0.0848  0.0001  0.0001  0.0001  0.2274 </r>
       </set>
       <set comment="band 14">
        <r>  0.0043  0.1004  0.0000  0.2522  0.0848  0.0001  0.0001  0.0001  0.2274 </r>
        <r>  0.0000  0.0001  0.0464  0.0002  0.0001  0.0817  0.0000  0.0609  0.0002 </r>
       </set>
       <set comment="band 15">
        <r>  0.4970  0.0380  0.0000  0.0127  0.0018  0.0000  0.0520  0.0000  0.0006 </r>
        <r>  0.0000  0.0000  0.0019  0.0000  0.0000  0.1165  0.0000  0.1439  0.0000 </r>
       </set>
       <set comment="band 16">
        <r>  0.0000  0.0000  0.0019  0.0000  0.0000  0.1165  0.0000  0.1439  0.0000 </r>
        <r>  0.4970  0.0380  0.0000  0.0127  0.0018  0.0000  0.0520  0.0000  0.0006 </r>
       </set>
      </set>
     </set>
    </set>
   </array>
  </projected>
 </calculation>
 <structure name="finalpos" >
  <crystal>
   <varray name="basis" >
    <v>       2.45021142       0.00000000       0.00000000 </v>
    <v>      -1.22510571       2.12194533       0.00000000 </v>
    <v>       0.00000000       0.00000000       3.96434235 </v>
   </varray>
   <i name="volume">     20.61146700 </i>
   <varray name="rec_basis" >
    <v>       0.40812805       0.23563284       0.00000000 </v>
    <v>       0.00000000       0.47126567       0.00000000 </v>
    <v>       0.00000000       0.00000000       0.25224865 </v>
   </varray>
  </crystal>
  <varray name="positions" >
   <v>       0.00000000       0.00000000       0.00000000 </v>
   <v>       0.33333333       0.66666667       0.50000000 </v>
  </varray>
 </structure>
</modeling>
