Co-hcc                                  
           1
     2.450211    0.000000    0.000000
    -1.225106    2.121945    0.000000
     0.000000    0.000000    3.964342
   Co
     2
Direct configuration=     1
   0.00000000  0.00000000  0.00000000
   0.33333333  0.66666667  0.50000000
