Pt-fcc                                  
   1.00000000000000     
     0.000000    1.998637    1.998637
     1.998637    0.000000    1.998637
     1.998637    1.998637    0.000000
   Pt
     1
Direct
  0.000000  0.000000  0.000000
 
   40   40   40
  139.74      139.62      138.90      136.66      131.79      123.40      111.27      96.005      78.960      61.866    
  46.373      33.635      24.093      17.500      13.126      10.131      8.1096      6.8103      6.0251      5.6094    
  5.4798      5.6094      6.0251      6.8103      8.1096      10.131      13.126      17.500      24.093      33.635    
  46.373      61.866      78.960      96.005      111.27      123.40      131.79      136.66      138.90      139.62    
  139.62      139.19      137.70      134.09      127.36      116.95      103.07      86.742      69.549      53.215    
  39.155      28.149      20.262      14.964      11.404      8.9558      7.3429      6.3336      5.7532      5.4898    
  5.4898      5.7532      6.3336      7.3429      8.9558      11.404      14.964      20.262      28.149      39.155    
  53.215      69.549      86.742      103.07      116.95      127.36      134.09      137.70      139.19      139.62    
  138.90      137.70      134.79      129.21      120.23      107.77      92.486      75.724      59.136      44.257    
  32.125      23.094      16.869      12.717      9.8505      7.9169      6.6723      5.9190      5.5193      5.3945    
  5.5193      5.9190      6.6724      7.9169      9.8505      12.717      16.869      23.094      32.125      44.257    
  59.136      75.724      92.486      107.77      120.23      129.21      134.79      137.70      138.90      139.19    
  136.66      134.09      129.21      121.30      110.10      95.982      80.017      63.683      48.509      35.678    
  25.775      18.738      13.998      10.749      8.5084      7.0301      6.1018      5.5659      5.3220      5.3220    
  5.5659      6.1018      7.0301      8.5084      10.749      13.998      18.738      25.775      35.678      48.509    
  63.683      80.017      95.982      110.10      121.30      129.21      134.09      136.66      137.70      137.70    
  131.79      127.36      120.23      110.10      97.153      82.211      66.536      51.552      38.482      28.062    
  20.426      15.180      11.597      9.0858      7.3900      6.2938      5.6261      5.2697      5.1580      5.2697    
  5.6261      6.2938      7.3900      9.0858      11.597      15.180      20.426      28.062      38.482      51.552    
  66.536      82.211      97.153      110.10      120.23      127.36      131.79      134.09      134.79      134.09    
  123.40      116.95      107.77      95.982      82.211      67.507      53.137      40.277      29.730      21.776    
  16.180      12.336      9.6119      7.7311      6.4840      5.6946      5.2346      5.0237      5.0237      5.2346    
  5.6946      6.4841      7.7311      9.6119      12.336      16.180      21.776      29.730      40.277      53.137    
  67.507      82.211      95.982      107.77      116.95      123.40      127.36      129.21      129.21      127.36    
  111.27      103.07      92.486      80.017      66.536      53.137      40.894      30.610      22.650      16.909    
  12.910      10.049      8.0298      6.6597      5.7650      5.2132      4.9154      4.8214      4.9154      5.2132    
  5.7650      6.6597      8.0298      10.049      12.910      16.909      22.650      30.610      40.894      53.137    
  66.536      80.017      92.486      103.07      111.27      116.95      120.23      121.30      120.23      116.95    
  96.005      86.742      75.724      63.683      51.552      40.277      30.610      22.952      17.294      13.275    
  10.362      8.2631      6.8070      5.8303      5.2021      4.8302      4.6576      4.6576      4.8302      5.2021    
  5.8303      6.8070      8.2631      10.362      13.275      17.294      22.952      30.610      40.277      51.552    
  63.683      75.724      86.742      96.005      103.07      107.77      110.10      110.10      107.77      103.07    
  78.960      69.549      59.136      48.509      38.482      29.730      22.650      17.294      13.400      10.525    
  8.4118      6.9135      5.8832      5.1976      4.7659      4.5287      4.4531      4.5287      4.7659      5.1976    
  5.8832      6.9135      8.4118      10.525      13.400      17.294      22.650      29.730      38.482      48.509    
  59.136      69.549      78.960      86.742      92.486      95.982      97.153      95.982      92.486      86.742    
  61.866      53.215      44.257      35.678      28.062      21.776      16.909      13.275      10.525      8.4629    
  6.9694      5.9177      5.1967      4.7211      4.4327      4.2966      4.2966      4.4327      4.7211      5.1967    
  5.9177      6.9694      8.4629      10.525      13.275      16.909      21.776      28.062      35.678      44.257    
  53.215      61.866      69.549      75.724      80.017      82.211      82.211      80.017      75.724      69.549    
  46.373      39.155      32.125      25.775      20.426      16.180      12.910      10.362      8.4118      6.9694    
  5.9297      5.1969      4.6946      4.3689      4.1855      4.1263      4.1855      4.3689      4.6946      5.1969    
  5.9297      6.9694      8.4118      10.362      12.910      16.180      20.426      25.775      32.125      39.155    
  46.373      53.215      59.136      63.683      66.536      67.507      66.536      63.683      59.136      53.215    
  33.635      28.149      23.094      18.738      15.180      12.336      10.049      8.2631      6.9135      5.9177    
  5.1969      4.6858      4.3369      4.1190      4.0140      4.0140      4.1190      4.3369      4.6858      5.1969    
  5.9177      6.9135      8.2631      10.049      12.336      15.180      18.738      23.094      28.149      33.635    
  39.155      44.257      48.509      51.552      53.137      53.137      51.552      48.509      44.257      39.155    
  24.093      20.262      16.869      13.998      11.597      9.6119      8.0298      6.8070      5.8832      5.1967    
  4.6946      4.3369      4.0968      3.9580      3.9126      3.9580      4.0968      4.3369      4.6946      5.1967    
  5.8832      6.8070      8.0298      9.6119      11.597      13.998      16.869      20.262      24.093      28.149    
  32.125      35.678      38.482      40.277      40.894      40.277      38.482      35.678      32.125      28.149    
  17.500      14.964      12.717      10.749      9.0858      7.7311      6.6597      5.8303      5.1976      4.7211    
  4.3689      4.1190      3.9580      3.8790      3.8790      3.9580      4.1190      4.3689      4.7211      5.1976    
  5.8303      6.6597      7.7311      9.0858      10.749      12.717      14.964      17.500      20.262      23.094    
  25.775      28.062      29.730      30.610      30.610      29.730      28.062      25.775      23.094      20.262    
  13.126      11.404      9.8505      8.5084      7.3900      6.4840      5.7650      5.2021      4.7659      4.4327    
  4.1855      4.0140      3.9126      3.8790      3.9126      4.0140      4.1855      4.4327      4.7659      5.2021    
  5.7650      6.4841      7.3900      8.5084      9.8505      11.404      13.126      14.964      16.869      18.738    
  20.426      21.776      22.650      22.952      22.650      21.776      20.426      18.738      16.869      14.964    
  10.131      8.9558      7.9169      7.0301      6.2938      5.6946      5.2132      4.8302      4.5287      4.2966    
  4.1263      4.0140      3.9580      3.9580      4.0140      4.1263      4.2966      4.5287      4.8302      5.2132    
  5.6946      6.2938      7.0301      7.9169      8.9558      10.131      11.404      12.717      13.998      15.180    
  16.180      16.909      17.294      17.294      16.909      16.180      15.180      13.998      12.717      11.404    
  8.1096      7.3429      6.6723      6.1018      5.6261      5.2346      4.9154      4.6576      4.4531      4.2966    
  4.1855      4.1190      4.0968      4.1190      4.1855      4.2966      4.4531      4.6576      4.9154      5.2346    
  5.6261      6.1018      6.6724      7.3429      8.1096      8.9558      9.8505      10.749      11.597      12.336    
  12.910      13.275      13.400      13.275      12.910      12.336      11.597      10.749      9.8505      8.9558    
  6.8103      6.3336      5.9190      5.5659      5.2697      5.0237      4.8214      4.6576      4.5287      4.4327    
  4.3689      4.3369      4.3369      4.3689      4.4327      4.5287      4.6576      4.8214      5.0237      5.2697    
  5.5659      5.9190      6.3336      6.8103      7.3429      7.9169      8.5084      9.0858      9.6119      10.049    
  10.362      10.525      10.525      10.362      10.049      9.6119      9.0858      8.5084      7.9169      7.3429    
  6.0251      5.7532      5.5193      5.3220      5.1580      5.0237      4.9154      4.8302      4.7659      4.7211    
  4.6946      4.6858      4.6946      4.7211      4.7659      4.8302      4.9154      5.0237      5.1580      5.3219    
  5.5193      5.7532      6.0251      6.3336      6.6724      7.0301      7.3900      7.7311      8.0298      8.2631    
  8.4118      8.4629      8.4118      8.2631      8.0298      7.7311      7.3900      7.0301      6.6724      6.3336    
  5.6094      5.4898      5.3945      5.3220      5.2697      5.2346      5.2132      5.2021      5.1976      5.1967    
  5.1969      5.1969      5.1967      5.1976      5.2021      5.2132      5.2346      5.2697      5.3219      5.3945    
  5.4898      5.6094      5.7532      5.9190      6.1018      6.2938      6.4841      6.6597      6.8070      6.9135    
  6.9694      6.9694      6.9135      6.8070      6.6597      6.4841      6.2938      6.1018      5.9190      5.7532    
  5.4798      5.4898      5.5193      5.5659      5.6261      5.6946      5.7650      5.8303      5.8832      5.9177    
  5.9297      5.9177      5.8832      5.8303      5.7650      5.6946      5.6261      5.5659      5.5193      5.4898    
  5.4798      5.4898      5.5193      5.5659      5.6261      5.6946      5.7650      5.8303      5.8832      5.9177    
  5.9297      5.9177      5.8832      5.8303      5.7650      5.6946      5.6261      5.5659      5.5193      5.4898    
  5.6094      5.7532      5.9190      6.1018      6.2938      6.4841      6.6597      6.8070      6.9135      6.9694    
  6.9694      6.9135      6.8070      6.6597      6.4841      6.2938      6.1018      5.9190      5.7532      5.6094    
  5.4898      5.3945      5.3219      5.2697      5.2346      5.2132      5.2021      5.1976      5.1967      5.1969    
  5.1969      5.1967      5.1976      5.2021      5.2132      5.2346      5.2697      5.3220      5.3945      5.4898    
  6.0251      6.3336      6.6724      7.0301      7.3900      7.7311      8.0298      8.2631      8.4118      8.4629    
  8.4118      8.2631      8.0298      7.7311      7.3900      7.0301      6.6724      6.3336      6.0251      5.7532    
  5.5193      5.3219      5.1580      5.0237      4.9154      4.8302      4.7659      4.7211      4.6946      4.6858    
  4.6946      4.7211      4.7659      4.8302      4.9154      5.0237      5.1580      5.3220      5.5193      5.7532    
  6.8103      7.3429      7.9169      8.5084      9.0858      9.6119      10.049      10.362      10.525      10.525    
  10.362      10.049      9.6119      9.0858      8.5084      7.9169      7.3429      6.8103      6.3336      5.9190    
  5.5659      5.2697      5.0237      4.8214      4.6576      4.5287      4.4327      4.3689      4.3369      4.3369    
  4.3689      4.4327      4.5287      4.6576      4.8214      5.0237      5.2697      5.5659      5.9190      6.3336    
  8.1096      8.9558      9.8505      10.749      11.597      12.336      12.910      13.275      13.400      13.275    
  12.910      12.336      11.597      10.749      9.8505      8.9558      8.1096      7.3429      6.6724      6.1018    
  5.6261      5.2346      4.9154      4.6576      4.4531      4.2966      4.1855      4.1190      4.0968      4.1190    
  4.1855      4.2966      4.4531      4.6576      4.9154      5.2346      5.6261      6.1018      6.6723      7.3429    
  10.131      11.404      12.717      13.998      15.180      16.180      16.909      17.294      17.294      16.909    
  16.180      15.180      13.998      12.717      11.404      10.131      8.9558      7.9169      7.0301      6.2938    
  5.6946      5.2132      4.8302      4.5287      4.2966      4.1263      4.0140      3.9580      3.9580      4.0140    
  4.1263      4.2966      4.5287      4.8302      5.2132      5.6946      6.2938      7.0301      7.9169      8.9558    
  13.126      14.964      16.869      18.738      20.426      21.776      22.650      22.952      22.650      21.776    
  20.426      18.738      16.869      14.964      13.126      11.404      9.8505      8.5084      7.3900      6.4841    
  5.7650      5.2021      4.7659      4.4327      4.1855      4.0140      3.9126      3.8790      3.9126      4.0140    
  4.1855      4.4327      4.7659      5.2021      5.7650      6.4840      7.3900      8.5084      9.8505      11.404    
  17.500      20.262      23.094      25.775      28.062      29.730      30.610      30.610      29.730      28.062    
  25.775      23.094      20.262      17.500      14.964      12.717      10.749      9.0858      7.7311      6.6597    
  5.8303      5.1976      4.7211      4.3689      4.1190      3.9580      3.8790      3.8790      3.9580      4.1190    
  4.3689      4.7211      5.1976      5.8303      6.6597      7.7311      9.0858      10.749      12.717      14.964    
  24.093      28.149      32.125      35.678      38.482      40.277      40.894      40.277      38.482      35.678    
  32.125      28.149      24.093      20.262      16.869      13.998      11.597      9.6119      8.0298      6.8070    
  5.8832      5.1967      4.6946      4.3369      4.0968      3.9580      3.9126      3.9580      4.0968      4.3369    
  4.6946      5.1967      5.8832      6.8070      8.0298      9.6119      11.597      13.998      16.869      20.262    
  33.635      39.155      44.257      48.509      51.552      53.137      53.137      51.552      48.509      44.257    
  39.155      33.635      28.149      23.094      18.738      15.180      12.336      10.049      8.2631      6.9135    
  5.9177      5.1969      4.6858      4.3369      4.1190      4.0140      4.0140      4.1190      4.3369      4.6858    
  5.1969      5.9177      6.9135      8.2631      10.049      12.336      15.180      18.738      23.094      28.149    
  46.373      53.215      59.136      63.683      66.536      67.507      66.536      63.683      59.136      53.215    
  46.373      39.155      32.125      25.775      20.426      16.180      12.910      10.362      8.4118      6.9694    
  5.9297      5.1969      4.6946      4.3689      4.1855      4.1263      4.1855      4.3689      4.6946      5.1969    
  5.9297      6.9694      8.4118      10.362      12.910      16.180      20.426      25.775      32.125      39.155    
  61.866      69.549      75.724      80.017      82.211      82.211      80.017      75.724      69.549      61.866    
  53.215      44.257      35.678      28.062      21.776      16.909      13.275      10.525      8.4629      6.9694    
  5.9177      5.1967      4.7211      4.4327      4.2966      4.2966      4.4327      4.7211      5.1967      5.9177    
  6.9694      8.4629      10.525      13.275      16.909      21.776      28.062      35.678      44.257      53.215    
  78.960      86.742      92.486      95.982      97.153      95.982      92.486      86.742      78.960      69.549    
  59.136      48.509      38.482      29.730      22.650      17.294      13.400      10.525      8.4118      6.9135    
  5.8832      5.1976      4.7659      4.5287      4.4531      4.5287      4.7659      5.1976      5.8832      6.9135    
  8.4118      10.525      13.400      17.294      22.650      29.730      38.482      48.509      59.136      69.549    
  96.005      103.07      107.77      110.10      110.10      107.77      103.07      96.005      86.742      75.724    
  63.683      51.552      40.277      30.610      22.952      17.294      13.275      10.362      8.2631      6.8070    
  5.8303      5.2021      4.8302      4.6576      4.6576      4.8302      5.2021      5.8303      6.8070      8.2631    
  10.362      13.275      17.294      22.952      30.610      40.277      51.552      63.683      75.724      86.742    
  111.27      116.95      120.23      121.30      120.23      116.95      111.27      103.07      92.486      80.017    
  66.536      53.137      40.894      30.610      22.650      16.909      12.910      10.049      8.0298      6.6597    
  5.7650      5.2132      4.9154      4.8214      4.9154      5.2132      5.7650      6.6597      8.0298      10.049    
  12.910      16.909      22.650      30.610      40.894      53.137      66.536      80.017      92.486      103.07    
  123.40      127.36      129.21      129.21      127.36      123.40      116.95      107.77      95.982      82.211    
  67.507      53.137      40.277      29.730      21.776      16.180      12.336      9.6119      7.7311      6.4841    
  5.6946      5.2346      5.0237      5.0237      5.2346      5.6946      6.4840      7.7311      9.6119      12.336    
  16.180      21.776      29.730      40.277      53.137      67.507      82.211      95.982      107.77      116.95    
  131.79      134.09      134.79      134.09      131.79      127.36      120.23      110.10      97.153      82.211    
  66.536      51.552      38.482      28.062      20.426      15.180      11.597      9.0858      7.3900      6.2938    
  5.6261      5.2697      5.1580      5.2697      5.6261      6.2938      7.3900      9.0858      11.597      15.180    
  20.426      28.062      38.482      51.552      66.536      82.211      97.153      110.10      120.23      127.36    
  136.66      137.70      137.70      136.66      134.09      129.21      121.30      110.10      95.982      80.017    
  63.683      48.509      35.678      25.775      18.738      13.998      10.749      8.5084      7.0301      6.1018    
  5.5659      5.3220      5.3220      5.5659      6.1018      7.0301      8.5084      10.749      13.998      18.738    
  25.775      35.678      48.509      63.683      80.017      95.982      110.10      121.30      129.21      134.09    
  138.90      139.19      138.90      137.70      134.79      129.21      120.23      107.77      92.486      75.724    
  59.136      44.257      32.125      23.094      16.869      12.717      9.8505      7.9169      6.6724      5.9190    
  5.5193      5.3945      5.5193      5.9190      6.6723      7.9169      9.8505      12.717      16.869      23.094    
  32.125      44.257      59.136      75.724      92.486      107.77      120.23      129.21      134.79      137.70    
  139.62      139.62      139.19      137.70      134.09      127.36      116.95      103.07      86.742      69.549    
  53.215      39.155      28.149      20.262      14.964      11.404      8.9558      7.3429      6.3336      5.7532    
  5.4898      5.4898      5.7532      6.3336      7.3429      8.9558      11.404      14.964      20.262      28.149    
  39.155      53.215      69.549      86.742      103.07      116.95      127.36      134.09      137.70      139.19    
  139.62      139.19      137.70      134.09      127.36      116.95      103.07      86.742      69.549      53.215    
  39.155      28.149      20.262      14.964      11.404      8.9558      7.3429      6.3336      5.7532      5.4898    
  5.4898      5.7532      6.3336      7.3429      8.9558      11.404      14.964      20.262      28.149      39.155    
  53.215      69.549      86.742      103.07      116.95      127.36      134.09      137.70      139.19      139.62    
  139.19      138.10      135.34      129.91      121.08      108.70      93.426      76.601      59.889      44.852    
  32.558      23.384      17.055      12.840      9.9367      7.9781      6.7178      5.9553      5.5510      5.4249    
  5.5510      5.9553      6.7178      7.9781      9.9367      12.840      17.055      23.384      32.558      44.852    
  59.889      76.601      93.426      108.70      121.08      129.91      135.34      138.10      139.19      139.45    
  137.70      135.34      130.71      123.03      111.99      97.910      81.844      65.289      49.813      36.654    
  26.450      19.176      14.280      10.945      8.6463      7.1299      6.1788      5.6303      5.3809      5.3809    
  5.6303      6.1788      7.1299      8.6463      10.945      14.280      19.176      26.450      36.654      49.813    
  65.289      81.844      97.910      111.99      123.03      130.71      135.34      137.70      138.62      138.62    
  134.09      129.91      123.03      113.06      100.15      85.053      69.061      53.640      40.082      29.196    
  21.177      15.661      11.925      9.3150      7.5531      6.4156      5.7241      5.3558      5.2405      5.3558    
  5.7241      6.4156      7.5531      9.3150      11.925      15.661      21.177      29.196      40.082      53.640    
  69.061      85.053      100.15      113.06      123.03      129.91      134.09      136.22      136.85      136.22    
  127.36      121.08      111.99      100.15      86.131      70.995      56.049      42.543      31.370      22.883    
  16.893      12.812      9.9447      7.9650      6.6545      5.8271      5.3464      5.1266      5.1266      5.3464    
  5.8271      6.6545      7.9650      9.9446      12.812      16.893      22.883      31.370      42.543      56.049    
  70.995      86.131      100.15      111.99      121.08      127.36      131.16      132.90      132.90      131.16    
  116.95      108.70      97.910      85.053      70.995      56.870      43.827      32.763      24.127      17.873    
  13.545      10.493      8.3396      6.8812      5.9321      5.3492      5.0358      4.9371      5.0358      5.3492    
  5.9321      6.8812      8.3396      10.493      13.545      17.873      24.127      32.763      43.827      56.870    
  70.995      85.053      97.910      108.70      116.95      122.60      125.84      126.89      125.84      122.60    
  103.07      93.426      81.844      69.061      56.049      43.827      33.243      24.783      18.504      14.072    
  10.918      8.6503      7.0800      6.0310      5.3601      4.9649      4.7823      4.7823      4.9649      5.3601    
  6.0310      7.0800      8.6503      10.918      14.072      18.504      24.783      33.243      43.827      56.049    
  69.061      81.844      93.426      103.07      110.36      115.18      117.55      117.55      115.18      110.36    
  86.742      76.601      65.289      53.640      42.543      32.763      24.783      18.722      14.348      11.188    
  8.8729      7.2355      6.1151      5.3745      4.9115      4.6586      4.5782      4.6586      4.9115      5.3745    
  6.1151      7.2355      8.8729      11.188      14.348      18.722      24.783      32.763      42.543      53.640    
  65.289      76.601      86.742      95.069      101.18      104.88      106.12      104.88      101.18      95.069    
  69.549      59.889      49.813      40.082      31.370      24.127      18.504      14.348      11.281      8.9891    
  7.3346      6.1764      5.3885      4.8734      4.5635      4.4181      4.4181      4.5635      4.8734      5.3885    
  6.1764      7.3346      8.9891      11.281      14.348      18.504      24.127      31.370      40.082      49.813    
  59.889      69.549      78.074      84.892      89.616      92.025      92.025      89.616      84.892      78.074    
  53.215      44.852      36.654      29.196      22.883      17.873      14.072      11.188      8.9891      7.3687    
  6.2087      5.3985      4.8489      4.4960      4.2989      4.2355      4.2989      4.4960      4.8489      5.3985    
  6.2087      7.3687      8.9891      11.188      14.072      17.873      22.882      29.196      36.654      44.852    
  53.215      61.097      67.885      73.082      76.334      77.440      76.334      73.082      67.885      61.097    
  39.155      32.558      26.450      21.177      16.893      13.545      10.918      8.8729      7.3346      6.2087    
  5.4021      4.8370      4.4556      4.2196      4.1067      4.1066      4.2196      4.4556      4.8370      5.4021    
  6.2087      7.3346      8.8729      10.918      13.545      16.893      21.177      26.450      32.558      39.155    
  45.760      51.841      56.891      60.497      62.372      62.372      60.497      56.891      51.841      45.760    
  28.149      23.384      19.176      15.661      12.812      10.493      8.6503      7.2355      6.1764      5.3985    
  4.8370      4.4421      4.1799      4.0296      3.9806      4.0296      4.1799      4.4421      4.8370      5.3985    
  6.1764      7.2355      8.6503      10.493      12.812      15.661      19.176      23.384      28.149      33.187    
  38.111      42.499      45.956      48.164      48.923      48.164      45.956      42.499      38.111      33.187    
  20.262      17.055      14.280      11.925      9.9447      8.3396      7.0800      6.1151      5.3885      4.8489    
  4.4556      4.1799      4.0040      3.9181      3.9181      4.0040      4.1799      4.4556      4.8489      5.3885    
  6.1151      7.0800      8.3396      9.9447      11.925      14.280      17.055      20.262      23.791      27.420    
  30.857      33.787      35.923      37.048      37.048      35.923      33.787      30.857      27.420      23.791    
  14.964      12.840      10.945      9.3150      7.9650      6.8812      6.0310      5.3745      4.8734      4.4960    
  4.2196      4.0296      3.9181      3.8812      3.9181      4.0296      4.2196      4.4960      4.8734      5.3745    
  6.0310      6.8812      7.9650      9.3150      10.945      12.840      14.964      17.307      19.787      22.246    
  24.479      26.268      27.426      27.827      27.426      26.268      24.479      22.246      19.787      17.307    
  11.404      9.9367      8.6463      7.5531      6.6545      5.9321      5.3601      4.9115      4.5635      4.2989    
  4.1067      3.9806      3.9181      3.9181      3.9806      4.1067      4.2989      4.5635      4.9115      5.3601    
  5.9321      6.6545      7.5531      8.6463      9.9368      11.404      12.999      14.660      16.327      17.900    
  19.247      20.237      20.761      20.761      20.237      19.247      17.900      16.327      14.660      12.999    
  8.9558      7.9781      7.1299      6.4156      5.8271      5.3492      4.9649      4.6586      4.4181      4.2355    
  4.1066      4.0296      4.0040      4.0296      4.1067      4.2355      4.4181      4.6586      4.9649      5.3492    
  5.8271      6.4156      7.1299      7.9781      8.9558      10.041      11.194      12.356      13.454      14.421    
  15.185      15.677      15.847      15.677      15.185      14.421      13.454      12.356      11.194      10.041    
  7.3429      6.7178      6.1788      5.7241      5.3464      5.0358      4.7823      4.5782      4.4181      4.2989    
  4.2196      4.1799      4.1799      4.2196      4.2989      4.4181      4.5782      4.7823      5.0358      5.3464    
  5.7241      6.1788      6.7178      7.3429      8.0463      8.8086      9.5976      10.370      11.075      11.661    
  12.081      12.301      12.301      12.081      11.661      11.075      10.370      9.5976      8.8086      8.0463    
  6.3336      5.9553      5.6303      5.3558      5.1266      4.9371      4.7823      4.6586      4.5635      4.4960    
  4.4556      4.4421      4.4556      4.4960      4.5635      4.6586      4.7823      4.9371      5.1266      5.3557    
  5.6303      5.9553      6.3336      6.7634      7.2366      7.7373      8.2421      8.7210      9.1408      9.4690    
  9.6781      9.7500      9.6781      9.4690      9.1408      8.7210      8.2421      7.7373      7.2366      6.7634    
  5.7532      5.5510      5.3809      5.2405      5.1266      5.0358      4.9649      4.9115      4.8734      4.8489    
  4.8370      4.8370      4.8489      4.8734      4.9115      4.9649      5.0358      5.1266      5.2405      5.3809    
  5.5510      5.7532      5.9877      6.2519      6.5388      6.8369      7.1302      7.3996      7.6248      7.7872    
  7.8724      7.8724      7.7872      7.6248      7.3996      7.1302      6.8369      6.5388      6.2519      5.9877    
  5.4898      5.4249      5.3809      5.3558      5.3464      5.3492      5.3601      5.3745      5.3885      5.3985    
  5.4021      5.3985      5.3885      5.3745      5.3601      5.3492      5.3464      5.3557      5.3809      5.4249    
  5.4898      5.5767      5.6850      5.8120      5.9526      6.0990      6.2416      6.3691      6.4702      6.5353    
  6.5578      6.5353      6.4702      6.3691      6.2416      6.0990      5.9526      5.8120      5.6850      5.5767    
  5.4898      5.5510      5.6303      5.7241      5.8271      5.9321      6.0310      6.1151      6.1764      6.2087    
  6.2087      6.1764      6.1151      6.0310      5.9321      5.8271      5.7241      5.6303      5.5510      5.4898    
  5.4486      5.4276      5.4257      5.4407      5.4687      5.5052      5.5447      5.5811      5.6091      5.6242    
  5.6242      5.6091      5.5811      5.5447      5.5052      5.4687      5.4407      5.4257      5.4276      5.4486    
  5.7532      5.9553      6.1788      6.4156      6.6545      6.8812      7.0800      7.2355      7.3346      7.3687    