Pt-fcc                                  
   1.00000000000000     
     0.000000    1.998637    1.998637
     1.998637    0.000000    1.998637
     1.998637    1.998637    0.000000
   Pt
     1
Direct
  0.000000  0.000000  0.000000
 
   40   40   40
 0.13974115842E+03 0.13961778652E+03 0.13889746336E+03 0.13666335805E+03 0.13178931073E+03
 0.12339961142E+03 0.11126792983E+03 0.96005193054E+02 0.78959964821E+02 0.61866130479E+02
 0.46373177774E+02 0.33634849864E+02 0.24093064442E+02 0.17500151165E+02 0.13126133953E+02
 0.10130617264E+02 0.81095642614E+01 0.68102585835E+01 0.60251406933E+01 0.56093779950E+01
 0.54797652575E+01 0.56093779950E+01 0.60251406933E+01 0.68102585835E+01 0.81095642614E+01
 0.10130617264E+02 0.13126133953E+02 0.17500151165E+02 0.24093064442E+02 0.33634849864E+02
 0.46373177774E+02 0.61866130479E+02 0.78959964821E+02 0.96005193054E+02 0.11126792983E+03
 0.12339961142E+03 0.13178931073E+03 0.13666335805E+03 0.13889746336E+03 0.13961778652E+03
 0.13961778652E+03 0.13919361701E+03 0.13769910172E+03 0.13409358939E+03 0.12736085169E+03
 0.11694912593E+03 0.10307046305E+03 0.86742070644E+02 0.69548634508E+02 0.53215339999E+02
 0.39154643364E+02 0.28149211902E+02 0.20262020331E+02 0.14964118399E+02 0.11403877450E+02
 0.89557579784E+01 0.73429009114E+01 0.63335665578E+01 0.57531574171E+01 0.54898192705E+01
 0.54898199833E+01 0.57531592046E+01 0.63335685132E+01 0.73429020193E+01 0.89557575891E+01
 0.11403875639E+02 0.14964115958E+02 0.20262018447E+02 0.28149211549E+02 0.39154644746E+02
 0.53215342203E+02 0.69548635633E+02 0.86742068338E+02 0.10307045536E+03 0.11694911216E+03
 0.12736083287E+03 0.13409356834E+03 0.13769908236E+03 0.13919360334E+03 0.13961778159E+03
 0.13889746336E+03 0.13769910172E+03 0.13479305951E+03 0.12920898831E+03 0.12023324362E+03
 0.10776752938E+03 0.92485934940E+02 0.75723688878E+02 0.59135990385E+02 0.44257284532E+02
 0.32125255902E+02 0.23093694488E+02 0.16869057888E+02 0.12716567407E+02 0.98504803688E+01
 0.79168729042E+01 0.66723473750E+01 0.59189542896E+01 0.55192599166E+01 0.53945139365E+01
 0.55192623018E+01 0.59189578688E+01 0.66723503214E+01 0.79168736263E+01 0.98504782967E+01
 0.12716563341E+02 0.16869053705E+02 0.23093692295E+02 0.32125256934E+02 0.44257288315E+02
 0.59135994477E+02 0.75723689462E+02 0.92485928052E+02 0.10776751246E+03 0.12023321676E+03
 0.12920895473E+03 0.13479302505E+03 0.13769907338E+03 0.13889744736E+03 0.13919360334E+03
 0.13666335805E+03 0.13409358939E+03 0.12920898831E+03 0.12130090363E+03 0.11009528759E+03
 0.95982285691E+02 0.80016985104E+02 0.63683375144E+02 0.48509257493E+02 0.35677997573E+02
 0.25774854496E+02 0.18738149699E+02 0.13997521411E+02 0.10749113527E+02 0.85084364959E+01
 0.70300862095E+01 0.61018255519E+01 0.55659001542E+01 0.53219558731E+01 0.53219574404E+01
 0.55659040807E+01 0.61018298750E+01 0.70300886869E+01 0.85084356864E+01 0.10749109531E+02
 0.13997515945E+02 0.18738145385E+02 0.25774853664E+02 0.35678001001E+02 0.48509263670E+02
 0.63683380395E+02 0.80016984676E+02 0.95982275424E+02 0.11009526565E+03 0.12130087160E+03
 0.12920895123E+03 0.13409355463E+03 0.13666333328E+03 0.13769907338E+03 0.13769908236E+03
 0.13178931073E+03 0.12736085169E+03 0.12023324362E+03 0.11009528759E+03 0.97153192878E+02
 0.82211023816E+02 0.66535775829E+02 0.51552201198E+02 0.38482245970E+02 0.28061848049E+02
 0.20426355852E+02 0.15179656370E+02 0.11597079639E+02 0.90857950616E+01 0.73900328841E+01
 0.62937985603E+01 0.56260501804E+01 0.52696612162E+01 0.51580179385E+01 0.52696641154E+01
 0.56260545635E+01 0.62938022409E+01 0.73900339166E+01 0.90857926817E+01 0.11597074716E+02
 0.15179651136E+02 0.20426352975E+02 0.28061849415E+02 0.38482251647E+02 0.51552209052E+02
 0.66535782018E+02 0.82211024019E+02 0.97153183935E+02 0.11009526884E+03 0.12023321751E+03
 0.12736082344E+03 0.13178928681E+03 0.13409355463E+03 0.13479302505E+03 0.13409356834E+03
 0.12339961142E+03 0.11694912593E+03 0.10776752938E+03 0.95982285691E+02 0.82211023816E+02
 0.67506689136E+02 0.53136817746E+02 0.40276611252E+02 0.29730108884E+02 0.21776396418E+02
 0.16179678668E+02 0.12335820853E+02 0.96119024853E+01 0.77310747106E+01 0.64840491220E+01
 0.56945527569E+01 0.52345565407E+01 0.50236627924E+01 0.50236640327E+01 0.52345596852E+01
 0.56945563106E+01 0.64840513533E+01 0.77310744216E+01 0.96118996176E+01 0.12335816594E+02
 0.16179675060E+02 0.21776395527E+02 0.29730111930E+02 0.40276617970E+02 0.53136826314E+02
 0.67506696721E+02 0.82211027510E+02 0.95982283633E+02 0.10776752148E+03 0.11694911407E+03
 0.12339959892E+03 0.12736082344E+03 0.12920895123E+03 0.12920895473E+03 0.12736083287E+03
 0.11126792983E+03 0.10307046305E+03 0.92485934940E+02 0.80016985104E+02 0.66535775829E+02
 0.53136817746E+02 0.40893838001E+02 0.30609719394E+02 0.22649649748E+02 0.16908871655E+02
 0.12910020465E+02 0.10048654544E+02 0.80297667784E+01 0.66596706177E+01 0.57650049864E+01
 0.52132244867E+01 0.49153518950E+01 0.48213951773E+01 0.49153532982E+01 0.52132266968E+01
 0.57650070508E+01 0.66596716197E+01 0.80297662271E+01 0.10048652619E+02 0.12910018004E+02
 0.16908869910E+02 0.22649649970E+02 0.30609722413E+02 0.40893843941E+02 0.53136825960E+02
 0.66535785156E+02 0.80016994167E+02 0.92485942606E+02 0.10307046871E+03 0.11126793343E+03
 0.11694911407E+03 0.12023321751E+03 0.12130087160E+03 0.12023321676E+03 0.11694911216E+03
 0.96005193054E+02 0.86742070644E+02 0.75723688878E+02 0.63683375144E+02 0.51552201198E+02
 0.40276611252E+02 0.30609719394E+02 0.22951841886E+02 0.17294031612E+02 0.13275051821E+02
 0.10361735558E+02 0.82631454759E+01 0.68070263803E+01 0.58302572765E+01 0.52020867145E+01
 0.48301775134E+01 0.46575938114E+01 0.46575939814E+01 0.48301779960E+01 0.52020874464E+01
 0.58302581091E+01 0.68070271036E+01 0.82631458292E+01 0.10361735358E+02 0.13275051057E+02
 0.17294030596E+02 0.22951841280E+02 0.30609720158E+02 0.40276614464E+02 0.51552207705E+02
 0.63683385314E+02 0.75723702302E+02 0.86742086066E+02 0.96005208561E+02 0.10307046871E+03
 0.10776752148E+03 0.11009526884E+03 0.11009526565E+03 0.10776751246E+03 0.10307045536E+03
 0.78959964821E+02 0.69548634508E+02 0.59135990385E+02 0.48509257493E+02 0.38482245970E+02
 0.29730108884E+02 0.22649649748E+02 0.17294031612E+02 0.13400465307E+02 0.10525237865E+02
 0.84118460698E+01 0.69135118958E+01 0.58832002472E+01 0.51976240300E+01 0.47659466740E+01
 0.45286973731E+01 0.44530756292E+01 0.45286967143E+01 0.47659457896E+01 0.51976235542E+01
 0.58832006621E+01 0.69135132255E+01 0.84118477718E+01 0.10525239017E+02 0.13400465016E+02
 0.17294029503E+02 0.22649646349E+02 0.29730105620E+02 0.38482244917E+02 0.48509260631E+02
 0.59135998940E+02 0.69548648328E+02 0.78959982125E+02 0.86742086066E+02 0.92485942606E+02
 0.95982283633E+02 0.97153183935E+02 0.95982275424E+02 0.92485928052E+02 0.86742068338E+02
 0.61866130479E+02 0.53215339999E+02 0.44257284532E+02 0.35677997573E+02 0.28061848049E+02
 0.21776396418E+02 0.16908871655E+02 0.13275051821E+02 0.10525237865E+02 0.84629289077E+01
 0.69694043919E+01 0.59177366644E+01 0.51966870128E+01 0.47210997224E+01 0.44327326310E+01
 0.42966026425E+01 0.42966018954E+01 0.44327307905E+01 0.47210977690E+01 0.51966860583E+01
 0.59177373534E+01 0.69694065435E+01 0.84629314466E+01 0.10525239219E+02 0.13275050558E+02
 0.16908867152E+02 0.21776389342E+02 0.28061840233E+02 0.35677991620E+02 0.44257282854E+02
 0.53215343945E+02 0.61866139802E+02 0.69548648328E+02 0.75723702302E+02 0.80016994167E+02
 0.82211027510E+02 0.82211024019E+02 0.80016984676E+02 0.75723689462E+02 0.69548635633E+02
 0.46373177774E+02 0.39154643364E+02 0.32125255902E+02 0.25774854496E+02 0.20426355852E+02
 0.16179678668E+02 0.12910020465E+02 0.10361735558E+02 0.84118460698E+01 0.69694043919E+01
 0.59297363107E+01 0.51968723186E+01 0.46945941713E+01 0.43688775915E+01 0.41855464429E+01
 0.41263258829E+01 0.41855446984E+01 0.43688749264E+01 0.46945918670E+01 0.51968715174E+01
 0.59297374594E+01 0.69694069356E+01 0.84118485864E+01 0.10361736212E+02 0.12910017776E+02
 0.16179672035E+02 0.20426346034E+02 0.25774843299E+02 0.32125245746E+02 0.39154636457E+02
 0.46373175291E+02 0.53215343945E+02 0.59135998940E+02 0.63683385314E+02 0.66535785156E+02
 0.67506696721E+02 0.66535782018E+02 0.63683380395E+02 0.59135994477E+02 0.53215342203E+02
 0.33634849864E+02 0.28149211902E+02 0.23093694488E+02 0.18738149699E+02 0.15179656370E+02
 0.12335820853E+02 0.10048654544E+02 0.82631454759E+01 0.69135118958E+01 0.59177366644E+01
 0.51968723186E+01 0.46858254316E+01 0.43369410630E+01 0.41189801317E+01 0.40139824874E+01
 0.40139815941E+01 0.41189778323E+01 0.43369383387E+01 0.46858234561E+01 0.51968719531E+01
 0.59177380626E+01 0.69135143426E+01 0.82631476090E+01 0.10048654729E+02 0.12335817846E+02
 0.15179649618E+02 0.18738139687E+02 0.23093682528E+02 0.28149199678E+02 0.33634839066E+02
 0.39154636457E+02 0.44257282854E+02 0.48509260631E+02 0.51552207705E+02 0.53136825960E+02
 0.53136826314E+02 0.51552209052E+02 0.48509263670E+02 0.44257288315E+02 0.39154644746E+02
 0.24093064442E+02 0.20262020331E+02 0.16869057888E+02 0.13997521411E+02 0.11597079639E+02
 0.96119024853E+01 0.80297667784E+01 0.68070263803E+01 0.58832002472E+01 0.51966870128E+01
 0.46945941713E+01 0.43369410630E+01 0.40967795893E+01 0.39580229923E+01 0.39125734463E+01
 0.39580217343E+01 0.40967775476E+01 0.43369390132E+01 0.46945929262E+01 0.51966871030E+01
 0.58832017445E+01 0.68070287700E+01 0.80297691522E+01 0.96119036590E+01 0.11597078598E+02
 0.13997517469E+02 0.16869050872E+02 0.20262010750E+02 0.24093053131E+02 0.28149199678E+02
 0.32125245746E+02 0.35677991620E+02 0.38482244917E+02 0.40276614464E+02 0.40893843941E+02
 0.40276617970E+02 0.38482251647E+02 0.35678001001E+02 0.32125256934E+02 0.28149211549E+02
 0.17500151165E+02 0.14964118399E+02 0.12716567407E+02 0.10749113527E+02 0.90857950616E+01
 0.77310747106E+01 0.66596706177E+01 0.58302572765E+01 0.51976240300E+01 0.47210997224E+01
 0.43688775915E+01 0.41189801317E+01 0.39580229923E+01 0.38789743775E+01 0.38789740879E+01
 0.39580221959E+01 0.41189790672E+01 0.43688766119E+01 0.47210992676E+01 0.51976245002E+01
 0.58302589597E+01 0.66596735043E+01 0.77310784795E+01 0.90857989978E+01 0.10749116622E+02
 0.12716568660E+02 0.14964116844E+02 0.17500146408E+02 0.20262010750E+02 0.23093682528E+02
 0.25774843299E+02 0.28061840233E+02 0.29730105620E+02 0.30609720158E+02 0.30609722413E+02
 0.29730111930E+02 0.28061849415E+02 0.25774853664E+02 0.23093692295E+02 0.20262018447E+02
 0.13126133953E+02 0.11403877450E+02 0.98504803688E+01 0.85084364959E+01 0.73900328841E+01
 0.64840491220E+01 0.57650049864E+01 0.52020867145E+01 0.47659466740E+01 0.44327326310E+01
 0.41855464429E+01 0.40139824874E+01 0.39125734463E+01 0.38789740879E+01 0.39125736582E+01
 0.40139827613E+01 0.41855465936E+01 0.44327326125E+01 0.47659467305E+01 0.52020873765E+01
 0.57650069589E+01 0.64840529725E+01 0.73900387731E+01 0.85084439876E+01 0.98504883205E+01
 0.11403884397E+02 0.13126138421E+02 0.14964116844E+02 0.16869050872E+02 0.18738139687E+02
 0.20426346034E+02 0.21776389342E+02 0.22649646349E+02 0.22951841280E+02 0.22649649970E+02
 0.21776395527E+02 0.20426352975E+02 0.18738145385E+02 0.16869053705E+02 0.14964115958E+02
 0.10130617264E+02 0.89557579784E+01 0.79168729042E+01 0.70300862095E+01 0.62937985603E+01
 0.56945527569E+01 0.52132244867E+01 0.48301775134E+01 0.45286973731E+01 0.42966026425E+01
 0.41263258829E+01 0.40139815941E+01 0.39580217343E+01 0.39580221959E+01 0.40139827613E+01
 0.41263272112E+01 0.42966035643E+01 0.45286976194E+01 0.48301773699E+01 0.52132247672E+01
 0.56945546015E+01 0.62938029756E+01 0.70300936271E+01 0.79168829512E+01 0.89557693925E+01
 0.10130628228E+02 0.11403884397E+02 0.12716568660E+02 0.13997517469E+02 0.15179649618E+02
 0.16179672035E+02 0.16908867152E+02 0.17294029503E+02 0.17294030596E+02 0.16908869910E+02
 0.16179675060E+02 0.15179651136E+02 0.13997515945E+02 0.12716563341E+02 0.11403875639E+02
 0.81095642614E+01 0.73429009114E+01 0.66723473750E+01 0.61018255519E+01 0.56260501804E+01
 0.52345565407E+01 0.49153518950E+01 0.46575938114E+01 0.44530756292E+01 0.42966018954E+01
 0.41855446984E+01 0.41189778323E+01 0.40967775476E+01 0.41189790672E+01 0.41855465936E+01
 0.42966035643E+01 0.44530762985E+01 0.46575932091E+01 0.49153504902E+01 0.52345554327E+01
 0.56260507804E+01 0.61018290805E+01 0.66723543429E+01 0.73429109331E+01 0.81095760744E+01
 0.89557693925E+01 0.98504883205E+01 0.10749116622E+02 0.11597078598E+02 0.12335817846E+02
 0.12910017776E+02 0.13275050558E+02 0.13400465016E+02 0.13275051057E+02 0.12910018004E+02
 0.12335816594E+02 0.11597074716E+02 0.10749109531E+02 0.98504782967E+01 0.89557575891E+01
 0.68102585835E+01 0.63335665578E+01 0.59189542896E+01 0.55659001542E+01 0.52696612162E+01
 0.50236627924E+01 0.48213951773E+01 0.46575939814E+01 0.45286967143E+01 0.44327307905E+01
 0.43688749264E+01 0.43369383387E+01 0.43369390132E+01 0.43688766119E+01 0.44327326125E+01
 0.45286976194E+01 0.46575932091E+01 0.48213925954E+01 0.50236590591E+01 0.52696575926E+01
 0.55658981069E+01 0.59189550414E+01 0.63335706181E+01 0.68102656069E+01 0.73429109331E+01
 0.79168829512E+01 0.85084439876E+01 0.90857989978E+01 0.96119036590E+01 0.10048654729E+02
 0.10361736212E+02 0.10525239219E+02 0.10525239017E+02 0.10361735358E+02 0.10048652619E+02
 0.96118996176E+01 0.90857926817E+01 0.85084356864E+01 0.79168736263E+01 0.73429020193E+01
 0.60251406933E+01 0.57531574171E+01 0.55192599166E+01 0.53219558731E+01 0.51580179385E+01
 0.50236640327E+01 0.49153532982E+01 0.48301779960E+01 0.47659457896E+01 0.47210977690E+01
 0.46945918670E+01 0.46858234561E+01 0.46945929262E+01 0.47210992676E+01 0.47659467305E+01
 0.48301773699E+01 0.49153504902E+01 0.50236590591E+01 0.51580115160E+01 0.53219492259E+01
 0.55192543878E+01 0.57531541188E+01 0.60251401711E+01 0.63335706181E+01 0.66723543429E+01
 0.70300936271E+01 0.73900387731E+01 0.77310784795E+01 0.80297691522E+01 0.82631476090E+01
 0.84118485864E+01 0.84629314466E+01 0.84118477718E+01 0.82631458292E+01 0.80297662271E+01
 0.77310744216E+01 0.73900339166E+01 0.70300886869E+01 0.66723503214E+01 0.63335685132E+01
 0.56093779950E+01 0.54898192705E+01 0.53945139365E+01 0.53219574404E+01 0.52696641154E+01
 0.52345596852E+01 0.52132266968E+01 0.52020874464E+01 0.51976235542E+01 0.51966860583E+01
 0.51968715174E+01 0.51968719531E+01 0.51966871030E+01 0.51976245002E+01 0.52020873765E+01
 0.52132247672E+01 0.52345554327E+01 0.52696575926E+01 0.53219492259E+01 0.53945050169E+01
 0.54898107501E+01 0.56093708610E+01 0.57531541188E+01 0.59189550414E+01 0.61018290805E+01
 0.62938029756E+01 0.64840529725E+01 0.66596735043E+01 0.68070287700E+01 0.69135143426E+01
 0.69694069356E+01 0.69694065435E+01 0.69135132255E+01 0.68070271036E+01 0.66596716197E+01
 0.64840513533E+01 0.62938022409E+01 0.61018298750E+01 0.59189578688E+01 0.57531592046E+01
 0.54797652575E+01 0.54898199833E+01 0.55192623018E+01 0.55659040807E+01 0.56260545635E+01
 0.56945563106E+01 0.57650070508E+01 0.58302581091E+01 0.58832006621E+01 0.59177373534E+01
 0.59297374594E+01 0.59177380626E+01 0.58832017445E+01 0.58302589597E+01 0.57650069589E+01
 0.56945546015E+01 0.56260507804E+01 0.55658981069E+01 0.55192543878E+01 0.54898107501E+01
 0.54797555599E+01 0.54898107501E+01 0.55192543878E+01 0.55658981069E+01 0.56260507804E+01
 0.56945546015E+01 0.57650069589E+01 0.58302589597E+01 0.58832017445E+01 0.59177380626E+01
 0.59297374594E+01 0.59177373534E+01 0.58832006621E+01 0.58302581091E+01 0.57650070508E+01
 0.56945563106E+01 0.56260545635E+01 0.55659040807E+01 0.55192623018E+01 0.54898199833E+01
 0.56093779950E+01 0.57531592046E+01 0.59189578688E+01 0.61018298750E+01 0.62938022409E+01
 0.64840513533E+01 0.66596716197E+01 0.68070271036E+01 0.69135132255E+01 0.69694065435E+01
 0.69694069356E+01 0.69135143426E+01 0.68070287700E+01 0.66596735043E+01 0.64840529725E+01
 0.62938029756E+01 0.61018290805E+01 0.59189550414E+01 0.57531541188E+01 0.56093708610E+01
 0.54898107501E+01 0.53945050169E+01 0.53219492259E+01 0.52696575926E+01 0.52345554327E+01
 0.52132247672E+01 0.52020873765E+01 0.51976245002E+01 0.51966871030E+01 0.51968719531E+01
 0.51968715174E+01 0.51966860583E+01 0.51976235542E+01 0.52020874464E+01 0.52132266968E+01
 0.52345596852E+01 0.52696641154E+01 0.53219574404E+01 0.53945139365E+01 0.54898192705E+01
 0.60251406933E+01 0.63335685132E+01 0.66723503214E+01 0.70300886869E+01 0.73900339166E+01
 0.77310744216E+01 0.80297662271E+01 0.82631458292E+01 0.84118477718E+01 0.84629314466E+01
 0.84118485864E+01 0.82631476090E+01 0.80297691522E+01 0.77310784795E+01 0.73900387731E+01
 0.70300936271E+01 0.66723543429E+01 0.63335706181E+01 0.60251401711E+01 0.57531541188E+01
 0.55192543878E+01 0.53219492259E+01 0.51580115160E+01 0.50236590591E+01 0.49153504902E+01
 0.48301773699E+01 0.47659467305E+01 0.47210992676E+01 0.46945929262E+01 0.46858234561E+01
 0.46945918670E+01 0.47210977690E+01 0.47659457896E+01 0.48301779960E+01 0.49153532982E+01
 0.50236640327E+01 0.51580179385E+01 0.53219558731E+01 0.55192599166E+01 0.57531574171E+01
 0.68102585835E+01 0.73429020193E+01 0.79168736263E+01 0.85084356864E+01 0.90857926817E+01
 0.96118996176E+01 0.10048652619E+02 0.10361735358E+02 0.10525239017E+02 0.10525239219E+02
 0.10361736212E+02 0.10048654729E+02 0.96119036590E+01 0.90857989978E+01 0.85084439876E+01
 0.79168829512E+01 0.73429109331E+01 0.68102656069E+01 0.63335706181E+01 0.59189550414E+01
 0.55658981069E+01 0.52696575926E+01 0.50236590591E+01 0.48213925954E+01 0.46575932091E+01
 0.45286976194E+01 0.44327326125E+01 0.43688766119E+01 0.43369390132E+01 0.43369383387E+01
 0.43688749264E+01 0.44327307905E+01 0.45286967143E+01 0.46575939814E+01 0.48213951773E+01
 0.50236627924E+01 0.52696612162E+01 0.55659001542E+01 0.59189542896E+01 0.63335665578E+01
 0.81095642614E+01 0.89557575891E+01 0.98504782967E+01 0.10749109531E+02 0.11597074716E+02
 0.12335816594E+02 0.12910018004E+02 0.13275051057E+02 0.13400465016E+02 0.13275050558E+02
 0.12910017776E+02 0.12335817846E+02 0.11597078598E+02 0.10749116622E+02 0.98504883205E+01
 0.89557693925E+01 0.81095760744E+01 0.73429109331E+01 0.66723543429E+01 0.61018290805E+01
 0.56260507804E+01 0.52345554327E+01 0.49153504902E+01 0.46575932091E+01 0.44530762985E+01
 0.42966035643E+01 0.41855465936E+01 0.41189790672E+01 0.40967775476E+01 0.41189778323E+01
 0.41855446984E+01 0.42966018954E+01 0.44530756292E+01 0.46575938114E+01 0.49153518950E+01
 0.52345565407E+01 0.56260501804E+01 0.61018255519E+01 0.66723473750E+01 0.73429009114E+01
 0.10130617264E+02 0.11403875639E+02 0.12716563341E+02 0.13997515945E+02 0.15179651136E+02
 0.16179675060E+02 0.16908869910E+02 0.17294030596E+02 0.17294029503E+02 0.16908867152E+02
 0.16179672035E+02 0.15179649618E+02 0.13997517469E+02 0.12716568660E+02 0.11403884397E+02
 0.10130628228E+02 0.89557693925E+01 0.79168829512E+01 0.70300936271E+01 0.62938029756E+01
 0.56945546015E+01 0.52132247672E+01 0.48301773699E+01 0.45286976194E+01 0.42966035643E+01
 0.41263272112E+01 0.40139827613E+01 0.39580221959E+01 0.39580217343E+01 0.40139815941E+01
 0.41263258829E+01 0.42966026425E+01 0.45286973731E+01 0.48301775134E+01 0.52132244867E+01
 0.56945527569E+01 0.62937985603E+01 0.70300862095E+01 0.79168729042E+01 0.89557579784E+01
 0.13126133953E+02 0.14964115958E+02 0.16869053705E+02 0.18738145385E+02 0.20426352975E+02
 0.21776395527E+02 0.22649649970E+02 0.22951841280E+02 0.22649646349E+02 0.21776389342E+02
 0.20426346034E+02 0.18738139687E+02 0.16869050872E+02 0.14964116844E+02 0.13126138421E+02
 0.11403884397E+02 0.98504883205E+01 0.85084439876E+01 0.73900387731E+01 0.64840529725E+01
 0.57650069589E+01 0.52020873765E+01 0.47659467305E+01 0.44327326125E+01 0.41855465936E+01
 0.40139827613E+01 0.39125736582E+01 0.38789740879E+01 0.39125734463E+01 0.40139824874E+01
 0.41855464429E+01 0.44327326310E+01 0.47659466740E+01 0.52020867145E+01 0.57650049864E+01
 0.64840491220E+01 0.73900328841E+01 0.85084364959E+01 0.98504803688E+01 0.11403877450E+02
 0.17500151165E+02 0.20262018447E+02 0.23093692295E+02 0.25774853664E+02 0.28061849415E+02
 0.29730111930E+02 0.30609722413E+02 0.30609720158E+02 0.29730105620E+02 0.28061840233E+02
 0.25774843299E+02 0.23093682528E+02 0.20262010750E+02 0.17500146408E+02 0.14964116844E+02
 0.12716568660E+02 0.10749116622E+02 0.90857989978E+01 0.77310784795E+01 0.66596735043E+01
 0.58302589597E+01 0.51976245002E+01 0.47210992676E+01 0.43688766119E+01 0.41189790672E+01
 0.39580221959E+01 0.38789740879E+01 0.38789743775E+01 0.39580229923E+01 0.41189801317E+01
 0.43688775915E+01 0.47210997224E+01 0.51976240300E+01 0.58302572765E+01 0.66596706177E+01
 0.77310747106E+01 0.90857950616E+01 0.10749113527E+02 0.12716567407E+02 0.14964118399E+02
 0.24093064442E+02 0.28149211549E+02 0.32125256934E+02 0.35678001001E+02 0.38482251647E+02
 0.40276617970E+02 0.40893843941E+02 0.40276614464E+02 0.38482244917E+02 0.35677991620E+02
 0.32125245746E+02 0.28149199678E+02 0.24093053131E+02 0.20262010750E+02 0.16869050872E+02
 0.13997517469E+02 0.11597078598E+02 0.96119036590E+01 0.80297691522E+01 0.68070287700E+01
 0.58832017445E+01 0.51966871030E+01 0.46945929262E+01 0.43369390132E+01 0.40967775476E+01
 0.39580217343E+01 0.39125734463E+01 0.39580229923E+01 0.40967795893E+01 0.43369410630E+01
 0.46945941713E+01 0.51966870128E+01 0.58832002472E+01 0.68070263803E+01 0.80297667784E+01
 0.96119024853E+01 0.11597079639E+02 0.13997521411E+02 0.16869057888E+02 0.20262020331E+02
 0.33634849864E+02 0.39154644746E+02 0.44257288315E+02 0.48509263670E+02 0.51552209052E+02
 0.53136826314E+02 0.53136825960E+02 0.51552207705E+02 0.48509260631E+02 0.44257282854E+02
 0.39154636457E+02 0.33634839066E+02 0.28149199678E+02 0.23093682528E+02 0.18738139687E+02
 0.15179649618E+02 0.12335817846E+02 0.10048654729E+02 0.82631476090E+01 0.69135143426E+01
 0.59177380626E+01 0.51968719531E+01 0.46858234561E+01 0.43369383387E+01 0.41189778323E+01
 0.40139815941E+01 0.40139824874E+01 0.41189801317E+01 0.43369410630E+01 0.46858254316E+01
 0.51968723186E+01 0.59177366644E+01 0.69135118958E+01 0.82631454759E+01 0.10048654544E+02
 0.12335820853E+02 0.15179656370E+02 0.18738149699E+02 0.23093694488E+02 0.28149211902E+02
 0.46373177774E+02 0.53215342203E+02 0.59135994477E+02 0.63683380395E+02 0.66535782018E+02
 0.67506696721E+02 0.66535785156E+02 0.63683385314E+02 0.59135998940E+02 0.53215343945E+02
 0.46373175291E+02 0.39154636457E+02 0.32125245746E+02 0.25774843299E+02 0.20426346034E+02
 0.16179672035E+02 0.12910017776E+02 0.10361736212E+02 0.84118485864E+01 0.69694069356E+01
 0.59297374594E+01 0.51968715174E+01 0.46945918670E+01 0.43688749264E+01 0.41855446984E+01
 0.41263258829E+01 0.41855464429E+01 0.43688775915E+01 0.46945941713E+01 0.51968723186E+01
 0.59297363107E+01 0.69694043919E+01 0.84118460698E+01 0.10361735558E+02 0.12910020465E+02
 0.16179678668E+02 0.20426355852E+02 0.25774854496E+02 0.32125255902E+02 0.39154643364E+02
 0.61866130479E+02 0.69548635633E+02 0.75723689462E+02 0.80016984676E+02 0.82211024019E+02
 0.82211027510E+02 0.80016994167E+02 0.75723702302E+02 0.69548648328E+02 0.61866139802E+02
 0.53215343945E+02 0.44257282854E+02 0.35677991620E+02 0.28061840233E+02 0.21776389342E+02
 0.16908867152E+02 0.13275050558E+02 0.10525239219E+02 0.84629314466E+01 0.69694065435E+01
 0.59177373534E+01 0.51966860583E+01 0.47210977690E+01 0.44327307905E+01 0.42966018954E+01
 0.42966026425E+01 0.44327326310E+01 0.47210997224E+01 0.51966870128E+01 0.59177366644E+01
 0.69694043919E+01 0.84629289077E+01 0.10525237865E+02 0.13275051821E+02 0.16908871655E+02
 0.21776396418E+02 0.28061848049E+02 0.35677997573E+02 0.44257284532E+02 0.53215339999E+02
 0.78959964821E+02 0.86742068338E+02 0.92485928052E+02 0.95982275424E+02 0.97153183935E+02
 0.95982283633E+02 0.92485942606E+02 0.86742086066E+02 0.78959982125E+02 0.69548648328E+02
 0.59135998940E+02 0.48509260631E+02 0.38482244917E+02 0.29730105620E+02 0.22649646349E+02
 0.17294029503E+02 0.13400465016E+02 0.10525239017E+02 0.84118477718E+01 0.69135132255E+01
 0.58832006621E+01 0.51976235542E+01 0.47659457896E+01 0.45286967143E+01 0.44530756292E+01
 0.45286973731E+01 0.47659466740E+01 0.51976240300E+01 0.58832002472E+01 0.69135118958E+01
 0.84118460698E+01 0.10525237865E+02 0.13400465307E+02 0.17294031612E+02 0.22649649748E+02
 0.29730108884E+02 0.38482245970E+02 0.48509257493E+02 0.59135990385E+02 0.69548634508E+02
 0.96005193054E+02 0.10307045536E+03 0.10776751246E+03 0.11009526565E+03 0.11009526884E+03
 0.10776752148E+03 0.10307046871E+03 0.96005208561E+02 0.86742086066E+02 0.75723702302E+02
 0.63683385314E+02 0.51552207705E+02 0.40276614464E+02 0.30609720158E+02 0.22951841280E+02
 0.17294030596E+02 0.13275051057E+02 0.10361735358E+02 0.82631458292E+01 0.68070271036E+01
 0.58302581091E+01 0.52020874464E+01 0.48301779960E+01 0.46575939814E+01 0.46575938114E+01
 0.48301775134E+01 0.52020867145E+01 0.58302572765E+01 0.68070263803E+01 0.82631454759E+01
 0.10361735558E+02 0.13275051821E+02 0.17294031612E+02 0.22951841886E+02 0.30609719394E+02
 0.40276611252E+02 0.51552201198E+02 0.63683375144E+02 0.75723688878E+02 0.86742070644E+02
 0.11126792983E+03 0.11694911216E+03 0.12023321676E+03 0.12130087160E+03 0.12023321751E+03
 0.11694911407E+03 0.11126793343E+03 0.10307046871E+03 0.92485942606E+02 0.80016994167E+02
 0.66535785156E+02 0.53136825960E+02 0.40893843941E+02 0.30609722413E+02 0.22649649970E+02
 0.16908869910E+02 0.12910018004E+02 0.10048652619E+02 0.80297662271E+01 0.66596716197E+01
 0.57650070508E+01 0.52132266968E+01 0.49153532982E+01 0.48213951773E+01 0.49153518950E+01
 0.52132244867E+01 0.57650049864E+01 0.66596706177E+01 0.80297667784E+01 0.10048654544E+02
 0.12910020465E+02 0.16908871655E+02 0.22649649748E+02 0.30609719394E+02 0.40893838001E+02
 0.53136817746E+02 0.66535775829E+02 0.80016985104E+02 0.92485934940E+02 0.10307046305E+03
 0.12339961142E+03 0.12736083287E+03 0.12920895473E+03 0.12920895123E+03 0.12736082344E+03
 0.12339959892E+03 0.11694911407E+03 0.10776752148E+03 0.95982283633E+02 0.82211027510E+02
 0.67506696721E+02 0.53136826314E+02 0.40276617970E+02 0.29730111930E+02 0.21776395527E+02
 0.16179675060E+02 0.12335816594E+02 0.96118996176E+01 0.77310744216E+01 0.64840513533E+01
 0.56945563106E+01 0.52345596852E+01 0.50236640327E+01 0.50236627924E+01 0.52345565407E+01
 0.56945527569E+01 0.64840491220E+01 0.77310747106E+01 0.96119024853E+01 0.12335820853E+02
 0.16179678668E+02 0.21776396418E+02 0.29730108884E+02 0.40276611252E+02 0.53136817746E+02
 0.67506689136E+02 0.82211023816E+02 0.95982285691E+02 0.10776752938E+03 0.11694912593E+03
 0.13178931073E+03 0.13409356834E+03 0.13479302505E+03 0.13409355463E+03 0.13178928681E+03
 0.12736082344E+03 0.12023321751E+03 0.11009526884E+03 0.97153183935E+02 0.82211024019E+02
 0.66535782018E+02 0.51552209052E+02 0.38482251647E+02 0.28061849415E+02 0.20426352975E+02
 0.15179651136E+02 0.11597074716E+02 0.90857926817E+01 0.73900339166E+01 0.62938022409E+01
 0.56260545635E+01 0.52696641154E+01 0.51580179385E+01 0.52696612162E+01 0.56260501804E+01
 0.62937985603E+01 0.73900328841E+01 0.90857950616E+01 0.11597079639E+02 0.15179656370E+02
 0.20426355852E+02 0.28061848049E+02 0.38482245970E+02 0.51552201198E+02 0.66535775829E+02
 0.82211023816E+02 0.97153192878E+02 0.11009528759E+03 0.12023324362E+03 0.12736085169E+03
 0.13666335805E+03 0.13769908236E+03 0.13769907338E+03 0.13666333328E+03 0.13409355463E+03
 0.12920895123E+03 0.12130087160E+03 0.11009526565E+03 0.95982275424E+02 0.80016984676E+02
 0.63683380395E+02 0.48509263670E+02 0.35678001001E+02 0.25774853664E+02 0.18738145385E+02
 0.13997515945E+02 0.10749109531E+02 0.85084356864E+01 0.70300886869E+01 0.61018298750E+01
 0.55659040807E+01 0.53219574404E+01 0.53219558731E+01 0.55659001542E+01 0.61018255519E+01
 0.70300862095E+01 0.85084364959E+01 0.10749113527E+02 0.13997521411E+02 0.18738149699E+02
 0.25774854496E+02 0.35677997573E+02 0.48509257493E+02 0.63683375144E+02 0.80016985104E+02
 0.95982285691E+02 0.11009528759E+03 0.12130090363E+03 0.12920898831E+03 0.13409358939E+03
 0.13889746336E+03 0.13919360334E+03 0.13889744736E+03 0.13769907338E+03 0.13479302505E+03
 0.12920895473E+03 0.12023321676E+03 0.10776751246E+03 0.92485928052E+02 0.75723689462E+02
 0.59135994477E+02 0.44257288315E+02 0.32125256934E+02 0.23093692295E+02 0.16869053705E+02
 0.12716563341E+02 0.98504782967E+01 0.79168736263E+01 0.66723503214E+01 0.59189578688E+01
 0.55192623018E+01 0.53945139365E+01 0.55192599166E+01 0.59189542896E+01 0.66723473750E+01
 0.79168729042E+01 0.98504803688E+01 0.12716567407E+02 0.16869057888E+02 0.23093694488E+02
 0.32125255902E+02 0.44257284532E+02 0.59135990385E+02 0.75723688878E+02 0.92485934940E+02
 0.10776752938E+03 0.12023324362E+03 0.12920898831E+03 0.13479305951E+03 0.13769910172E+03
 0.13961778652E+03 0.13961778159E+03 0.13919360334E+03 0.13769908236E+03 0.13409356834E+03
 0.12736083287E+03 0.11694911216E+03 0.10307045536E+03 0.86742068338E+02 0.69548635633E+02
 0.53215342203E+02 0.39154644746E+02 0.28149211549E+02 0.20262018447E+02 0.14964115958E+02
 0.11403875639E+02 0.89557575891E+01 0.73429020193E+01 0.63335685132E+01 0.57531592046E+01
 0.54898199833E+01 0.54898192705E+01 0.57531574171E+01 0.63335665578E+01 0.73429009114E+01
 0.89557579784E+01 0.11403877450E+02 0.14964118399E+02 0.20262020331E+02 0.28149211902E+02
 0.39154643364E+02 0.53215339999E+02 0.69548634508E+02 0.86742070644E+02 0.10307046305E+03
 0.11694912593E+03 0.12736085169E+03 0.13409358939E+03 0.13769910172E+03 0.13919361701E+03
 0.13961778652E+03 0.13919361701E+03 0.13769910172E+03 0.13409358939E+03 0.12736085169E+03
 0.11694912593E+03 0.10307046305E+03 0.86742070644E+02 0.69548634508E+02 0.53215339999E+02
 0.39154643364E+02 0.28149211902E+02 0.20262020331E+02 0.14964118399E+02 0.11403877450E+02
 0.89557579784E+01 0.73429009114E+01 0.63335665578E+01 0.57531574171E+01 0.54898192705E+01
 0.54898199833E+01 0.57531592046E+01 0.63335685132E+01 0.73429020193E+01 0.89557575891E+01
 0.11403875639E+02 0.14964115958E+02 0.20262018447E+02 0.28149211549E+02 0.39154644746E+02