   1   1   1   0
  0.1596731E+02  0.2826500E-09  0.2826500E-09  0.2826500E-09  0.5000000E-15
  1.000000000000000E-004
  CAR 
 Pt-fcc                                  
     67.23325733    -46.96161817  301     10.98266225      1.00000000
    -46.962  0.0000E+00  0.0000E+00
    -46.581  0.0000E+00  0.0000E+00
    -46.200  0.0000E+00  0.0000E+00
    -45.820  0.0000E+00  0.0000E+00
    -45.439  0.0000E+00  0.0000E+00
    -45.058  0.0000E+00  0.0000E+00
    -44.678  0.0000E+00  0.0000E+00
    -44.297  0.0000E+00  0.0000E+00
    -43.916  0.0000E+00  0.0000E+00
    -43.536  0.0000E+00  0.0000E+00
    -43.155  0.0000E+00  0.0000E+00
    -42.774  0.0000E+00  0.0000E+00
    -42.394  0.0000E+00  0.0000E+00
    -42.013  0.1714E-14  0.6526E-15
    -41.633  0.4425E-01  0.1685E-01
    -41.252  0.1111E+00  0.6000E-01
    -40.871  0.0000E+00  0.6000E-01
    -40.491  0.0000E+00  0.6000E-01
    -40.110  0.0000E+00  0.6000E-01
    -39.729  0.0000E+00  0.6000E-01
    -39.349  0.0000E+00  0.6000E-01
    -38.968  0.0000E+00  0.6000E-01
    -38.587  0.0000E+00  0.6000E-01
    -38.207  0.0000E+00  0.6000E-01
    -37.826  0.0000E+00  0.6000E-01
    -37.445  0.0000E+00  0.6000E-01
    -37.065  0.0000E+00  0.6000E-01
    -36.684  0.0000E+00  0.6000E-01
    -36.303  0.0000E+00  0.6000E-01
    -35.923  0.0000E+00  0.6000E-01
    -35.542  0.0000E+00  0.6000E-01
    -35.161  0.0000E+00  0.6000E-01
    -34.781  0.0000E+00  0.6000E-01
    -34.400  0.0000E+00  0.6000E-01
    -34.020  0.0000E+00  0.6000E-01
    -33.639  0.0000E+00  0.6000E-01
    -33.258  0.0000E+00  0.6000E-01
    -32.878  0.0000E+00  0.6000E-01
    -32.497  0.0000E+00  0.6000E-01
    -32.116  0.0000E+00  0.6000E-01
    -31.736  0.0000E+00  0.6000E-01
    -31.355  0.0000E+00  0.6000E-01
    -30.974  0.0000E+00  0.6000E-01
    -30.594  0.0000E+00  0.6000E-01
    -30.213  0.0000E+00  0.6000E-01
    -29.832  0.0000E+00  0.6000E-01
    -29.452  0.0000E+00  0.6000E-01
    -29.071  0.0000E+00  0.6000E-01
    -28.690  0.0000E+00  0.6000E-01
    -28.310  0.0000E+00  0.6000E-01
    -27.929  0.0000E+00  0.6000E-01
    -27.548  0.0000E+00  0.6000E-01
    -27.168  0.0000E+00  0.6000E-01
    -26.787  0.0000E+00  0.6000E-01
    -26.407  0.0000E+00  0.6000E-01
    -26.026  0.0000E+00  0.6000E-01
    -25.645  0.0000E+00  0.6000E-01
    -25.265  0.0000E+00  0.6000E-01
    -24.884  0.0000E+00  0.6000E-01
    -24.503  0.0000E+00  0.6000E-01
    -24.123  0.0000E+00  0.6000E-01
    -23.742  0.0000E+00  0.6000E-01
    -23.361  0.0000E+00  0.6000E-01
    -22.981  0.0000E+00  0.6000E-01
    -22.600  0.0000E+00  0.6000E-01
    -22.219  0.0000E+00  0.6000E-01
    -21.839  0.0000E+00  0.6000E-01
    -21.458  0.0000E+00  0.6000E-01
    -21.077  0.0000E+00  0.6000E-01
    -20.697  0.0000E+00  0.6000E-01
    -20.316  0.0000E+00  0.6000E-01
    -19.935  0.0000E+00  0.6000E-01
    -19.555  0.0000E+00  0.6000E-01
    -19.174  0.0000E+00  0.6000E-01
    -18.794  0.0000E+00  0.6000E-01
    -18.413  0.0000E+00  0.6000E-01
    -18.032  0.0000E+00  0.6000E-01
    -17.652  0.0000E+00  0.6000E-01
    -17.271  0.0000E+00  0.6000E-01
    -16.890  0.0000E+00  0.6000E-01
    -16.510  0.0000E+00  0.6000E-01
    -16.129  0.0000E+00  0.6000E-01
    -15.748  0.0000E+00  0.6000E-01
    -15.368  0.0000E+00  0.6000E-01
    -14.987  0.0000E+00  0.6000E-01
    -14.606  0.0000E+00  0.6000E-01
    -14.226  0.0000E+00  0.6000E-01
    -13.845  0.0000E+00  0.6000E-01
    -13.464  0.0000E+00  0.6000E-01
    -13.084  0.0000E+00  0.6000E-01
    -12.703  0.0000E+00  0.6000E-01
    -12.323  0.0000E+00  0.6000E-01
    -11.942  0.0000E+00  0.6000E-01
    -11.561  0.0000E+00  0.6000E-01
    -11.181  0.0000E+00  0.6000E-01
    -10.800  0.0000E+00  0.6000E-01
    -10.419  0.0000E+00  0.6000E-01
    -10.039  0.0000E+00  0.6000E-01
     -9.658  0.0000E+00  0.6000E-01
     -9.277  0.0000E+00  0.6000E-01
     -8.897  0.0000E+00  0.6000E-01
     -8.516  0.0000E+00  0.6000E-01
     -8.135  0.0000E+00  0.6000E-01
     -7.755  0.0000E+00  0.6000E-01
     -7.374  0.0000E+00  0.6000E-01
     -6.993  0.0000E+00  0.6000E-01
     -6.613  0.0000E+00  0.6000E-01
     -6.232  0.0000E+00  0.6000E-01
     -5.851  0.0000E+00  0.6000E-01
     -5.471  0.0000E+00  0.6000E-01
     -5.090  0.0000E+00  0.6000E-01
     -4.710  0.0000E+00  0.6000E-01
     -4.329  0.0000E+00  0.6000E-01
     -3.948  0.0000E+00  0.6000E-01
     -3.568  0.0000E+00  0.6000E-01
     -3.187  0.0000E+00  0.6000E-01
     -2.806  0.0000E+00  0.6000E-01
     -2.426  0.0000E+00  0.6000E-01
     -2.045  0.0000E+00  0.6000E-01
     -1.664  0.0000E+00  0.6000E-01
     -1.284  0.0000E+00  0.6000E-01
     -0.903  0.0000E+00  0.6000E-01
     -0.522  0.0000E+00  0.6000E-01
     -0.142  0.0000E+00  0.6000E-01
      0.239  0.0000E+00  0.6000E-01
      0.620  0.0000E+00  0.6000E-01
      1.000  0.0000E+00  0.6000E-01
      1.381  0.6023E-05  0.6000E-01
      1.762  0.4079E-03  0.6016E-01
      2.142  0.3932E-03  0.6031E-01
      2.523  0.9750E-03  0.6068E-01
      2.903  0.8910E-03  0.6102E-01
      3.284  0.1263E-02  0.6152E-01
      3.665  0.1536E-02  0.6211E-01
      4.045  0.2325E-02  0.6300E-01
      4.426  0.4178E-02  0.6460E-01
      4.807  0.8808E-02  0.6796E-01
      5.187  0.1252E-01  0.7278E-01
      5.568  0.1503E-01  0.7860E-01
      5.949  0.1221E-01  0.8337E-01
      6.329  0.9247E-02  0.8700E-01
      6.710  0.1453E-01  0.9263E-01
      7.091  0.1495E-01  0.9843E-01
      7.471  0.1692E-01  0.1051E+00
      7.852  0.2225E-01  0.1135E+00
      8.233  0.1848E-01  0.1206E+00
      8.613  0.1291E-01  0.1256E+00
      8.994  0.1334E-01  0.1308E+00
      9.375  0.1584E-01  0.1370E+00
      9.755  0.1496E-01  0.1428E+00
     10.136  0.9565E-02  0.1465E+00
     10.516  0.1213E-01  0.1512E+00
     10.897  0.1880E-01  0.1584E+00
     11.278  0.1675E-01  0.1649E+00
     11.658  0.3893E-02  0.1664E+00
     12.039  0.4619E-02  0.1682E+00
     12.420  0.1632E-02  0.1689E+00
     12.800  0.2787E-02  0.1699E+00
     13.181  0.3100E-02  0.1711E+00
     13.562  0.2982E-02  0.1723E+00
     13.942  0.2386E-02  0.1733E+00
     14.323  0.3300E-02  0.1745E+00
     14.704  0.1739E-02  0.1753E+00
     15.084  0.2161E-02  0.1761E+00
     15.465  0.2491E-02  0.1770E+00
     15.846  0.2479E-02  0.1780E+00
     16.226  0.2494E-02  0.1789E+00
     16.607  0.4479E-02  0.1807E+00
     16.988  0.2304E-02  0.1815E+00
     17.368  0.4243E-02  0.1832E+00
     17.749  0.2951E-02  0.1843E+00
     18.129  0.3209E-02  0.1855E+00
     18.510  0.3888E-02  0.1871E+00
     18.891  0.1652E-02  0.1877E+00
     19.271  0.3424E-02  0.1891E+00
     19.652  0.4284E-02  0.1907E+00
     20.033  0.1246E-02  0.1912E+00
     20.413  0.2454E-02  0.1921E+00
     20.794  0.5133E-02  0.1941E+00
     21.175  0.4041E-02  0.1957E+00
     21.555  0.1831E-02  0.1964E+00
     21.936  0.4639E-02  0.1982E+00
     22.317  0.2839E-02  0.1993E+00
     22.697  0.4856E-02  0.2011E+00
     23.078  0.5517E-02  0.2033E+00
     23.459  0.4069E-02  0.2049E+00
     23.839  0.4684E-02  0.2067E+00
     24.220  0.4523E-02  0.2085E+00
     24.601  0.6615E-02  0.2110E+00
     24.981  0.3476E-02  0.2123E+00
     25.362  0.7239E-02  0.2151E+00
     25.742  0.4122E-02  0.2167E+00
     26.123  0.9156E-02  0.2203E+00
     26.504  0.8029E-02  0.2233E+00
     26.884  0.5260E-02  0.2254E+00
     27.265  0.5646E-02  0.2275E+00
     27.646  0.8198E-02  0.2307E+00
     28.026  0.6118E-02  0.2332E+00
     28.407  0.3586E-02  0.2345E+00
     28.788  0.3180E-02  0.2358E+00
     29.168  0.4232E-02  0.2374E+00
     29.549  0.5816E-02  0.2397E+00
     29.930  0.5894E-02  0.2420E+00
     30.310  0.7143E-02  0.2447E+00
     30.691  0.9156E-02  0.2483E+00
     31.072  0.5855E-02  0.2505E+00
     31.452  0.8783E-02  0.2539E+00
     31.833  0.5064E-02  0.2558E+00
     32.213  0.5051E-02  0.2578E+00
     32.594  0.4132E-02  0.2594E+00
     32.975  0.2777E-02  0.2605E+00
     33.355  0.3370E-02  0.2618E+00
     33.736  0.5932E-02  0.2642E+00
     34.117  0.3616E-02  0.2657E+00
     34.497  0.2892E-02  0.2668E+00
     34.878  0.5390E-02  0.2689E+00
     35.259  0.6496E-02  0.2714E+00
     35.639  0.7021E-02  0.2742E+00
     36.020  0.2504E-02  0.2752E+00
     36.401  0.4987E-02  0.2772E+00
     36.781  0.5422E-02  0.2792E+00
     37.162  0.1016E-01  0.2831E+00
     37.543  0.6108E-02  0.2855E+00
     37.923  0.1022E-01  0.2894E+00
     38.304  0.1481E-01  0.2950E+00
     38.685  0.9798E-02  0.2990E+00
     39.065  0.1002E-01  0.3028E+00
     39.446  0.8970E-02  0.3064E+00
     39.826  0.7085E-02  0.3092E+00
     40.207  0.3832E-02  0.3107E+00
     40.588  0.4882E-02  0.3126E+00
     40.968  0.9431E-02  0.3162E+00
     41.349  0.1018E-01  0.3202E+00
     41.730  0.6906E-02  0.3229E+00
     42.110  0.8650E-02  0.3263E+00
     42.491  0.5322E-02  0.3284E+00
     42.872  0.7210E-02  0.3311E+00
     43.252  0.8299E-02  0.3345E+00
     43.633  0.3386E-02  0.3358E+00
     44.014  0.4470E-02  0.3375E+00
     44.394  0.7670E-02  0.3404E+00
     44.775  0.6135E-02  0.3428E+00
     45.156  0.9016E-02  0.3463E+00
     45.536  0.6451E-02  0.3489E+00
     45.917  0.9873E-02  0.3527E+00
     46.298  0.1151E-01  0.3573E+00
     46.678  0.1247E-01  0.3621E+00
     47.059  0.9565E-02  0.3658E+00
     47.439  0.9456E-02  0.3694E+00
     47.820  0.1232E-01  0.3741E+00
     48.201  0.8556E-02  0.3775E+00
     48.581  0.7793E-02  0.3804E+00
     48.962  0.7899E-02  0.3835E+00
     49.343  0.6661E-02  0.3861E+00
     49.723  0.7141E-02  0.3889E+00
     50.104  0.6445E-02  0.3914E+00
     50.485  0.9585E-02  0.3951E+00
     50.865  0.7983E-02  0.3984E+00
     51.246  0.8194E-02  0.4015E+00
     51.627  0.5959E-02  0.4039E+00
     52.007  0.6345E-01  0.4281E+00
     52.388  0.8423E-02  0.4313E+00
     52.769  0.1006E-01  0.4352E+00
     53.149  0.4795E-02  0.4371E+00
     53.530  0.9029E-02  0.4406E+00
     53.911  0.8298E-02  0.4438E+00
     54.291  0.8374E-02  0.4470E+00
     54.672  0.1019E-01  0.4509E+00
     55.052  0.9367E-02  0.4545E+00
     55.433  0.6381E-02  0.4570E+00
     55.814  0.9002E-02  0.4605E+00
     56.194  0.7603E-02  0.4634E+00
     56.575  0.8105E-02  0.4667E+00
     56.956  0.5705E-02  0.4689E+00
     57.336  0.7223E-02  0.4717E+00
     57.717  0.6665E-02  0.4742E+00
     58.098  0.3337E-02  0.4755E+00
     58.478  0.1696E-02  0.4762E+00
     58.859  0.2234E-02  0.4771E+00
     59.240  0.2513E-02  0.4781E+00
     59.620  0.2269E-02  0.4789E+00
     60.001  0.4426E-03  0.4792E+00
     60.382  0.1256E-02  0.4796E+00
     60.762  0.0000E+00  0.4796E+00
     61.143  0.3059E-03  0.4798E+00
     61.524  0.3246E-03  0.4799E+00
     61.904  0.1425E-07  0.4799E+00
     62.285  0.3152E-03  0.4800E+00
     62.665  0.0000E+00  0.4800E+00
     63.046  0.0000E+00  0.4800E+00
     63.427  0.0000E+00  0.4800E+00
     63.807  0.0000E+00  0.4800E+00
     64.188  0.0000E+00  0.4800E+00
     64.569  0.0000E+00  0.4800E+00
     64.949  0.0000E+00  0.4800E+00
     65.330  0.0000E+00  0.4800E+00
     65.711  0.0000E+00  0.4800E+00
     66.091  0.0000E+00  0.4800E+00
     66.472  0.0000E+00  0.4800E+00
     66.853  0.0000E+00  0.4800E+00
     67.233  0.0000E+00  0.4800E+00
     67.23325733    -46.96161817  301     10.98266225      1.00000000
    -46.962  0.0000E+00  0.0000E+00  0.0000E+00  0.0000E+00  0.0000E+00  0.0000E+00  0.0000E+00  0.0000E+00  0.0000E+00
    -46.581  0.0000E+00  0.0000E+00  0.0000E+00  0.0000E+00  0.0000E+00  0.0000E+00  0.0000E+00  0.0000E+00  0.0000E+00
    -46.200  0.0000E+00  0.0000E+00  0.0000E+00  0.0000E+00  0.0000E+00  0.0000E+00  0.0000E+00  0.0000E+00  0.0000E+00
    -45.820  0.0000E+00  0.0000E+00  0.0000E+00  0.0000E+00  0.0000E+00  0.0000E+00  0.0000E+00  0.0000E+00  0.0000E+00
    -45.439  0.0000E+00  0.0000E+00  0.0000E+00  0.0000E+00  0.0000E+00  0.0000E+00  0.0000E+00  0.0000E+00  0.0000E+00
    -45.058  0.0000E+00  0.0000E+00  0.0000E+00  0.0000E+00  0.0000E+00  0.0000E+00  0.0000E+00  0.0000E+00  0.0000E+00
    -44.678  0.0000E+00  0.0000E+00  0.0000E+00  0.0000E+00  0.0000E+00  0.0000E+00  0.0000E+00  0.0000E+00  0.0000E+00
    -44.297  0.0000E+00  0.0000E+00  0.0000E+00  0.0000E+00  0.0000E+00  0.0000E+00  0.0000E+00  0.0000E+00  0.0000E+00
    -43.916  0.0000E+00  0.0000E+00  0.0000E+00  0.0000E+00  0.0000E+00  0.0000E+00  0.0000E+00  0.0000E+00  0.0000E+00
    -43.536  0.0000E+00  0.0000E+00  0.0000E+00  0.0000E+00  0.0000E+00  0.0000E+00  0.0000E+00  0.0000E+00  0.0000E+00
    -43.155  0.0000E+00  0.0000E+00  0.0000E+00  0.0000E+00  0.0000E+00  0.0000E+00  0.0000E+00  0.0000E+00  0.0000E+00
    -42.774  0.0000E+00  0.0000E+00  0.0000E+00  0.0000E+00  0.0000E+00  0.0000E+00  0.0000E+00  0.0000E+00  0.0000E+00
    -42.394  0.0000E+00  0.0000E+00  0.0000E+00  0.0000E+00  0.0000E+00  0.0000E+00  0.0000E+00  0.0000E+00  0.0000E+00
    -42.013  0.3040E-18  0.5618E-13  0.5618E-13  0.5618E-13  0.1651E-18  0.1651E-18  0.1190E-18  0.1651E-18  0.1190E-18
    -41.633  0.9335E-04  0.1454E+01  0.1454E+01  0.1454E+01  0.2805E-04  0.2805E-04  0.1200E-04  0.2805E-04  0.1200E-04
    -41.252  0.8529E-04  0.3674E+01  0.3674E+01  0.3674E+01  0.6967E-04  0.6967E-04  0.3948E-04  0.6967E-04  0.3948E-04
    -40.871  0.0000E+00  0.0000E+00  0.0000E+00  0.0000E+00  0.0000E+00  0.0000E+00  0.0000E+00  0.0000E+00  0.0000E+00
    -40.491  0.0000E+00  0.0000E+00  0.0000E+00  0.0000E+00  0.0000E+00  0.0000E+00  0.0000E+00  0.0000E+00  0.0000E+00
    -40.110  0.0000E+00  0.0000E+00  0.0000E+00  0.0000E+00  0.0000E+00  0.0000E+00  0.0000E+00  0.0000E+00  0.0000E+00
    -39.729  0.0000E+00  0.0000E+00  0.0000E+00  0.0000E+00  0.0000E+00  0.0000E+00  0.0000E+00  0.0000E+00  0.0000E+00
    -39.349  0.0000E+00  0.0000E+00  0.0000E+00  0.0000E+00  0.0000E+00  0.0000E+00  0.0000E+00  0.0000E+00  0.0000E+00
    -38.968  0.0000E+00  0.0000E+00  0.0000E+00  0.0000E+00  0.0000E+00  0.0000E+00  0.0000E+00  0.0000E+00  0.0000E+00
    -38.587  0.0000E+00  0.0000E+00  0.0000E+00  0.0000E+00  0.0000E+00  0.0000E+00  0.0000E+00  0.0000E+00  0.0000E+00
    -38.207  0.0000E+00  0.0000E+00  0.0000E+00  0.0000E+00  0.0000E+00  0.0000E+00  0.0000E+00  0.0000E+00  0.0000E+00
    -37.826  0.0000E+00  0.0000E+00  0.0000E+00  0.0000E+00  0.0000E+00  0.0000E+00  0.0000E+00  0.0000E+00  0.0000E+00
    -37.445  0.0000E+00  0.0000E+00  0.0000E+00  0.0000E+00  0.0000E+00  0.0000E+00  0.0000E+00  0.0000E+00  0.0000E+00
    -37.065  0.0000E+00  0.0000E+00  0.0000E+00  0.0000E+00  0.0000E+00  0.0000E+00  0.0000E+00  0.0000E+00  0.0000E+00
    -36.684  0.0000E+00  0.0000E+00  0.0000E+00  0.0000E+00  0.0000E+00  0.0000E+00  0.0000E+00  0.0000E+00  0.0000E+00
    -36.303  0.0000E+00  0.0000E+00  0.0000E+00  0.0000E+00  0.0000E+00  0.0000E+00  0.0000E+00  0.0000E+00  0.0000E+00
    -35.923  0.0000E+00  0.0000E+00  0.0000E+00  0.0000E+00  0.0000E+00  0.0000E+00  0.0000E+00  0.0000E+00  0.0000E+00
    -35.542  0.0000E+00  0.0000E+00  0.0000E+00  0.0000E+00  0.0000E+00  0.0000E+00  0.0000E+00  0.0000E+00  0.0000E+00
    -35.161  0.0000E+00  0.0000E+00  0.0000E+00  0.0000E+00  0.0000E+00  0.0000E+00  0.0000E+00  0.0000E+00  0.0000E+00
    -34.781  0.0000E+00  0.0000E+00  0.0000E+00  0.0000E+00  0.0000E+00  0.0000E+00  0.0000E+00  0.0000E+00  0.0000E+00
    -34.400  0.0000E+00  0.0000E+00  0.0000E+00  0.0000E+00  0.0000E+00  0.0000E+00  0.0000E+00  0.0000E+00  0.0000E+00
    -34.020  0.0000E+00  0.0000E+00  0.0000E+00  0.0000E+00  0.0000E+00  0.0000E+00  0.0000E+00  0.0000E+00  0.0000E+00
    -33.639  0.0000E+00  0.0000E+00  0.0000E+00  0.0000E+00  0.0000E+00  0.0000E+00  0.0000E+00  0.0000E+00  0.0000E+00
    -33.258  0.0000E+00  0.0000E+00  0.0000E+00  0.0000E+00  0.0000E+00  0.0000E+00  0.0000E+00  0.0000E+00  0.0000E+00
    -32.878  0.0000E+00  0.0000E+00  0.0000E+00  0.0000E+00  0.0000E+00  0.0000E+00  0.0000E+00  0.0000E+00  0.0000E+00
    -32.497  0.0000E+00  0.0000E+00  0.0000E+00  0.0000E+00  0.0000E+00  0.0000E+00  0.0000E+00  0.0000E+00  0.0000E+00
    -32.116  0.0000E+00  0.0000E+00  0.0000E+00  0.0000E+00  0.0000E+00  0.0000E+00  0.0000E+00  0.0000E+00  0.0000E+00
    -31.736  0.0000E+00  0.0000E+00  0.0000E+00  0.0000E+00  0.0000E+00  0.0000E+00  0.0000E+00  0.0000E+00  0.0000E+00
    -31.355  0.0000E+00  0.0000E+00  0.0000E+00  0.0000E+00  0.0000E+00  0.0000E+00  0.0000E+00  0.0000E+00  0.0000E+00
    -30.974  0.0000E+00  0.0000E+00  0.0000E+00  0.0000E+00  0.0000E+00  0.0000E+00  0.0000E+00  0.0000E+00  0.0000E+00
    -30.594  0.0000E+00  0.0000E+00  0.0000E+00  0.0000E+00  0.0000E+00  0.0000E+00  0.0000E+00  0.0000E+00  0.0000E+00
    -30.213  0.0000E+00  0.0000E+00  0.0000E+00  0.0000E+00  0.0000E+00  0.0000E+00  0.0000E+00  0.0000E+00  0.0000E+00
    -29.832  0.0000E+00  0.0000E+00  0.0000E+00  0.0000E+00  0.0000E+00  0.0000E+00  0.0000E+00  0.0000E+00  0.0000E+00
    -29.452  0.0000E+00  0.0000E+00  0.0000E+00  0.0000E+00  0.0000E+00  0.0000E+00  0.0000E+00  0.0000E+00  0.0000E+00
    -29.071  0.0000E+00  0.0000E+00  0.0000E+00  0.0000E+00  0.0000E+00  0.0000E+00  0.0000E+00  0.0000E+00  0.0000E+00
    -28.690  0.0000E+00  0.0000E+00  0.0000E+00  0.0000E+00  0.0000E+00  0.0000E+00  0.0000E+00  0.0000E+00  0.0000E+00
    -28.310  0.0000E+00  0.0000E+00  0.0000E+00  0.0000E+00  0.0000E+00  0.0000E+00  0.0000E+00  0.0000E+00  0.0000E+00
    -27.929  0.0000E+00  0.0000E+00  0.0000E+00  0.0000E+00  0.0000E+00  0.0000E+00  0.0000E+00  0.0000E+00  0.0000E+00
    -27.548  0.0000E+00  0.0000E+00  0.0000E+00  0.0000E+00  0.0000E+00  0.0000E+00  0.0000E+00  0.0000E+00  0.0000E+00
    -27.168  0.0000E+00  0.0000E+00  0.0000E+00  0.0000E+00  0.0000E+00  0.0000E+00  0.0000E+00  0.0000E+00  0.0000E+00
    -26.787  0.0000E+00  0.0000E+00  0.0000E+00  0.0000E+00  0.0000E+00  0.0000E+00  0.0000E+00  0.0000E+00  0.0000E+00
    -26.407  0.0000E+00  0.0000E+00  0.0000E+00  0.0000E+00  0.0000E+00  0.0000E+00  0.0000E+00  0.0000E+00  0.0000E+00
    -26.026  0.0000E+00  0.0000E+00  0.0000E+00  0.0000E+00  0.0000E+00  0.0000E+00  0.0000E+00  0.0000E+00  0.0000E+00
    -25.645  0.0000E+00  0.0000E+00  0.0000E+00  0.0000E+00  0.0000E+00  0.0000E+00  0.0000E+00  0.0000E+00  0.0000E+00
    -25.265  0.0000E+00  0.0000E+00  0.0000E+00  0.0000E+00  0.0000E+00  0.0000E+00  0.0000E+00  0.0000E+00  0.0000E+00
    -24.884  0.0000E+00  0.0000E+00  0.0000E+00  0.0000E+00  0.0000E+00  0.0000E+00  0.0000E+00  0.0000E+00  0.0000E+00
    -24.503  0.0000E+00  0.0000E+00  0.0000E+00  0.0000E+00  0.0000E+00  0.0000E+00  0.0000E+00  0.0000E+00  0.0000E+00
    -24.123  0.0000E+00  0.0000E+00  0.0000E+00  0.0000E+00  0.0000E+00  0.0000E+00  0.0000E+00  0.0000E+00  0.0000E+00
    -23.742  0.0000E+00  0.0000E+00  0.0000E+00  0.0000E+00  0.0000E+00  0.0000E+00  0.0000E+00  0.0000E+00  0.0000E+00
    -23.361  0.0000E+00  0.0000E+00  0.0000E+00  0.0000E+00  0.0000E+00  0.0000E+00  0.0000E+00  0.0000E+00  0.0000E+00
    -22.981  0.0000E+00  0.0000E+00  0.0000E+00  0.0000E+00  0.0000E+00  0.0000E+00  0.0000E+00  0.0000E+00  0.0000E+00
    -22.600  0.0000E+00  0.0000E+00  0.0000E+00  0.0000E+00  0.0000E+00  0.0000E+00  0.0000E+00  0.0000E+00  0.0000E+00
    -22.219  0.0000E+00  0.0000E+00  0.0000E+00  0.0000E+00  0.0000E+00  0.0000E+00  0.0000E+00  0.0000E+00  0.0000E+00
    -21.839  0.0000E+00  0.0000E+00  0.0000E+00  0.0000E+00  0.0000E+00  0.0000E+00  0.0000E+00  0.0000E+00  0.0000E+00
    -21.458  0.0000E+00  0.0000E+00  0.0000E+00  0.0000E+00  0.0000E+00  0.0000E+00  0.0000E+00  0.0000E+00  0.0000E+00
    -21.077  0.0000E+00  0.0000E+00  0.0000E+00  0.0000E+00  0.0000E+00  0.0000E+00  0.0000E+00  0.0000E+00  0.0000E+00
    -20.697  0.0000E+00  0.0000E+00  0.0000E+00  0.0000E+00  0.0000E+00  0.0000E+00  0.0000E+00  0.0000E+00  0.0000E+00
    -20.316  0.0000E+00  0.0000E+00  0.0000E+00  0.0000E+00  0.0000E+00  0.0000E+00  0.0000E+00  0.0000E+00  0.0000E+00
    -19.935  0.0000E+00  0.0000E+00  0.0000E+00  0.0000E+00  0.0000E+00  0.0000E+00  0.0000E+00  0.0000E+00  0.0000E+00
    -19.555  0.0000E+00  0.0000E+00  0.0000E+00  0.0000E+00  0.0000E+00  0.0000E+00  0.0000E+00  0.0000E+00  0.0000E+00
    -19.174  0.0000E+00  0.0000E+00  0.0000E+00  0.0000E+00  0.0000E+00  0.0000E+00  0.0000E+00  0.0000E+00  0.0000E+00
    -18.794  0.0000E+00  0.0000E+00  0.0000E+00  0.0000E+00  0.0000E+00  0.0000E+00  0.0000E+00  0.0000E+00  0.0000E+00
    -18.413  0.0000E+00  0.0000E+00  0.0000E+00  0.0000E+00  0.0000E+00  0.0000E+00  0.0000E+00  0.0000E+00  0.0000E+00
    -18.032  0.0000E+00  0.0000E+00  0.0000E+00  0.0000E+00  0.0000E+00  0.0000E+00  0.0000E+00  0.0000E+00  0.0000E+00
    -17.652  0.0000E+00  0.0000E+00  0.0000E+00  0.0000E+00  0.0000E+00  0.0000E+00  0.0000E+00  0.0000E+00  0.0000E+00
    -17.271  0.0000E+00  0.0000E+00  0.0000E+00  0.0000E+00  0.0000E+00  0.0000E+00  0.0000E+00  0.0000E+00  0.0000E+00
    -16.890  0.0000E+00  0.0000E+00  0.0000E+00  0.0000E+00  0.0000E+00  0.0000E+00  0.0000E+00  0.0000E+00  0.0000E+00
    -16.510  0.0000E+00  0.0000E+00  0.0000E+00  0.0000E+00  0.0000E+00  0.0000E+00  0.0000E+00  0.0000E+00  0.0000E+00
    -16.129  0.0000E+00  0.0000E+00  0.0000E+00  0.0000E+00  0.0000E+00  0.0000E+00  0.0000E+00  0.0000E+00  0.0000E+00
    -15.748  0.0000E+00  0.0000E+00  0.0000E+00  0.0000E+00  0.0000E+00  0.0000E+00  0.0000E+00  0.0000E+00  0.0000E+00
    -15.368  0.0000E+00  0.0000E+00  0.0000E+00  0.0000E+00  0.0000E+00  0.0000E+00  0.0000E+00  0.0000E+00  0.0000E+00
    -14.987  0.0000E+00  0.0000E+00  0.0000E+00  0.0000E+00  0.0000E+00  0.0000E+00  0.0000E+00  0.0000E+00  0.0000E+00
    -14.606  0.0000E+00  0.0000E+00  0.0000E+00  0.0000E+00  0.0000E+00  0.0000E+00  0.0000E+00  0.0000E+00  0.0000E+00
    -14.226  0.0000E+00  0.0000E+00  0.0000E+00  0.0000E+00  0.0000E+00  0.0000E+00  0.0000E+00  0.0000E+00  0.0000E+00
    -13.845  0.0000E+00  0.0000E+00  0.0000E+00  0.0000E+00  0.0000E+00  0.0000E+00  0.0000E+00  0.0000E+00  0.0000E+00
    -13.464  0.0000E+00  0.0000E+00  0.0000E+00  0.0000E+00  0.0000E+00  0.0000E+00  0.0000E+00  0.0000E+00  0.0000E+00
    -13.084  0.0000E+00  0.0000E+00  0.0000E+00  0.0000E+00  0.0000E+00  0.0000E+00  0.0000E+00  0.0000E+00  0.0000E+00
    -12.703  0.0000E+00  0.0000E+00  0.0000E+00  0.0000E+00  0.0000E+00  0.0000E+00  0.0000E+00  0.0000E+00  0.0000E+00
    -12.323  0.0000E+00  0.0000E+00  0.0000E+00  0.0000E+00  0.0000E+00  0.0000E+00  0.0000E+00  0.0000E+00  0.0000E+00
    -11.942  0.0000E+00  0.0000E+00  0.0000E+00  0.0000E+00  0.0000E+00  0.0000E+00  0.0000E+00  0.0000E+00  0.0000E+00
    -11.561  0.0000E+00  0.0000E+00  0.0000E+00  0.0000E+00  0.0000E+00  0.0000E+00  0.0000E+00  0.0000E+00  0.0000E+00
    -11.181  0.0000E+00  0.0000E+00  0.0000E+00  0.0000E+00  0.0000E+00  0.0000E+00  0.0000E+00  0.0000E+00  0.0000E+00
    -10.800  0.0000E+00  0.0000E+00  0.0000E+00  0.0000E+00  0.0000E+00  0.0000E+00  0.0000E+00  0.0000E+00  0.0000E+00
    -10.419  0.0000E+00  0.0000E+00  0.0000E+00  0.0000E+00  0.0000E+00  0.0000E+00  0.0000E+00  0.0000E+00  0.0000E+00
    -10.039  0.0000E+00  0.0000E+00  0.0000E+00  0.0000E+00  0.0000E+00  0.0000E+00  0.0000E+00  0.0000E+00  0.0000E+00
     -9.658  0.0000E+00  0.0000E+00  0.0000E+00  0.0000E+00  0.0000E+00  0.0000E+00  0.0000E+00  0.0000E+00  0.0000E+00
     -9.277  0.0000E+00  0.0000E+00  0.0000E+00  0.0000E+00  0.0000E+00  0.0000E+00  0.0000E+00  0.0000E+00  0.0000E+00
     -8.897  0.0000E+00  0.0000E+00  0.0000E+00  0.0000E+00  0.0000E+00  0.0000E+00  0.0000E+00  0.0000E+00  0.0000E+00
     -8.516  0.0000E+00  0.0000E+00  0.0000E+00  0.0000E+00  0.0000E+00  0.0000E+00  0.0000E+00  0.0000E+00  0.0000E+00
     -8.135  0.0000E+00  0.0000E+00  0.0000E+00  0.0000E+00  0.0000E+00  0.0000E+00  0.0000E+00  0.0000E+00  0.0000E+00
     -7.755  0.0000E+00  0.0000E+00  0.0000E+00  0.0000E+00  0.0000E+00  0.0000E+00  0.0000E+00  0.0000E+00  0.0000E+00
     -7.374  0.0000E+00  0.0000E+00  0.0000E+00  0.0000E+00  0.0000E+00  0.0000E+00  0.0000E+00  0.0000E+00  0.0000E+00
     -6.993  0.0000E+00  0.0000E+00  0.0000E+00  0.0000E+00  0.0000E+00  0.0000E+00  0.0000E+00  0.0000E+00  0.0000E+00
     -6.613  0.0000E+00  0.0000E+00  0.0000E+00  0.0000E+00  0.0000E+00  0.0000E+00  0.0000E+00  0.0000E+00  0.0000E+00
     -6.232  0.0000E+00  0.0000E+00  0.0000E+00  0.0000E+00  0.0000E+00  0.0000E+00  0.0000E+00  0.0000E+00  0.0000E+00
     -5.851  0.0000E+00  0.0000E+00  0.0000E+00  0.0000E+00  0.0000E+00  0.0000E+00  0.0000E+00  0.0000E+00  0.0000E+00
     -5.471  0.0000E+00  0.0000E+00  0.0000E+00  0.0000E+00  0.0000E+00  0.0000E+00  0.0000E+00  0.0000E+00  0.0000E+00
     -5.090  0.0000E+00  0.0000E+00  0.0000E+00  0.0000E+00  0.0000E+00  0.0000E+00  0.0000E+00  0.0000E+00  0.0000E+00
     -4.710  0.0000E+00  0.0000E+00  0.0000E+00  0.0000E+00  0.0000E+00  0.0000E+00  0.0000E+00  0.0000E+00  0.0000E+00
     -4.329  0.0000E+00  0.0000E+00  0.0000E+00  0.0000E+00  0.0000E+00  0.0000E+00  0.0000E+00  0.0000E+00  0.0000E+00
     -3.948  0.0000E+00  0.0000E+00  0.0000E+00  0.0000E+00  0.0000E+00  0.0000E+00  0.0000E+00  0.0000E+00  0.0000E+00
     -3.568  0.0000E+00  0.0000E+00  0.0000E+00  0.0000E+00  0.0000E+00  0.0000E+00  0.0000E+00  0.0000E+00  0.0000E+00
     -3.187  0.0000E+00  0.0000E+00  0.0000E+00  0.0000E+00  0.0000E+00  0.0000E+00  0.0000E+00  0.0000E+00  0.0000E+00
     -2.806  0.0000E+00  0.0000E+00  0.0000E+00  0.0000E+00  0.0000E+00  0.0000E+00  0.0000E+00  0.0000E+00  0.0000E+00
     -2.426  0.0000E+00  0.0000E+00  0.0000E+00  0.0000E+00  0.0000E+00  0.0000E+00  0.0000E+00  0.0000E+00  0.0000E+00
     -2.045  0.0000E+00  0.0000E+00  0.0000E+00  0.0000E+00  0.0000E+00  0.0000E+00  0.0000E+00  0.0000E+00  0.0000E+00
     -1.664  0.0000E+00  0.0000E+00  0.0000E+00  0.0000E+00  0.0000E+00  0.0000E+00  0.0000E+00  0.0000E+00  0.0000E+00
     -1.284  0.0000E+00  0.0000E+00  0.0000E+00  0.0000E+00  0.0000E+00  0.0000E+00  0.0000E+00  0.0000E+00  0.0000E+00
     -0.903  0.0000E+00  0.0000E+00  0.0000E+00  0.0000E+00  0.0000E+00  0.0000E+00  0.0000E+00  0.0000E+00  0.0000E+00
     -0.522  0.0000E+00  0.0000E+00  0.0000E+00  0.0000E+00  0.0000E+00  0.0000E+00  0.0000E+00  0.0000E+00  0.0000E+00
     -0.142  0.0000E+00  0.0000E+00  0.0000E+00  0.0000E+00  0.0000E+00  0.0000E+00  0.0000E+00  0.0000E+00  0.0000E+00
      0.239  0.0000E+00  0.0000E+00  0.0000E+00  0.0000E+00  0.0000E+00  0.0000E+00  0.0000E+00  0.0000E+00  0.0000E+00
      0.620  0.0000E+00  0.0000E+00  0.0000E+00  0.0000E+00  0.0000E+00  0.0000E+00  0.0000E+00  0.0000E+00  0.0000E+00
      1.000  0.0000E+00  0.0000E+00  0.0000E+00  0.0000E+00  0.0000E+00  0.0000E+00  0.0000E+00  0.0000E+00  0.0000E+00
      1.381  0.2283E-03  0.2444E-06  0.2444E-06  0.2444E-06  0.1468E-07  0.1468E-07  0.1849E-21  0.1468E-07  0.1849E-21
      1.762  0.1530E-01  0.4927E-04  0.4927E-04  0.4927E-04  0.5135E-05  0.5135E-05  0.4086E-05  0.5135E-05  0.4086E-05
      2.142  0.1442E-01  0.1036E-03  0.1036E-03  0.1036E-03  0.3666E-04  0.3666E-04  0.1049E-04  0.3666E-04  0.1049E-04
      2.523  0.3489E-01  0.3910E-03  0.3910E-03  0.3910E-03  0.1798E-03  0.1798E-03  0.9925E-04  0.1798E-03  0.9925E-04
      2.903  0.3063E-01  0.5017E-03  0.5017E-03  0.5017E-03  0.4084E-03  0.4084E-03  0.2405E-03  0.4084E-03  0.2405E-03
      3.284  0.4172E-01  0.8360E-03  0.8360E-03  0.8360E-03  0.1158E-02  0.1158E-02  0.5026E-03  0.1158E-02  0.5026E-03
      3.665  0.4752E-01  0.1168E-02  0.1168E-02  0.1168E-02  0.2835E-02  0.2835E-02  0.8881E-03  0.2835E-02  0.8881E-03
      4.045  0.6470E-01  0.1821E-02  0.1821E-02  0.1821E-02  0.7920E-02  0.7920E-02  0.2621E-02  0.7920E-02  0.2621E-02
      4.426  0.8536E-01  0.2130E-02  0.2130E-02  0.2130E-02  0.3843E-01  0.3843E-01  0.4770E-02  0.3843E-01  0.4770E-02
      4.807  0.1279E+00  0.3974E-02  0.3974E-02  0.3974E-02  0.7073E-01  0.7073E-01  0.7298E-01  0.7073E-01  0.7298E-01
      5.187  0.1096E+00  0.4572E-02  0.4572E-02  0.4572E-02  0.1268E+00  0.1268E+00  0.1377E+00  0.1268E+00  0.1377E+00
      5.568  0.8372E-01  0.5168E-02  0.5168E-02  0.5168E-02  0.2103E+00  0.2103E+00  0.1330E+00  0.2103E+00  0.1330E+00
      5.949  0.3645E-01  0.5163E-02  0.5163E-02  0.5163E-02  0.1769E+00  0.1769E+00  0.1259E+00  0.1769E+00  0.1259E+00
      6.329  0.8810E-02  0.5216E-02  0.5216E-02  0.5216E-02  0.1398E+00  0.1398E+00  0.9851E-01  0.1398E+00  0.9851E-01
      6.710  0.8667E-02  0.8381E-02  0.8381E-02  0.8381E-02  0.1850E+00  0.1850E+00  0.2162E+00  0.1850E+00  0.2162E+00
      7.091  0.1461E-01  0.7070E-02  0.7070E-02  0.7070E-02  0.2415E+00  0.2415E+00  0.1682E+00  0.2415E+00  0.1682E+00
      7.471  0.2328E-01  0.9699E-02  0.9699E-02  0.9699E-02  0.2649E+00  0.2649E+00  0.2006E+00  0.2649E+00  0.2006E+00
      7.852  0.2676E-01  0.1309E-01  0.1309E-01  0.1309E-01  0.3507E+00  0.3507E+00  0.2793E+00  0.3507E+00  0.2793E+00
      8.233  0.1817E-01  0.7701E-02  0.7701E-02  0.7701E-02  0.3142E+00  0.3142E+00  0.2372E+00  0.3142E+00  0.2372E+00
      8.613  0.1272E-01  0.8232E-02  0.8232E-02  0.8232E-02  0.1861E+00  0.1861E+00  0.2012E+00  0.1861E+00  0.2012E+00
      8.994  0.1150E-01  0.6606E-02  0.6606E-02  0.6606E-02  0.1433E+00  0.1433E+00  0.3055E+00  0.1433E+00  0.3055E+00
      9.375  0.1169E-01  0.6270E-02  0.6270E-02  0.6270E-02  0.1300E+00  0.1300E+00  0.4435E+00  0.1300E+00  0.4435E+00
      9.755  0.1260E-01  0.4713E-02  0.4713E-02  0.4713E-02  0.1608E+00  0.1608E+00  0.3828E+00  0.1608E+00  0.3828E+00
     10.136  0.1678E-02  0.3045E-02  0.3045E-02  0.3045E-02  0.1286E+00  0.1286E+00  0.2180E+00  0.1286E+00  0.2180E+00
     10.516  0.8850E-02  0.3315E-02  0.3315E-02  0.3315E-02  0.1738E+00  0.1738E+00  0.2647E+00  0.1738E+00  0.2647E+00
     10.897  0.6626E-02  0.1983E-02  0.1983E-02  0.1983E-02  0.3540E+00  0.3540E+00  0.3266E+00  0.3540E+00  0.3266E+00
     11.278  0.1519E-01  0.3183E-02  0.3183E-02  0.3183E-02  0.3769E+00  0.3769E+00  0.1903E+00  0.3769E+00  0.1903E+00
     11.658  0.5088E-02  0.8192E-03  0.8192E-03  0.8192E-03  0.1014E+00  0.1014E+00  0.2339E-01  0.1014E+00  0.2339E-01
     12.039  0.2678E-01  0.5187E-02  0.5187E-02  0.5187E-02  0.6825E-01  0.6825E-01  0.5915E-01  0.6825E-01  0.5915E-01
     12.420  0.8976E-02  0.3485E-02  0.3485E-02  0.3485E-02  0.2032E-01  0.2032E-01  0.1491E-01  0.2032E-01  0.1491E-01