   1   1   1   0
  0.1575601E+02  0.2813976E-09  0.2813976E-09  0.2813976E-09  0.5000000E-15
  1.000000000000000E-004
  CAR 
 Pt-fcc                                  
     67.89962028    -46.79277999  301     11.23418282      1.00000000
    -46.793  0.0000E+00  0.0000E+00
    -46.410  0.0000E+00  0.0000E+00
    -46.028  0.0000E+00  0.0000E+00
    -45.646  0.0000E+00  0.0000E+00
    -45.264  0.0000E+00  0.0000E+00
    -44.881  0.0000E+00  0.0000E+00
    -44.499  0.0000E+00  0.0000E+00
    -44.117  0.0000E+00  0.0000E+00
    -43.734  0.0000E+00  0.0000E+00
    -43.352  0.0000E+00  0.0000E+00
    -42.970  0.0000E+00  0.0000E+00
    -42.587  0.0000E+00  0.0000E+00
    -42.205  0.0000E+00  0.0000E+00
    -41.823  0.1360E-14  0.5200E-15
    -41.440  0.4245E-01  0.1623E-01
    -41.058  0.1117E+00  0.6000E-01
    -40.676  0.0000E+00  0.6000E-01
    -40.294  0.0000E+00  0.6000E-01
    -39.911  0.0000E+00  0.6000E-01
    -39.529  0.0000E+00  0.6000E-01
    -39.147  0.0000E+00  0.6000E-01
    -38.764  0.0000E+00  0.6000E-01
    -38.382  0.0000E+00  0.6000E-01
    -38.000  0.0000E+00  0.6000E-01
    -37.617  0.0000E+00  0.6000E-01
    -37.235  0.0000E+00  0.6000E-01
    -36.853  0.0000E+00  0.6000E-01
    -36.470  0.0000E+00  0.6000E-01
    -36.088  0.0000E+00  0.6000E-01
    -35.706  0.0000E+00  0.6000E-01
    -35.324  0.0000E+00  0.6000E-01
    -34.941  0.0000E+00  0.6000E-01
    -34.559  0.0000E+00  0.6000E-01
    -34.177  0.0000E+00  0.6000E-01
    -33.794  0.0000E+00  0.6000E-01
    -33.412  0.0000E+00  0.6000E-01
    -33.030  0.0000E+00  0.6000E-01
    -32.647  0.0000E+00  0.6000E-01
    -32.265  0.0000E+00  0.6000E-01
    -31.883  0.0000E+00  0.6000E-01
    -31.500  0.0000E+00  0.6000E-01
    -31.118  0.0000E+00  0.6000E-01
    -30.736  0.0000E+00  0.6000E-01
    -30.354  0.0000E+00  0.6000E-01
    -29.971  0.0000E+00  0.6000E-01
    -29.589  0.0000E+00  0.6000E-01
    -29.207  0.0000E+00  0.6000E-01
    -28.824  0.0000E+00  0.6000E-01
    -28.442  0.0000E+00  0.6000E-01
    -28.060  0.0000E+00  0.6000E-01
    -27.677  0.0000E+00  0.6000E-01
    -27.295  0.0000E+00  0.6000E-01
    -26.913  0.0000E+00  0.6000E-01
    -26.530  0.0000E+00  0.6000E-01
    -26.148  0.0000E+00  0.6000E-01
    -25.766  0.0000E+00  0.6000E-01
    -25.384  0.0000E+00  0.6000E-01
    -25.001  0.0000E+00  0.6000E-01
    -24.619  0.0000E+00  0.6000E-01
    -24.237  0.0000E+00  0.6000E-01
    -23.854  0.0000E+00  0.6000E-01
    -23.472  0.0000E+00  0.6000E-01
    -23.090  0.0000E+00  0.6000E-01
    -22.707  0.0000E+00  0.6000E-01
    -22.325  0.0000E+00  0.6000E-01
    -21.943  0.0000E+00  0.6000E-01
    -21.560  0.0000E+00  0.6000E-01
    -21.178  0.0000E+00  0.6000E-01
    -20.796  0.0000E+00  0.6000E-01
    -20.414  0.0000E+00  0.6000E-01
    -20.031  0.0000E+00  0.6000E-01
    -19.649  0.0000E+00  0.6000E-01
    -19.267  0.0000E+00  0.6000E-01
    -18.884  0.0000E+00  0.6000E-01
    -18.502  0.0000E+00  0.6000E-01
    -18.120  0.0000E+00  0.6000E-01
    -17.737  0.0000E+00  0.6000E-01
    -17.355  0.0000E+00  0.6000E-01
    -16.973  0.0000E+00  0.6000E-01
    -16.590  0.0000E+00  0.6000E-01
    -16.208  0.0000E+00  0.6000E-01
    -15.826  0.0000E+00  0.6000E-01
    -15.444  0.0000E+00  0.6000E-01
    -15.061  0.0000E+00  0.6000E-01
    -14.679  0.0000E+00  0.6000E-01
    -14.297  0.0000E+00  0.6000E-01
    -13.914  0.0000E+00  0.6000E-01
    -13.532  0.0000E+00  0.6000E-01
    -13.150  0.0000E+00  0.6000E-01
    -12.767  0.0000E+00  0.6000E-01
    -12.385  0.0000E+00  0.6000E-01
    -12.003  0.0000E+00  0.6000E-01
    -11.620  0.0000E+00  0.6000E-01
    -11.238  0.0000E+00  0.6000E-01
    -10.856  0.0000E+00  0.6000E-01
    -10.474  0.0000E+00  0.6000E-01
    -10.091  0.0000E+00  0.6000E-01
     -9.709  0.0000E+00  0.6000E-01
     -9.327  0.0000E+00  0.6000E-01
     -8.944  0.0000E+00  0.6000E-01
     -8.562  0.0000E+00  0.6000E-01
     -8.180  0.0000E+00  0.6000E-01
     -7.797  0.0000E+00  0.6000E-01
     -7.415  0.0000E+00  0.6000E-01
     -7.033  0.0000E+00  0.6000E-01
     -6.650  0.0000E+00  0.6000E-01
     -6.268  0.0000E+00  0.6000E-01
     -5.886  0.0000E+00  0.6000E-01
     -5.504  0.0000E+00  0.6000E-01
     -5.121  0.0000E+00  0.6000E-01
     -4.739  0.0000E+00  0.6000E-01
     -4.357  0.0000E+00  0.6000E-01
     -3.974  0.0000E+00  0.6000E-01
     -3.592  0.0000E+00  0.6000E-01
     -3.210  0.0000E+00  0.6000E-01
     -2.827  0.0000E+00  0.6000E-01
     -2.445  0.0000E+00  0.6000E-01
     -2.063  0.0000E+00  0.6000E-01
     -1.680  0.0000E+00  0.6000E-01
     -1.298  0.0000E+00  0.6000E-01
     -0.916  0.0000E+00  0.6000E-01
     -0.534  0.0000E+00  0.6000E-01
     -0.151  0.0000E+00  0.6000E-01
      0.231  0.0000E+00  0.6000E-01
      0.613  0.0000E+00  0.6000E-01
      0.996  0.0000E+00  0.6000E-01
      1.378  0.1197E-09  0.6000E-01
      1.760  0.1443E-03  0.6006E-01
      2.143  0.5870E-03  0.6028E-01
      2.525  0.7371E-03  0.6056E-01
      2.907  0.6418E-03  0.6081E-01
      3.290  0.1555E-02  0.6140E-01
      3.672  0.1311E-02  0.6190E-01
      4.054  0.1695E-02  0.6255E-01
      4.436  0.4205E-02  0.6416E-01
      4.819  0.6420E-02  0.6664E-01
      5.201  0.1111E-01  0.7094E-01
      5.583  0.1371E-01  0.7631E-01
      5.966  0.1306E-01  0.8140E-01
      6.348  0.1087E-01  0.8562E-01
      6.730  0.1276E-01  0.9056E-01
      7.113  0.1418E-01  0.9600E-01
      7.495  0.1724E-01  0.1027E+00
      7.877  0.1814E-01  0.1097E+00
      8.260  0.2250E-01  0.1187E+00
      8.642  0.1277E-01  0.1237E+00
      9.024  0.1212E-01  0.1284E+00
      9.406  0.1509E-01  0.1343E+00
      9.789  0.1294E-01  0.1395E+00
     10.171  0.1192E-01  0.1441E+00
     10.553  0.1380E-01  0.1495E+00
     10.936  0.1338E-01  0.1547E+00
     11.318  0.1858E-01  0.1620E+00
     11.700  0.1053E-01  0.1663E+00
     12.083  0.1570E-02  0.1669E+00
     12.465  0.4676E-02  0.1687E+00
     12.847  0.1273E-02  0.1692E+00
     13.230  0.3194E-02  0.1704E+00
     13.612  0.3199E-02  0.1717E+00
     13.994  0.2926E-02  0.1728E+00
     14.377  0.1371E-02  0.1733E+00
     14.759  0.3685E-02  0.1747E+00
     15.141  0.2432E-02  0.1757E+00
     15.523  0.2955E-02  0.1768E+00
     15.906  0.1811E-02  0.1776E+00
     16.288  0.1634E-02  0.1782E+00
     16.670  0.4102E-02  0.1798E+00
     17.053  0.2890E-02  0.1810E+00
     17.435  0.3475E-02  0.1823E+00
     17.817  0.2504E-02  0.1833E+00
     18.200  0.2511E-02  0.1844E+00
     18.582  0.3521E-02  0.1857E+00
     18.964  0.4297E-02  0.1874E+00
     19.347  0.2285E-02  0.1882E+00
     19.729  0.3175E-02  0.1895E+00
     20.111  0.3065E-02  0.1907E+00
     20.493  0.1795E-02  0.1914E+00
     20.876  0.2711E-02  0.1924E+00
     21.258  0.5707E-02  0.1946E+00
     21.640  0.2788E-02  0.1957E+00
     22.023  0.2580E-02  0.1967E+00
     22.405  0.5327E-02  0.1987E+00
     22.787  0.2382E-02  0.1996E+00
     23.170  0.6438E-02  0.2021E+00
     23.552  0.4090E-02  0.2038E+00
     23.934  0.3724E-02  0.2052E+00
     24.317  0.5115E-02  0.2072E+00
     24.699  0.5486E-02  0.2093E+00
     25.081  0.5232E-02  0.2114E+00
     25.463  0.4255E-02  0.2130E+00
     25.846  0.6701E-02  0.2156E+00
     26.228  0.6295E-02  0.2180E+00
     26.610  0.9284E-02  0.2216E+00
     26.993  0.6684E-02  0.2242E+00
     27.375  0.6629E-02  0.2268E+00
     27.757  0.5171E-02  0.2288E+00
     28.140  0.7836E-02  0.2319E+00
     28.522  0.4996E-02  0.2339E+00
     28.904  0.3201E-02  0.2351E+00
     29.287  0.2279E-02  0.2360E+00
     29.669  0.5983E-02  0.2383E+00
     30.051  0.5499E-02  0.2404E+00
     30.433  0.6862E-02  0.2431E+00
     30.816  0.9271E-02  0.2467E+00
     31.198  0.7003E-02  0.2495E+00
     31.580  0.6147E-02  0.2519E+00
     31.963  0.6868E-02  0.2545E+00
     32.345  0.5174E-02  0.2565E+00
     32.727  0.5018E-02  0.2585E+00
     33.110  0.2889E-02  0.2596E+00
     33.492  0.2622E-02  0.2607E+00
     33.874  0.5719E-02  0.2629E+00
     34.257  0.3908E-02  0.2644E+00
     34.639  0.4524E-02  0.2662E+00
     35.021  0.4216E-02  0.2678E+00
     35.403  0.3741E-02  0.2693E+00
     35.786  0.8922E-02  0.2728E+00
     36.168  0.4168E-02  0.2745E+00
     36.550  0.5584E-02  0.2766E+00
     36.933  0.3355E-02  0.2780E+00
     37.315  0.6381E-02  0.2805E+00
     37.697  0.1007E-01  0.2844E+00
     38.080  0.4696E-02  0.2863E+00
     38.462  0.1359E-01  0.2916E+00
     38.844  0.1249E-01  0.2966E+00
     39.227  0.9362E-02  0.3002E+00
     39.609  0.9956E-02  0.3041E+00
     39.991  0.7030E-02  0.3069E+00
     40.373  0.7363E-02  0.3097E+00
     40.756  0.3591E-02  0.3111E+00
     41.138  0.5414E-02  0.3132E+00
     41.520  0.1019E-01  0.3171E+00
     41.903  0.1122E-01  0.3214E+00
     42.285  0.5918E-02  0.3238E+00
     42.667  0.8053E-02  0.3269E+00
     43.050  0.4691E-02  0.3287E+00
     43.432  0.8343E-02  0.3320E+00
     43.814  0.8156E-02  0.3351E+00
     44.197  0.4004E-02  0.3366E+00
     44.579  0.3809E-02  0.3381E+00
     44.961  0.7615E-02  0.3410E+00
     45.343  0.6518E-02  0.3435E+00
     45.726  0.8026E-02  0.3467E+00
     46.108  0.8771E-02  0.3500E+00
     46.490  0.1006E-01  0.3540E+00
     46.873  0.1173E-01  0.3586E+00
     47.255  0.1153E-01  0.3631E+00
     47.637  0.9525E-02  0.3669E+00
     48.020  0.8020E-02  0.3699E+00
     48.402  0.1313E-01  0.3750E+00
     48.784  0.7675E-02  0.3779E+00
     49.167  0.8215E-02  0.3811E+00
     49.549  0.7839E-02  0.3842E+00
     49.931  0.5677E-02  0.3864E+00
     50.313  0.7103E-02  0.3893E+00
     50.696  0.6421E-02  0.3918E+00
     51.078  0.9856E-02  0.3956E+00
     51.460  0.7979E-02  0.3987E+00
     51.843  0.8331E-02  0.4019E+00
     52.225  0.5937E-01  0.4248E+00
     52.607  0.9108E-02  0.4283E+00
     52.990  0.9321E-02  0.4319E+00
     53.372  0.9236E-02  0.4354E+00
     53.754  0.6261E-02  0.4379E+00
     54.137  0.7667E-02  0.4410E+00
     54.519  0.7919E-02  0.4440E+00
     54.901  0.8718E-02  0.4474E+00
     55.283  0.9684E-02  0.4512E+00
     55.666  0.9819E-02  0.4550E+00
     56.048  0.6742E-02  0.4576E+00
     56.430  0.8045E-02  0.4608E+00
     56.813  0.7903E-02  0.4639E+00
     57.195  0.9050E-02  0.4673E+00
     57.577  0.5381E-02  0.4695E+00
     57.960  0.5705E-02  0.4717E+00
     58.342  0.7110E-02  0.4745E+00
     58.724  0.3314E-02  0.4757E+00
     59.107  0.1353E-02  0.4763E+00
     59.489  0.2256E-02  0.4772E+00
     59.871  0.2696E-02  0.4782E+00
     60.253  0.2080E-02  0.4790E+00
     60.636  0.3284E-03  0.4792E+00
     61.018  0.1241E-02  0.4796E+00
     61.400  0.0000E+00  0.4796E+00
     61.783  0.4293E-03  0.4798E+00
     62.165  0.1248E-03  0.4799E+00
     62.547  0.1322E-07  0.4799E+00
     62.930  0.3139E-03  0.4800E+00
     63.312  0.0000E+00  0.4800E+00
     63.694  0.0000E+00  0.4800E+00
     64.077  0.0000E+00  0.4800E+00
     64.459  0.0000E+00  0.4800E+00
     64.841  0.0000E+00  0.4800E+00
     65.223  0.0000E+00  0.4800E+00
     65.606  0.0000E+00  0.4800E+00
     65.988  0.0000E+00  0.4800E+00
     66.370  0.0000E+00  0.4800E+00
     66.753  0.0000E+00  0.4800E+00
     67.135  0.0000E+00  0.4800E+00
     67.517  0.0000E+00  0.4800E+00
     67.900  0.0000E+00  0.4800E+00
     67.89962028    -46.79277999  301     11.23418282      1.00000000
    -46.793  0.0000E+00  0.0000E+00  0.0000E+00  0.0000E+00  0.0000E+00  0.0000E+00  0.0000E+00  0.0000E+00  0.0000E+00
    -46.410  0.0000E+00  0.0000E+00  0.0000E+00  0.0000E+00  0.0000E+00  0.0000E+00  0.0000E+00  0.0000E+00  0.0000E+00
    -46.028  0.0000E+00  0.0000E+00  0.0000E+00  0.0000E+00  0.0000E+00  0.0000E+00  0.0000E+00  0.0000E+00  0.0000E+00
    -45.646  0.0000E+00  0.0000E+00  0.0000E+00  0.0000E+00  0.0000E+00  0.0000E+00  0.0000E+00  0.0000E+00  0.0000E+00
    -45.264  0.0000E+00  0.0000E+00  0.0000E+00  0.0000E+00  0.0000E+00  0.0000E+00  0.0000E+00  0.0000E+00  0.0000E+00
    -44.881  0.0000E+00  0.0000E+00  0.0000E+00  0.0000E+00  0.0000E+00  0.0000E+00  0.0000E+00  0.0000E+00  0.0000E+00
    -44.499  0.0000E+00  0.0000E+00  0.0000E+00  0.0000E+00  0.0000E+00  0.0000E+00  0.0000E+00  0.0000E+00  0.0000E+00
    -44.117  0.0000E+00  0.0000E+00  0.0000E+00  0.0000E+00  0.0000E+00  0.0000E+00  0.0000E+00  0.0000E+00  0.0000E+00
    -43.734  0.0000E+00  0.0000E+00  0.0000E+00  0.0000E+00  0.0000E+00  0.0000E+00  0.0000E+00  0.0000E+00  0.0000E+00
    -43.352  0.0000E+00  0.0000E+00  0.0000E+00  0.0000E+00  0.0000E+00  0.0000E+00  0.0000E+00  0.0000E+00  0.0000E+00
    -42.970  0.0000E+00  0.0000E+00  0.0000E+00  0.0000E+00  0.0000E+00  0.0000E+00  0.0000E+00  0.0000E+00  0.0000E+00
    -42.587  0.0000E+00  0.0000E+00  0.0000E+00  0.0000E+00  0.0000E+00  0.0000E+00  0.0000E+00  0.0000E+00  0.0000E+00
    -42.205  0.0000E+00  0.0000E+00  0.0000E+00  0.0000E+00  0.0000E+00  0.0000E+00  0.0000E+00  0.0000E+00  0.0000E+00
    -41.823  0.2609E-18  0.4456E-13  0.4456E-13  0.4456E-13  0.1394E-18  0.1394E-18  0.9793E-19  0.1394E-18  0.9793E-19
    -41.440  0.9807E-04  0.1394E+01  0.1394E+01  0.1394E+01  0.2937E-04  0.2937E-04  0.1281E-04  0.2937E-04  0.1281E-04
    -41.058  0.9781E-04  0.3697E+01  0.3697E+01  0.3697E+01  0.7881E-04  0.7881E-04  0.4421E-04  0.7881E-04  0.4421E-04
    -40.676  0.0000E+00  0.0000E+00  0.0000E+00  0.0000E+00  0.0000E+00  0.0000E+00  0.0000E+00  0.0000E+00  0.0000E+00
    -40.294  0.0000E+00  0.0000E+00  0.0000E+00  0.0000E+00  0.0000E+00  0.0000E+00  0.0000E+00  0.0000E+00  0.0000E+00
    -39.911  0.0000E+00  0.0000E+00  0.0000E+00  0.0000E+00  0.0000E+00  0.0000E+00  0.0000E+00  0.0000E+00  0.0000E+00
    -39.529  0.0000E+00  0.0000E+00  0.0000E+00  0.0000E+00  0.0000E+00  0.0000E+00  0.0000E+00  0.0000E+00  0.0000E+00
    -39.147  0.0000E+00  0.0000E+00  0.0000E+00  0.0000E+00  0.0000E+00  0.0000E+00  0.0000E+00  0.0000E+00  0.0000E+00
    -38.764  0.0000E+00  0.0000E+00  0.0000E+00  0.0000E+00  0.0000E+00  0.0000E+00  0.0000E+00  0.0000E+00  0.0000E+00
    -38.382  0.0000E+00  0.0000E+00  0.0000E+00  0.0000E+00  0.0000E+00  0.0000E+00  0.0000E+00  0.0000E+00  0.0000E+00
    -38.000  0.0000E+00  0.0000E+00  0.0000E+00  0.0000E+00  0.0000E+00  0.0000E+00  0.0000E+00  0.0000E+00  0.0000E+00
    -37.617  0.0000E+00  0.0000E+00  0.0000E+00  0.0000E+00  0.0000E+00  0.0000E+00  0.0000E+00  0.0000E+00  0.0000E+00
    -37.235  0.0000E+00  0.0000E+00  0.0000E+00  0.0000E+00  0.0000E+00  0.0000E+00  0.0000E+00  0.0000E+00  0.0000E+00
    -36.853  0.0000E+00  0.0000E+00  0.0000E+00  0.0000E+00  0.0000E+00  0.0000E+00  0.0000E+00  0.0000E+00  0.0000E+00
    -36.470  0.0000E+00  0.0000E+00  0.0000E+00  0.0000E+00  0.0000E+00  0.0000E+00  0.0000E+00  0.0000E+00  0.0000E+00
    -36.088  0.0000E+00  0.0000E+00  0.0000E+00  0.0000E+00  0.0000E+00  0.0000E+00  0.0000E+00  0.0000E+00  0.0000E+00
    -35.706  0.0000E+00  0.0000E+00  0.0000E+00  0.0000E+00  0.0000E+00  0.0000E+00  0.0000E+00  0.0000E+00  0.0000E+00
    -35.324  0.0000E+00  0.0000E+00  0.0000E+00  0.0000E+00  0.0000E+00  0.0000E+00  0.0000E+00  0.0000E+00  0.0000E+00
    -34.941  0.0000E+00  0.0000E+00  0.0000E+00  0.0000E+00  0.0000E+00  0.0000E+00  0.0000E+00  0.0000E+00  0.0000E+00
    -34.559  0.0000E+00  0.0000E+00  0.0000E+00  0.0000E+00  0.0000E+00  0.0000E+00  0.0000E+00  0.0000E+00  0.0000E+00
    -34.177  0.0000E+00  0.0000E+00  0.0000E+00  0.0000E+00  0.0000E+00  0.0000E+00  0.0000E+00  0.0000E+00  0.0000E+00
    -33.794  0.0000E+00  0.0000E+00  0.0000E+00  0.0000E+00  0.0000E+00  0.0000E+00  0.0000E+00  0.0000E+00  0.0000E+00
    -33.412  0.0000E+00  0.0000E+00  0.0000E+00  0.0000E+00  0.0000E+00  0.0000E+00  0.0000E+00  0.0000E+00  0.0000E+00
    -33.030  0.0000E+00  0.0000E+00  0.0000E+00  0.0000E+00  0.0000E+00  0.0000E+00  0.0000E+00  0.0000E+00  0.0000E+00
    -32.647  0.0000E+00  0.0000E+00  0.0000E+00  0.0000E+00  0.0000E+00  0.0000E+00  0.0000E+00  0.0000E+00  0.0000E+00
    -32.265  0.0000E+00  0.0000E+00  0.0000E+00  0.0000E+00  0.0000E+00  0.0000E+00  0.0000E+00  0.0000E+00  0.0000E+00
    -31.883  0.0000E+00  0.0000E+00  0.0000E+00  0.0000E+00  0.0000E+00  0.0000E+00  0.0000E+00  0.0000E+00  0.0000E+00
    -31.500  0.0000E+00  0.0000E+00  0.0000E+00  0.0000E+00  0.0000E+00  0.0000E+00  0.0000E+00  0.0000E+00  0.0000E+00
    -31.118  0.0000E+00  0.0000E+00  0.0000E+00  0.0000E+00  0.0000E+00  0.0000E+00  0.0000E+00  0.0000E+00  0.0000E+00
    -30.736  0.0000E+00  0.0000E+00  0.0000E+00  0.0000E+00  0.0000E+00  0.0000E+00  0.0000E+00  0.0000E+00  0.0000E+00
    -30.354  0.0000E+00  0.0000E+00  0.0000E+00  0.0000E+00  0.0000E+00  0.0000E+00  0.0000E+00  0.0000E+00  0.0000E+00
    -29.971  0.0000E+00  0.0000E+00  0.0000E+00  0.0000E+00  0.0000E+00  0.0000E+00  0.0000E+00  0.0000E+00  0.0000E+00
    -29.589  0.0000E+00  0.0000E+00  0.0000E+00  0.0000E+00  0.0000E+00  0.0000E+00  0.0000E+00  0.0000E+00  0.0000E+00
    -29.207  0.0000E+00  0.0000E+00  0.0000E+00  0.0000E+00  0.0000E+00  0.0000E+00  0.0000E+00  0.0000E+00  0.0000E+00
    -28.824  0.0000E+00  0.0000E+00  0.0000E+00  0.0000E+00  0.0000E+00  0.0000E+00  0.0000E+00  0.0000E+00  0.0000E+00
    -28.442  0.0000E+00  0.0000E+00  0.0000E+00  0.0000E+00  0.0000E+00  0.0000E+00  0.0000E+00  0.0000E+00  0.0000E+00
    -28.060  0.0000E+00  0.0000E+00  0.0000E+00  0.0000E+00  0.0000E+00  0.0000E+00  0.0000E+00  0.0000E+00  0.0000E+00
    -27.677  0.0000E+00  0.0000E+00  0.0000E+00  0.0000E+00  0.0000E+00  0.0000E+00  0.0000E+00  0.0000E+00  0.0000E+00
    -27.295  0.0000E+00  0.0000E+00  0.0000E+00  0.0000E+00  0.0000E+00  0.0000E+00  0.0000E+00  0.0000E+00  0.0000E+00
    -26.913  0.0000E+00  0.0000E+00  0.0000E+00  0.0000E+00  0.0000E+00  0.0000E+00  0.0000E+00  0.0000E+00  0.0000E+00
    -26.530  0.0000E+00  0.0000E+00  0.0000E+00  0.0000E+00  0.0000E+00  0.0000E+00  0.0000E+00  0.0000E+00  0.0000E+00
    -26.148  0.0000E+00  0.0000E+00  0.0000E+00  0.0000E+00  0.0000E+00  0.0000E+00  0.0000E+00  0.0000E+00  0.0000E+00
    -25.766  0.0000E+00  0.0000E+00  0.0000E+00  0.0000E+00  0.0000E+00  0.0000E+00  0.0000E+00  0.0000E+00  0.0000E+00
    -25.384  0.0000E+00  0.0000E+00  0.0000E+00  0.0000E+00  0.0000E+00  0.0000E+00  0.0000E+00  0.0000E+00  0.0000E+00
    -25.001  0.0000E+00  0.0000E+00  0.0000E+00  0.0000E+00  0.0000E+00  0.0000E+00  0.0000E+00  0.0000E+00  0.0000E+00
    -24.619  0.0000E+00  0.0000E+00  0.0000E+00  0.0000E+00  0.0000E+00  0.0000E+00  0.0000E+00  0.0000E+00  0.0000E+00
    -24.237  0.0000E+00  0.0000E+00  0.0000E+00  0.0000E+00  0.0000E+00  0.0000E+00  0.0000E+00  0.0000E+00  0.0000E+00
    -23.854  0.0000E+00  0.0000E+00  0.0000E+00  0.0000E+00  0.0000E+00  0.0000E+00  0.0000E+00  0.0000E+00  0.0000E+00
    -23.472  0.0000E+00  0.0000E+00  0.0000E+00  0.0000E+00  0.0000E+00  0.0000E+00  0.0000E+00  0.0000E+00  0.0000E+00
    -23.090  0.0000E+00  0.0000E+00  0.0000E+00  0.0000E+00  0.0000E+00  0.0000E+00  0.0000E+00  0.0000E+00  0.0000E+00
    -22.707  0.0000E+00  0.0000E+00  0.0000E+00  0.0000E+00  0.0000E+00  0.0000E+00  0.0000E+00  0.0000E+00  0.0000E+00
    -22.325  0.0000E+00  0.0000E+00  0.0000E+00  0.0000E+00  0.0000E+00  0.0000E+00  0.0000E+00  0.0000E+00  0.0000E+00
    -21.943  0.0000E+00  0.0000E+00  0.0000E+00  0.0000E+00  0.0000E+00  0.0000E+00  0.0000E+00  0.0000E+00  0.0000E+00
    -21.560  0.0000E+00  0.0000E+00  0.0000E+00  0.0000E+00  0.0000E+00  0.0000E+00  0.0000E+00  0.0000E+00  0.0000E+00
    -21.178  0.0000E+00  0.0000E+00  0.0000E+00  0.0000E+00  0.0000E+00  0.0000E+00  0.0000E+00  0.0000E+00  0.0000E+00
    -20.796  0.0000E+00  0.0000E+00  0.0000E+00  0.0000E+00  0.0000E+00  0.0000E+00  0.0000E+00  0.0000E+00  0.0000E+00
    -20.414  0.0000E+00  0.0000E+00  0.0000E+00  0.0000E+00  0.0000E+00  0.0000E+00  0.0000E+00  0.0000E+00  0.0000E+00
    -20.031  0.0000E+00  0.0000E+00  0.0000E+00  0.0000E+00  0.0000E+00  0.0000E+00  0.0000E+00  0.0000E+00  0.0000E+00
    -19.649  0.0000E+00  0.0000E+00  0.0000E+00  0.0000E+00  0.0000E+00  0.0000E+00  0.0000E+00  0.0000E+00  0.0000E+00
    -19.267  0.0000E+00  0.0000E+00  0.0000E+00  0.0000E+00  0.0000E+00  0.0000E+00  0.0000E+00  0.0000E+00  0.0000E+00
    -18.884  0.0000E+00  0.0000E+00  0.0000E+00  0.0000E+00  0.0000E+00  0.0000E+00  0.0000E+00  0.0000E+00  0.0000E+00
    -18.502  0.0000E+00  0.0000E+00  0.0000E+00  0.0000E+00  0.0000E+00  0.0000E+00  0.0000E+00  0.0000E+00  0.0000E+00
    -18.120  0.0000E+00  0.0000E+00  0.0000E+00  0.0000E+00  0.0000E+00  0.0000E+00  0.0000E+00  0.0000E+00  0.0000E+00
    -17.737  0.0000E+00  0.0000E+00  0.0000E+00  0.0000E+00  0.0000E+00  0.0000E+00  0.0000E+00  0.0000E+00  0.0000E+00
    -17.355  0.0000E+00  0.0000E+00  0.0000E+00  0.0000E+00  0.0000E+00  0.0000E+00  0.0000E+00  0.0000E+00  0.0000E+00
    -16.973  0.0000E+00  0.0000E+00  0.0000E+00  0.0000E+00  0.0000E+00  0.0000E+00  0.0000E+00  0.0000E+00  0.0000E+00
    -16.590  0.0000E+00  0.0000E+00  0.0000E+00  0.0000E+00  0.0000E+00  0.0000E+00  0.0000E+00  0.0000E+00  0.0000E+00
    -16.208  0.0000E+00  0.0000E+00  0.0000E+00  0.0000E+00  0.0000E+00  0.0000E+00  0.0000E+00  0.0000E+00  0.0000E+00
    -15.826  0.0000E+00  0.0000E+00  0.0000E+00  0.0000E+00  0.0000E+00  0.0000E+00  0.0000E+00  0.0000E+00  0.0000E+00
    -15.444  0.0000E+00  0.0000E+00  0.0000E+00  0.0000E+00  0.0000E+00  0.0000E+00  0.0000E+00  0.0000E+00  0.0000E+00
    -15.061  0.0000E+00  0.0000E+00  0.0000E+00  0.0000E+00  0.0000E+00  0.0000E+00  0.0000E+00  0.0000E+00  0.0000E+00
    -14.679  0.0000E+00  0.0000E+00  0.0000E+00  0.0000E+00  0.0000E+00  0.0000E+00  0.0000E+00  0.0000E+00  0.0000E+00
    -14.297  0.0000E+00  0.0000E+00  0.0000E+00  0.0000E+00  0.0000E+00  0.0000E+00  0.0000E+00  0.0000E+00  0.0000E+00
    -13.914  0.0000E+00  0.0000E+00  0.0000E+00  0.0000E+00  0.0000E+00  0.0000E+00  0.0000E+00  0.0000E+00  0.0000E+00
    -13.532  0.0000E+00  0.0000E+00  0.0000E+00  0.0000E+00  0.0000E+00  0.0000E+00  0.0000E+00  0.0000E+00  0.0000E+00
    -13.150  0.0000E+00  0.0000E+00  0.0000E+00  0.0000E+00  0.0000E+00  0.0000E+00  0.0000E+00  0.0000E+00  0.0000E+00
    -12.767  0.0000E+00  0.0000E+00  0.0000E+00  0.0000E+00  0.0000E+00  0.0000E+00  0.0000E+00  0.0000E+00  0.0000E+00
    -12.385  0.0000E+00  0.0000E+00  0.0000E+00  0.0000E+00  0.0000E+00  0.0000E+00  0.0000E+00  0.0000E+00  0.0000E+00
    -12.003  0.0000E+00  0.0000E+00  0.0000E+00  0.0000E+00  0.0000E+00  0.0000E+00  0.0000E+00  0.0000E+00  0.0000E+00
    -11.620  0.0000E+00  0.0000E+00  0.0000E+00  0.0000E+00  0.0000E+00  0.0000E+00  0.0000E+00  0.0000E+00  0.0000E+00
    -11.238  0.0000E+00  0.0000E+00  0.0000E+00  0.0000E+00  0.0000E+00  0.0000E+00  0.0000E+00  0.0000E+00  0.0000E+00
    -10.856  0.0000E+00  0.0000E+00  0.0000E+00  0.0000E+00  0.0000E+00  0.0000E+00  0.0000E+00  0.0000E+00  0.0000E+00
    -10.474  0.0000E+00  0.0000E+00  0.0000E+00  0.0000E+00  0.0000E+00  0.0000E+00  0.0000E+00  0.0000E+00  0.0000E+00
    -10.091  0.0000E+00  0.0000E+00  0.0000E+00  0.0000E+00  0.0000E+00  0.0000E+00  0.0000E+00  0.0000E+00  0.0000E+00
     -9.709  0.0000E+00  0.0000E+00  0.0000E+00  0.0000E+00  0.0000E+00  0.0000E+00  0.0000E+00  0.0000E+00  0.0000E+00
     -9.327  0.0000E+00  0.0000E+00  0.0000E+00  0.0000E+00  0.0000E+00  0.0000E+00  0.0000E+00  0.0000E+00  0.0000E+00
     -8.944  0.0000E+00  0.0000E+00  0.0000E+00  0.0000E+00  0.0000E+00  0.0000E+00  0.0000E+00  0.0000E+00  0.0000E+00
     -8.562  0.0000E+00  0.0000E+00  0.0000E+00  0.0000E+00  0.0000E+00  0.0000E+00  0.0000E+00  0.0000E+00  0.0000E+00
     -8.180  0.0000E+00  0.0000E+00  0.0000E+00  0.0000E+00  0.0000E+00  0.0000E+00  0.0000E+00  0.0000E+00  0.0000E+00
     -7.797  0.0000E+00  0.0000E+00  0.0000E+00  0.0000E+00  0.0000E+00  0.0000E+00  0.0000E+00  0.0000E+00  0.0000E+00
     -7.415  0.0000E+00  0.0000E+00  0.0000E+00  0.0000E+00  0.0000E+00  0.0000E+00  0.0000E+00  0.0000E+00  0.0000E+00
     -7.033  0.0000E+00  0.0000E+00  0.0000E+00  0.0000E+00  0.0000E+00  0.0000E+00  0.0000E+00  0.0000E+00  0.0000E+00
     -6.650  0.0000E+00  0.0000E+00  0.0000E+00  0.0000E+00  0.0000E+00  0.0000E+00  0.0000E+00  0.0000E+00  0.0000E+00
     -6.268  0.0000E+00  0.0000E+00  0.0000E+00  0.0000E+00  0.0000E+00  0.0000E+00  0.0000E+00  0.0000E+00  0.0000E+00
     -5.886  0.0000E+00  0.0000E+00  0.0000E+00  0.0000E+00  0.0000E+00  0.0000E+00  0.0000E+00  0.0000E+00  0.0000E+00
     -5.504  0.0000E+00  0.0000E+00  0.0000E+00  0.0000E+00  0.0000E+00  0.0000E+00  0.0000E+00  0.0000E+00  0.0000E+00
     -5.121  0.0000E+00  0.0000E+00  0.0000E+00  0.0000E+00  0.0000E+00  0.0000E+00  0.0000E+00  0.0000E+00  0.0000E+00
     -4.739  0.0000E+00  0.0000E+00  0.0000E+00  0.0000E+00  0.0000E+00  0.0000E+00  0.0000E+00  0.0000E+00  0.0000E+00
     -4.357  0.0000E+00  0.0000E+00  0.0000E+00  0.0000E+00  0.0000E+00  0.0000E+00  0.0000E+00  0.0000E+00  0.0000E+00
     -3.974  0.0000E+00  0.0000E+00  0.0000E+00  0.0000E+00  0.0000E+00  0.0000E+00  0.0000E+00  0.0000E+00  0.0000E+00
     -3.592  0.0000E+00  0.0000E+00  0.0000E+00  0.0000E+00  0.0000E+00  0.0000E+00  0.0000E+00  0.0000E+00  0.0000E+00
     -3.210  0.0000E+00  0.0000E+00  0.0000E+00  0.0000E+00  0.0000E+00  0.0000E+00  0.0000E+00  0.0000E+00  0.0000E+00
     -2.827  0.0000E+00  0.0000E+00  0.0000E+00  0.0000E+00  0.0000E+00  0.0000E+00  0.0000E+00  0.0000E+00  0.0000E+00
     -2.445  0.0000E+00  0.0000E+00  0.0000E+00  0.0000E+00  0.0000E+00  0.0000E+00  0.0000E+00  0.0000E+00  0.0000E+00
     -2.063  0.0000E+00  0.0000E+00  0.0000E+00  0.0000E+00  0.0000E+00  0.0000E+00  0.0000E+00  0.0000E+00  0.0000E+00
     -1.680  0.0000E+00  0.0000E+00  0.0000E+00  0.0000E+00  0.0000E+00  0.0000E+00  0.0000E+00  0.0000E+00  0.0000E+00
     -1.298  0.0000E+00  0.0000E+00  0.0000E+00  0.0000E+00  0.0000E+00  0.0000E+00  0.0000E+00  0.0000E+00  0.0000E+00
     -0.916  0.0000E+00  0.0000E+00  0.0000E+00  0.0000E+00  0.0000E+00  0.0000E+00  0.0000E+00  0.0000E+00  0.0000E+00
     -0.534  0.0000E+00  0.0000E+00  0.0000E+00  0.0000E+00  0.0000E+00  0.0000E+00  0.0000E+00  0.0000E+00  0.0000E+00
     -0.151  0.0000E+00  0.0000E+00  0.0000E+00  0.0000E+00  0.0000E+00  0.0000E+00  0.0000E+00  0.0000E+00  0.0000E+00
      0.231  0.0000E+00  0.0000E+00  0.0000E+00  0.0000E+00  0.0000E+00  0.0000E+00  0.0000E+00  0.0000E+00  0.0000E+00
      0.613  0.0000E+00  0.0000E+00  0.0000E+00  0.0000E+00  0.0000E+00  0.0000E+00  0.0000E+00  0.0000E+00  0.0000E+00
      0.996  0.0000E+00  0.0000E+00  0.0000E+00  0.0000E+00  0.0000E+00  0.0000E+00  0.0000E+00  0.0000E+00  0.0000E+00
      1.378  0.4594E-08  0.4986E-11  0.4986E-11  0.4986E-11  0.2968E-12  0.2968E-12  0.1994E-25  0.2968E-12  0.1994E-25
      1.760  0.5512E-02  0.1031E-04  0.1031E-04  0.1031E-04  0.8987E-06  0.8987E-06  0.5329E-06  0.8987E-06  0.5329E-06
      2.143  0.2201E-01  0.1195E-03  0.1195E-03  0.1195E-03  0.3189E-04  0.3189E-04  0.7406E-05  0.3189E-04  0.7406E-05
      2.525  0.2677E-01  0.2886E-03  0.2886E-03  0.2886E-03  0.1166E-03  0.1166E-03  0.7619E-04  0.1166E-03  0.7619E-04
      2.907  0.2280E-01  0.3045E-03  0.3045E-03  0.3045E-03  0.2781E-03  0.2781E-03  0.5275E-04  0.2781E-03  0.5275E-04
      3.290  0.5285E-01  0.1010E-02  0.1010E-02  0.1010E-02  0.9713E-03  0.9713E-03  0.6321E-03  0.9713E-03  0.6321E-03
      3.672  0.4181E-01  0.9881E-03  0.9881E-03  0.9881E-03  0.2255E-02  0.2255E-02  0.4292E-03  0.2255E-02  0.4292E-03
      4.054  0.5012E-01  0.1403E-02  0.1403E-02  0.1403E-02  0.3497E-02  0.3497E-02  0.2593E-02  0.3497E-02  0.2593E-02
      4.436  0.9706E-01  0.2528E-02  0.2528E-02  0.2528E-02  0.3253E-01  0.3253E-01  0.2777E-02  0.3253E-01  0.2777E-02
      4.819  0.1061E+00  0.3192E-02  0.3192E-02  0.3192E-02  0.5444E-01  0.5444E-01  0.3782E-01  0.5444E-01  0.3782E-01
      5.201  0.1170E+00  0.4436E-02  0.4436E-02  0.4436E-02  0.9567E-01  0.9567E-01  0.1276E+00  0.9567E-01  0.1276E+00
      5.583  0.8937E-01  0.4876E-02  0.4876E-02  0.4876E-02  0.1814E+00  0.1814E+00  0.1235E+00  0.1814E+00  0.1235E+00
      5.966  0.5665E-01  0.5227E-02  0.5227E-02  0.5227E-02  0.1828E+00  0.1828E+00  0.1298E+00  0.1828E+00  0.1298E+00
      6.348  0.1699E-01  0.5257E-02  0.5257E-02  0.5257E-02  0.1659E+00  0.1659E+00  0.1127E+00  0.1659E+00  0.1127E+00
      6.730  0.9721E-02  0.7889E-02  0.7889E-02  0.7889E-02  0.1853E+00  0.1853E+00  0.1511E+00  0.1853E+00  0.1511E+00
      7.113  0.9674E-02  0.7026E-02  0.7026E-02  0.7026E-02  0.1965E+00  0.1965E+00  0.2038E+00  0.1965E+00  0.2038E+00
      7.495  0.1915E-01  0.9884E-02  0.9884E-02  0.9884E-02  0.2844E+00  0.2844E+00  0.1831E+00  0.2844E+00  0.1831E+00
      7.877  0.2601E-01  0.1028E-01  0.1028E-01  0.1028E-01  0.2704E+00  0.2704E+00  0.2468E+00  0.2704E+00  0.2468E+00
      8.260  0.2301E-01  0.1123E-01  0.1123E-01  0.1123E-01  0.3882E+00  0.3882E+00  0.2637E+00  0.3882E+00  0.2637E+00
      8.642  0.1464E-01  0.8023E-02  0.8023E-02  0.8023E-02  0.1919E+00  0.1919E+00  0.1852E+00  0.1919E+00  0.1852E+00
      9.024  0.1433E-01  0.7791E-02  0.7791E-02  0.7791E-02  0.1513E+00  0.1513E+00  0.2274E+00  0.1513E+00  0.2274E+00
      9.406  0.7584E-02  0.5502E-02  0.5502E-02  0.5502E-02  0.1406E+00  0.1406E+00  0.4032E+00  0.1406E+00  0.4032E+00
      9.789  0.1100E-01  0.5067E-02  0.5067E-02  0.5067E-02  0.1128E+00  0.1128E+00  0.3583E+00  0.1128E+00  0.3583E+00
     10.171  0.7767E-02  0.3298E-02  0.3298E-02  0.3298E-02  0.1174E+00  0.1174E+00  0.3297E+00  0.1174E+00  0.3297E+00
     10.553  0.7922E-02  0.4115E-02  0.4115E-02  0.4115E-02  0.1942E+00  0.1942E+00  0.3032E+00  0.1942E+00  0.3032E+00
     10.936  0.5364E-02  0.2195E-02  0.2195E-02  0.2195E-02  0.2366E+00  0.2366E+00  0.2465E+00  0.2366E+00  0.2465E+00
     11.318  0.6786E-02  0.2029E-02  0.2029E-02  0.2029E-02  0.3964E+00  0.3964E+00  0.2595E+00  0.3964E+00  0.2595E+00
     11.700  0.1528E-01  0.2575E-02  0.2575E-02  0.2575E-02  0.2435E+00  0.2435E+00  0.1045E+00  0.2435E+00  0.1045E+00
     12.083  0.5821E-02  0.2396E-02  0.2396E-02  0.2396E-02  0.2096E-01  0.2096E-01  0.2102E-01  0.2096E-01  0.2102E-01
     12.465  0.2904E-01  0.6047E-02  0.6047E-02  0.6047E-02  0.6851E-01  0.6851E-01  0.5537E-01  0.6851E-01  0.5537E-01
     12.847  0.9170E-02  0.2195E-02  0.2195E-02  0.2195E-02  0.1736E-01  0.1736E-01  0.1233E-01  0.1736E-01  0.1233E-01