       N       E                     dE             d eps       ncg     rms          rms(c)
DAV:   1     0.182940447648E+02    0.18294E+02   -0.11620E+04  5880   0.583E+02
DAV:   2    -0.640005460358E+01   -0.24694E+02   -0.24521E+02  7152   0.928E+01
DAV:   3    -0.643807774037E+01   -0.38023E-01   -0.38021E-01  6504   0.407E+00
DAV:   4    -0.643811772961E+01   -0.39989E-04   -0.39987E-04  8808   0.949E-02
DAV:   5    -0.643811773000E+01   -0.38790E-09   -0.75915E-09  6408   0.316E-04    0.135E+01
DAV:   6    -0.609513833980E+01    0.34298E+00   -0.13427E+00  5856   0.510E+00    0.396E+00
DAV:   7    -0.607921124375E+01    0.15927E-01   -0.62987E-02  7896   0.909E-01    0.133E+00
DAV:   8    -0.607778735710E+01    0.14239E-02   -0.38673E-03  6096   0.472E-01    0.106E-01
DAV:   9    -0.607773593813E+01    0.51419E-04   -0.38301E-05  7416   0.445E-02    0.161E-02
DAV:  10    -0.607774220738E+01   -0.62692E-05   -0.57017E-06  7176   0.134E-02    0.568E-03
DAV:  11    -0.607774213295E+01    0.74431E-07   -0.48734E-09  3816   0.458E-04
   1 F= -.60777421E+01 E0= -.60764192E+01  d E =-.607774E+01
