 vasp.6.3.2 27Jun22 (build Aug 12 2022 00:53:59) complex                        
  
 executed on               tv2STD date 2024.11.30  17:14:44
 running   24 mpi-ranks, with    1 threads/rank
 distrk:  each k-point on   24 cores,    1 groups
 distr:  one band on NCORE=   1 cores,   24 groups


--------------------------------------------------------------------------------------------------------


 INCAR:
   SYSTEM = Pt-fcc
   NWRITE = 2    write-flag
   ISTART = 0    job   : 0-new, 1-cont, 2-samecut
   ICHARG = 2    charge: 0-wave, 1-file, 2-atom, >10-const
   INIWAV = 1    electr: 0-lowe 1-rand  2-diag
   ENCUT = 425.0     energy cutoff in eV
   PREC = accurate      normal | accurate
   ADDGRID = .FALSE.  (use fine grid)
   NELM = 100     number of ELM steps
   EDIFF = 1E-06    energy stopping-criterion for ELM
   LREAL = .FALSE.      real-space projection (.FALSE., .TRUE., On, Auto)
   ALGO = Normal     Normal, Fast, Very_Fast
   LWAVE = .TRUE.
   LCHARG = .TRUE.
   NSW = 100       max number of geometry steps
   IBRION = 2     ionic relax: 0-MD, 1-quasi-Newton, 2-CG, 3-Damped MD
   EDIFFG = -0.02  force (eV/A) stopping-criterion for geometry steps
   ISIF = 2     (1:force\=y stress\=trace only ions\=y shape\=n volume\=n)
   ISYM = 1     (1-use symmetry, 0-no symmetry)
   ISMEAR = 0     (-1-Fermi, 1-Methfessel/Paxton)
   SIGMA = 0.05   broadening in eV
   LORBIT = 11

 POTCAR:    PAW_PBE Pt_pv 12Dec2005               
 POTCAR:    PAW_PBE Pt_pv 12Dec2005               
   SHA256 =  e5abf7e8cd8db70d0153315afc5ad66b6e3eeee29cc2d5b91b16730957c1d208 Pt_pv/POTCAR          
   COPYR  = (c) Copyright 12Dec2005 Georg Kresse                                                    
   COPYR  = This file is part of the software VASP. Any use, copying, and all other rights are regul
   COPYR  = If you do not have a valid VASP license, you may not use, copy or distribute this file. 
   VRHFIN =Pt: 5ps1d9                                                                               
   LEXCH  = PE                                                                                      
   EATOM  =  2428.2504 eV,  178.4714 Ry                                                             
                                                                                                    
   TITEL  = PAW_PBE Pt_pv 12Dec2005                                                                 
   LULTRA =        F    use ultrasoft PP ?                                                          
   IUNSCR =        1    unscreen: 0-lin 1-nonlin 2-no                                               
   RPACOR =    2.000    partial core radius                                                         
   POMASS =  195.080; ZVAL   =   16.000    mass and valenz                                          
   RCORE  =    2.200    outmost cutoff radius                                                       
   RWIGS  =    2.200; RWIGS  =    1.164    wigner-seitz radius (au A)                               
   ENMAX  =  294.607; ENMIN  =  220.955 eV                                                          
   ICORE  =        3    local potential                                                             
   LCOR   =        T    correct aug charges                                                         
   LPAW   =        T    paw PP                                                                      
   EAUG   =  527.014                                                                                
   DEXC   =    0.000                                                                                
   RMAX   =    2.247    core radius for proj-oper                                                   
   RAUG   =    1.300    factor for augmentation sphere                                              
   RDEP   =    2.279    radius for radial grids                                                     
   RDEPT  =    1.878    core radius for aug-charge                                                  
                                                                                                    
   Atomic configuration                                                                             
   16 entries                                                                                       
     n  l   j            E        occ.                                                              
     1  0  0.50    -78401.1885   2.0000                                                             
     2  0  0.50    -13770.7750   2.0000                                                             
     2  1  1.50    -11931.0468   6.0000                                                             
     3  0  0.50     -3234.7234   2.0000                                                             
     3  1  1.50     -2699.2216   6.0000                                                             
     3  2  2.50     -2119.5714  10.0000                                                             
     4  0  0.50      -695.1528   2.0000                                                             
     4  1  1.50      -519.6034   6.0000                                                             
     4  2  2.50      -306.6786  10.0000                                                             
     4  3  3.50       -70.1041  14.0000                                                             
     5  0  0.50      -101.7747   2.0000                                                             
     5  1  1.50       -55.9873   6.0000                                                             
     6  1  1.50        -6.8029   0.0000                                                             
     5  2  2.50        -6.1423   9.0000                                                             
     6  0  0.50        -5.6573   1.0000                                                             
     5  3  2.50        -1.3606   0.0000                                                             
   Description                                                                                      
     l       E           TYP  RCUT    TYP  RCUT                                                     
     1    -55.9873477     23  2.000                                                                 
     1     27.2116520     23  2.000                                                                 
     2     -6.1423404     23  2.200                                                                 
     2     -4.6754623     23  2.200                                                                 
     0     -5.6573207     23  2.200                                                                 
     0     47.6203910     23  2.200                                                                 
     3      6.8029130     23  2.200                                                                 
  local pseudopotential read in
  partial core-charges read in
  partial kinetic energy density read in
  atomic valenz-charges read in
  non local Contribution for L=           1  read in
    real space projection operators read in
  non local Contribution for L=           1  read in
    real space projection operators read in
  non local Contribution for L=           2  read in
    real space projection operators read in
  non local Contribution for L=           2  read in
    real space projection operators read in
  non local Contribution for L=           0  read in
    real space projection operators read in
  non local Contribution for L=           0  read in
    real space projection operators read in
    PAW grid and wavefunctions read in
 
   number of l-projection  operators is LMAX  =           6
   number of lm-projection operators is LMMAX =          18
 
  PAW_PBE Pt_pv 12Dec2005               :
 energy of atom  1       EATOM=-2428.2504
 kinetic energy error for atom=    0.0554 (will be added to EATOM!!)
 
 
 POSCAR: Pt
  positions in cartesian coordinates
  No initial velocities read in
 exchange correlation table for  LEXCH =        8
   RHO(1)=    0.500       N(1)  =     2000
   RHO(2)=  100.500       N(2)  =     4000
 


--------------------------------------------------------------------------------------------------------


 ion  position               nearest neighbor table
   1  0.000  0.000  0.000-
 
  LATTYP: Found a face centered cubic cell.
 ALAT       =     3.9795634333
  
  Lattice vectors:
  
 A1 = (   0.0000000000,   1.9897817167,   1.9897817167)
 A2 = (   1.9897817167,   0.0000000000,   1.9897817167)
 A3 = (   1.9897817167,   1.9897817167,   0.0000000000)


Analysis of symmetry for initial positions (statically):
=====================================================================
 Subroutine PRICEL returns:
 Original cell was already a primitive cell.
 

 Routine SETGRP: Setting up the symmetry group for a 
 face centered cubic supercell.


 Subroutine GETGRP returns: Found 48 space group operations
 (whereof 48 operations were pure point group operations)
 out of a pool of 48 trial point group operations.


The static configuration has the point symmetry O_h .


Analysis of symmetry for dynamics (positions and initial velocities):
=====================================================================
 Subroutine PRICEL returns:
 Original cell was already a primitive cell.
 

 Routine SETGRP: Setting up the symmetry group for a 
 face centered cubic supercell.


 Subroutine GETGRP returns: Found 48 space group operations
 (whereof 48 operations were pure point group operations)
 out of a pool of 48 trial point group operations.


The dynamic configuration has the point symmetry O_h .


 Subroutine INISYM returns: Found 48 space group operations
 (whereof 48 operations are pure point group operations),
 and found     1 'primitive' translations


----------------------------------------------------------------------------------------

                                     Primitive cell                                     

  volume of cell :      15.7560

  direct lattice vectors                    reciprocal lattice vectors
     0.000000000  1.989781717  1.989781717    -0.251283845  0.251283845  0.251283845
     1.989781717  0.000000000  1.989781717     0.251283845 -0.251283845  0.251283845
     1.989781717  1.989781717  0.000000000     0.251283845  0.251283845 -0.251283845

  length of vectors
     2.813976290  2.813976290  2.813976290     0.435236386  0.435236386  0.435236386

  position of ions in fractional coordinates (direct lattice)
     0.000000000  0.000000000  0.000000000

  ion indices of the primitive-cell ions
   primitive index   ion index
                 1           1

----------------------------------------------------------------------------------------

 
 
 KPOINTS: Automatic mesh                          

Automatic generation of k-mesh.
 Grid dimensions read from file:
 generate k-points for:   10   10   10

 Generating k-lattice:

  Cartesian coordinates                     Fractional coordinates (reciprocal lattice)
    -0.025128384  0.025128384  0.025128384     0.100000000  0.000000000  0.000000000
     0.025128384 -0.025128384  0.025128384     0.000000000  0.100000000  0.000000000
     0.025128384  0.025128384 -0.025128384     0.000000000  0.000000000  0.100000000

  Length of vectors
     0.043523639  0.043523639  0.043523639

  Shift w.r.t. Gamma in fractional coordinates (k-lattice)
     0.500000000  0.500000000  0.500000000

 
 Subroutine IBZKPT returns following result:
 ===========================================
 
 Found    110 irreducible k-points:
 
 Following reciprocal coordinates:
            Coordinates               Weight
  0.050000  0.050000  0.050000      8.000000
  0.150000  0.050000  0.050000     24.000000
  0.250000  0.050000  0.050000     24.000000
  0.350000  0.050000  0.050000     24.000000
  0.450000  0.050000  0.050000     24.000000
 -0.450000  0.050000  0.050000     24.000000
 -0.350000  0.050000  0.050000     24.000000
 -0.250000  0.050000  0.050000     24.000000
 -0.150000  0.050000  0.050000     24.000000
 -0.050000  0.050000  0.050000     24.000000
  0.150000  0.150000  0.050000     24.000000
  0.250000  0.150000  0.050000     48.000000
  0.350000  0.150000  0.050000     48.000000
  0.450000  0.150000  0.050000     48.000000
 -0.450000  0.150000  0.050000     48.000000
 -0.350000  0.150000  0.050000     48.000000
 -0.250000  0.150000  0.050000     48.000000
 -0.150000  0.150000  0.050000     48.000000
 -0.050000  0.150000  0.050000     48.000000
  0.250000  0.250000  0.050000     24.000000
  0.350000  0.250000  0.050000     48.000000
  0.450000  0.250000  0.050000     48.000000
 -0.450000  0.250000  0.050000     48.000000
 -0.350000  0.250000  0.050000     48.000000
 -0.250000  0.250000  0.050000     48.000000
 -0.150000  0.250000  0.050000     48.000000
 -0.050000  0.250000  0.050000     48.000000
  0.350000  0.350000  0.050000     24.000000
  0.450000  0.350000  0.050000     48.000000
 -0.450000  0.350000  0.050000     48.000000
 -0.350000  0.350000  0.050000     48.000000
 -0.250000  0.350000  0.050000     48.000000
 -0.150000  0.350000  0.050000     48.000000
 -0.050000  0.350000  0.050000     48.000000
  0.450000  0.450000  0.050000     24.000000
 -0.450000  0.450000  0.050000     48.000000
 -0.350000  0.450000  0.050000     48.000000
 -0.250000  0.450000  0.050000     48.000000
 -0.150000  0.450000  0.050000     48.000000
 -0.050000  0.450000  0.050000     48.000000
 -0.450000 -0.450000  0.050000     24.000000
 -0.350000 -0.450000  0.050000     48.000000
 -0.250000 -0.450000  0.050000     48.000000
 -0.150000 -0.450000  0.050000     48.000000
 -0.350000 -0.350000  0.050000     24.000000
 -0.250000 -0.350000  0.050000     48.000000
 -0.150000 -0.350000  0.050000     48.000000
 -0.250000 -0.250000  0.050000     24.000000
 -0.150000 -0.250000  0.050000     48.000000
 -0.150000 -0.150000  0.050000     24.000000
  0.150000  0.150000  0.150000      8.000000
  0.250000  0.150000  0.150000     24.000000
  0.350000  0.150000  0.150000     24.000000
  0.450000  0.150000  0.150000     24.000000
 -0.450000  0.150000  0.150000     24.000000
 -0.350000  0.150000  0.150000     24.000000
 -0.250000  0.150000  0.150000     24.000000
 -0.150000  0.150000  0.150000     24.000000
  0.250000  0.250000  0.150000     24.000000
  0.350000  0.250000  0.150000     48.000000
  0.450000  0.250000  0.150000     48.000000
 -0.450000  0.250000  0.150000     48.000000
 -0.350000  0.250000  0.150000     48.000000
 -0.250000  0.250000  0.150000     48.000000
 -0.150000  0.250000  0.150000     48.000000
  0.350000  0.350000  0.150000     24.000000
  0.450000  0.350000  0.150000     48.000000
 -0.450000  0.350000  0.150000     48.000000
 -0.350000  0.350000  0.150000     48.000000
 -0.250000  0.350000  0.150000     48.000000
 -0.150000  0.350000  0.150000     48.000000
  0.450000  0.450000  0.150000     24.000000
 -0.450000  0.450000  0.150000     48.000000
 -0.350000  0.450000  0.150000     48.000000
 -0.250000  0.450000  0.150000     48.000000
 -0.150000  0.450000  0.150000     48.000000
 -0.450000 -0.450000  0.150000     24.000000
 -0.350000 -0.450000  0.150000     48.000000
 -0.250000 -0.450000  0.150000     48.000000
 -0.350000 -0.350000  0.150000     24.000000
 -0.250000 -0.350000  0.150000     48.000000
 -0.250000 -0.250000  0.150000     24.000000
  0.250000  0.250000  0.250000      8.000000
  0.350000  0.250000  0.250000     24.000000
  0.450000  0.250000  0.250000     24.000000
 -0.450000  0.250000  0.250000     24.000000
 -0.350000  0.250000  0.250000     24.000000
 -0.250000  0.250000  0.250000     24.000000
  0.350000  0.350000  0.250000     24.000000
  0.450000  0.350000  0.250000     48.000000
 -0.450000  0.350000  0.250000     48.000000
 -0.350000  0.350000  0.250000     48.000000
 -0.250000  0.350000  0.250000     48.000000
  0.450000  0.450000  0.250000     24.000000
 -0.450000  0.450000  0.250000     48.000000
 -0.350000  0.450000  0.250000     48.000000
 -0.250000  0.450000  0.250000     48.000000
 -0.450000 -0.450000  0.250000     24.000000
 -0.350000 -0.450000  0.250000     48.000000
 -0.350000 -0.350000  0.250000     24.000000
  0.350000  0.350000  0.350000      8.000000
  0.450000  0.350000  0.350000     24.000000
 -0.450000  0.350000  0.350000     24.000000
 -0.350000  0.350000  0.350000     24.000000
  0.450000  0.450000  0.350000     24.000000
 -0.450000  0.450000  0.350000     48.000000
 -0.350000  0.450000  0.350000     48.000000
 -0.450000 -0.450000  0.350000     24.000000
  0.450000  0.450000  0.450000      8.000000
 -0.450000  0.450000  0.450000     24.000000
 
 Following cartesian coordinates:
            Coordinates               Weight
  0.012564  0.012564  0.012564      8.000000
 -0.012564  0.037693  0.037693     24.000000
 -0.037693  0.062821  0.062821     24.000000
 -0.062821  0.087949  0.087949     24.000000
 -0.087949  0.113078  0.113078     24.000000
  0.138206 -0.113078 -0.113078     24.000000
  0.113078 -0.087949 -0.087949     24.000000
  0.087949 -0.062821 -0.062821     24.000000
  0.062821 -0.037693 -0.037693     24.000000
  0.037693 -0.012564 -0.012564     24.000000
  0.012564  0.012564  0.062821     24.000000
 -0.012564  0.037693  0.087949     48.000000
 -0.037693  0.062821  0.113078     48.000000
 -0.062821  0.087949  0.138206     48.000000
  0.163334 -0.138206 -0.087949     48.000000
  0.138206 -0.113078 -0.062821     48.000000
  0.113078 -0.087949 -0.037693     48.000000
  0.087949 -0.062821 -0.012564     48.000000
  0.062821 -0.037693  0.012564     48.000000
  0.012564  0.012564  0.113078     24.000000
 -0.012564  0.037693  0.138206     48.000000
 -0.037693  0.062821  0.163334     48.000000
  0.188463 -0.163334 -0.062821     48.000000
  0.163334 -0.138206 -0.037693     48.000000
  0.138206 -0.113078 -0.012564     48.000000
  0.113078 -0.087949  0.012564     48.000000
  0.087949 -0.062821  0.037693     48.000000
  0.012564  0.012564  0.163334     24.000000
 -0.012564  0.037693  0.188463     48.000000
  0.213591 -0.188463 -0.037693     48.000000
  0.188463 -0.163334 -0.012564     48.000000
  0.163334 -0.138206  0.012564     48.000000
  0.138206 -0.113078  0.037693     48.000000
  0.113078 -0.087949  0.062821     48.000000
  0.012564  0.012564  0.213591     24.000000
  0.238720 -0.213591 -0.012564     48.000000
  0.213591 -0.188463  0.012564     48.000000
  0.188463 -0.163334  0.037693     48.000000
  0.163334 -0.138206  0.062821     48.000000
  0.138206 -0.113078  0.087949     48.000000
  0.012564  0.012564 -0.238720     24.000000
 -0.012564  0.037693 -0.213591     48.000000
 -0.037693  0.062821 -0.188463     48.000000
 -0.062821  0.087949 -0.163334     48.000000
  0.012564  0.012564 -0.188463     24.000000
 -0.012564  0.037693 -0.163334     48.000000
 -0.037693  0.062821 -0.138206     48.000000
  0.012564  0.012564 -0.138206     24.000000
 -0.012564  0.037693 -0.113078     48.000000
  0.012564  0.012564 -0.087949     24.000000
  0.037693  0.037693  0.037693      8.000000
  0.012564  0.062821  0.062821     24.000000
 -0.012564  0.087949  0.087949     24.000000
 -0.037693  0.113078  0.113078     24.000000
  0.188463 -0.113078 -0.113078     24.000000
  0.163334 -0.087949 -0.087949     24.000000
  0.138206 -0.062821 -0.062821     24.000000
  0.113078 -0.037693 -0.037693     24.000000
  0.037693  0.037693  0.087949     24.000000
  0.012564  0.062821  0.113078     48.000000
 -0.012564  0.087949  0.138206     48.000000
  0.213591 -0.138206 -0.087949     48.000000
  0.188463 -0.113078 -0.062821     48.000000
  0.163334 -0.087949 -0.037693     48.000000
  0.138206 -0.062821 -0.012564     48.000000
  0.037693  0.037693  0.138206     24.000000
  0.012564  0.062821  0.163334     48.000000
  0.238720 -0.163334 -0.062821     48.000000
  0.213591 -0.138206 -0.037693     48.000000
  0.188463 -0.113078 -0.012564     48.000000
  0.163334 -0.087949  0.012564     48.000000
  0.037693  0.037693  0.188463     24.000000
  0.263848 -0.188463 -0.037693     48.000000
  0.238720 -0.163334 -0.012564     48.000000
  0.213591 -0.138206  0.012564     48.000000
  0.188463 -0.113078  0.037693     48.000000
  0.037693  0.037693 -0.263848     24.000000
  0.012564  0.062821 -0.238720     48.000000
 -0.012564  0.087949 -0.213591     48.000000
  0.037693  0.037693 -0.213591     24.000000
  0.012564  0.062821 -0.188463     48.000000
  0.037693  0.037693 -0.163334     24.000000
  0.062821  0.062821  0.062821      8.000000
  0.037693  0.087949  0.087949     24.000000
  0.012564  0.113078  0.113078     24.000000
  0.238720 -0.113078 -0.113078     24.000000
  0.213591 -0.087949 -0.087949     24.000000
  0.188463 -0.062821 -0.062821     24.000000
  0.062821  0.062821  0.113078     24.000000
  0.037693  0.087949  0.138206     48.000000
  0.263848 -0.138206 -0.087949     48.000000
  0.238720 -0.113078 -0.062821     48.000000
  0.213591 -0.087949 -0.037693     48.000000
  0.062821  0.062821  0.163334     24.000000
  0.288976 -0.163334 -0.062821     48.000000
  0.263848 -0.138206 -0.037693     48.000000
  0.238720 -0.113078 -0.012564     48.000000
  0.062821  0.062821 -0.288976     24.000000
  0.037693  0.087949 -0.263848     48.000000
  0.062821  0.062821 -0.238720     24.000000
  0.087949  0.087949  0.087949      8.000000
  0.062821  0.113078  0.113078     24.000000
  0.288976 -0.113078 -0.113078     24.000000
  0.263848 -0.087949 -0.087949     24.000000
  0.087949  0.087949  0.138206     24.000000
  0.314105 -0.138206 -0.087949     48.000000
  0.288976 -0.113078 -0.062821     48.000000
  0.087949  0.087949 -0.314105     24.000000
  0.113078  0.113078  0.113078      8.000000
  0.339233 -0.113078 -0.113078     24.000000
 


--------------------------------------------------------------------------------------------------------




 Dimension of arrays:
   k-points           NKPTS =    110   k-points in BZ     NKDIM =    110   number of bands    NBANDS=     24
   number of dos      NEDOS =    301   number of ions     NIONS =      1
   non local maximal  LDIM  =      6   non local SUM 2l+1 LMDIM =     18
   total plane-waves  NPLWV =   8000
   max r-space proj   IRMAX =      1   max aug-charges    IRDMAX=  17485
   dimension x,y,z NGX =    20 NGY =   20 NGZ =   20
   dimension x,y,z NGXF=    40 NGYF=   40 NGZF=   40
   support grid    NGXF=    40 NGYF=   40 NGZF=   40
   ions per type =               1
   NGX,Y,Z   is equivalent  to a cutoff of  11.82, 11.82, 11.82 a.u.
   NGXF,Y,Z  is equivalent  to a cutoff of  23.63, 23.63, 23.63 a.u.

 SYSTEM =  Pt-fcc                                  
 POSCAR =  Pt                                      

 Startparameter for this run:
   NWRITE =      2    write-flag & timer
   PREC   = accura    normal or accurate (medium, high low for compatibility)
   ISTART =      0    job   : 0-new  1-cont  2-samecut
   ICHARG =      2    charge: 1-file 2-atom 10-const
   ISPIN  =      1    spin polarized calculation?
   LNONCOLLINEAR =      F non collinear calculations
   LSORBIT =      F    spin-orbit coupling
   INIWAV =      1    electr: 0-lowe 1-rand  2-diag
   LASPH  =      F    aspherical Exc in radial PAW
 Electronic Relaxation 1
   ENCUT  =  425.0 eV  31.24 Ry    5.59 a.u.   4.73  4.73  4.73*2*pi/ulx,y,z
   ENINI  =  425.0     initial cutoff
   ENAUG  =  527.0 eV  augmentation charge cutoff
   NELM   =    100;   NELMIN=  2; NELMDL= -5     # of ELM steps 
   EDIFF  = 0.1E-05   stopping-criterion for ELM
   LREAL  =      F    real-space projection
   NLSPLINE    = F    spline interpolate recip. space projectors
   LCOMPAT=      F    compatible to vasp.4.4
   GGA_COMPAT  = T    GGA compatible to vasp.4.4-vasp.4.6
   LMAXPAW     = -100 max onsite density
   LMAXMIX     =    2 max onsite mixed and CHGCAR
   VOSKOWN=      0    Vosko Wilk Nusair interpolation
   ROPT   =    0.00000
 Ionic relaxation
   EDIFFG = -.2E-01   stopping-criterion for IOM
   NSW    =    100    number of steps for IOM
   NBLOCK =      1;   KBLOCK =    100    inner block; outer block 
   IBRION =      2    ionic relax: 0-MD 1-quasi-New 2-CG
   NFREE  =      1    steps in history (QN), initial steepest desc. (CG)
   ISIF   =      2    stress and relaxation
   IWAVPR =     11    prediction:  0-non 1-charg 2-wave 3-comb
   ISYM   =      1    0-nonsym 1-usesym 2-fastsym
   LCORR  =      T    Harris-Foulkes like correction to forces

   POTIM  = 0.5000    time-step for ionic-motion
   TEIN   =    0.0    initial temperature
   TEBEG  =    0.0;   TEEND  =   0.0 temperature during run
   SMASS  =  -3.00    Nose mass-parameter (am)
   estimated Nose-frequenzy (Omega)   =  0.10E-29 period in steps = 0.13E+47 mass=  -0.181E-27a.u.
   SCALEE = 1.0000    scale energy and forces
   NPACO  =    256;   APACO  = 10.0  distance and # of slots for P.C.
   PSTRESS=    0.0 pullay stress

  Mass of Ions in am
   POMASS = 195.08
  Ionic Valenz
   ZVAL   =  16.00
  Atomic Wigner-Seitz radii
   RWIGS  =  -1.00
  virtual crystal weights 
   VCA    =   1.00
   NELECT =      16.0000    total number of electrons
   NUPDOWN=      -1.0000    fix difference up-down

 DOS related values:
   EMIN   =  10.00;   EMAX   =-10.00  energy-range for DOS
   EFERMI =   0.00
   ISMEAR =     0;   SIGMA  =   0.05  broadening in eV -4-tet -1-fermi 0-gaus

 Electronic relaxation 2 (details)
   IALGO  =     38    algorithm
   LDIAG  =      T    sub-space diagonalisation (order eigenvalues)
   LSUBROT=      F    optimize rotation matrix (better conditioning)
   TURBO    =      0    0=normal 1=particle mesh
   IRESTART =      0    0=no restart 2=restart with 2 vectors
   NREBOOT  =      0    no. of reboots
   NMIN     =      0    reboot dimension
   EREF     =   0.00    reference energy to select bands
   IMIX   =      4    mixing-type and parameters
     AMIX     =   0.40;   BMIX     =  1.00
     AMIX_MAG =   1.60;   BMIX_MAG =  1.00
     AMIN     =   0.10
     WC   =   100.;   INIMIX=   1;  MIXPRE=   1;  MAXMIX= -45

 Intra band minimization:
   WEIMIN = 0.0010     energy-eigenvalue tresh-hold
   EBREAK =  0.10E-07  absolut break condition
   DEPER  =   0.30     relativ break condition  

   TIME   =   0.40     timestep for ELM

  volume/ion in A,a.u.               =      15.76       106.33
  Fermi-wavevector in a.u.,A,eV,Ry     =   1.645506  3.109555 36.840345  2.707689
  Thomas-Fermi vector in A             =   2.735291
 
 Write flags
   LWAVE        =      T    write WAVECAR
   LDOWNSAMPLE  =      F    k-point downsampling of WAVECAR
   LCHARG       =      T    write CHGCAR
   LVTOT        =      F    write LOCPOT, total local potential
   LVHAR        =      F    write LOCPOT, Hartree potential only
   LELF         =      F    write electronic localiz. function (ELF)
   LORBIT       =     11    0 simple, 1 ext, 2 COOP (PROOUT), +10 PAW based schemes


 Dipole corrections
   LMONO  =      F    monopole corrections only (constant potential shift)
   LDIPOL =      F    correct potential (dipole corrections)
   IDIPOL =      0    1-x, 2-y, 3-z, 4-all directions 
   EPSILON=  1.0000000 bulk dielectric constant

 Exchange correlation treatment:
   GGA     =    --    GGA type
   LEXCH   =     8    internal setting for exchange type
   LIBXC   =     F    Libxc                    
   VOSKOWN =     0    Vosko Wilk Nusair interpolation
   LHFCALC =     F    Hartree Fock is set to
   LHFONE  =     F    Hartree Fock one center treatment
   AEXX    =    0.0000 exact exchange contribution

 Linear response parameters
   LEPSILON=     F    determine dielectric tensor
   LRPA    =     F    only Hartree local field effects (RPA)
   LNABLA  =     F    use nabla operator in PAW spheres
   LVEL    =     F    velocity operator in full k-point grid
   CSHIFT  =0.1000    complex shift for real part using Kramers Kronig
   OMEGAMAX=  -1.0    maximum frequency
   DEG_THRESHOLD= 0.2000000E-02 threshold for treating states as degnerate
   RTIME   =   -0.100 relaxation time in fs
  (WPLASMAI=    0.000 imaginary part of plasma frequency in eV, 0.658/RTIME)
   DFIELD  = 0.0000000 0.0000000 0.0000000 field for delta impulse in time
 
  Optional k-point grid parameters
   LKPOINTS_OPT  =     F    use optional k-point grid
   KPOINTS_OPT_MODE=     1    mode for optional k-point grid
 
 Orbital magnetization related:
   ORBITALMAG=     F  switch on orbital magnetization
   LCHIMAG   =     F  perturbation theory with respect to B field
   DQ        =  0.001000  dq finite difference perturbation B field
   LLRAUG    =     F  two centre corrections for induced B field



--------------------------------------------------------------------------------------------------------


 conjugate gradient relaxation of ions
 charge density and potential will be updated during run
 non-spin polarized calculation
 Variant of blocked Davidson
 Davidson routine will perform the subspace rotation
 perform sub-space diagonalisation
    after iterative eigenvector-optimisation
 modified Broyden-mixing scheme, WC =      100.0
 initial mixing is a Kerker type mixing with AMIX =  0.4000 and BMIX =      1.0000
 Hartree-type preconditioning will be used
 using additional bands           16
 reciprocal scheme for non local part
 use partial core corrections
 calculate Harris-corrections to forces 
   (improved forces if not selfconsistent)
 use gradient corrections 
 use of overlap-Matrix (Vanderbilt PP)
 Gauss-broadening in eV      SIGMA  =   0.05


--------------------------------------------------------------------------------------------------------


  energy-cutoff  :      425.00
  volume of cell :       15.76
      direct lattice vectors                 reciprocal lattice vectors
     0.000000000  1.989781717  1.989781717    -0.251283845  0.251283845  0.251283845
     1.989781717  0.000000000  1.989781717     0.251283845 -0.251283845  0.251283845
     1.989781717  1.989781717  0.000000000     0.251283845  0.251283845 -0.251283845

  length of vectors
     2.813976290  2.813976290  2.813976290     0.435236386  0.435236386  0.435236386


 
 k-points in units of 2pi/SCALE and weight: Automatic mesh                          
   0.01256419  0.01256419  0.01256419       0.002
  -0.01256419  0.03769258  0.03769258       0.006
  -0.03769258  0.06282096  0.06282096       0.006
  -0.06282096  0.08794935  0.08794935       0.006
  -0.08794935  0.11307773  0.11307773       0.006
   0.13820611 -0.11307773 -0.11307773       0.006
   0.11307773 -0.08794935 -0.08794935       0.006
   0.08794935 -0.06282096 -0.06282096       0.006
   0.06282096 -0.03769258 -0.03769258       0.006
   0.03769258 -0.01256419 -0.01256419       0.006
   0.01256419  0.01256419  0.06282096       0.006
  -0.01256419  0.03769258  0.08794935       0.012
  -0.03769258  0.06282096  0.11307773       0.012
  -0.06282096  0.08794935  0.13820611       0.012
   0.16333450 -0.13820611 -0.08794935       0.012
   0.13820611 -0.11307773 -0.06282096       0.012
   0.11307773 -0.08794935 -0.03769258       0.012
   0.08794935 -0.06282096 -0.01256419       0.012
   0.06282096 -0.03769258  0.01256419       0.012
   0.01256419  0.01256419  0.11307773       0.006
  -0.01256419  0.03769258  0.13820611       0.012
  -0.03769258  0.06282096  0.16333450       0.012
   0.18846288 -0.16333450 -0.06282096       0.012
   0.16333450 -0.13820611 -0.03769258       0.012
   0.13820611 -0.11307773 -0.01256419       0.012
   0.11307773 -0.08794935  0.01256419       0.012
   0.08794935 -0.06282096  0.03769258       0.012
   0.01256419  0.01256419  0.16333450       0.006
  -0.01256419  0.03769258  0.18846288       0.012
   0.21359127 -0.18846288 -0.03769258       0.012
   0.18846288 -0.16333450 -0.01256419       0.012
   0.16333450 -0.13820611  0.01256419       0.012
   0.13820611 -0.11307773  0.03769258       0.012
   0.11307773 -0.08794935  0.06282096       0.012
   0.01256419  0.01256419  0.21359127       0.006
   0.23871965 -0.21359127 -0.01256419       0.012
   0.21359127 -0.18846288  0.01256419       0.012
   0.18846288 -0.16333450  0.03769258       0.012
   0.16333450 -0.13820611  0.06282096       0.012
   0.13820611 -0.11307773  0.08794935       0.012
   0.01256419  0.01256419 -0.23871965       0.006
  -0.01256419  0.03769258 -0.21359127       0.012
  -0.03769258  0.06282096 -0.18846288       0.012
  -0.06282096  0.08794935 -0.16333450       0.012
   0.01256419  0.01256419 -0.18846288       0.006
  -0.01256419  0.03769258 -0.16333450       0.012
  -0.03769258  0.06282096 -0.13820611       0.012
   0.01256419  0.01256419 -0.13820611       0.006
  -0.01256419  0.03769258 -0.11307773       0.012
   0.01256419  0.01256419 -0.08794935       0.006
   0.03769258  0.03769258  0.03769258       0.002
   0.01256419  0.06282096  0.06282096       0.006
  -0.01256419  0.08794935  0.08794935       0.006
  -0.03769258  0.11307773  0.11307773       0.006
   0.18846288 -0.11307773 -0.11307773       0.006
   0.16333450 -0.08794935 -0.08794935       0.006
   0.13820611 -0.06282096 -0.06282096       0.006
   0.11307773 -0.03769258 -0.03769258       0.006
   0.03769258  0.03769258  0.08794935       0.006
   0.01256419  0.06282096  0.11307773       0.012
  -0.01256419  0.08794935  0.13820611       0.012
   0.21359127 -0.13820611 -0.08794935       0.012
   0.18846288 -0.11307773 -0.06282096       0.012
   0.16333450 -0.08794935 -0.03769258       0.012
   0.13820611 -0.06282096 -0.01256419       0.012
   0.03769258  0.03769258  0.13820611       0.006
   0.01256419  0.06282096  0.16333450       0.012
   0.23871965 -0.16333450 -0.06282096       0.012
   0.21359127 -0.13820611 -0.03769258       0.012
   0.18846288 -0.11307773 -0.01256419       0.012
   0.16333450 -0.08794935  0.01256419       0.012
   0.03769258  0.03769258  0.18846288       0.006
   0.26384804 -0.18846288 -0.03769258       0.012
   0.23871965 -0.16333450 -0.01256419       0.012
   0.21359127 -0.13820611  0.01256419       0.012
   0.18846288 -0.11307773  0.03769258       0.012
   0.03769258  0.03769258 -0.26384804       0.006
   0.01256419  0.06282096 -0.23871965       0.012
  -0.01256419  0.08794935 -0.21359127       0.012
   0.03769258  0.03769258 -0.21359127       0.006
   0.01256419  0.06282096 -0.18846288       0.012
   0.03769258  0.03769258 -0.16333450       0.006
   0.06282096  0.06282096  0.06282096       0.002
   0.03769258  0.08794935  0.08794935       0.006
   0.01256419  0.11307773  0.11307773       0.006
   0.23871965 -0.11307773 -0.11307773       0.006
   0.21359127 -0.08794935 -0.08794935       0.006
   0.18846288 -0.06282096 -0.06282096       0.006
   0.06282096  0.06282096  0.11307773       0.006
   0.03769258  0.08794935  0.13820611       0.012
   0.26384804 -0.13820611 -0.08794935       0.012
   0.23871965 -0.11307773 -0.06282096       0.012
   0.21359127 -0.08794935 -0.03769258       0.012
   0.06282096  0.06282096  0.16333450       0.006
   0.28897642 -0.16333450 -0.06282096       0.012
   0.26384804 -0.13820611 -0.03769258       0.012
   0.23871965 -0.11307773 -0.01256419       0.012
   0.06282096  0.06282096 -0.28897642       0.006
   0.03769258  0.08794935 -0.26384804       0.012
   0.06282096  0.06282096 -0.23871965       0.006
   0.08794935  0.08794935  0.08794935       0.002
   0.06282096  0.11307773  0.11307773       0.006
   0.28897642 -0.11307773 -0.11307773       0.006
   0.26384804 -0.08794935 -0.08794935       0.006
   0.08794935  0.08794935  0.13820611       0.006
   0.31410481 -0.13820611 -0.08794935       0.012
   0.28897642 -0.11307773 -0.06282096       0.012
   0.08794935  0.08794935 -0.31410481       0.006
   0.11307773  0.11307773  0.11307773       0.002
   0.33923319 -0.11307773 -0.11307773       0.006
 
 k-points in reciprocal lattice and weights: Automatic mesh                          
   0.05000000  0.05000000  0.05000000       0.002
   0.15000000  0.05000000  0.05000000       0.006
   0.25000000  0.05000000  0.05000000       0.006
   0.35000000  0.05000000  0.05000000       0.006
   0.45000000  0.05000000  0.05000000       0.006
  -0.45000000  0.05000000  0.05000000       0.006
  -0.35000000  0.05000000  0.05000000       0.006
  -0.25000000  0.05000000  0.05000000       0.006
  -0.15000000  0.05000000  0.05000000       0.006
  -0.05000000  0.05000000  0.05000000       0.006
   0.15000000  0.15000000  0.05000000       0.006
   0.25000000  0.15000000  0.05000000       0.012
   0.35000000  0.15000000  0.05000000       0.012
   0.45000000  0.15000000  0.05000000       0.012
  -0.45000000  0.15000000  0.05000000       0.012
  -0.35000000  0.15000000  0.05000000       0.012
  -0.25000000  0.15000000  0.05000000       0.012
  -0.15000000  0.15000000  0.05000000       0.012
  -0.05000000  0.15000000  0.05000000       0.012
   0.25000000  0.25000000  0.05000000       0.006
   0.35000000  0.25000000  0.05000000       0.012
   0.45000000  0.25000000  0.05000000       0.012
  -0.45000000  0.25000000  0.05000000       0.012
  -0.35000000  0.25000000  0.05000000       0.012
  -0.25000000  0.25000000  0.05000000       0.012
  -0.15000000  0.25000000  0.05000000       0.012
  -0.05000000  0.25000000  0.05000000       0.012
   0.35000000  0.35000000  0.05000000       0.006
   0.45000000  0.35000000  0.05000000       0.012
  -0.45000000  0.35000000  0.05000000       0.012
  -0.35000000  0.35000000  0.05000000       0.012
  -0.25000000  0.35000000  0.05000000       0.012
  -0.15000000  0.35000000  0.05000000       0.012
  -0.05000000  0.35000000  0.05000000       0.012
   0.45000000  0.45000000  0.05000000       0.006
  -0.45000000  0.45000000  0.05000000       0.012
  -0.35000000  0.45000000  0.05000000       0.012
  -0.25000000  0.45000000  0.05000000       0.012
  -0.15000000  0.45000000  0.05000000       0.012
  -0.05000000  0.45000000  0.05000000       0.012
  -0.45000000 -0.45000000  0.05000000       0.006
  -0.35000000 -0.45000000  0.05000000       0.012
  -0.25000000 -0.45000000  0.05000000       0.012
  -0.15000000 -0.45000000  0.05000000       0.012
  -0.35000000 -0.35000000  0.05000000       0.006
  -0.25000000 -0.35000000  0.05000000       0.012
  -0.15000000 -0.35000000  0.05000000       0.012
  -0.25000000 -0.25000000  0.05000000       0.006
  -0.15000000 -0.25000000  0.05000000       0.012
  -0.15000000 -0.15000000  0.05000000       0.006
   0.15000000  0.15000000  0.15000000       0.002
   0.25000000  0.15000000  0.15000000       0.006
   0.35000000  0.15000000  0.15000000       0.006
   0.45000000  0.15000000  0.15000000       0.006
  -0.45000000  0.15000000  0.15000000       0.006
  -0.35000000  0.15000000  0.15000000       0.006
  -0.25000000  0.15000000  0.15000000       0.006
  -0.15000000  0.15000000  0.15000000       0.006
   0.25000000  0.25000000  0.15000000       0.006
   0.35000000  0.25000000  0.15000000       0.012
   0.45000000  0.25000000  0.15000000       0.012
  -0.45000000  0.25000000  0.15000000       0.012
  -0.35000000  0.25000000  0.15000000       0.012
  -0.25000000  0.25000000  0.15000000       0.012
  -0.15000000  0.25000000  0.15000000       0.012
   0.35000000  0.35000000  0.15000000       0.006
   0.45000000  0.35000000  0.15000000       0.012
  -0.45000000  0.35000000  0.15000000       0.012
  -0.35000000  0.35000000  0.15000000       0.012
  -0.25000000  0.35000000  0.15000000       0.012
  -0.15000000  0.35000000  0.15000000       0.012
   0.45000000  0.45000000  0.15000000       0.006
  -0.45000000  0.45000000  0.15000000       0.012
  -0.35000000  0.45000000  0.15000000       0.012
  -0.25000000  0.45000000  0.15000000       0.012
  -0.15000000  0.45000000  0.15000000       0.012
  -0.45000000 -0.45000000  0.15000000       0.006
  -0.35000000 -0.45000000  0.15000000       0.012
  -0.25000000 -0.45000000  0.15000000       0.012
  -0.35000000 -0.35000000  0.15000000       0.006
  -0.25000000 -0.35000000  0.15000000       0.012
  -0.25000000 -0.25000000  0.15000000       0.006
   0.25000000  0.25000000  0.25000000       0.002
   0.35000000  0.25000000  0.25000000       0.006
   0.45000000  0.25000000  0.25000000       0.006
  -0.45000000  0.25000000  0.25000000       0.006
  -0.35000000  0.25000000  0.25000000       0.006
  -0.25000000  0.25000000  0.25000000       0.006
   0.35000000  0.35000000  0.25000000       0.006
   0.45000000  0.35000000  0.25000000       0.012
  -0.45000000  0.35000000  0.25000000       0.012
  -0.35000000  0.35000000  0.25000000       0.012
  -0.25000000  0.35000000  0.25000000       0.012
   0.45000000  0.45000000  0.25000000       0.006
  -0.45000000  0.45000000  0.25000000       0.012
  -0.35000000  0.45000000  0.25000000       0.012
  -0.25000000  0.45000000  0.25000000       0.012
  -0.45000000 -0.45000000  0.25000000       0.006
  -0.35000000 -0.45000000  0.25000000       0.012
  -0.35000000 -0.35000000  0.25000000       0.006
   0.35000000  0.35000000  0.35000000       0.002
   0.45000000  0.35000000  0.35000000       0.006
  -0.45000000  0.35000000  0.35000000       0.006
  -0.35000000  0.35000000  0.35000000       0.006
   0.45000000  0.45000000  0.35000000       0.006
  -0.45000000  0.45000000  0.35000000       0.012
  -0.35000000  0.45000000  0.35000000       0.012
  -0.45000000 -0.45000000  0.35000000       0.006
   0.45000000  0.45000000  0.45000000       0.002
  -0.45000000  0.45000000  0.45000000       0.006
 
 position of ions in fractional coordinates (direct lattice) 
   0.00000000  0.00000000  0.00000000
 
 position of ions in cartesian coordinates  (Angst):
   0.00000000  0.00000000  0.00000000
 


--------------------------------------------------------------------------------------------------------


 k-point   1 :   0.0500 0.0500 0.0500  plane waves:     328
 k-point   2 :   0.1500 0.0500 0.0500  plane waves:     317
 k-point   3 :   0.2500 0.0500 0.0500  plane waves:     314
 k-point   4 :   0.3500 0.0500 0.0500  plane waves:     311
 k-point   5 :   0.4500 0.0500 0.0500  plane waves:     318
 k-point   6 :  -0.4500 0.0500 0.0500  plane waves:     317
 k-point   7 :  -0.3500 0.0500 0.0500  plane waves:     315
 k-point   8 :  -0.2500 0.0500 0.0500  plane waves:     311
 k-point   9 :  -0.1500 0.0500 0.0500  plane waves:     315
 k-point  10 :  -0.0500 0.0500 0.0500  plane waves:     322
 k-point  11 :   0.1500 0.1500 0.0500  plane waves:     315
 k-point  12 :   0.2500 0.1500 0.0500  plane waves:     314
 k-point  13 :   0.3500 0.1500 0.0500  plane waves:     311
 k-point  14 :   0.4500 0.1500 0.0500  plane waves:     312
 k-point  15 :  -0.4500 0.1500 0.0500  plane waves:     315
 k-point  16 :  -0.3500 0.1500 0.0500  plane waves:     312
 k-point  17 :  -0.2500 0.1500 0.0500  plane waves:     313
 k-point  18 :  -0.1500 0.1500 0.0500  plane waves:     313
 k-point  19 :  -0.0500 0.1500 0.0500  plane waves:     315
 k-point  20 :   0.2500 0.2500 0.0500  plane waves:     307
 k-point  21 :   0.3500 0.2500 0.0500  plane waves:     314
 k-point  22 :   0.4500 0.2500 0.0500  plane waves:     319
 k-point  23 :  -0.4500 0.2500 0.0500  plane waves:     313
 k-point  24 :  -0.3500 0.2500 0.0500  plane waves:     310
 k-point  25 :  -0.2500 0.2500 0.0500  plane waves:     316
 k-point  26 :  -0.1500 0.2500 0.0500  plane waves:     316
 k-point  27 :  -0.0500 0.2500 0.0500  plane waves:     311
 k-point  28 :   0.3500 0.3500 0.0500  plane waves:     317
 k-point  29 :   0.4500 0.3500 0.0500  plane waves:     317
 k-point  30 :  -0.4500 0.3500 0.0500  plane waves:     314
 k-point  31 :  -0.3500 0.3500 0.0500  plane waves:     310
 k-point  32 :  -0.2500 0.3500 0.0500  plane waves:     314
 k-point  33 :  -0.1500 0.3500 0.0500  plane waves:     315
 k-point  34 :  -0.0500 0.3500 0.0500  plane waves:     312
 k-point  35 :   0.4500 0.4500 0.0500  plane waves:     322
 k-point  36 :  -0.4500 0.4500 0.0500  plane waves:     316
 k-point  37 :  -0.3500 0.4500 0.0500  plane waves:     314
 k-point  38 :  -0.2500 0.4500 0.0500  plane waves:     310
 k-point  39 :  -0.1500 0.4500 0.0500  plane waves:     310
 k-point  40 :  -0.0500 0.4500 0.0500  plane waves:     316
 k-point  41 :  -0.4500-0.4500 0.0500  plane waves:     312
 k-point  42 :  -0.3500-0.4500 0.0500  plane waves:     317
 k-point  43 :  -0.2500-0.4500 0.0500  plane waves:     312
 k-point  44 :  -0.1500-0.4500 0.0500  plane waves:     315
 k-point  45 :  -0.3500-0.3500 0.0500  plane waves:     322
 k-point  46 :  -0.2500-0.3500 0.0500  plane waves:     315
 k-point  47 :  -0.1500-0.3500 0.0500  plane waves:     316
 k-point  48 :  -0.2500-0.2500 0.0500  plane waves:     311
 k-point  49 :  -0.1500-0.2500 0.0500  plane waves:     312
 k-point  50 :  -0.1500-0.1500 0.0500  plane waves:     312
 k-point  51 :   0.1500 0.1500 0.1500  plane waves:     320
 k-point  52 :   0.2500 0.1500 0.1500  plane waves:     317
 k-point  53 :   0.3500 0.1500 0.1500  plane waves:     313
 k-point  54 :   0.4500 0.1500 0.1500  plane waves:     315
 k-point  55 :  -0.4500 0.1500 0.1500  plane waves:     312
 k-point  56 :  -0.3500 0.1500 0.1500  plane waves:     312
 k-point  57 :  -0.2500 0.1500 0.1500  plane waves:     318
 k-point  58 :  -0.1500 0.1500 0.1500  plane waves:     309
 k-point  59 :   0.2500 0.2500 0.1500  plane waves:     312
 k-point  60 :   0.3500 0.2500 0.1500  plane waves:     313
 k-point  61 :   0.4500 0.2500 0.1500  plane waves:     316
 k-point  62 :  -0.4500 0.2500 0.1500  plane waves:     314
 k-point  63 :  -0.3500 0.2500 0.1500  plane waves:     311
 k-point  64 :  -0.2500 0.2500 0.1500  plane waves:     314
 k-point  65 :  -0.1500 0.2500 0.1500  plane waves:     314
 k-point  66 :   0.3500 0.3500 0.1500  plane waves:     320
 k-point  67 :   0.4500 0.3500 0.1500  plane waves:     316
 k-point  68 :  -0.4500 0.3500 0.1500  plane waves:     313
 k-point  69 :  -0.3500 0.3500 0.1500  plane waves:     314
 k-point  70 :  -0.2500 0.3500 0.1500  plane waves:     314
 k-point  71 :  -0.1500 0.3500 0.1500  plane waves:     315
 k-point  72 :   0.4500 0.4500 0.1500  plane waves:     313
 k-point  73 :  -0.4500 0.4500 0.1500  plane waves:     314
 k-point  74 :  -0.3500 0.4500 0.1500  plane waves:     311
 k-point  75 :  -0.2500 0.4500 0.1500  plane waves:     313
 k-point  76 :  -0.1500 0.4500 0.1500  plane waves:     311
 k-point  77 :  -0.4500-0.4500 0.1500  plane waves:     314
 k-point  78 :  -0.3500-0.4500 0.1500  plane waves:     313
 k-point  79 :  -0.2500-0.4500 0.1500  plane waves:     311
 k-point  80 :  -0.3500-0.3500 0.1500  plane waves:     314
 k-point  81 :  -0.2500-0.3500 0.1500  plane waves:     316
 k-point  82 :  -0.2500-0.2500 0.1500  plane waves:     316
 k-point  83 :   0.2500 0.2500 0.2500  plane waves:     311
 k-point  84 :   0.3500 0.2500 0.2500  plane waves:     309
 k-point  85 :   0.4500 0.2500 0.2500  plane waves:     313
 k-point  86 :  -0.4500 0.2500 0.2500  plane waves:     311
 k-point  87 :  -0.3500 0.2500 0.2500  plane waves:     311
 k-point  88 :  -0.2500 0.2500 0.2500  plane waves:     315
 k-point  89 :   0.3500 0.3500 0.2500  plane waves:     313
 k-point  90 :   0.4500 0.3500 0.2500  plane waves:     316
 k-point  91 :  -0.4500 0.3500 0.2500  plane waves:     315
 k-point  92 :  -0.3500 0.3500 0.2500  plane waves:     314
 k-point  93 :  -0.2500 0.3500 0.2500  plane waves:     313
 k-point  94 :   0.4500 0.4500 0.2500  plane waves:     318
 k-point  95 :  -0.4500 0.4500 0.2500  plane waves:     310
 k-point  96 :  -0.3500 0.4500 0.2500  plane waves:     310
 k-point  97 :  -0.2500 0.4500 0.2500  plane waves:     313
 k-point  98 :  -0.4500-0.4500 0.2500  plane waves:     311
 k-point  99 :  -0.3500-0.4500 0.2500  plane waves:     310
 k-point 100 :  -0.3500-0.3500 0.2500  plane waves:     312
 k-point 101 :   0.3500 0.3500 0.3500  plane waves:     308
 k-point 102 :   0.4500 0.3500 0.3500  plane waves:     311
 k-point 103 :  -0.4500 0.3500 0.3500  plane waves:     311
 k-point 104 :  -0.3500 0.3500 0.3500  plane waves:     317
 k-point 105 :   0.4500 0.4500 0.3500  plane waves:     312
 k-point 106 :  -0.4500 0.4500 0.3500  plane waves:     313
 k-point 107 :  -0.3500 0.4500 0.3500  plane waves:     310
 k-point 108 :  -0.4500-0.4500 0.3500  plane waves:     313
 k-point 109 :   0.4500 0.4500 0.4500  plane waves:     317
 k-point 110 :  -0.4500 0.4500 0.4500  plane waves:     317

 maximum and minimum number of plane-waves per node :       328      307

 maximum number of plane-waves:       328
 maximum index in each direction: 
   IXMAX=    5   IYMAX=    5   IZMAX=    4
   IXMIN=   -5   IYMIN=   -5   IZMIN=   -5


 serial   3D FFT for wavefunctions
 parallel 3D FFT for charge:
    minimum data exchange during FFTs selected (reduces bandwidth)


 total amount of memory used by VASP MPI-rank0    36607. kBytes
=======================================================================

   base      :      30000. kBytes
   nonl-proj :       5327. kBytes
   fftplans  :        147. kBytes
   grid      :        485. kBytes
   one-center:         15. kBytes
   wavefun   :        633. kBytes
 
     INWAV:  cpu time      0.0000: real time      0.0003
 Broyden mixing: mesh for mixing (old mesh)
   NGX =  9   NGY =  9   NGZ =  9
  (NGX  = 40   NGY  = 40   NGZ  = 40)
  gives a total of    729 points

 initial charge density was supplied:
 charge density of overlapping atoms calculated
 number of electron      16.0000000 magnetization 
 keeping initial charge density in first step


--------------------------------------------------------------------------------------------------------


 Maximum index for augmentation-charges          835 (set IRDMAX)


--------------------------------------------------------------------------------------------------------


 First call to EWALD:  gamma=   0.707
 Maximum number of real-space cells 3x 3x 3
 Maximum number of reciprocal cells 3x 3x 3

    FEWALD:  cpu time      0.0014: real time      0.0014


--------------------------------------- Iteration      1(   1)  ---------------------------------------


    POTLOK:  cpu time      0.0033: real time      0.0034
    SETDIJ:  cpu time      0.0022: real time      0.0022
     EDDAV:  cpu time      0.5052: real time      0.5078
       DOS:  cpu time      0.0010: real time      0.0010
    --------------------------------------------
      LOOP:  cpu time      0.5118: real time      0.5144

 eigenvalue-minimisations  :  5928
 total energy-change (2. order) : 0.1673077E+02  (-0.1170290E+04)
 number of electron      16.0000000 magnetization 
 augmentation part       16.0000000 magnetization 

 Free energy of the ion-electron system (eV)
  ---------------------------------------------------
  alpha Z        PSCENC =       152.27955882
  Ewald energy   TEWEN  =     -2123.52259528
  -Hartree energ DENC   =      -407.75413922
  -exchange      EXHF   =         0.00000000
  -V(xc)+E(xc)   XCENC  =        63.66756102
  PAW double counting   =      2065.75261637    -2030.83594803
  entropy T*S    EENTRO =        -0.00063294
  eigenvalues    EBANDS =      -131.05066127
  atomic energy  EATOM  =      2428.19501064
  Solvation  Ediel_sol  =         0.00000000
  ---------------------------------------------------
  free energy    TOTEN  =        16.73077011 eV

  energy without entropy =       16.73140305  energy(sigma->0) =       16.73108658


--------------------------------------------------------------------------------------------------------




--------------------------------------- Iteration      1(   2)  ---------------------------------------


     EDDAV:  cpu time      0.6606: real time      0.6643
       DOS:  cpu time      0.0005: real time      0.0005
    --------------------------------------------
      LOOP:  cpu time      0.6611: real time      0.6648

 eigenvalue-minimisations  :  6984
 total energy-change (2. order) :-0.2313604E+02  (-0.2296389E+02)
 number of electron      16.0000000 magnetization 
 augmentation part       16.0000000 magnetization 

 Free energy of the ion-electron system (eV)
  ---------------------------------------------------
  alpha Z        PSCENC =       152.27955882
  Ewald energy   TEWEN  =     -2123.52259528
  -Hartree energ DENC   =      -407.75413922
  -exchange      EXHF   =         0.00000000
  -V(xc)+E(xc)   XCENC  =        63.66756102
  PAW double counting   =      2065.75261637    -2030.83594803
  entropy T*S    EENTRO =        -0.00186665
  eigenvalues    EBANDS =      -154.18546673
  atomic energy  EATOM  =      2428.19501064
  Solvation  Ediel_sol  =         0.00000000
  ---------------------------------------------------
  free energy    TOTEN  =        -6.40526907 eV

  energy without entropy =       -6.40340241  energy(sigma->0) =       -6.40433574


--------------------------------------------------------------------------------------------------------




--------------------------------------- Iteration      1(   3)  ---------------------------------------


     EDDAV:  cpu time      0.7120: real time      0.7153
       DOS:  cpu time      0.0005: real time      0.0005
    --------------------------------------------
      LOOP:  cpu time      0.7125: real time      0.7158

 eigenvalue-minimisations  :  7032
 total energy-change (2. order) :-0.3551341E-01  (-0.3551040E-01)
 number of electron      16.0000000 magnetization 
 augmentation part       16.0000000 magnetization 

 Free energy of the ion-electron system (eV)
  ---------------------------------------------------
  alpha Z        PSCENC =       152.27955882
  Ewald energy   TEWEN  =     -2123.52259528
  -Hartree energ DENC   =      -407.75413922
  -exchange      EXHF   =         0.00000000
  -V(xc)+E(xc)   XCENC  =        63.66756102
  PAW double counting   =      2065.75261637    -2030.83594803
  entropy T*S    EENTRO =        -0.00184240
  eigenvalues    EBANDS =      -154.22100439
  atomic energy  EATOM  =      2428.19501064
  Solvation  Ediel_sol  =         0.00000000
  ---------------------------------------------------
  free energy    TOTEN  =        -6.44078247 eV

  energy without entropy =       -6.43894007  energy(sigma->0) =       -6.43986127


--------------------------------------------------------------------------------------------------------




--------------------------------------- Iteration      1(   4)  ---------------------------------------


     EDDAV:  cpu time      0.9040: real time      0.9085
       DOS:  cpu time      0.0005: real time      0.0005
    --------------------------------------------
      LOOP:  cpu time      0.9045: real time      0.9090

 eigenvalue-minimisations  :  8208
 total energy-change (2. order) :-0.2501551E-04  (-0.2501687E-04)
 number of electron      16.0000000 magnetization 
 augmentation part       16.0000000 magnetization 

 Free energy of the ion-electron system (eV)
  ---------------------------------------------------
  alpha Z        PSCENC =       152.27955882
  Ewald energy   TEWEN  =     -2123.52259528
  -Hartree energ DENC   =      -407.75413922
  -exchange      EXHF   =         0.00000000
  -V(xc)+E(xc)   XCENC  =        63.66756102
  PAW double counting   =      2065.75261637    -2030.83594803
  entropy T*S    EENTRO =        -0.00184241
  eigenvalues    EBANDS =      -154.22102940
  atomic energy  EATOM  =      2428.19501064
  Solvation  Ediel_sol  =         0.00000000
  ---------------------------------------------------
  free energy    TOTEN  =        -6.44080749 eV

  energy without entropy =       -6.43896508  energy(sigma->0) =       -6.43988629


--------------------------------------------------------------------------------------------------------




--------------------------------------- Iteration      1(   5)  ---------------------------------------


     EDDAV:  cpu time      0.7004: real time      0.7037
       DOS:  cpu time      0.0005: real time      0.0005
    CHARGE:  cpu time      0.0184: real time      0.0184
    MIXING:  cpu time      0.0004: real time      0.0004
    --------------------------------------------
      LOOP:  cpu time      0.7196: real time      0.7230

 eigenvalue-minimisations  :  6936
 total energy-change (2. order) :-0.1220997E-08  (-0.8917661E-09)
 number of electron      16.0000008 magnetization 
 augmentation part        3.9746111 magnetization 

 Broyden mixing:
  rms(total) = 0.13892E+01    rms(broyden)= 0.13891E+01
  rms(prec ) = 0.19791E+01
  weight for this iteration     100.00

 Free energy of the ion-electron system (eV)
  ---------------------------------------------------
  alpha Z        PSCENC =       152.27955882
  Ewald energy   TEWEN  =     -2123.52259528
  -Hartree energ DENC   =      -407.75413922
  -exchange      EXHF   =         0.00000000
  -V(xc)+E(xc)   XCENC  =        63.66756102
  PAW double counting   =      2065.75261637    -2030.83594803
  entropy T*S    EENTRO =        -0.00184241
  eigenvalues    EBANDS =      -154.22102940
  atomic energy  EATOM  =      2428.19501064
  Solvation  Ediel_sol  =         0.00000000
  ---------------------------------------------------
  free energy    TOTEN  =        -6.44080749 eV

  energy without entropy =       -6.43896508  energy(sigma->0) =       -6.43988629


--------------------------------------------------------------------------------------------------------




--------------------------------------- Iteration      1(   6)  ---------------------------------------


    POTLOK:  cpu time      0.0025: real time      0.0026
    SETDIJ:  cpu time      0.0021: real time      0.0021
     EDDAV:  cpu time      0.5186: real time      0.5210
       DOS:  cpu time      0.0005: real time      0.0005
    CHARGE:  cpu time      0.0176: real time      0.0177
    MIXING:  cpu time      0.0003: real time      0.0003
    --------------------------------------------
      LOOP:  cpu time      0.5415: real time      0.5442

 eigenvalue-minimisations  :  5952
 total energy-change (2. order) : 0.3405469E+00  (-0.1309615E+00)
 number of electron      16.0000009 magnetization 
 augmentation part        4.0913682 magnetization 

 Broyden mixing:
  rms(total) = 0.42062E+00    rms(broyden)= 0.42061E+00
  rms(prec ) = 0.53380E+00
  weight for this iteration     100.00

 eigenvalues of (default mixing * dielectric matrix)
  average eigenvalue GAMMA=   1.4063
  1.4063

 Free energy of the ion-electron system (eV)
  ---------------------------------------------------
  alpha Z        PSCENC =       152.27955882
  Ewald energy   TEWEN  =     -2123.52259528
  -Hartree energ DENC   =      -392.10307907
  -exchange      EXHF   =         0.00000000
  -V(xc)+E(xc)   XCENC  =        62.99514139
  PAW double counting   =      2217.85608421    -2184.97298842
  entropy T*S    EENTRO =        -0.00251485
  eigenvalues    EBANDS =      -166.82487800
  atomic energy  EATOM  =      2428.19501064
  Solvation  Ediel_sol  =         0.00000000
  ---------------------------------------------------
  free energy    TOTEN  =        -6.10026055 eV

  energy without entropy =       -6.09774571  energy(sigma->0) =       -6.09900313


--------------------------------------------------------------------------------------------------------




--------------------------------------- Iteration      1(   7)  ---------------------------------------


    POTLOK:  cpu time      0.0022: real time      0.0024
    SETDIJ:  cpu time      0.0019: real time      0.0019
     EDDAV:  cpu time      0.7902: real time      0.7940
       DOS:  cpu time      0.0005: real time      0.0005
    CHARGE:  cpu time      0.0177: real time      0.0177
    MIXING:  cpu time      0.0004: real time      0.0004
    --------------------------------------------
      LOOP:  cpu time      0.8128: real time      0.8169

 eigenvalue-minimisations  :  7800
 total energy-change (2. order) : 0.1673461E-01  (-0.6711910E-02)
 number of electron      16.0000009 magnetization 
 augmentation part        4.1161110 magnetization 

 Broyden mixing:
  rms(total) = 0.13771E+00    rms(broyden)= 0.13771E+00
  rms(prec ) = 0.17251E+00
  weight for this iteration     100.00

 eigenvalues of (default mixing * dielectric matrix)
  average eigenvalue GAMMA=   1.9427
  1.1768  2.7086

 Free energy of the ion-electron system (eV)
  ---------------------------------------------------
  alpha Z        PSCENC =       152.27955882
  Ewald energy   TEWEN  =     -2123.52259528
  -Hartree energ DENC   =      -388.39434271
  -exchange      EXHF   =         0.00000000
  -V(xc)+E(xc)   XCENC  =        62.82562687
  PAW double counting   =      2275.33609268    -2242.95403260
  entropy T*S    EENTRO =        -0.00255417
  eigenvalues    EBANDS =      -169.84629020
  atomic energy  EATOM  =      2428.19501064
  Solvation  Ediel_sol  =         0.00000000
  ---------------------------------------------------
  free energy    TOTEN  =        -6.08352595 eV

  energy without entropy =       -6.08097177  energy(sigma->0) =       -6.08224886


--------------------------------------------------------------------------------------------------------




--------------------------------------- Iteration      1(   8)  ---------------------------------------


    POTLOK:  cpu time      0.0022: real time      0.0024
    SETDIJ:  cpu time      0.0019: real time      0.0019
     EDDAV:  cpu time      0.5628: real time      0.5654
       DOS:  cpu time      0.0005: real time      0.0005
    CHARGE:  cpu time      0.0174: real time      0.0175
    MIXING:  cpu time      0.0002: real time      0.0002
    --------------------------------------------
      LOOP:  cpu time      0.5851: real time      0.5880

 eigenvalue-minimisations  :  6216
 total energy-change (2. order) : 0.1458577E-02  (-0.3936264E-03)
 number of electron      16.0000009 magnetization 
 augmentation part        4.1123968 magnetization 

 Broyden mixing:
  rms(total) = 0.11678E-01    rms(broyden)= 0.11666E-01
  rms(prec ) = 0.15664E-01
  weight for this iteration     100.00

 eigenvalues of (default mixing * dielectric matrix)
  average eigenvalue GAMMA=   1.5679
  1.0793  1.1909  2.4336

 Free energy of the ion-electron system (eV)
  ---------------------------------------------------
  alpha Z        PSCENC =       152.27955882
  Ewald energy   TEWEN  =     -2123.52259528
  -Hartree energ DENC   =      -388.25045355
  -exchange      EXHF   =         0.00000000
  -V(xc)+E(xc)   XCENC  =        62.80604876
  PAW double counting   =      2310.52645761    -2278.16226303
  entropy T*S    EENTRO =        -0.00257947
  eigenvalues    EBANDS =      -169.95125187
  atomic energy  EATOM  =      2428.19501064
  Solvation  Ediel_sol  =         0.00000000
  ---------------------------------------------------
  free energy    TOTEN  =        -6.08206737 eV

  energy without entropy =       -6.07948790  energy(sigma->0) =       -6.08077763


--------------------------------------------------------------------------------------------------------




--------------------------------------- Iteration      1(   9)  ---------------------------------------


    POTLOK:  cpu time      0.0022: real time      0.0023
    SETDIJ:  cpu time      0.0018: real time      0.0018
     EDDAV:  cpu time      0.7292: real time      0.7326
       DOS:  cpu time      0.0005: real time      0.0005
    CHARGE:  cpu time      0.0174: real time      0.0175
    MIXING:  cpu time      0.0002: real time      0.0002
    --------------------------------------------
      LOOP:  cpu time      0.7513: real time      0.7550

 eigenvalue-minimisations  :  7224
 total energy-change (2. order) : 0.5678671E-04  (-0.4240594E-05)
 number of electron      16.0000009 magnetization 
 augmentation part        4.1127594 magnetization 

 Broyden mixing:
  rms(total) = 0.16137E-02    rms(broyden)= 0.16119E-02
  rms(prec ) = 0.32150E-02
  weight for this iteration     100.00

 eigenvalues of (default mixing * dielectric matrix)
  average eigenvalue GAMMA=   1.8274
  1.0150  1.1779  2.7525  2.3641

 Free energy of the ion-electron system (eV)
  ---------------------------------------------------
  alpha Z        PSCENC =       152.27955882
  Ewald energy   TEWEN  =     -2123.52259528
  -Hartree energ DENC   =      -388.28294735
  -exchange      EXHF   =         0.00000000
  -V(xc)+E(xc)   XCENC  =        62.80849043
  PAW double counting   =      2308.67501772    -2276.29019788
  entropy T*S    EENTRO =        -0.00257585
  eigenvalues    EBANDS =      -169.94177182
  atomic energy  EATOM  =      2428.19501064
  Solvation  Ediel_sol  =         0.00000000
  ---------------------------------------------------
  free energy    TOTEN  =        -6.08201058 eV

  energy without entropy =       -6.07943473  energy(sigma->0) =       -6.08072266


--------------------------------------------------------------------------------------------------------




--------------------------------------- Iteration      1(  10)  ---------------------------------------


    POTLOK:  cpu time      0.0022: real time      0.0023
    SETDIJ:  cpu time      0.0019: real time      0.0019
     EDDAV:  cpu time      0.7615: real time      0.7650
       DOS:  cpu time      0.0005: real time      0.0005
    CHARGE:  cpu time      0.0180: real time      0.0181
    MIXING:  cpu time      0.0003: real time      0.0003
    --------------------------------------------
      LOOP:  cpu time      0.7844: real time      0.7881

 eigenvalue-minimisations  :  7464
 total energy-change (2. order) :-0.6044292E-05  (-0.5498943E-06)
 number of electron      16.0000009 magnetization 
 augmentation part        4.1127988 magnetization 

 Broyden mixing:
  rms(total) = 0.56880E-03    rms(broyden)= 0.56854E-03
  rms(prec ) = 0.58045E-03
  weight for this iteration     100.00

 eigenvalues of (default mixing * dielectric matrix)
  average eigenvalue GAMMA=   1.7484
  2.6783  2.3447  0.9901  1.1843  1.5448

 Free energy of the ion-electron system (eV)
  ---------------------------------------------------
  alpha Z        PSCENC =       152.27955882
  Ewald energy   TEWEN  =     -2123.52259528
  -Hartree energ DENC   =      -388.31218641
  -exchange      EXHF   =         0.00000000
  -V(xc)+E(xc)   XCENC  =        62.80960474
  PAW double counting   =      2310.32600873    -2277.91374059
  entropy T*S    EENTRO =        -0.00257459
  eigenvalues    EBANDS =      -169.94110268
  atomic energy  EATOM  =      2428.19501064
  Solvation  Ediel_sol  =         0.00000000
  ---------------------------------------------------
  free energy    TOTEN  =        -6.08201663 eV

  energy without entropy =       -6.07944203  energy(sigma->0) =       -6.08072933


--------------------------------------------------------------------------------------------------------




--------------------------------------- Iteration      1(  11)  ---------------------------------------


    POTLOK:  cpu time      0.0024: real time      0.0024
    SETDIJ:  cpu time      0.0019: real time      0.0019
     EDDAV:  cpu time      0.2650: real time      0.2663
       DOS:  cpu time      0.0005: real time      0.0005
    --------------------------------------------
      LOOP:  cpu time      0.2698: real time      0.2712

 eigenvalue-minimisations  :  3408
 total energy-change (2. order) : 0.7228482E-07  (-0.4255428E-09)
 number of electron      16.0000009 magnetization 
 augmentation part        4.1127988 magnetization 

 Free energy of the ion-electron system (eV)
  ---------------------------------------------------
  alpha Z        PSCENC =       152.27955882
  Ewald energy   TEWEN  =     -2123.52259528
  -Hartree energ DENC   =      -388.31148406
  -exchange      EXHF   =         0.00000000
  -V(xc)+E(xc)   XCENC  =        62.80957436
  PAW double counting   =      2310.15278576    -2277.74108060
  entropy T*S    EENTRO =        -0.00257460
  eigenvalues    EBANDS =      -169.94121159
  atomic energy  EATOM  =      2428.19501064
  Solvation  Ediel_sol  =         0.00000000
  ---------------------------------------------------
  free energy    TOTEN  =        -6.08201655 eV

  energy without entropy =       -6.07944196  energy(sigma->0) =       -6.08072926


--------------------------------------------------------------------------------------------------------




 average (electrostatic) potential at core
  the test charge radii are     0.9952
  (the norm of the test charge is              1.0000)
       1 -89.4419
 
 
 
 E-fermi :  11.2342     XC(G=0): -13.7216     alpha+bet :-16.6494

 Fermi energy:        11.2341828206

 k-point     1 :       0.0500    0.0500    0.0500
  band No.  band energies     occupation 
      1     -41.1951      2.00000
      2     -41.1870      2.00000
      3     -41.1870      2.00000
      4       1.5451      2.00000
      5       7.6365      2.00000
      6       7.7166      2.00000
      7       7.7166      2.00000
      8       9.6750      2.00000
      9       9.6750      2.00000
     10      26.0791      0.00000
     11      30.1040      0.00000
     12      30.7975      0.00000
     13      30.7975      0.00000
     14      36.4459      0.00000
     15      40.8834      0.00000
     16      41.6116      0.00000
     17      41.6116      0.00000
     18      44.6554      0.00000
     19      44.6554      0.00000
     20      45.5595      0.00000
     21      51.4740      0.00000
     22      51.4740      0.00000
     23      52.0303      0.00000
     24      58.1647      0.00000

 k-point     2 :       0.1500    0.0500    0.0500
  band No.  band energies     occupation 
      1     -41.2411      2.00000
      2     -41.2005      2.00000
      3     -41.1904      2.00000
      4       2.0472      2.00000
      5       7.4216      2.00000
      6       7.8878      2.00000
      7       7.9252      2.00000
      8       9.4673      2.00000
      9       9.7304      2.00000
     10      26.7728      0.00000
     11      28.3948      0.00000
     12      30.8628      0.00000
     13      31.8719      0.00000
     14      36.7612      0.00000
     15      39.1341      0.00000
     16      39.7159      0.00000
     17      40.7042      0.00000
     18      43.0780      0.00000
     19      46.0659      0.00000
     20      48.2599      0.00000
     21      50.3840      0.00000
     22      52.0432      0.00000
     23      52.6433      0.00000
     24      59.5859      0.00000

 k-point     3 :       0.2500    0.0500    0.0500
  band No.  band energies     occupation 
      1     -41.3464      2.00000
      2     -41.2189      2.00000
      3     -41.2040      2.00000
      4       3.1280      2.00000
      5       7.2130      2.00000
      6       8.0679      2.00000
      7       8.1046      2.00000
      8       9.4558      2.00000
      9       9.9820      2.00000
     10      25.4237      0.00000
     11      27.6460      0.00000
     12      31.8115      0.00000
     13      33.7113      0.00000
     14      33.8440      0.00000
     15      36.9112      0.00000
     16      37.0364      0.00000
     17      43.5483      0.00000
     18      43.5567      0.00000
     19      46.7330      0.00000
     20      48.8364      0.00000
     21      51.4372      0.00000
     22      52.0470      0.00000
     23      53.3362      0.00000
     24      59.8829      0.00000

 k-point     4 :       0.3500    0.0500    0.0500
  band No.  band energies     occupation 
      1     -41.4659      2.00000
      2     -41.2372      2.00000
      3     -41.2220      2.00000
      4       4.1131      2.00000
      5       7.7499      2.00000
      6       7.9284      2.00000
      7       7.9570      2.00000
      8      10.0772      2.00000
      9      10.6837      2.00000
     10      21.8708      0.00000
     11      26.8959      0.00000
     12      31.1131      0.00000
     13      33.3076      0.00000
     14      34.6722      0.00000
     15      36.3767      0.00000
     16      37.0402      0.00000
     17      44.0242      0.00000
     18      46.1341      0.00000
     19      48.3304      0.00000
     20      49.7321      0.00000
     21      52.0541      0.00000
     22      52.2542      0.00000
     23      54.0585      0.00000
     24      58.8293      0.00000

 k-point     5 :       0.4500    0.0500    0.0500
  band No.  band energies     occupation 
      1     -41.5551      2.00000
      2     -41.2489      2.00000
      3     -41.2383      2.00000
      4       4.3831      2.00000
      5       7.6505      2.00000
      6       7.7437      2.00000
      7       9.4580      2.00000
      8      10.8681      2.00000
      9      11.5258      0.00000
     10      18.2650      0.00000
     11      25.9021      0.00000
     12      29.7547      0.00000
     13      30.7803      0.00000
     14      37.4085      0.00000
     15      38.3421      0.00000
     16      39.0274      0.00000
     17      44.7557      0.00000
     18      46.0356      0.00000
     19      47.4584      0.00000
     20      51.9285      0.00000
     21      52.0506      0.00000
     22      54.6837      0.00000
     23      54.9179      0.00000
     24      55.9516      0.00000

 k-point     6 :      -0.4500    0.0500    0.0500
  band No.  band energies     occupation 
      1     -41.5795      2.00000
      2     -41.2493      2.00000
      3     -41.2456      2.00000
      4       4.3933      2.00000
      5       7.5655      2.00000
      6       7.6939      2.00000
      7      10.1501      2.00000
      8      11.2560      0.53750
      9      11.9851      0.00000
     10      16.7646      0.00000
     11      25.6338      0.00000
     12      29.6726      0.00000
     13      29.7308      0.00000
     14      38.5599      0.00000
     15      38.7602      0.00000
     16      40.2371      0.00000
     17      45.0530      0.00000
     18      46.0710      0.00000
     19      46.1050      0.00000
     20      52.0523      0.00000
     21      53.0399      0.00000
     22      53.6690      0.00000
     23      55.3950      0.00000
     24      56.3876      0.00000

 k-point     7 :      -0.3500    0.0500    0.0500
  band No.  band energies     occupation 
      1     -41.5315      2.00000
      2     -41.2413      2.00000
      3     -41.2381      2.00000
      4       4.3478      2.00000
      5       7.6892      2.00000
      6       7.8336      2.00000
      7       8.8231      2.00000
      8      10.9358      2.00000
      9      10.9822      2.00000
     10      19.3850      0.00000
     11      26.1701      0.00000
     12      30.3420      0.00000
     13      31.1657      0.00000
     14      37.1786      0.00000
     15      37.3419      0.00000
     16      38.2070      0.00000
     17      43.9738      0.00000
     18      47.0182      0.00000
     19      47.7295      0.00000
     20      51.7774      0.00000
     21      52.0530      0.00000
     22      53.1106      0.00000
     23      54.8108      0.00000
     24      56.5827      0.00000

 k-point     8 :      -0.2500    0.0500    0.0500
  band No.  band energies     occupation 
      1     -41.4276      2.00000
      2     -41.2273      2.00000
      3     -41.2200      2.00000
      4       3.8577      2.00000
      5       7.4263      2.00000
      6       7.9592      2.00000
      7       8.0530      2.00000
      8       9.9357      2.00000
      9      10.3192      2.00000
     10      23.1124      0.00000
     11      27.3005      0.00000
     12      31.7990      0.00000
     13      33.2674      0.00000
     14      34.8289      0.00000
     15      35.7990      0.00000
     16      36.4084      0.00000
     17      43.5291      0.00000
     18      46.7608      0.00000
     19      47.1449      0.00000
     20      49.5481      0.00000
     21      51.0410      0.00000
     22      52.0539      0.00000
     23      54.3374      0.00000
     24      59.7287      0.00000

 k-point     9 :      -0.1500    0.0500    0.0500
  band No.  band energies     occupation 
      1     -41.3070      2.00000
      2     -41.2092      2.00000
      3     -41.2024      2.00000
      4       2.7312      2.00000
      5       7.2272      2.00000
      6       8.0613      2.00000
      7       8.0815      2.00000
      8       9.4015      2.00000
      9       9.8358      2.00000
     10      26.4909      0.00000
     11      27.5124      0.00000
     12      31.6446      0.00000
     13      32.6330      0.00000
     14      35.0153      0.00000
     15      37.0690      0.00000
     16      38.3934      0.00000
     17      42.1526      0.00000
     18      43.3516      0.00000
     19      47.0413      0.00000
     20      48.6766      0.00000
     21      50.4020      0.00000
     22      52.0446      0.00000
     23      53.4303      0.00000
     24      59.8235      0.00000

 k-point    10 :      -0.0500    0.0500    0.0500
  band No.  band energies     occupation 
      1     -41.2159      2.00000
      2     -41.1939      2.00000
      3     -41.1916      2.00000
      4       1.8008      2.00000
      5       7.4901      2.00000
      6       7.8332      2.00000
      7       7.8402      2.00000
      8       9.5023      2.00000
      9       9.7477      2.00000
     10      26.4538      0.00000
     11      29.3399      0.00000
     12      30.8046      0.00000
     13      31.0656      0.00000
     14      37.5544      0.00000
     15      39.4872      0.00000
     16      39.7250      0.00000
     17      41.6465      0.00000
     18      42.7552      0.00000
     19      46.5999      0.00000
     20      47.0527      0.00000
     21      50.2802      0.00000
     22      52.0366      0.00000
     23      52.4639      0.00000
     24      59.2854      0.00000

 k-point    11 :       0.1500    0.1500    0.0500
  band No.  band energies     occupation 
      1     -41.2513      2.00000
      2     -41.2072      2.00000
      3     -41.2047      2.00000
      4       2.2959      2.00000
      5       7.2037      2.00000
      6       8.0787      2.00000
      7       8.0847      2.00000
      8       9.1984      2.00000
      9       9.8878      2.00000
     10      27.1563      0.00000
     11      28.6192      0.00000
     12      30.6474      0.00000
     13      31.0379      0.00000
     14      37.2092      0.00000
     15      38.1052      0.00000
     16      39.6881      0.00000
     17      40.3612      0.00000
     18      42.3150      0.00000
     19      48.0227      0.00000
     20      48.6723      0.00000
     21      49.0178      0.00000
     22      52.0447      0.00000
     23      53.2081      0.00000
     24      60.4516      0.00000

 k-point    12 :       0.2500    0.1500    0.0500
  band No.  band energies     occupation 
      1     -41.3249      2.00000
      2     -41.2336      2.00000
      3     -41.2153      2.00000
      4       3.1934      2.00000
      5       6.8710      2.00000
      6       8.1890      2.00000
      7       8.4292      2.00000
      8       9.0973      2.00000
      9      10.1567      2.00000
     10      26.7781      0.00000
     11      28.0455      0.00000
     12      30.2033      0.00000
     13      31.4759      0.00000
     14      34.9962      0.00000
     15      37.3009      0.00000
     16      38.1819      0.00000
     17      41.7831      0.00000
     18      43.7045      0.00000
     19      47.1753      0.00000
     20      48.2115      0.00000
     21      51.4949      0.00000
     22      52.0468      0.00000
     23      54.5613      0.00000
     24      60.1983      0.00000

 k-point    13 :       0.3500    0.1500    0.0500
  band No.  band energies     occupation 
      1     -41.4299      2.00000
      2     -41.2575      2.00000
      3     -41.2324      2.00000
      4       4.3096      2.00000
      5       6.9046      2.00000
      6       7.7922      2.00000
      7       8.4401      2.00000
      8       9.8980      2.00000
      9      10.8461      2.00000
     10      23.3572      0.00000
     11      27.6779      0.00000
     12      29.4528      0.00000
     13      31.6507      0.00000
     14      35.5384      0.00000
     15      36.5032      0.00000
     16      38.4523      0.00000
     17      41.1522      0.00000
     18      46.8316      0.00000
     19      48.0965      0.00000
     20      48.8675      0.00000
     21      51.8143      0.00000
     22      52.0556      0.00000
     23      56.1938      0.00000
     24      58.1511      0.00000

[...]
     13      32.1171      0.00000
     14      36.8599      0.00000
     15      37.6499      0.00000
     16      41.2647      0.00000
     17      44.6808      0.00000
     18      46.2495      0.00000
     19      49.2152      0.00000
     20      50.9145      0.00000
     21      52.0621      0.00000
     22      52.7188      0.00000
     23      56.0206      0.00000
     24      56.8387      0.00000

 k-point   100 :      -0.3500   -0.3500    0.2500
  band No.  band energies     occupation 
      1     -41.5013      2.00000
      2     -41.4141      2.00000
      3     -41.3048      2.00000
      4       5.3663      2.00000
      5       6.1210      2.00000
      6       8.5245      2.00000
      7       9.9448      2.00000
      8      11.0882      1.99996
      9      16.7939      0.00000
     10      17.4717      0.00000
     11      21.2743      0.00000
     12      25.6052      0.00000
     13      30.7079      0.00000
     14      37.2028      0.00000
     15      38.3531      0.00000
     16      39.6725      0.00000
     17      46.8572      0.00000
     18      47.9035      0.00000
     19      48.1381      0.00000
     20      50.7063      0.00000
     21      51.8593      0.00000
     22      52.0598      0.00000
     23      54.9695      0.00000
     24      56.5176      0.00000

 k-point   101 :       0.3500    0.3500    0.3500
  band No.  band energies     occupation 
      1     -41.5023      2.00000
      2     -41.2307      2.00000
      3     -41.2307      2.00000
      4       4.1864      2.00000
      5       7.8302      2.00000
      6       7.8302      2.00000
      7       8.4443      2.00000
      8      10.5762      2.00000
      9      10.5762      2.00000
     10      20.5829      0.00000
     11      26.4016      0.00000
     12      31.7111      0.00000
     13      31.7111      0.00000
     14      36.3393      0.00000
     15      36.7216      0.00000
     16      36.7216      0.00000
     17      45.7137      0.00000
     18      45.7137      0.00000
     19      47.4600      0.00000
     20      51.7856      0.00000
     21      52.0600      0.00000
     22      53.0459      0.00000
     23      53.0459      0.00000
     24      58.8492      0.00000

 k-point   102 :       0.4500    0.3500    0.3500
  band No.  band energies     occupation 
      1     -41.5244      2.00000
      2     -41.2686      2.00000
      3     -41.2348      2.00000
      4       4.5923      2.00000
      5       7.5784      2.00000
      6       7.9649      2.00000
      7       8.4341      2.00000
      8      10.4252      2.00000
      9      11.9050      0.00000
     10      19.4875      0.00000
     11      26.4182      0.00000
     12      28.8336      0.00000
     13      31.6858      0.00000
     14      35.7427      0.00000
     15      38.2918      0.00000
     16      39.5784      0.00000
     17      43.4531      0.00000
     18      45.9612      0.00000
     19      49.0069      0.00000
     20      49.8262      0.00000
     21      52.0572      0.00000
     22      54.3106      0.00000
     23      54.8910      0.00000
     24      56.2530      0.00000

 k-point   103 :      -0.4500    0.3500    0.3500
  band No.  band energies     occupation 
      1     -41.5154      2.00000
      2     -41.3438      2.00000
      3     -41.2537      2.00000
      4       5.4321      2.00000
      5       7.0508      2.00000
      6       7.8893      2.00000
      7       8.5300      2.00000
      8      10.3904      2.00000
      9      13.6859      0.00000
     10      18.8967      0.00000
     11      24.7271      0.00000
     12      28.1741      0.00000
     13      30.2853      0.00000
     14      35.7612      0.00000
     15      38.3902      0.00000
     16      41.9421      0.00000
     17      44.7542      0.00000
     18      46.1934      0.00000
     19      47.6325      0.00000
     20      49.0114      0.00000
     21      52.0593      0.00000
     22      52.5503      0.00000
     23      56.3694      0.00000
     24      57.1084      0.00000

 k-point   104 :      -0.3500    0.3500    0.3500
  band No.  band energies     occupation 
      1     -41.4770      2.00000
      2     -41.4297      2.00000
      3     -41.2810      2.00000
      4       5.7837      2.00000
      5       6.7365      2.00000
      6       7.6721      2.00000
      7       9.3162      2.00000
      8      10.5822      2.00000
      9      15.1797      0.00000
     10      19.2665      0.00000
     11      21.4101      0.00000
     12      27.9388      0.00000
     13      29.5310      0.00000
     14      37.1116      0.00000
     15      38.1144      0.00000
     16      40.1870      0.00000
     17      46.8565      0.00000
     18      47.8365      0.00000
     19      47.9461      0.00000
     20      50.8034      0.00000
     21      51.1130      0.00000
     22      52.0526      0.00000
     23      53.0040      0.00000
     24      58.2633      0.00000

 k-point   105 :       0.4500    0.4500    0.3500
  band No.  band energies     occupation 
      1     -41.5478      2.00000
      2     -41.2588      2.00000
      3     -41.2521      2.00000
      4       4.6011      2.00000
      5       7.4578      2.00000
      6       7.9662      2.00000
      7       8.7355      2.00000
      8      11.2369      0.93782
      9      11.9877      0.00000
     10      18.2656      0.00000
     11      26.2252      0.00000
     12      29.2862      0.00000
     13      29.9435      0.00000
     14      37.6348      0.00000
     15      38.7296      0.00000
     16      39.5543      0.00000
     17      42.4761      0.00000
     18      47.6964      0.00000
     19      47.9333      0.00000
     20      50.5065      0.00000
     21      52.0564      0.00000
     22      54.2098      0.00000
     23      55.0077      0.00000
     24      55.9133      0.00000

 k-point   106 :      -0.4500    0.4500    0.3500
  band No.  band energies     occupation 
      1     -41.5411      2.00000
      2     -41.3136      2.00000
      3     -41.2629      2.00000
      4       5.1550      2.00000
      5       7.0384      2.00000
      6       8.2115      2.00000
      7       8.4455      2.00000
      8      11.0194      2.00000
      9      13.9082      0.00000
     10      17.4122      0.00000
     11      26.2790      0.00000
     12      26.9808      0.00000
     13      29.8661      0.00000
     14      37.0296      0.00000
     15      39.1103      0.00000
     16      41.8431      0.00000
     17      42.6692      0.00000
     18      46.5223      0.00000
     19      48.3484      0.00000
     20      49.3615      0.00000
     21      52.0554      0.00000
     22      52.6546      0.00000
     23      56.1681      0.00000
     24      57.5547      0.00000

 k-point   107 :      -0.3500    0.4500    0.3500
  band No.  band energies     occupation 
      1     -41.5061      2.00000
      2     -41.3870      2.00000
      3     -41.2878      2.00000
      4       5.8780      2.00000
      5       6.5576      2.00000
      6       7.6521      2.00000
      7       9.1068      2.00000
      8      10.9535      2.00000
      9      15.8211      0.00000
     10      17.3220      0.00000
     11      23.4504      0.00000
     12      26.1113      0.00000
     13      30.7543      0.00000
     14      36.4316      0.00000
     15      39.7528      0.00000
     16      41.0248      0.00000
     17      43.5828      0.00000
     18      45.6090      0.00000
     19      50.2035      0.00000
     20      50.8917      0.00000
     21      51.4512      0.00000
     22      52.0596      0.00000
     23      54.6327      0.00000
     24      57.1327      0.00000

 k-point   108 :      -0.4500   -0.4500    0.3500
  band No.  band energies     occupation 
      1     -41.5383      2.00000
      2     -41.3342      2.00000
      3     -41.2713      2.00000
      4       5.2958      2.00000
      5       6.8993      2.00000
      6       8.1809      2.00000
      7       8.5692      2.00000
      8      11.1594      1.96561
      9      15.0345      0.00000
     10      16.4974      0.00000
     11      25.3276      0.00000
     12      28.1653      0.00000
     13      28.4569      0.00000
     14      38.1539      0.00000
     15      38.4106      0.00000
     16      41.0632      0.00000
     17      43.6225      0.00000
     18      46.9685      0.00000
     19      48.4137      0.00000
     20      49.5589      0.00000
     21      52.0549      0.00000
     22      52.1588      0.00000
     23      55.4866      0.00000
     24      58.1493      0.00000

 k-point   109 :       0.4500    0.4500    0.4500
  band No.  band energies     occupation 
      1     -41.5741      2.00000
      2     -41.2418      2.00000
      3     -41.2418      2.00000
      4       4.3141      2.00000
      5       7.6517      2.00000
      6       7.6517      2.00000
      7      10.4392      2.00000
      8      11.1632      1.95534
      9      11.1632      1.95534
     10      17.3358      0.00000
     11      25.5958      0.00000
     12      30.0940      0.00000
     13      30.0940      0.00000
     14      38.4573      0.00000
     15      38.4573      0.00000
     16      39.4101      0.00000
     17      45.6742      0.00000
     18      45.6742      0.00000
     19      46.3567      0.00000
     20      52.0517      0.00000
     21      54.0359      0.00000
     22      54.0359      0.00000
     23      55.2578      0.00000
     24      55.9701      0.00000

 k-point   110 :      -0.4500    0.4500    0.4500
  band No.  band energies     occupation 
      1     -41.5703      2.00000
      2     -41.2709      2.00000
      3     -41.2491      2.00000
      4       4.6183      2.00000
      5       7.4044      2.00000
      6       7.8667      2.00000
      7       9.4223      2.00000
      8      11.1301      1.99675
      9      12.9991      0.00000
     10      16.7197      0.00000
     11      25.9559      0.00000
     12      28.6912      0.00000
     13      29.7049      0.00000
     14      38.2467      0.00000
     15      38.5928      0.00000
     16      40.9638      0.00000
     17      45.1489      0.00000
     18      45.9196      0.00000
     19      46.1702      0.00000
     20      51.7429      0.00000
     21      52.0517      0.00000
     22      52.3601      0.00000
     23      56.1679      0.00000
     24      56.7421      0.00000


--------------------------------------------------------------------------------------------------------


 soft charge-density along one line, spin component           1
         0         1         2         3         4         5         6         7         8         9
 total charge-density along one line
 
 pseudopotential strength for first ion, spin component:           1
-31.647  -0.000  -0.000  10.701   0.000   0.000  -0.000   0.000
 -0.000 -31.647  -0.000   0.000  10.701   0.000  -0.000  -0.000
 -0.000  -0.000 -31.647   0.000   0.000  10.701  -0.000  -0.000
 10.701   0.000   0.000  16.262  -0.000  -0.000   0.000   0.000
  0.000  10.701   0.000  -0.000  16.262  -0.000   0.000   0.000
  0.000   0.000  10.701  -0.000  -0.000  16.262   0.000  -0.000
 -0.000  -0.000  -0.000   0.000   0.000   0.000  -3.695   0.000
  0.000  -0.000  -0.000   0.000   0.000  -0.000   0.000  -3.695
  0.000   0.000   0.000  -0.000   0.000   0.000   0.000  -0.000
 -0.000  -0.000   0.000  -0.000   0.000   0.000   0.000   0.000
  0.000   0.000  -0.000  -0.000  -0.000   0.000   0.000   0.000
 -0.000  -0.000  -0.000   0.000   0.000   0.000  -3.922   0.000
  0.000  -0.000  -0.000   0.000   0.000   0.000   0.000  -3.922
  0.000   0.000  -0.000  -0.000   0.000  -0.000   0.000  -0.000
 -0.000  -0.000  -0.000   0.000   0.000   0.000   0.000   0.000
  0.000   0.000   0.000  -0.000  -0.000  -0.000   0.000   0.000
  0.000   0.000   0.000   0.000  -0.000   0.000   0.000   0.000
 -0.000   0.000  -0.000  -0.000   0.000  -0.000  -0.000  -0.000
 total augmentation occupancy for first ion, spin component:           1
  2.002  -0.000   0.000  -0.021   0.000  -0.000   0.000   0.000   0.000   0.000   0.000   0.000   0.000   0.000   0.000   0.000
 -0.000   2.002   0.000   0.000  -0.021   0.000   0.000   0.000   0.000   0.000   0.000   0.000   0.000   0.000   0.000   0.000
  0.000   0.000   2.002   0.000  -0.000  -0.021   0.000   0.000   0.000   0.000   0.000   0.000   0.000   0.000   0.000   0.000
 -0.021  -0.000   0.000   0.047   0.000   0.000   0.000   0.000   0.000   0.000   0.000   0.000   0.000   0.000   0.000   0.000
  0.000  -0.021  -0.000   0.000   0.047   0.000   0.000   0.000   0.000   0.000   0.000   0.000   0.000   0.000   0.000   0.000
 -0.000  -0.000  -0.021  -0.000   0.000   0.047   0.000   0.000   0.000   0.000   0.000   0.000   0.000   0.000   0.000   0.000
  0.000   0.000   0.000   0.000   0.000   0.000   5.025   0.000  -0.000  -0.000  -0.000  -2.765  -0.000  -0.000   0.000  -0.000
  0.000   0.000   0.000   0.000   0.000   0.000   0.000   5.025  -0.000  -0.000  -0.000  -0.000  -2.765  -0.000   0.000   0.000
  0.000   0.000   0.000   0.000   0.000   0.000   0.000  -0.000   4.140  -0.000   0.000  -0.000  -0.000  -2.187  -0.000  -0.000
  0.000   0.000   0.000   0.000   0.000   0.000  -0.000  -0.000  -0.000   5.025  -0.000   0.000   0.000   0.000  -2.765   0.000
  0.000   0.000   0.000   0.000   0.000   0.000   0.000  -0.000   0.000  -0.000   4.140  -0.000   0.000  -0.000  -0.000  -2.187
  0.000   0.000   0.000   0.000   0.000   0.000  -2.765  -0.000  -0.000   0.000  -0.000   2.235   0.000  -0.000  -0.000  -0.000
  0.000   0.000   0.000   0.000   0.000   0.000  -0.000  -2.765   0.000  -0.000   0.000   0.000   2.235   0.000   0.000   0.000
  0.000   0.000   0.000   0.000   0.000   0.000   0.000  -0.000  -2.187   0.000  -0.000   0.000  -0.000   2.079   0.000   0.000
  0.000   0.000   0.000   0.000   0.000   0.000   0.000   0.000   0.000  -2.765   0.000  -0.000   0.000   0.000   2.235   0.000
  0.000   0.000   0.000   0.000   0.000   0.000  -0.000   0.000  -0.000   0.000  -2.187  -0.000  -0.000   0.000   0.000   2.079
  0.000   0.000   0.000   0.000   0.000   0.000   0.000   0.000  -0.000  -0.000   0.000  -0.000   0.000   0.000   0.000   0.000
  0.000   0.000   0.000   0.000   0.000   0.000   0.000  -0.000  -0.000  -0.000  -0.000  -0.000   0.000   0.000   0.000   0.000


------------------------ aborting loop because EDIFF is reached ----------------------------------------





 total charge

# of ion       s       p       d       tot
------------------------------------------
    1        0.335   6.076   7.060  13.471
 
    CHARGE:  cpu time      0.0174: real time      0.0175
    FORLOC:  cpu time      0.0001: real time      0.0001
    FORNL :  cpu time      0.0063: real time      0.0063
    STRESS:  cpu time      0.1199: real time      0.1203
    FORCOR:  cpu time      0.0019: real time      0.0020
    FORHAR:  cpu time      0.0004: real time      0.0004
    MIXING:  cpu time      0.0002: real time      0.0002
    OFIELD:  cpu time      0.0000: real time      0.0000

  FORCE on cell =-STRESS in cart. coord.  units (eV):
  Direction    XX          YY          ZZ          XY          YZ          ZX
  --------------------------------------------------------------------------------------
  Alpha Z   152.27956   152.27956   152.27956
  Ewald    -707.84089  -707.84089  -707.84089    -0.00000     0.00000     0.00000
  Hartree   129.43639   129.43639   129.43639     0.00000     0.00000     0.00000
  E(xc)     -85.40957   -85.40957   -85.40957     0.00000     0.00000     0.00000
  Local     119.42236   119.42236   119.42236    -0.00000    -0.00000    -0.00000
  n-local   -30.54411   -27.96522   -33.28782     3.25606    -3.03924     0.17538
  augment    73.33569    73.33569    73.33569     0.00001     0.00001     0.00001
  Kinetic   348.18346   353.24240   345.48931     4.38089    -3.68380    -0.53733
  Fock        0.00000     0.00000     0.00000     0.00000     0.00000     0.00000
  -------------------------------------------------------------------------------------
  Total      -0.40380    -0.40380    -0.40380     0.00000     0.00000    -0.00000
  in kB     -41.06062   -41.06062   -41.06062     0.00000     0.00000    -0.00000
  external pressure =      -41.06 kB  Pullay stress =        0.00 kB


 VOLUME and BASIS-vectors are now :
 -----------------------------------------------------------------------------
  energy-cutoff  :      425.00
  volume of cell :       15.76
      direct lattice vectors                 reciprocal lattice vectors
     0.000000000  1.989781717  1.989781717    -0.251283845  0.251283845  0.251283845
     1.989781717  0.000000000  1.989781717     0.251283845 -0.251283845  0.251283845
     1.989781717  1.989781717  0.000000000     0.251283845  0.251283845 -0.251283845

  length of vectors
     2.813976290  2.813976290  2.813976290     0.435236386  0.435236386  0.435236386


 FORCES acting on ions
    electron-ion (+dipol)            ewald-force                    non-local-force                 convergence-correction
 -----------------------------------------------------------------------------------------------
   -.820E-14 -.749E-14 0.672E-15   -.514E-15 -.225E-14 -.109E-14   0.000E+00 0.000E+00 0.129E-25   -.161E-13 -.868E-13 -.127E-13
 -----------------------------------------------------------------------------------------------
   -.820E-14 -.749E-14 0.672E-15   -.514E-15 -.225E-14 -.109E-14   0.000E+00 0.000E+00 0.129E-25   -.161E-13 -.868E-13 -.127E-13
 
 
 POSITION                                       TOTAL-FORCE (eV/Angst)
 -----------------------------------------------------------------------------------
      0.00000      0.00000      0.00000         0.000000     -0.000000      0.000000
 -----------------------------------------------------------------------------------
    total drift:                               -0.000000     -0.000000     -0.000000


--------------------------------------------------------------------------------------------------------



  FREE ENERGIE OF THE ION-ELECTRON SYSTEM (eV)
  ---------------------------------------------------
  free  energy   TOTEN  =        -6.08201655 eV

  energy  without entropy=       -6.07944196  energy(sigma->0) =       -6.08072926
 


--------------------------------------------------------------------------------------------------------


    POTLOK:  cpu time      0.0043: real time      0.0043


--------------------------------------------------------------------------------------------------------




--------------------------------------------------------------------------------------------------------


  
 reached required accuracy - stopping structural energy minimisation
 writing wavefunctions
     LOOP+:  cpu time      7.4998: real time      7.6145
    4ORBIT:  cpu time      0.0000: real time      0.0000



 total charge

# of ion       s       p       d       tot
------------------------------------------
    1        0.335   6.076   7.060  13.471
 

 total amount of memory used by VASP MPI-rank0    36607. kBytes
=======================================================================

   base      :      30000. kBytes
   nonl-proj :       5327. kBytes
   fftplans  :        147. kBytes
   grid      :        485. kBytes
   one-center:         15. kBytes
   wavefun   :        633. kBytes
 
  
  
 General timing and accounting informations for this job:
 ========================================================
  
                  Total CPU time used (sec):        8.656
                            User time (sec):        8.152
                          System time (sec):        0.504
                         Elapsed time (sec):       10.059
  
                   Maximum memory used (kb):      223840.
                   Average memory used (kb):          N/A
  
                          Minor page faults:        26817
                          Major page faults:           79
                 Voluntary context switches:         2133
