 vasp.6.3.2 27Jun22 (build Aug 12 2022 00:53:59) complex                        
  
 executed on               tv2STD date 2024.12.03  02:20:02
 running   24 mpi-ranks, with    1 threads/rank
 distrk:  each k-point on   24 cores,    1 groups
 distr:  one band on NCORE=   1 cores,   24 groups


--------------------------------------------------------------------------------------------------------


 INCAR:
   SYSTEM = Pt-fcc
   NWRITE = 2    write-flag
   ISTART = 0    job   : 0-new, 1-cont, 2-samecut
   ICHARG = 2    charge: 0-wave, 1-file, 2-atom, >10-const
   INIWAV = 1    electr: 0-lowe 1-rand  2-diag
   ENCUT = 425.0     energy cutoff in eV
   PREC = accurate      normal | accurate
   ADDGRID = .FALSE.  (use fine grid)
   NELM = 100     number of ELM steps
   EDIFF = 1E-06    energy stopping-criterion for ELM
   LREAL = .FALSE.      real-space projection (.FALSE., .TRUE., On, Auto)
   ALGO = Normal     Normal, Fast, Very_Fast
   LWAVE = .TRUE.
   LCHARG = .TRUE.
   NSW = 100       max number of geometry steps
   IBRION = 2     ionic relax: 0-MD, 1-quasi-Newton, 2-CG, 3-Damped MD
   EDIFFG = -0.02  force (eV/A) stopping-criterion for geometry steps
   ISIF = 2     (1:force\=y stress\=trace only ions\=y shape\=n volume\=n)
   ISYM = 1     (1-use symmetry, 0-no symmetry)
   ISMEAR = 0     (-1-Fermi, 1-Methfessel/Paxton)
   SIGMA = 0.05   broadening in eV
   LORBIT = 11

 POTCAR:    PAW_PBE Pt_pv 12Dec2005               
 POTCAR:    PAW_PBE Pt_pv 12Dec2005               
   SHA256 =  e5abf7e8cd8db70d0153315afc5ad66b6e3eeee29cc2d5b91b16730957c1d208 Pt_pv/POTCAR          
   COPYR  = (c) Copyright 12Dec2005 Georg Kresse                                                    
   COPYR  = This file is part of the software VASP. Any use, copying, and all other rights are regul
   COPYR  = If you do not have a valid VASP license, you may not use, copy or distribute this file. 
   VRHFIN =Pt: 5ps1d9                                                                               
   LEXCH  = PE                                                                                      
   EATOM  =  2428.2504 eV,  178.4714 Ry                                                             
                                                                                                    
   TITEL  = PAW_PBE Pt_pv 12Dec2005                                                                 
   LULTRA =        F    use ultrasoft PP ?                                                          
   IUNSCR =        1    unscreen: 0-lin 1-nonlin 2-no                                               
   RPACOR =    2.000    partial core radius                                                         
   POMASS =  195.080; ZVAL   =   16.000    mass and valenz                                          
   RCORE  =    2.200    outmost cutoff radius                                                       
   RWIGS  =    2.200; RWIGS  =    1.164    wigner-seitz radius (au A)                               
   ENMAX  =  294.607; ENMIN  =  220.955 eV                                                          
   ICORE  =        3    local potential                                                             
   LCOR   =        T    correct aug charges                                                         
   LPAW   =        T    paw PP                                                                      
   EAUG   =  527.014                                                                                
   DEXC   =    0.000                                                                                
   RMAX   =    2.247    core radius for proj-oper                                                   
   RAUG   =    1.300    factor for augmentation sphere                                              
   RDEP   =    2.279    radius for radial grids                                                     
   RDEPT  =    1.878    core radius for aug-charge                                                  
                                                                                                    
   Atomic configuration                                                                             
   16 entries                                                                                       
     n  l   j            E        occ.                                                              
     1  0  0.50    -78401.1885   2.0000                                                             
     2  0  0.50    -13770.7750   2.0000                                                             
     2  1  1.50    -11931.0468   6.0000                                                             
     3  0  0.50     -3234.7234   2.0000                                                             
     3  1  1.50     -2699.2216   6.0000                                                             
     3  2  2.50     -2119.5714  10.0000                                                             
     4  0  0.50      -695.1528   2.0000                                                             
     4  1  1.50      -519.6034   6.0000                                                             
     4  2  2.50      -306.6786  10.0000                                                             
     4  3  3.50       -70.1041  14.0000                                                             
     5  0  0.50      -101.7747   2.0000                                                             
     5  1  1.50       -55.9873   6.0000                                                             
     6  1  1.50        -6.8029   0.0000                                                             
     5  2  2.50        -6.1423   9.0000                                                             
     6  0  0.50        -5.6573   1.0000                                                             
     5  3  2.50        -1.3606   0.0000                                                             
   Description                                                                                      
     l       E           TYP  RCUT    TYP  RCUT                                                     
     1    -55.9873477     23  2.000                                                                 
     1     27.2116520     23  2.000                                                                 
     2     -6.1423404     23  2.200                                                                 
     2     -4.6754623     23  2.200                                                                 
     0     -5.6573207     23  2.200                                                                 
     0     47.6203910     23  2.200                                                                 
     3      6.8029130     23  2.200                                                                 
  local pseudopotential read in
  partial core-charges read in
  partial kinetic energy density read in
  atomic valenz-charges read in
  non local Contribution for L=           1  read in
    real space projection operators read in
  non local Contribution for L=           1  read in
    real space projection operators read in
  non local Contribution for L=           2  read in
    real space projection operators read in
  non local Contribution for L=           2  read in
    real space projection operators read in
  non local Contribution for L=           0  read in
    real space projection operators read in
  non local Contribution for L=           0  read in
    real space projection operators read in
    PAW grid and wavefunctions read in
 
   number of l-projection  operators is LMAX  =           6
   number of lm-projection operators is LMMAX =          18
 
  PAW_PBE Pt_pv 12Dec2005               :
 energy of atom  1       EATOM=-2428.2504
 kinetic energy error for atom=    0.0554 (will be added to EATOM!!)
 
 
 POSCAR: Pt
  positions in cartesian coordinates
  No initial velocities read in
 exchange correlation table for  LEXCH =        8
   RHO(1)=    0.500       N(1)  =     2000
   RHO(2)=  100.500       N(2)  =     4000
 


--------------------------------------------------------------------------------------------------------


 ion  position               nearest neighbor table
   1  0.000  0.000  0.000-
 
  LATTYP: Found a face centered cubic cell.
 ALAT       =     3.9972742315
  
  Lattice vectors:
  
 A1 = (   0.0000000000,   1.9986371157,   1.9986371157)
 A2 = (   1.9986371157,   0.0000000000,   1.9986371157)
 A3 = (   1.9986371157,   1.9986371157,   0.0000000000)


Analysis of symmetry for initial positions (statically):
=====================================================================
 Subroutine PRICEL returns:
 Original cell was already a primitive cell.
 

 Routine SETGRP: Setting up the symmetry group for a 
 face centered cubic supercell.


 Subroutine GETGRP returns: Found 48 space group operations
 (whereof 48 operations were pure point group operations)
 out of a pool of 48 trial point group operations.


The static configuration has the point symmetry O_h .


Analysis of symmetry for dynamics (positions and initial velocities):
=====================================================================
 Subroutine PRICEL returns:
 Original cell was already a primitive cell.
 

 Routine SETGRP: Setting up the symmetry group for a 
 face centered cubic supercell.


 Subroutine GETGRP returns: Found 48 space group operations
 (whereof 48 operations were pure point group operations)
 out of a pool of 48 trial point group operations.


The dynamic configuration has the point symmetry O_h .


 Subroutine INISYM returns: Found 48 space group operations
 (whereof 48 operations are pure point group operations),
 and found     1 'primitive' translations


----------------------------------------------------------------------------------------

                                     Primitive cell                                     

  volume of cell :      15.9673

  direct lattice vectors                    reciprocal lattice vectors
     0.000000000  1.998637116  1.998637116    -0.250170477  0.250170477  0.250170477
     1.998637116  0.000000000  1.998637116     0.250170477 -0.250170477  0.250170477
     1.998637116  1.998637116  0.000000000     0.250170477  0.250170477 -0.250170477

  length of vectors
     2.826499715  2.826499715  2.826499715     0.433307976  0.433307976  0.433307976

  position of ions in fractional coordinates (direct lattice)
     0.000000000  0.000000000  0.000000000

  ion indices of the primitive-cell ions
   primitive index   ion index
                 1           1

----------------------------------------------------------------------------------------

 
 
 KPOINTS: Automatic mesh                          

Automatic generation of k-mesh.
 Grid dimensions read from file:
 generate k-points for:   10   10   10

 Generating k-lattice:

  Cartesian coordinates                     Fractional coordinates (reciprocal lattice)
    -0.025017048  0.025017048  0.025017048     0.100000000  0.000000000  0.000000000
     0.025017048 -0.025017048  0.025017048     0.000000000  0.100000000 -0.000000000
     0.025017048  0.025017048 -0.025017048     0.000000000 -0.000000000  0.100000000

  Length of vectors
     0.043330798  0.043330798  0.043330798

  Shift w.r.t. Gamma in fractional coordinates (k-lattice)
     0.500000000  0.500000000  0.500000000

 
 Subroutine IBZKPT returns following result:
 ===========================================
 
 Found    110 irreducible k-points:
 
 Following reciprocal coordinates:
            Coordinates               Weight
  0.050000  0.050000  0.050000      8.000000
  0.150000  0.050000  0.050000     24.000000
  0.250000  0.050000  0.050000     24.000000
  0.350000  0.050000  0.050000     24.000000
  0.450000  0.050000  0.050000     24.000000
 -0.450000  0.050000  0.050000     24.000000
 -0.350000  0.050000  0.050000     24.000000
 -0.250000  0.050000  0.050000     24.000000
 -0.150000  0.050000  0.050000     24.000000
 -0.050000  0.050000  0.050000     24.000000
  0.150000  0.150000  0.050000     24.000000
  0.250000  0.150000  0.050000     48.000000
  0.350000  0.150000  0.050000     48.000000
  0.450000  0.150000  0.050000     48.000000
 -0.450000  0.150000  0.050000     48.000000
 -0.350000  0.150000  0.050000     48.000000
 -0.250000  0.150000  0.050000     48.000000
 -0.150000  0.150000  0.050000     48.000000
 -0.050000  0.150000  0.050000     48.000000
  0.250000  0.250000  0.050000     24.000000
  0.350000  0.250000  0.050000     48.000000
  0.450000  0.250000  0.050000     48.000000
 -0.450000  0.250000  0.050000     48.000000
 -0.350000  0.250000  0.050000     48.000000
 -0.250000  0.250000  0.050000     48.000000
 -0.150000  0.250000  0.050000     48.000000
 -0.050000  0.250000  0.050000     48.000000
  0.350000  0.350000  0.050000     24.000000
  0.450000  0.350000  0.050000     48.000000
 -0.450000  0.350000  0.050000     48.000000
 -0.350000  0.350000  0.050000     48.000000
 -0.250000  0.350000  0.050000     48.000000
 -0.150000  0.350000  0.050000     48.000000
 -0.050000  0.350000  0.050000     48.000000
  0.450000  0.450000  0.050000     24.000000
 -0.450000  0.450000  0.050000     48.000000
 -0.350000  0.450000  0.050000     48.000000
 -0.250000  0.450000  0.050000     48.000000
 -0.150000  0.450000  0.050000     48.000000
 -0.050000  0.450000  0.050000     48.000000
 -0.450000 -0.450000  0.050000     24.000000
 -0.350000 -0.450000  0.050000     48.000000
 -0.250000 -0.450000  0.050000     48.000000
 -0.150000 -0.450000  0.050000     48.000000
 -0.350000 -0.350000  0.050000     24.000000
 -0.250000 -0.350000  0.050000     48.000000
 -0.150000 -0.350000  0.050000     48.000000
 -0.250000 -0.250000  0.050000     24.000000
 -0.150000 -0.250000  0.050000     48.000000
 -0.150000 -0.150000  0.050000     24.000000
  0.150000  0.150000  0.150000      8.000000
  0.250000  0.150000  0.150000     24.000000
  0.350000  0.150000  0.150000     24.000000
  0.450000  0.150000  0.150000     24.000000
 -0.450000  0.150000  0.150000     24.000000
 -0.350000  0.150000  0.150000     24.000000
 -0.250000  0.150000  0.150000     24.000000
 -0.150000  0.150000  0.150000     24.000000
  0.250000  0.250000  0.150000     24.000000
  0.350000  0.250000  0.150000     48.000000
  0.450000  0.250000  0.150000     48.000000
 -0.450000  0.250000  0.150000     48.000000
 -0.350000  0.250000  0.150000     48.000000
 -0.250000  0.250000  0.150000     48.000000
 -0.150000  0.250000  0.150000     48.000000
  0.350000  0.350000  0.150000     24.000000
  0.450000  0.350000  0.150000     48.000000
 -0.450000  0.350000  0.150000     48.000000
 -0.350000  0.350000  0.150000     48.000000
 -0.250000  0.350000  0.150000     48.000000
 -0.150000  0.350000  0.150000     48.000000
  0.450000  0.450000  0.150000     24.000000
 -0.450000  0.450000  0.150000     48.000000
 -0.350000  0.450000  0.150000     48.000000
 -0.250000  0.450000  0.150000     48.000000
 -0.150000  0.450000  0.150000     48.000000
 -0.450000 -0.450000  0.150000     24.000000
 -0.350000 -0.450000  0.150000     48.000000
 -0.250000 -0.450000  0.150000     48.000000
 -0.350000 -0.350000  0.150000     24.000000
 -0.250000 -0.350000  0.150000     48.000000
 -0.250000 -0.250000  0.150000     24.000000
  0.250000  0.250000  0.250000      8.000000
  0.350000  0.250000  0.250000     24.000000
  0.450000  0.250000  0.250000     24.000000
 -0.450000  0.250000  0.250000     24.000000
 -0.350000  0.250000  0.250000     24.000000
 -0.250000  0.250000  0.250000     24.000000
  0.350000  0.350000  0.250000     24.000000
  0.450000  0.350000  0.250000     48.000000
 -0.450000  0.350000  0.250000     48.000000
 -0.350000  0.350000  0.250000     48.000000
 -0.250000  0.350000  0.250000     48.000000
  0.450000  0.450000  0.250000     24.000000
 -0.450000  0.450000  0.250000     48.000000
 -0.350000  0.450000  0.250000     48.000000
 -0.250000  0.450000  0.250000     48.000000
 -0.450000 -0.450000  0.250000     24.000000
 -0.350000 -0.450000  0.250000     48.000000
 -0.350000 -0.350000  0.250000     24.000000
  0.350000  0.350000  0.350000      8.000000
  0.450000  0.350000  0.350000     24.000000
 -0.450000  0.350000  0.350000     24.000000
 -0.350000  0.350000  0.350000     24.000000
  0.450000  0.450000  0.350000     24.000000
 -0.450000  0.450000  0.350000     48.000000
 -0.350000  0.450000  0.350000     48.000000
 -0.450000 -0.450000  0.350000     24.000000
  0.450000  0.450000  0.450000      8.000000
 -0.450000  0.450000  0.450000     24.000000
 
 Following cartesian coordinates:
            Coordinates               Weight
  0.012509  0.012509  0.012509      8.000000
 -0.012509  0.037526  0.037526     24.000000
 -0.037526  0.062543  0.062543     24.000000
 -0.062543  0.087560  0.087560     24.000000
 -0.087560  0.112577  0.112577     24.000000
  0.137594 -0.112577 -0.112577     24.000000
  0.112577 -0.087560 -0.087560     24.000000
  0.087560 -0.062543 -0.062543     24.000000
  0.062543 -0.037526 -0.037526     24.000000
  0.037526 -0.012509 -0.012509     24.000000
  0.012509  0.012509  0.062543     24.000000
 -0.012509  0.037526  0.087560     48.000000
 -0.037526  0.062543  0.112577     48.000000
 -0.062543  0.087560  0.137594     48.000000
  0.162611 -0.137594 -0.087560     48.000000
  0.137594 -0.112577 -0.062543     48.000000
  0.112577 -0.087560 -0.037526     48.000000
  0.087560 -0.062543 -0.012509     48.000000
  0.062543 -0.037526  0.012509     48.000000
  0.012509  0.012509  0.112577     24.000000
 -0.012509  0.037526  0.137594     48.000000
 -0.037526  0.062543  0.162611     48.000000
  0.187628 -0.162611 -0.062543     48.000000
  0.162611 -0.137594 -0.037526     48.000000
  0.137594 -0.112577 -0.012509     48.000000
  0.112577 -0.087560  0.012509     48.000000
  0.087560 -0.062543  0.037526     48.000000
  0.012509  0.012509  0.162611     24.000000
 -0.012509  0.037526  0.187628     48.000000
  0.212645 -0.187628 -0.037526     48.000000
  0.187628 -0.162611 -0.012509     48.000000
  0.162611 -0.137594  0.012509     48.000000
  0.137594 -0.112577  0.037526     48.000000
  0.112577 -0.087560  0.062543     48.000000
  0.012509  0.012509  0.212645     24.000000
  0.237662 -0.212645 -0.012509     48.000000
  0.212645 -0.187628  0.012509     48.000000
  0.187628 -0.162611  0.037526     48.000000
  0.162611 -0.137594  0.062543     48.000000
  0.137594 -0.112577  0.087560     48.000000
  0.012509  0.012509 -0.237662     24.000000
 -0.012509  0.037526 -0.212645     48.000000
 -0.037526  0.062543 -0.187628     48.000000
 -0.062543  0.087560 -0.162611     48.000000
  0.012509  0.012509 -0.187628     24.000000
 -0.012509  0.037526 -0.162611     48.000000
 -0.037526  0.062543 -0.137594     48.000000
  0.012509  0.012509 -0.137594     24.000000
 -0.012509  0.037526 -0.112577     48.000000
  0.012509  0.012509 -0.087560     24.000000
  0.037526  0.037526  0.037526      8.000000
  0.012509  0.062543  0.062543     24.000000
 -0.012509  0.087560  0.087560     24.000000
 -0.037526  0.112577  0.112577     24.000000
  0.187628 -0.112577 -0.112577     24.000000
  0.162611 -0.087560 -0.087560     24.000000
  0.137594 -0.062543 -0.062543     24.000000
  0.112577 -0.037526 -0.037526     24.000000
  0.037526  0.037526  0.087560     24.000000
  0.012509  0.062543  0.112577     48.000000
 -0.012509  0.087560  0.137594     48.000000
  0.212645 -0.137594 -0.087560     48.000000
  0.187628 -0.112577 -0.062543     48.000000
  0.162611 -0.087560 -0.037526     48.000000
  0.137594 -0.062543 -0.012509     48.000000
  0.037526  0.037526  0.137594     24.000000
  0.012509  0.062543  0.162611     48.000000
  0.237662 -0.162611 -0.062543     48.000000
  0.212645 -0.137594 -0.037526     48.000000
  0.187628 -0.112577 -0.012509     48.000000
  0.162611 -0.087560  0.012509     48.000000
  0.037526  0.037526  0.187628     24.000000
  0.262679 -0.187628 -0.037526     48.000000
  0.237662 -0.162611 -0.012509     48.000000
  0.212645 -0.137594  0.012509     48.000000
  0.187628 -0.112577  0.037526     48.000000
  0.037526  0.037526 -0.262679     24.000000
  0.012509  0.062543 -0.237662     48.000000
 -0.012509  0.087560 -0.212645     48.000000
  0.037526  0.037526 -0.212645     24.000000
  0.012509  0.062543 -0.187628     48.000000
  0.037526  0.037526 -0.162611     24.000000
  0.062543  0.062543  0.062543      8.000000
  0.037526  0.087560  0.087560     24.000000
  0.012509  0.112577  0.112577     24.000000
  0.237662 -0.112577 -0.112577     24.000000
  0.212645 -0.087560 -0.087560     24.000000
  0.187628 -0.062543 -0.062543     24.000000
  0.062543  0.062543  0.112577     24.000000
  0.037526  0.087560  0.137594     48.000000
  0.262679 -0.137594 -0.087560     48.000000
  0.237662 -0.112577 -0.062543     48.000000
  0.212645 -0.087560 -0.037526     48.000000
  0.062543  0.062543  0.162611     24.000000
  0.287696 -0.162611 -0.062543     48.000000
  0.262679 -0.137594 -0.037526     48.000000
  0.237662 -0.112577 -0.012509     48.000000
  0.062543  0.062543 -0.287696     24.000000
  0.037526  0.087560 -0.262679     48.000000
  0.062543  0.062543 -0.237662     24.000000
  0.087560  0.087560  0.087560      8.000000
  0.062543  0.112577  0.112577     24.000000
  0.287696 -0.112577 -0.112577     24.000000
  0.262679 -0.087560 -0.087560     24.000000
  0.087560  0.087560  0.137594     24.000000
  0.312713 -0.137594 -0.087560     48.000000
  0.287696 -0.112577 -0.062543     48.000000
  0.087560  0.087560 -0.312713     24.000000
  0.112577  0.112577  0.112577      8.000000
  0.337730 -0.112577 -0.112577     24.000000
 


--------------------------------------------------------------------------------------------------------




 Dimension of arrays:
   k-points           NKPTS =    110   k-points in BZ     NKDIM =    110   number of bands    NBANDS=     24
   number of dos      NEDOS =    301   number of ions     NIONS =      1
   non local maximal  LDIM  =      6   non local SUM 2l+1 LMDIM =     18
   total plane-waves  NPLWV =   8000
   max r-space proj   IRMAX =      1   max aug-charges    IRDMAX=  17256
   dimension x,y,z NGX =    20 NGY =   20 NGZ =   20
   dimension x,y,z NGXF=    40 NGYF=   40 NGZF=   40
   support grid    NGXF=    40 NGYF=   40 NGZF=   40
   ions per type =               1
   NGX,Y,Z   is equivalent  to a cutoff of  11.76, 11.76, 11.76 a.u.
   NGXF,Y,Z  is equivalent  to a cutoff of  23.53, 23.53, 23.53 a.u.

 SYSTEM =  Pt-fcc                                  
 POSCAR =  Pt                                      

 Startparameter for this run:
   NWRITE =      2    write-flag & timer
   PREC   = accura    normal or accurate (medium, high low for compatibility)
   ISTART =      0    job   : 0-new  1-cont  2-samecut
   ICHARG =      2    charge: 1-file 2-atom 10-const
   ISPIN  =      1    spin polarized calculation?
   LNONCOLLINEAR =      F non collinear calculations
   LSORBIT =      F    spin-orbit coupling
   INIWAV =      1    electr: 0-lowe 1-rand  2-diag
   LASPH  =      F    aspherical Exc in radial PAW
 Electronic Relaxation 1
   ENCUT  =  425.0 eV  31.24 Ry    5.59 a.u.   4.75  4.75  4.75*2*pi/ulx,y,z
   ENINI  =  425.0     initial cutoff
   ENAUG  =  527.0 eV  augmentation charge cutoff
   NELM   =    100;   NELMIN=  2; NELMDL= -5     # of ELM steps 
   EDIFF  = 0.1E-05   stopping-criterion for ELM
   LREAL  =      F    real-space projection
   NLSPLINE    = F    spline interpolate recip. space projectors
   LCOMPAT=      F    compatible to vasp.4.4
   GGA_COMPAT  = T    GGA compatible to vasp.4.4-vasp.4.6
   LMAXPAW     = -100 max onsite density
   LMAXMIX     =    2 max onsite mixed and CHGCAR
   VOSKOWN=      0    Vosko Wilk Nusair interpolation
   ROPT   =    0.00000
 Ionic relaxation
   EDIFFG = -.2E-01   stopping-criterion for IOM
   NSW    =    100    number of steps for IOM
   NBLOCK =      1;   KBLOCK =    100    inner block; outer block 
   IBRION =      2    ionic relax: 0-MD 1-quasi-New 2-CG
   NFREE  =      1    steps in history (QN), initial steepest desc. (CG)
   ISIF   =      2    stress and relaxation
   IWAVPR =     11    prediction:  0-non 1-charg 2-wave 3-comb
   ISYM   =      1    0-nonsym 1-usesym 2-fastsym
   LCORR  =      T    Harris-Foulkes like correction to forces

   POTIM  = 0.5000    time-step for ionic-motion
   TEIN   =    0.0    initial temperature
   TEBEG  =    0.0;   TEEND  =   0.0 temperature during run
   SMASS  =  -3.00    Nose mass-parameter (am)
   estimated Nose-frequenzy (Omega)   =  0.10E-29 period in steps = 0.13E+47 mass=  -0.183E-27a.u.
   SCALEE = 1.0000    scale energy and forces
   NPACO  =    256;   APACO  = 10.0  distance and # of slots for P.C.
   PSTRESS=    0.0 pullay stress

  Mass of Ions in am
   POMASS = 195.08
  Ionic Valenz
   ZVAL   =  16.00
  Atomic Wigner-Seitz radii
   RWIGS  =  -1.00
  virtual crystal weights 
   VCA    =   1.00
   NELECT =      16.0000    total number of electrons
   NUPDOWN=      -1.0000    fix difference up-down

 DOS related values:
   EMIN   =  10.00;   EMAX   =-10.00  energy-range for DOS
   EFERMI =   0.00
   ISMEAR =     0;   SIGMA  =   0.05  broadening in eV -4-tet -1-fermi 0-gaus

 Electronic relaxation 2 (details)
   IALGO  =     38    algorithm
   LDIAG  =      T    sub-space diagonalisation (order eigenvalues)
   LSUBROT=      F    optimize rotation matrix (better conditioning)
   TURBO    =      0    0=normal 1=particle mesh
   IRESTART =      0    0=no restart 2=restart with 2 vectors
   NREBOOT  =      0    no. of reboots
   NMIN     =      0    reboot dimension
   EREF     =   0.00    reference energy to select bands
   IMIX   =      4    mixing-type and parameters
     AMIX     =   0.40;   BMIX     =  1.00
     AMIX_MAG =   1.60;   BMIX_MAG =  1.00
     AMIN     =   0.10
     WC   =   100.;   INIMIX=   1;  MIXPRE=   1;  MAXMIX= -45

 Intra band minimization:
   WEIMIN = 0.0010     energy-eigenvalue tresh-hold
   EBREAK =  0.10E-07  absolut break condition
   DEPER  =   0.30     relativ break condition  

   TIME   =   0.40     timestep for ELM

  volume/ion in A,a.u.               =      15.97       107.75
  Fermi-wavevector in a.u.,A,eV,Ry     =   1.638215  3.095777 36.514610  2.683748
  Thomas-Fermi vector in A             =   2.729225
 
 Write flags
   LWAVE        =      T    write WAVECAR
   LDOWNSAMPLE  =      F    k-point downsampling of WAVECAR
   LCHARG       =      T    write CHGCAR
   LVTOT        =      F    write LOCPOT, total local potential
   LVHAR        =      F    write LOCPOT, Hartree potential only
   LELF         =      F    write electronic localiz. function (ELF)
   LORBIT       =     11    0 simple, 1 ext, 2 COOP (PROOUT), +10 PAW based schemes


 Dipole corrections
   LMONO  =      F    monopole corrections only (constant potential shift)
   LDIPOL =      F    correct potential (dipole corrections)
   IDIPOL =      0    1-x, 2-y, 3-z, 4-all directions 
   EPSILON=  1.0000000 bulk dielectric constant

 Exchange correlation treatment:
   GGA     =    --    GGA type
   LEXCH   =     8    internal setting for exchange type
   LIBXC   =     F    Libxc                    
   VOSKOWN =     0    Vosko Wilk Nusair interpolation
   LHFCALC =     F    Hartree Fock is set to
   LHFONE  =     F    Hartree Fock one center treatment
   AEXX    =    0.0000 exact exchange contribution

 Linear response parameters
   LEPSILON=     F    determine dielectric tensor
   LRPA    =     F    only Hartree local field effects (RPA)
   LNABLA  =     F    use nabla operator in PAW spheres
   LVEL    =     F    velocity operator in full k-point grid
   CSHIFT  =0.1000    complex shift for real part using Kramers Kronig
   OMEGAMAX=  -1.0    maximum frequency
   DEG_THRESHOLD= 0.2000000E-02 threshold for treating states as degnerate
   RTIME   =   -0.100 relaxation time in fs
  (WPLASMAI=    0.000 imaginary part of plasma frequency in eV, 0.658/RTIME)
   DFIELD  = 0.0000000 0.0000000 0.0000000 field for delta impulse in time
 
  Optional k-point grid parameters
   LKPOINTS_OPT  =     F    use optional k-point grid
   KPOINTS_OPT_MODE=     1    mode for optional k-point grid
 
 Orbital magnetization related:
   ORBITALMAG=     F  switch on orbital magnetization
   LCHIMAG   =     F  perturbation theory with respect to B field
   DQ        =  0.001000  dq finite difference perturbation B field
   LLRAUG    =     F  two centre corrections for induced B field



--------------------------------------------------------------------------------------------------------


 conjugate gradient relaxation of ions
 charge density and potential will be updated during run
 non-spin polarized calculation
 Variant of blocked Davidson
 Davidson routine will perform the subspace rotation
 perform sub-space diagonalisation
    after iterative eigenvector-optimisation
 modified Broyden-mixing scheme, WC =      100.0
 initial mixing is a Kerker type mixing with AMIX =  0.4000 and BMIX =      1.0000
 Hartree-type preconditioning will be used
 using additional bands           16
 reciprocal scheme for non local part
 use partial core corrections
 calculate Harris-corrections to forces 
   (improved forces if not selfconsistent)
 use gradient corrections 
 use of overlap-Matrix (Vanderbilt PP)
 Gauss-broadening in eV      SIGMA  =   0.05


--------------------------------------------------------------------------------------------------------


  energy-cutoff  :      425.00
  volume of cell :       15.97
      direct lattice vectors                 reciprocal lattice vectors
     0.000000000  1.998637116  1.998637116    -0.250170477  0.250170477  0.250170477
     1.998637116  0.000000000  1.998637116     0.250170477 -0.250170477  0.250170477
     1.998637116  1.998637116  0.000000000     0.250170477  0.250170477 -0.250170477

  length of vectors
     2.826499715  2.826499715  2.826499715     0.433307976  0.433307976  0.433307976


 
 k-points in units of 2pi/SCALE and weight: Automatic mesh                          
   0.01250852  0.01250852  0.01250852       0.002
  -0.01250852  0.03752557  0.03752557       0.006
  -0.03752557  0.06254262  0.06254262       0.006
  -0.06254262  0.08755967  0.08755967       0.006
  -0.08755967  0.11257671  0.11257671       0.006
   0.13759376 -0.11257671 -0.11257671       0.006
   0.11257671 -0.08755967 -0.08755967       0.006
   0.08755967 -0.06254262 -0.06254262       0.006
   0.06254262 -0.03752557 -0.03752557       0.006
   0.03752557 -0.01250852 -0.01250852       0.006
   0.01250852  0.01250852  0.06254262       0.006
  -0.01250852  0.03752557  0.08755967       0.012
  -0.03752557  0.06254262  0.11257671       0.012
  -0.06254262  0.08755967  0.13759376       0.012
   0.16261081 -0.13759376 -0.08755967       0.012
   0.13759376 -0.11257671 -0.06254262       0.012
   0.11257671 -0.08755967 -0.03752557       0.012
   0.08755967 -0.06254262 -0.01250852       0.012
   0.06254262 -0.03752557  0.01250852       0.012
   0.01250852  0.01250852  0.11257671       0.006
  -0.01250852  0.03752557  0.13759376       0.012
  -0.03752557  0.06254262  0.16261081       0.012
   0.18762786 -0.16261081 -0.06254262       0.012
   0.16261081 -0.13759376 -0.03752557       0.012
   0.13759376 -0.11257671 -0.01250852       0.012
   0.11257671 -0.08755967  0.01250852       0.012
   0.08755967 -0.06254262  0.03752557       0.012
   0.01250852  0.01250852  0.16261081       0.006
  -0.01250852  0.03752557  0.18762786       0.012
   0.21264491 -0.18762786 -0.03752557       0.012
   0.18762786 -0.16261081 -0.01250852       0.012
   0.16261081 -0.13759376  0.01250852       0.012
   0.13759376 -0.11257671  0.03752557       0.012
   0.11257671 -0.08755967  0.06254262       0.012
   0.01250852  0.01250852  0.21264491       0.006
   0.23766195 -0.21264491 -0.01250852       0.012
   0.21264491 -0.18762786  0.01250852       0.012
   0.18762786 -0.16261081  0.03752557       0.012
   0.16261081 -0.13759376  0.06254262       0.012
   0.13759376 -0.11257671  0.08755967       0.012
   0.01250852  0.01250852 -0.23766195       0.006
  -0.01250852  0.03752557 -0.21264491       0.012
  -0.03752557  0.06254262 -0.18762786       0.012
  -0.06254262  0.08755967 -0.16261081       0.012
   0.01250852  0.01250852 -0.18762786       0.006
  -0.01250852  0.03752557 -0.16261081       0.012
  -0.03752557  0.06254262 -0.13759376       0.012
   0.01250852  0.01250852 -0.13759376       0.006
  -0.01250852  0.03752557 -0.11257671       0.012
   0.01250852  0.01250852 -0.08755967       0.006
   0.03752557  0.03752557  0.03752557       0.002
   0.01250852  0.06254262  0.06254262       0.006
  -0.01250852  0.08755967  0.08755967       0.006
  -0.03752557  0.11257671  0.11257671       0.006
   0.18762786 -0.11257671 -0.11257671       0.006
   0.16261081 -0.08755967 -0.08755967       0.006
   0.13759376 -0.06254262 -0.06254262       0.006
   0.11257671 -0.03752557 -0.03752557       0.006
   0.03752557  0.03752557  0.08755967       0.006
   0.01250852  0.06254262  0.11257671       0.012
  -0.01250852  0.08755967  0.13759376       0.012
   0.21264491 -0.13759376 -0.08755967       0.012
   0.18762786 -0.11257671 -0.06254262       0.012
   0.16261081 -0.08755967 -0.03752557       0.012
   0.13759376 -0.06254262 -0.01250852       0.012
   0.03752557  0.03752557  0.13759376       0.006
   0.01250852  0.06254262  0.16261081       0.012
   0.23766195 -0.16261081 -0.06254262       0.012
   0.21264491 -0.13759376 -0.03752557       0.012
   0.18762786 -0.11257671 -0.01250852       0.012
   0.16261081 -0.08755967  0.01250852       0.012
   0.03752557  0.03752557  0.18762786       0.006
   0.26267900 -0.18762786 -0.03752557       0.012
   0.23766195 -0.16261081 -0.01250852       0.012
   0.21264491 -0.13759376  0.01250852       0.012
   0.18762786 -0.11257671  0.03752557       0.012
   0.03752557  0.03752557 -0.26267900       0.006
   0.01250852  0.06254262 -0.23766195       0.012
  -0.01250852  0.08755967 -0.21264491       0.012
   0.03752557  0.03752557 -0.21264491       0.006
   0.01250852  0.06254262 -0.18762786       0.012
   0.03752557  0.03752557 -0.16261081       0.006
   0.06254262  0.06254262  0.06254262       0.002
   0.03752557  0.08755967  0.08755967       0.006
   0.01250852  0.11257671  0.11257671       0.006
   0.23766195 -0.11257671 -0.11257671       0.006
   0.21264491 -0.08755967 -0.08755967       0.006
   0.18762786 -0.06254262 -0.06254262       0.006
   0.06254262  0.06254262  0.11257671       0.006
   0.03752557  0.08755967  0.13759376       0.012
   0.26267900 -0.13759376 -0.08755967       0.012
   0.23766195 -0.11257671 -0.06254262       0.012
   0.21264491 -0.08755967 -0.03752557       0.012
   0.06254262  0.06254262  0.16261081       0.006
   0.28769605 -0.16261081 -0.06254262       0.012
   0.26267900 -0.13759376 -0.03752557       0.012
   0.23766195 -0.11257671 -0.01250852       0.012
   0.06254262  0.06254262 -0.28769605       0.006
   0.03752557  0.08755967 -0.26267900       0.012
   0.06254262  0.06254262 -0.23766195       0.006
   0.08755967  0.08755967  0.08755967       0.002
   0.06254262  0.11257671  0.11257671       0.006
   0.28769605 -0.11257671 -0.11257671       0.006
   0.26267900 -0.08755967 -0.08755967       0.006
   0.08755967  0.08755967  0.13759376       0.006
   0.31271310 -0.13759376 -0.08755967       0.012
   0.28769605 -0.11257671 -0.06254262       0.012
   0.08755967  0.08755967 -0.31271310       0.006
   0.11257671  0.11257671  0.11257671       0.002
   0.33773014 -0.11257671 -0.11257671       0.006
 
 k-points in reciprocal lattice and weights: Automatic mesh                          
   0.05000000  0.05000000  0.05000000       0.002
   0.15000000  0.05000000  0.05000000       0.006
   0.25000000  0.05000000  0.05000000       0.006
   0.35000000  0.05000000  0.05000000       0.006
   0.45000000  0.05000000  0.05000000       0.006
  -0.45000000  0.05000000  0.05000000       0.006
  -0.35000000  0.05000000  0.05000000       0.006
  -0.25000000  0.05000000  0.05000000       0.006
  -0.15000000  0.05000000  0.05000000       0.006
  -0.05000000  0.05000000  0.05000000       0.006
   0.15000000  0.15000000  0.05000000       0.006
   0.25000000  0.15000000  0.05000000       0.012
   0.35000000  0.15000000  0.05000000       0.012
   0.45000000  0.15000000  0.05000000       0.012
  -0.45000000  0.15000000  0.05000000       0.012
  -0.35000000  0.15000000  0.05000000       0.012
  -0.25000000  0.15000000  0.05000000       0.012
  -0.15000000  0.15000000  0.05000000       0.012
  -0.05000000  0.15000000  0.05000000       0.012
   0.25000000  0.25000000  0.05000000       0.006
   0.35000000  0.25000000  0.05000000       0.012
   0.45000000  0.25000000  0.05000000       0.012
  -0.45000000  0.25000000  0.05000000       0.012
  -0.35000000  0.25000000  0.05000000       0.012
  -0.25000000  0.25000000  0.05000000       0.012
  -0.15000000  0.25000000  0.05000000       0.012
  -0.05000000  0.25000000  0.05000000       0.012
   0.35000000  0.35000000  0.05000000       0.006
   0.45000000  0.35000000  0.05000000       0.012
  -0.45000000  0.35000000  0.05000000       0.012
  -0.35000000  0.35000000  0.05000000       0.012
  -0.25000000  0.35000000  0.05000000       0.012
  -0.15000000  0.35000000  0.05000000       0.012
  -0.05000000  0.35000000  0.05000000       0.012
   0.45000000  0.45000000  0.05000000       0.006
  -0.45000000  0.45000000  0.05000000       0.012
  -0.35000000  0.45000000  0.05000000       0.012
  -0.25000000  0.45000000  0.05000000       0.012
  -0.15000000  0.45000000  0.05000000       0.012
  -0.05000000  0.45000000  0.05000000       0.012
  -0.45000000 -0.45000000  0.05000000       0.006
  -0.35000000 -0.45000000  0.05000000       0.012
  -0.25000000 -0.45000000  0.05000000       0.012
  -0.15000000 -0.45000000  0.05000000       0.012
  -0.35000000 -0.35000000  0.05000000       0.006
  -0.25000000 -0.35000000  0.05000000       0.012
  -0.15000000 -0.35000000  0.05000000       0.012
  -0.25000000 -0.25000000  0.05000000       0.006
  -0.15000000 -0.25000000  0.05000000       0.012
  -0.15000000 -0.15000000  0.05000000       0.006
   0.15000000  0.15000000  0.15000000       0.002
   0.25000000  0.15000000  0.15000000       0.006
   0.35000000  0.15000000  0.15000000       0.006
   0.45000000  0.15000000  0.15000000       0.006
  -0.45000000  0.15000000  0.15000000       0.006
  -0.35000000  0.15000000  0.15000000       0.006
  -0.25000000  0.15000000  0.15000000       0.006
  -0.15000000  0.15000000  0.15000000       0.006
   0.25000000  0.25000000  0.15000000       0.006
   0.35000000  0.25000000  0.15000000       0.012
   0.45000000  0.25000000  0.15000000       0.012
  -0.45000000  0.25000000  0.15000000       0.012
  -0.35000000  0.25000000  0.15000000       0.012
  -0.25000000  0.25000000  0.15000000       0.012
  -0.15000000  0.25000000  0.15000000       0.012
   0.35000000  0.35000000  0.15000000       0.006
   0.45000000  0.35000000  0.15000000       0.012
  -0.45000000  0.35000000  0.15000000       0.012
  -0.35000000  0.35000000  0.15000000       0.012
  -0.25000000  0.35000000  0.15000000       0.012
  -0.15000000  0.35000000  0.15000000       0.012
   0.45000000  0.45000000  0.15000000       0.006
  -0.45000000  0.45000000  0.15000000       0.012
  -0.35000000  0.45000000  0.15000000       0.012
  -0.25000000  0.45000000  0.15000000       0.012
  -0.15000000  0.45000000  0.15000000       0.012
  -0.45000000 -0.45000000  0.15000000       0.006
  -0.35000000 -0.45000000  0.15000000       0.012
  -0.25000000 -0.45000000  0.15000000       0.012
  -0.35000000 -0.35000000  0.15000000       0.006
  -0.25000000 -0.35000000  0.15000000       0.012
  -0.25000000 -0.25000000  0.15000000       0.006
   0.25000000  0.25000000  0.25000000       0.002
   0.35000000  0.25000000  0.25000000       0.006
   0.45000000  0.25000000  0.25000000       0.006
  -0.45000000  0.25000000  0.25000000       0.006
  -0.35000000  0.25000000  0.25000000       0.006
  -0.25000000  0.25000000  0.25000000       0.006
   0.35000000  0.35000000  0.25000000       0.006
   0.45000000  0.35000000  0.25000000       0.012
  -0.45000000  0.35000000  0.25000000       0.012
  -0.35000000  0.35000000  0.25000000       0.012
  -0.25000000  0.35000000  0.25000000       0.012
   0.45000000  0.45000000  0.25000000       0.006
  -0.45000000  0.45000000  0.25000000       0.012
  -0.35000000  0.45000000  0.25000000       0.012
  -0.25000000  0.45000000  0.25000000       0.012
  -0.45000000 -0.45000000  0.25000000       0.006
  -0.35000000 -0.45000000  0.25000000       0.012
  -0.35000000 -0.35000000  0.25000000       0.006
   0.35000000  0.35000000  0.35000000       0.002
   0.45000000  0.35000000  0.35000000       0.006
  -0.45000000  0.35000000  0.35000000       0.006
  -0.35000000  0.35000000  0.35000000       0.006
   0.45000000  0.45000000  0.35000000       0.006
  -0.45000000  0.45000000  0.35000000       0.012
  -0.35000000  0.45000000  0.35000000       0.012
  -0.45000000 -0.45000000  0.35000000       0.006
   0.45000000  0.45000000  0.45000000       0.002
  -0.45000000  0.45000000  0.45000000       0.006
 
 position of ions in fractional coordinates (direct lattice) 
   0.00000000  0.00000000  0.00000000
 
 position of ions in cartesian coordinates  (Angst):
   0.00000000  0.00000000  0.00000000
 


--------------------------------------------------------------------------------------------------------


 k-point   1 :   0.0500 0.0500 0.0500  plane waves:     331
 k-point   2 :   0.1500 0.0500 0.0500  plane waves:     319
 k-point   3 :   0.2500 0.0500 0.0500  plane waves:     316
 k-point   4 :   0.3500 0.0500 0.0500  plane waves:     313
 k-point   5 :   0.4500 0.0500 0.0500  plane waves:     323
 k-point   6 :  -0.4500 0.0500 0.0500  plane waves:     321
 k-point   7 :  -0.3500 0.0500 0.0500  plane waves:     319
 k-point   8 :  -0.2500 0.0500 0.0500  plane waves:     313
 k-point   9 :  -0.1500 0.0500 0.0500  plane waves:     315
 k-point  10 :  -0.0500 0.0500 0.0500  plane waves:     325
 k-point  11 :   0.1500 0.1500 0.0500  plane waves:     318
 k-point  12 :   0.2500 0.1500 0.0500  plane waves:     316
 k-point  13 :   0.3500 0.1500 0.0500  plane waves:     317
 k-point  14 :   0.4500 0.1500 0.0500  plane waves:     320
 k-point  15 :  -0.4500 0.1500 0.0500  plane waves:     320
 k-point  16 :  -0.3500 0.1500 0.0500  plane waves:     315
 k-point  17 :  -0.2500 0.1500 0.0500  plane waves:     315
 k-point  18 :  -0.1500 0.1500 0.0500  plane waves:     315
 k-point  19 :  -0.0500 0.1500 0.0500  plane waves:     320
 k-point  20 :   0.2500 0.2500 0.0500  plane waves:     312
 k-point  21 :   0.3500 0.2500 0.0500  plane waves:     317
 k-point  22 :   0.4500 0.2500 0.0500  plane waves:     320
 k-point  23 :  -0.4500 0.2500 0.0500  plane waves:     316
 k-point  24 :  -0.3500 0.2500 0.0500  plane waves:     315
 k-point  25 :  -0.2500 0.2500 0.0500  plane waves:     318
 k-point  26 :  -0.1500 0.2500 0.0500  plane waves:     316
 k-point  27 :  -0.0500 0.2500 0.0500  plane waves:     314
 k-point  28 :   0.3500 0.3500 0.0500  plane waves:     319
 k-point  29 :   0.4500 0.3500 0.0500  plane waves:     320
 k-point  30 :  -0.4500 0.3500 0.0500  plane waves:     316
 k-point  31 :  -0.3500 0.3500 0.0500  plane waves:     317
 k-point  32 :  -0.2500 0.3500 0.0500  plane waves:     319
 k-point  33 :  -0.1500 0.3500 0.0500  plane waves:     317
 k-point  34 :  -0.0500 0.3500 0.0500  plane waves:     318
 k-point  35 :   0.4500 0.4500 0.0500  plane waves:     322
 k-point  36 :  -0.4500 0.4500 0.0500  plane waves:     317
 k-point  37 :  -0.3500 0.4500 0.0500  plane waves:     318
 k-point  38 :  -0.2500 0.4500 0.0500  plane waves:     316
 k-point  39 :  -0.1500 0.4500 0.0500  plane waves:     316
 k-point  40 :  -0.0500 0.4500 0.0500  plane waves:     321
 k-point  41 :  -0.4500-0.4500 0.0500  plane waves:     318
 k-point  42 :  -0.3500-0.4500 0.0500  plane waves:     321
 k-point  43 :  -0.2500-0.4500 0.0500  plane waves:     318
 k-point  44 :  -0.1500-0.4500 0.0500  plane waves:     318
 k-point  45 :  -0.3500-0.3500 0.0500  plane waves:     322
 k-point  46 :  -0.2500-0.3500 0.0500  plane waves:     319
 k-point  47 :  -0.1500-0.3500 0.0500  plane waves:     321
 k-point  48 :  -0.2500-0.2500 0.0500  plane waves:     311
 k-point  49 :  -0.1500-0.2500 0.0500  plane waves:     316
 k-point  50 :  -0.1500-0.1500 0.0500  plane waves:     316
 k-point  51 :   0.1500 0.1500 0.1500  plane waves:     320
 k-point  52 :   0.2500 0.1500 0.1500  plane waves:     317
 k-point  53 :   0.3500 0.1500 0.1500  plane waves:     317
 k-point  54 :   0.4500 0.1500 0.1500  plane waves:     317
 k-point  55 :  -0.4500 0.1500 0.1500  plane waves:     318
 k-point  56 :  -0.3500 0.1500 0.1500  plane waves:     319
 k-point  57 :  -0.2500 0.1500 0.1500  plane waves:     320
 k-point  58 :  -0.1500 0.1500 0.1500  plane waves:     319
 k-point  59 :   0.2500 0.2500 0.1500  plane waves:     315
 k-point  60 :   0.3500 0.2500 0.1500  plane waves:     316
 k-point  61 :   0.4500 0.2500 0.1500  plane waves:     318
 k-point  62 :  -0.4500 0.2500 0.1500  plane waves:     317
 k-point  63 :  -0.3500 0.2500 0.1500  plane waves:     311
 k-point  64 :  -0.2500 0.2500 0.1500  plane waves:     318
 k-point  65 :  -0.1500 0.2500 0.1500  plane waves:     318
 k-point  66 :   0.3500 0.3500 0.1500  plane waves:     320
 k-point  67 :   0.4500 0.3500 0.1500  plane waves:     321
 k-point  68 :  -0.4500 0.3500 0.1500  plane waves:     317
 k-point  69 :  -0.3500 0.3500 0.1500  plane waves:     316
 k-point  70 :  -0.2500 0.3500 0.1500  plane waves:     317
 k-point  71 :  -0.1500 0.3500 0.1500  plane waves:     318
 k-point  72 :   0.4500 0.4500 0.1500  plane waves:     318
 k-point  73 :  -0.4500 0.4500 0.1500  plane waves:     319
 k-point  74 :  -0.3500 0.4500 0.1500  plane waves:     318
 k-point  75 :  -0.2500 0.4500 0.1500  plane waves:     317
 k-point  76 :  -0.1500 0.4500 0.1500  plane waves:     319
 k-point  77 :  -0.4500-0.4500 0.1500  plane waves:     318
 k-point  78 :  -0.3500-0.4500 0.1500  plane waves:     318
 k-point  79 :  -0.2500-0.4500 0.1500  plane waves:     314
 k-point  80 :  -0.3500-0.3500 0.1500  plane waves:     320
 k-point  81 :  -0.2500-0.3500 0.1500  plane waves:     321
 k-point  82 :  -0.2500-0.2500 0.1500  plane waves:     320
 k-point  83 :   0.2500 0.2500 0.2500  plane waves:     311
 k-point  84 :   0.3500 0.2500 0.2500  plane waves:     313
 k-point  85 :   0.4500 0.2500 0.2500  plane waves:     317
 k-point  86 :  -0.4500 0.2500 0.2500  plane waves:     317
 k-point  87 :  -0.3500 0.2500 0.2500  plane waves:     311
 k-point  88 :  -0.2500 0.2500 0.2500  plane waves:     315
 k-point  89 :   0.3500 0.3500 0.2500  plane waves:     324
 k-point  90 :   0.4500 0.3500 0.2500  plane waves:     316
 k-point  91 :  -0.4500 0.3500 0.2500  plane waves:     318
 k-point  92 :  -0.3500 0.3500 0.2500  plane waves:     317
 k-point  93 :  -0.2500 0.3500 0.2500  plane waves:     317
 k-point  94 :   0.4500 0.4500 0.2500  plane waves:     318
 k-point  95 :  -0.4500 0.4500 0.2500  plane waves:     319
 k-point  96 :  -0.3500 0.4500 0.2500  plane waves:     316
 k-point  97 :  -0.2500 0.4500 0.2500  plane waves:     317
 k-point  98 :  -0.4500-0.4500 0.2500  plane waves:     315
 k-point  99 :  -0.3500-0.4500 0.2500  plane waves:     316
 k-point 100 :  -0.3500-0.3500 0.2500  plane waves:     318
 k-point 101 :   0.3500 0.3500 0.3500  plane waves:     314
 k-point 102 :   0.4500 0.3500 0.3500  plane waves:     318
 k-point 103 :  -0.4500 0.3500 0.3500  plane waves:     322
 k-point 104 :  -0.3500 0.3500 0.3500  plane waves:     319
 k-point 105 :   0.4500 0.4500 0.3500  plane waves:     315
 k-point 106 :  -0.4500 0.4500 0.3500  plane waves:     319
 k-point 107 :  -0.3500 0.4500 0.3500  plane waves:     316
 k-point 108 :  -0.4500-0.4500 0.3500  plane waves:     317
 k-point 109 :   0.4500 0.4500 0.4500  plane waves:     320
 k-point 110 :  -0.4500 0.4500 0.4500  plane waves:     322

 maximum and minimum number of plane-waves per node :       331      311

 maximum number of plane-waves:       331
 maximum index in each direction: 
   IXMAX=    5   IYMAX=    5   IZMAX=    4
   IXMIN=   -5   IYMIN=   -5   IZMIN=   -5


 serial   3D FFT for wavefunctions
 parallel 3D FFT for charge:
    minimum data exchange during FFTs selected (reduces bandwidth)


 total amount of memory used by VASP MPI-rank0    36607. kBytes
=======================================================================

   base      :      30000. kBytes
   nonl-proj :       5327. kBytes
   fftplans  :        147. kBytes
   grid      :        485. kBytes
   one-center:         15. kBytes
   wavefun   :        633. kBytes
 
     INWAV:  cpu time      0.0000: real time      0.0004
 Broyden mixing: mesh for mixing (old mesh)
   NGX =  9   NGY =  9   NGZ =  9
  (NGX  = 40   NGY  = 40   NGZ  = 40)
  gives a total of    729 points

 initial charge density was supplied:
 charge density of overlapping atoms calculated
 number of electron      16.0000000 magnetization 
 keeping initial charge density in first step


--------------------------------------------------------------------------------------------------------


 Maximum index for augmentation-charges          823 (set IRDMAX)


--------------------------------------------------------------------------------------------------------


 First call to EWALD:  gamma=   0.704
 Maximum number of real-space cells 3x 3x 3
 Maximum number of reciprocal cells 3x 3x 3

    FEWALD:  cpu time      0.0015: real time      0.0015


--------------------------------------- Iteration      1(   1)  ---------------------------------------


    POTLOK:  cpu time      0.0034: real time      0.0035
    SETDIJ:  cpu time      0.0021: real time      0.0021
     EDDAV:  cpu time      0.5097: real time      0.5127
       DOS:  cpu time      0.0009: real time      0.0009
    --------------------------------------------
      LOOP:  cpu time      0.5161: real time      0.5193

 eigenvalue-minimisations  :  5880
 total energy-change (2. order) : 0.1829404E+02  (-0.1162036E+04)
 number of electron      16.0000000 magnetization 
 augmentation part       16.0000000 magnetization 

 Free energy of the ion-electron system (eV)
  ---------------------------------------------------
  alpha Z        PSCENC =       150.26439018
  Ewald energy   TEWEN  =     -2114.11386377
  -Hartree energ DENC   =      -412.18926590
  -exchange      EXHF   =         0.00000000
  -V(xc)+E(xc)   XCENC  =        63.60320827
  PAW double counting   =      2065.75261637    -2030.83594803
  entropy T*S    EENTRO =        -0.00071616
  eigenvalues    EBANDS =      -132.38138684
  atomic energy  EATOM  =      2428.19501064
  Solvation  Ediel_sol  =         0.00000000
  ---------------------------------------------------
  free energy    TOTEN  =        18.29404476 eV

  energy without entropy =       18.29476092  energy(sigma->0) =       18.29440284


--------------------------------------------------------------------------------------------------------




--------------------------------------- Iteration      1(   2)  ---------------------------------------


     EDDAV:  cpu time      0.6969: real time      0.7014
       DOS:  cpu time      0.0005: real time      0.0005
    --------------------------------------------
      LOOP:  cpu time      0.6974: real time      0.7019

 eigenvalue-minimisations  :  7152
 total energy-change (2. order) :-0.2469410E+02  (-0.2452090E+02)
 number of electron      16.0000000 magnetization 
 augmentation part       16.0000000 magnetization 

 Free energy of the ion-electron system (eV)
  ---------------------------------------------------
  alpha Z        PSCENC =       150.26439018
  Ewald energy   TEWEN  =     -2114.11386377
  -Hartree energ DENC   =      -412.18926590
  -exchange      EXHF   =         0.00000000
  -V(xc)+E(xc)   XCENC  =        63.60320827
  PAW double counting   =      2065.75261637    -2030.83594803
  entropy T*S    EENTRO =        -0.00191571
  eigenvalues    EBANDS =      -157.07428666
  atomic energy  EATOM  =      2428.19501064
  Solvation  Ediel_sol  =         0.00000000
  ---------------------------------------------------
  free energy    TOTEN  =        -6.40005460 eV

  energy without entropy =       -6.39813890  energy(sigma->0) =       -6.39909675


--------------------------------------------------------------------------------------------------------




--------------------------------------- Iteration      1(   3)  ---------------------------------------


     EDDAV:  cpu time      0.6353: real time      0.6386
       DOS:  cpu time      0.0005: real time      0.0005
    --------------------------------------------
      LOOP:  cpu time      0.6358: real time      0.6391

 eigenvalue-minimisations  :  6504
 total energy-change (2. order) :-0.3802314E-01  (-0.3802056E-01)
 number of electron      16.0000000 magnetization 
 augmentation part       16.0000000 magnetization 

 Free energy of the ion-electron system (eV)
  ---------------------------------------------------
  alpha Z        PSCENC =       150.26439018
  Ewald energy   TEWEN  =     -2114.11386377
  -Hartree energ DENC   =      -412.18926590
  -exchange      EXHF   =         0.00000000
  -V(xc)+E(xc)   XCENC  =        63.60320827
  PAW double counting   =      2065.75261637    -2030.83594803
  entropy T*S    EENTRO =        -0.00189806
  eigenvalues    EBANDS =      -157.11232744
  atomic energy  EATOM  =      2428.19501064
  Solvation  Ediel_sol  =         0.00000000
  ---------------------------------------------------
  free energy    TOTEN  =        -6.43807774 eV

  energy without entropy =       -6.43617968  energy(sigma->0) =       -6.43712871


--------------------------------------------------------------------------------------------------------




--------------------------------------- Iteration      1(   4)  ---------------------------------------


     EDDAV:  cpu time      1.0278: real time      1.0331
       DOS:  cpu time      0.0005: real time      0.0005
    --------------------------------------------
      LOOP:  cpu time      1.0283: real time      1.0336

 eigenvalue-minimisations  :  8808
 total energy-change (2. order) :-0.3998924E-04  (-0.3998695E-04)
 number of electron      16.0000000 magnetization 
 augmentation part       16.0000000 magnetization 

 Free energy of the ion-electron system (eV)
  ---------------------------------------------------
  alpha Z        PSCENC =       150.26439018
  Ewald energy   TEWEN  =     -2114.11386377
  -Hartree energ DENC   =      -412.18926590
  -exchange      EXHF   =         0.00000000
  -V(xc)+E(xc)   XCENC  =        63.60320827
  PAW double counting   =      2065.75261637    -2030.83594803
  entropy T*S    EENTRO =        -0.00189807
  eigenvalues    EBANDS =      -157.11236742
  atomic energy  EATOM  =      2428.19501064
  Solvation  Ediel_sol  =         0.00000000
  ---------------------------------------------------
  free energy    TOTEN  =        -6.43811773 eV

  energy without entropy =       -6.43621966  energy(sigma->0) =       -6.43716869


--------------------------------------------------------------------------------------------------------




--------------------------------------- Iteration      1(   5)  ---------------------------------------


     EDDAV:  cpu time      0.6208: real time      0.6240
       DOS:  cpu time      0.0005: real time      0.0005
    CHARGE:  cpu time      0.0183: real time      0.0184
    MIXING:  cpu time      0.0004: real time      0.0004
    --------------------------------------------
      LOOP:  cpu time      0.6401: real time      0.6433

 eigenvalue-minimisations  :  6408
 total energy-change (2. order) :-0.3878995E-09  (-0.7591470E-09)
 number of electron      16.0000007 magnetization 
 augmentation part        3.9736271 magnetization 

 Broyden mixing:
  rms(total) = 0.13451E+01    rms(broyden)= 0.13450E+01
  rms(prec ) = 0.19490E+01
  weight for this iteration     100.00

 Free energy of the ion-electron system (eV)
  ---------------------------------------------------
  alpha Z        PSCENC =       150.26439018
  Ewald energy   TEWEN  =     -2114.11386377
  -Hartree energ DENC   =      -412.18926590
  -exchange      EXHF   =         0.00000000
  -V(xc)+E(xc)   XCENC  =        63.60320827
  PAW double counting   =      2065.75261637    -2030.83594803
  entropy T*S    EENTRO =        -0.00189807
  eigenvalues    EBANDS =      -157.11236742
  atomic energy  EATOM  =      2428.19501064
  Solvation  Ediel_sol  =         0.00000000
  ---------------------------------------------------
  free energy    TOTEN  =        -6.43811773 eV

  energy without entropy =       -6.43621966  energy(sigma->0) =       -6.43716869


--------------------------------------------------------------------------------------------------------




--------------------------------------- Iteration      1(   6)  ---------------------------------------


    POTLOK:  cpu time      0.0025: real time      0.0027
    SETDIJ:  cpu time      0.0021: real time      0.0021
     EDDAV:  cpu time      0.5109: real time      0.5136
       DOS:  cpu time      0.0005: real time      0.0005
    CHARGE:  cpu time      0.0176: real time      0.0177
    MIXING:  cpu time      0.0003: real time      0.0003
    --------------------------------------------
      LOOP:  cpu time      0.5338: real time      0.5368

 eigenvalue-minimisations  :  5856
 total energy-change (2. order) : 0.3429794E+00  (-0.1342740E+00)
 number of electron      16.0000007 magnetization 
 augmentation part        4.0921726 magnetization 

 Broyden mixing:
  rms(total) = 0.39612E+00    rms(broyden)= 0.39611E+00
  rms(prec ) = 0.51070E+00
  weight for this iteration     100.00

 eigenvalues of (default mixing * dielectric matrix)
  average eigenvalue GAMMA=   1.3876
  1.3876

 Free energy of the ion-electron system (eV)
  ---------------------------------------------------
  alpha Z        PSCENC =       150.26439018
  Ewald energy   TEWEN  =     -2114.11386377
  -Hartree energ DENC   =      -396.38366942
  -exchange      EXHF   =         0.00000000
  -V(xc)+E(xc)   XCENC  =        62.92525405
  PAW double counting   =      2210.08578490    -2177.18830122
  entropy T*S    EENTRO =        -0.00257199
  eigenvalues    EBANDS =      -169.87717171
  atomic energy  EATOM  =      2428.19501064
  Solvation  Ediel_sol  =         0.00000000
  ---------------------------------------------------
  free energy    TOTEN  =        -6.09513834 eV

  energy without entropy =       -6.09256635  energy(sigma->0) =       -6.09385235


--------------------------------------------------------------------------------------------------------




--------------------------------------- Iteration      1(   7)  ---------------------------------------


    POTLOK:  cpu time      0.0023: real time      0.0025
    SETDIJ:  cpu time      0.0018: real time      0.0018
     EDDAV:  cpu time      0.8205: real time      0.8248
       DOS:  cpu time      0.0005: real time      0.0005
    CHARGE:  cpu time      0.0176: real time      0.0176
    MIXING:  cpu time      0.0002: real time      0.0002
    --------------------------------------------
      LOOP:  cpu time      0.8430: real time      0.8475

 eigenvalue-minimisations  :  7896
 total energy-change (2. order) : 0.1592710E-01  (-0.6298691E-02)
 number of electron      16.0000007 magnetization 
 augmentation part        4.1160593 magnetization 

 Broyden mixing:
  rms(total) = 0.13258E+00    rms(broyden)= 0.13258E+00
  rms(prec ) = 0.16896E+00
  weight for this iteration     100.00

 eigenvalues of (default mixing * dielectric matrix)
  average eigenvalue GAMMA=   1.9353
  1.1684  2.7022

 Free energy of the ion-electron system (eV)
  ---------------------------------------------------
  alpha Z        PSCENC =       150.26439018
  Ewald energy   TEWEN  =     -2114.11386377
  -Hartree energ DENC   =      -392.80136761
  -exchange      EXHF   =         0.00000000
  -V(xc)+E(xc)   XCENC  =        62.76133282
  PAW double counting   =      2261.32205840    -2228.89004461
  entropy T*S    EENTRO =        -0.00262428
  eigenvalues    EBANDS =      -172.81410301
  atomic energy  EATOM  =      2428.19501064
  Solvation  Ediel_sol  =         0.00000000
  ---------------------------------------------------
  free energy    TOTEN  =        -6.07921124 eV

  energy without entropy =       -6.07658696  energy(sigma->0) =       -6.07789910


--------------------------------------------------------------------------------------------------------




--------------------------------------- Iteration      1(   8)  ---------------------------------------


    POTLOK:  cpu time      0.0023: real time      0.0025
    SETDIJ:  cpu time      0.0019: real time      0.0019
     EDDAV:  cpu time      0.5542: real time      0.5569
       DOS:  cpu time      0.0005: real time      0.0005
    CHARGE:  cpu time      0.0177: real time      0.0177
    MIXING:  cpu time      0.0004: real time      0.0004
    --------------------------------------------
      LOOP:  cpu time      0.5770: real time      0.5799

 eigenvalue-minimisations  :  6096
 total energy-change (2. order) : 0.1423887E-02  (-0.3867293E-03)
 number of electron      16.0000007 magnetization 
 augmentation part        4.1126092 magnetization 

 Broyden mixing:
  rms(total) = 0.10573E-01    rms(broyden)= 0.10559E-01
  rms(prec ) = 0.14539E-01
  weight for this iteration     100.00

 eigenvalues of (default mixing * dielectric matrix)
  average eigenvalue GAMMA=   1.5666
  1.0802  1.1871  2.4325

 Free energy of the ion-electron system (eV)
  ---------------------------------------------------
  alpha Z        PSCENC =       150.26439018
  Ewald energy   TEWEN  =     -2114.11386377
  -Hartree energ DENC   =      -392.62805251
  -exchange      EXHF   =         0.00000000
  -V(xc)+E(xc)   XCENC  =        62.74040356
  PAW double counting   =      2292.79695347    -2260.37141460
  entropy T*S    EENTRO =        -0.00265090
  eigenvalues    EBANDS =      -172.95856343
  atomic energy  EATOM  =      2428.19501064
  Solvation  Ediel_sol  =         0.00000000
  ---------------------------------------------------
  free energy    TOTEN  =        -6.07778736 eV

  energy without entropy =       -6.07513646  energy(sigma->0) =       -6.07646191


--------------------------------------------------------------------------------------------------------




--------------------------------------- Iteration      1(   9)  ---------------------------------------


    POTLOK:  cpu time      0.0023: real time      0.0025
    SETDIJ:  cpu time      0.0018: real time      0.0018
     EDDAV:  cpu time      0.7796: real time      0.7834
       DOS:  cpu time      0.0005: real time      0.0005
    CHARGE:  cpu time      0.0176: real time      0.0176
    MIXING:  cpu time      0.0003: real time      0.0003
    --------------------------------------------
      LOOP:  cpu time      0.8021: real time      0.8061

 eigenvalue-minimisations  :  7416
 total energy-change (2. order) : 0.5141897E-04  (-0.3830103E-05)
 number of electron      16.0000007 magnetization 
 augmentation part        4.1129072 magnetization 

 Broyden mixing:
  rms(total) = 0.16111E-02    rms(broyden)= 0.16091E-02
  rms(prec ) = 0.32165E-02
  weight for this iteration     100.00

 eigenvalues of (default mixing * dielectric matrix)
  average eigenvalue GAMMA=   1.8262
  1.0156  1.1719  2.7556  2.3616

 Free energy of the ion-electron system (eV)
  ---------------------------------------------------
  alpha Z        PSCENC =       150.26439018
  Ewald energy   TEWEN  =     -2114.11386377
  -Hartree energ DENC   =      -392.66522555
  -exchange      EXHF   =         0.00000000
  -V(xc)+E(xc)   XCENC  =        62.74298011
  PAW double counting   =      2291.40116560    -2258.95558092
  entropy T*S    EENTRO =        -0.00264719
  eigenvalues    EBANDS =      -172.94396504
  atomic energy  EATOM  =      2428.19501064
  Solvation  Ediel_sol  =         0.00000000
  ---------------------------------------------------
  free energy    TOTEN  =        -6.07773594 eV

  energy without entropy =       -6.07508875  energy(sigma->0) =       -6.07641234


--------------------------------------------------------------------------------------------------------




--------------------------------------- Iteration      1(  10)  ---------------------------------------


    POTLOK:  cpu time      0.0022: real time      0.0024
    SETDIJ:  cpu time      0.0018: real time      0.0018
     EDDAV:  cpu time      0.7218: real time      0.7254
       DOS:  cpu time      0.0005: real time      0.0005
    CHARGE:  cpu time      0.0180: real time      0.0181
    MIXING:  cpu time      0.0003: real time      0.0003
    --------------------------------------------
      LOOP:  cpu time      0.7447: real time      0.7485

 eigenvalue-minimisations  :  7176
 total energy-change (2. order) :-0.6269250E-05  (-0.5701664E-06)
 number of electron      16.0000007 magnetization 
 augmentation part        4.1129501 magnetization 

 Broyden mixing:
  rms(total) = 0.56813E-03    rms(broyden)= 0.56785E-03
  rms(prec ) = 0.57916E-03
  weight for this iteration     100.00

 eigenvalues of (default mixing * dielectric matrix)
  average eigenvalue GAMMA=   1.7509
  2.6789  2.3471  0.9909  1.5602  1.1775

 Free energy of the ion-electron system (eV)
  ---------------------------------------------------
  alpha Z        PSCENC =       150.26439018
  Ewald energy   TEWEN  =     -2114.11386377
  -Hartree energ DENC   =      -392.69384821
  -exchange      EXHF   =         0.00000000
  -V(xc)+E(xc)   XCENC  =        62.74406439
  PAW double counting   =      2293.02682618    -2260.55377384
  entropy T*S    EENTRO =        -0.00264589
  eigenvalues    EBANDS =      -172.94390188
  atomic energy  EATOM  =      2428.19501064
  Solvation  Ediel_sol  =         0.00000000
  ---------------------------------------------------
  free energy    TOTEN  =        -6.07774221 eV

  energy without entropy =       -6.07509631  energy(sigma->0) =       -6.07641926


--------------------------------------------------------------------------------------------------------




--------------------------------------- Iteration      1(  11)  ---------------------------------------


    POTLOK:  cpu time      0.0023: real time      0.0025
    SETDIJ:  cpu time      0.0019: real time      0.0019
     EDDAV:  cpu time      0.3367: real time      0.3385
       DOS:  cpu time      0.0005: real time      0.0005
    --------------------------------------------
      LOOP:  cpu time      0.3415: real time      0.3435

 eigenvalue-minimisations  :  3816
 total energy-change (2. order) : 0.7443077E-07  (-0.4873436E-09)
 number of electron      16.0000007 magnetization 
 augmentation part        4.1129501 magnetization 

 Free energy of the ion-electron system (eV)
  ---------------------------------------------------
  alpha Z        PSCENC =       150.26439018
  Ewald energy   TEWEN  =     -2114.11386377
  -Hartree energ DENC   =      -392.69313679
  -exchange      EXHF   =         0.00000000
  -V(xc)+E(xc)   XCENC  =        62.74403448
  PAW double counting   =      2292.84929680    -2260.37687157
  entropy T*S    EENTRO =        -0.00264589
  eigenvalues    EBANDS =      -172.94395621
  atomic energy  EATOM  =      2428.19501064
  Solvation  Ediel_sol  =         0.00000000
  ---------------------------------------------------
  free energy    TOTEN  =        -6.07774213 eV

  energy without entropy =       -6.07509624  energy(sigma->0) =       -6.07641919


--------------------------------------------------------------------------------------------------------




 average (electrostatic) potential at core
  the test charge radii are     0.9952
  (the norm of the test charge is              1.0000)
       1 -89.6492
 
 
 
 E-fermi :  10.9827     XC(G=0): -13.6362     alpha+bet :-16.4291

 Fermi energy:        10.9826622499

 k-point     1 :       0.0500    0.0500    0.0500
  band No.  band energies     occupation 
      1     -41.4056      2.00000
      2     -41.3975      2.00000
      3     -41.3975      2.00000
      4       1.4367      2.00000
      5       7.4633      2.00000
      6       7.5419      2.00000
      7       7.5419      2.00000
      8       9.4576      2.00000
      9       9.4576      2.00000
     10      25.8533      0.00000
     11      29.8086      0.00000
     12      30.4982      0.00000
     13      30.4982      0.00000
     14      36.0950      0.00000
     15      40.3699      0.00000
     16      41.0920      0.00000
     17      41.0920      0.00000
     18      44.0564      0.00000
     19      44.0564      0.00000
     20      44.9524      0.00000
     21      50.8955      0.00000
     22      50.8955      0.00000
     23      51.8268      0.00000
     24      57.3746      0.00000

 k-point     2 :       0.1500    0.0500    0.0500
  band No.  band energies     occupation 
      1     -41.4487      2.00000
      2     -41.4103      2.00000
      3     -41.4009      2.00000
      4       1.9325      2.00000
      5       7.2539      2.00000
      6       7.7098      2.00000
      7       7.7463      2.00000
      8       9.2555      2.00000
      9       9.5124      2.00000
     10      26.5272      0.00000
     11      28.0987      0.00000
     12      30.5426      0.00000
     13      31.5567      0.00000
     14      36.3166      0.00000
     15      38.6716      0.00000
     16      39.3163      0.00000
     17      40.1962      0.00000
     18      42.5128      0.00000
     19      45.4621      0.00000
     20      47.6312      0.00000
     21      49.8385      0.00000
     22      51.8437      0.00000
     23      52.0639      0.00000
     24      59.0417      0.00000

 k-point     3 :       0.2500    0.0500    0.0500
  band No.  band energies     occupation 
      1     -41.5487      2.00000
      2     -41.4278      2.00000
      3     -41.4138      2.00000
      4       3.0021      2.00000
      5       7.0501      2.00000
      6       7.8866      2.00000
      7       7.9226      2.00000
      8       9.2454      2.00000
      9       9.7593      2.00000
     10      25.0976      0.00000
     11      27.3724      0.00000
     12      31.4396      0.00000
     13      33.3327      0.00000
     14      33.4869      0.00000
     15      36.4615      0.00000
     16      36.6474      0.00000
     17      42.9966      0.00000
     18      43.1240      0.00000
     19      46.1479      0.00000
     20      48.2593      0.00000
     21      50.8522      0.00000
     22      51.8482      0.00000
     23      52.7735      0.00000
     24      59.3343      0.00000

 k-point     4 :       0.3500    0.0500    0.0500
  band No.  band energies     occupation 
      1     -41.6624      2.00000
      2     -41.4454      2.00000
      3     -41.4306      2.00000
      4       3.9851      2.00000
      5       7.5754      2.00000
      6       7.7515      2.00000
      7       7.7787      2.00000
      8       9.8533      2.00000
      9      10.4457      2.00000
     10      21.5231      0.00000
     11      26.6339      0.00000
     12      30.7165      0.00000
     13      32.8983      0.00000
     14      34.3187      0.00000
     15      35.9819      0.00000
     16      36.6703      0.00000
     17      43.4881      0.00000
     18      45.5579      0.00000
     19      47.7711      0.00000
     20      49.2452      0.00000
     21      51.7084      0.00000
     22      51.8587      0.00000
     23      53.5050      0.00000
     24      58.2641      0.00000

 k-point     5 :       0.4500    0.0500    0.0500
  band No.  band energies     occupation 
      1     -41.7475      2.00000
      2     -41.4567      2.00000
      3     -41.4464      2.00000
      4       4.2609      2.00000
      5       7.4786      2.00000
      6       7.5697      2.00000
      7       9.2621      2.00000
      8      10.6251      2.00000
      9      11.2742      0.00000
     10      17.9205      0.00000
     11      25.6654      0.00000
     12      29.3937      0.00000
     13      30.4165      0.00000
     14      36.9920      0.00000
     15      37.8857      0.00000
     16      38.5971      0.00000
     17      44.2452      0.00000
     18      45.4919      0.00000
     19      46.9455      0.00000
     20      51.4116      0.00000
     21      51.8482      0.00000
     22      54.1528      0.00000
     23      54.3950      0.00000
     24      55.3954      0.00000

 k-point     6 :      -0.4500    0.0500    0.0500
  band No.  band energies     occupation 
      1     -41.7709      2.00000
      2     -41.4567      2.00000
      3     -41.4532      2.00000
      4       4.2727      2.00000
      5       7.3958      2.00000
      6       7.5212      2.00000
      7       9.9427      2.00000
      8      11.0028      0.56820
      9      11.7420      0.00000
     10      16.4191      0.00000
     11      25.4031      0.00000
     12      29.3202      0.00000
     13      29.3818      0.00000
     14      38.1004      0.00000
     15      38.2938      0.00000
     16      39.7611      0.00000
     17      44.5533      0.00000
     18      45.5525      0.00000
     19      45.6573      0.00000
     20      51.8521      0.00000
     21      52.5245      0.00000
     22      53.1585      0.00000
     23      54.7877      0.00000
     24      55.7805      0.00000

 k-point     7 :      -0.3500    0.0500    0.0500
  band No.  band energies     occupation 
      1     -41.7249      2.00000
      2     -41.4495      2.00000
      3     -41.4461      2.00000
      4       4.2240      2.00000
      5       7.5167      2.00000
      6       7.6575      2.00000
      7       8.6344      2.00000
      8      10.6956      2.00000
      9      10.7360      2.00000
     10      19.0387      0.00000
     11      25.9278      0.00000
     12      29.9710      0.00000
     13      30.7884      0.00000
     14      36.7767      0.00000
     15      36.9340      0.00000
     16      37.7788      0.00000
     17      43.4511      0.00000
     18      46.4629      0.00000
     19      47.1833      0.00000
     20      51.2529      0.00000
     21      51.8525      0.00000
     22      52.6186      0.00000
     23      54.2732      0.00000
     24      56.0076      0.00000

 k-point     8 :      -0.2500    0.0500    0.0500
  band No.  band energies     occupation 
      1     -41.6258      2.00000
      2     -41.4360      2.00000
      3     -41.4288      2.00000
      4       3.7287      2.00000
      5       7.2584      2.00000
      6       7.7810      2.00000
      7       7.8721      2.00000
      8       9.7153      2.00000
      9      10.0891      2.00000
     10      22.7686      0.00000
     11      27.0298      0.00000
     12      31.3894      0.00000
     13      32.8838      0.00000
     14      34.4289      0.00000
     15      35.4514      0.00000
     16      36.0341      0.00000
     17      42.9860      0.00000
     18      46.2632      0.00000
     19      46.5679      0.00000
     20      48.9933      0.00000
     21      50.5078      0.00000
     22      51.8562      0.00000
     23      53.7635      0.00000
     24      59.1236      0.00000

 k-point     9 :      -0.1500    0.0500    0.0500
  band No.  band energies     occupation 
      1     -41.5112      2.00000
      2     -41.4185      2.00000
      3     -41.4120      2.00000
      4       2.6088      2.00000
      5       7.0640      2.00000
      6       7.8802      2.00000
      7       7.8997      2.00000
      8       9.1922      2.00000
      9       9.6161      2.00000
     10      26.1720      0.00000
     11      27.2538      0.00000
     12      31.2887      0.00000
     13      32.2943      0.00000
     14      34.6027      0.00000
     15      36.6559      0.00000
     16      37.9250      0.00000
     17      41.7330      0.00000
     18      42.8138      0.00000
     19      46.4482      0.00000
     20      48.0528      0.00000
     21      49.8666      0.00000
     22      51.8484      0.00000
     23      52.8430      0.00000
     24      59.2797      0.00000

 k-point    10 :      -0.0500    0.0500    0.0500
  band No.  band energies     occupation 
      1     -41.4250      2.00000
      2     -41.4042      2.00000
      3     -41.4017      2.00000
      4       1.6891      2.00000
      5       7.3206      2.00000
      6       7.6560      2.00000
      7       7.6630      2.00000
      8       9.2896      2.00000
      9       9.5288      2.00000
     10      26.2187      0.00000
     11      29.0443      0.00000
     12      30.4942      0.00000
     13      30.7575      0.00000
     14      37.1677      0.00000
     15      39.0242      0.00000
     16      39.2378      0.00000
     17      41.1165      0.00000
     18      42.1932      0.00000
     19      45.9881      0.00000
     20      46.4329      0.00000
     21      49.7387      0.00000
     22      51.8255      0.00000
     23      51.8768      0.00000
     24      58.5403      0.00000

 k-point    11 :       0.1500    0.1500    0.0500
  band No.  band energies     occupation 
      1     -41.4584      2.00000
      2     -41.4169      2.00000
      3     -41.4143      2.00000
      4       2.1781      2.00000
      5       7.0408      2.00000
      6       7.8966      2.00000
      7       7.9025      2.00000
      8       8.9935      2.00000
      9       9.6660      2.00000
     10      26.9025      0.00000
     11      28.3198      0.00000
     12      30.3128      0.00000
     13      30.7099      0.00000
     14      36.7563      0.00000
     15      37.6689      0.00000
     16      39.1549      0.00000
     17      39.9741      0.00000
     18      41.8024      0.00000
     19      47.4697      0.00000
     20      48.0466      0.00000
     21      48.4495      0.00000
     22      51.8435      0.00000
     23      52.5916      0.00000
     24      59.8247      0.00000

 k-point    12 :       0.2500    0.1500    0.0500
  band No.  band energies     occupation 
      1     -41.5285      2.00000
      2     -41.4418      2.00000
      3     -41.4244      2.00000
      4       3.0658      2.00000
      5       6.7154      2.00000
      6       8.0061      2.00000
      7       8.2402      2.00000
      8       8.8950      2.00000
      9       9.9295      2.00000
     10      26.4547      0.00000
     11      27.7475      0.00000
     12      29.8538      0.00000
     13      31.1193      0.00000
     14      34.5895      0.00000
     15      36.8823      0.00000
     16      37.7325      0.00000
     17      41.2971      0.00000
     18      43.2868      0.00000
     19      46.6868      0.00000
     20      47.6279      0.00000
     21      50.8526      0.00000
     22      51.8479      0.00000
     23      53.9366      0.00000
     24      59.5975      0.00000

 k-point    13 :       0.3500    0.1500    0.0500
  band No.  band energies     occupation 
      1     -41.6287      2.00000
      2     -41.4646      2.00000
      3     -41.4409      2.00000
      4       4.1748      2.00000
      5       6.7473      2.00000
      6       7.6186      2.00000
      7       8.2513      2.00000
      8       9.6789      2.00000
      9      10.6040      2.00000
     10      23.0072      0.00000
     11      27.3750      0.00000
     12      29.0775      0.00000
     13      31.2905      0.00000
     14      35.1186      0.00000
     15      36.1242      0.00000
     16      38.0600      0.00000
     17      40.6804      0.00000
     18      46.3570      0.00000
     19      47.5277      0.00000
     20      48.3971      0.00000
     21      51.2078      0.00000
     22      51.8514      0.00000
     23      55.5835      0.00000
     24      57.5641      0.00000

[...]
     13      31.7407      0.00000
     14      36.4809      0.00000
     15      37.2369      0.00000
     16      40.8934      0.00000
     17      44.1656      0.00000
     18      45.8270      0.00000
     19      48.7806      0.00000
     20      50.4332      0.00000
     21      51.8605      0.00000
     22      52.1393      0.00000
     23      55.5126      0.00000
     24      56.2844      0.00000

 k-point   100 :      -0.3500   -0.3500    0.2500
  band No.  band energies     occupation 
      1     -41.6962      2.00000
      2     -41.6141      2.00000
      3     -41.5096      2.00000
      4       5.2401      2.00000
      5       5.9794      2.00000
      6       8.3362      2.00000
      7       9.7248      2.00000
      8      10.8400      1.99995
      9      16.4857      0.00000
     10      17.1664      0.00000
     11      20.9119      0.00000
     12      25.2573      0.00000
     13      30.3306      0.00000
     14      36.7678      0.00000
     15      38.0011      0.00000
     16      39.3070      0.00000
     17      46.3580      0.00000
     18      47.4238      0.00000
     19      47.6827      0.00000
     20      50.2460      0.00000
     21      51.2757      0.00000
     22      51.8580      0.00000
     23      54.4854      0.00000
     24      55.9731      0.00000

 k-point   101 :       0.3500    0.3500    0.3500
  band No.  band energies     occupation 
      1     -41.6973      2.00000
      2     -41.4392      2.00000
      3     -41.4392      2.00000
      4       4.0617      2.00000
      5       7.6544      2.00000
      6       7.6544      2.00000
      7       8.2604      2.00000
      8      10.3399      2.00000
      9      10.3399      2.00000
     10      20.2346      0.00000
     11      26.1541      0.00000
     12      31.3235      0.00000
     13      31.3235      0.00000
     14      35.9615      0.00000
     15      36.3241      0.00000
     16      36.3241      0.00000
     17      45.1611      0.00000
     18      45.1611      0.00000
     19      46.8826      0.00000
     20      51.3116      0.00000
     21      51.8588      0.00000
     22      52.5042      0.00000
     23      52.5042      0.00000
     24      58.2640      0.00000

 k-point   102 :       0.4500    0.3500    0.3500
  band No.  band energies     occupation 
      1     -41.7183      2.00000
      2     -41.4754      2.00000
      3     -41.4433      2.00000
      4       4.4649      2.00000
      5       7.4085      2.00000
      6       7.7863      2.00000
      7       8.2507      2.00000
      8      10.1928      2.00000
      9      11.6450      0.00000
     10      19.1426      0.00000
     11      26.1558      0.00000
     12      28.4712      0.00000
     13      31.3001      0.00000
     14      35.3724      0.00000
     15      37.8452      0.00000
     16      39.1680      0.00000
     17      42.9550      0.00000
     18      45.3914      0.00000
     19      48.5044      0.00000
     20      49.2984      0.00000
     21      51.8533      0.00000
     22      53.8144      0.00000
     23      54.3665      0.00000
     24      55.7052      0.00000

 k-point   103 :      -0.4500    0.3500    0.3500
  band No.  band energies     occupation 
      1     -41.7103      2.00000
      2     -41.5468      2.00000
      3     -41.4618      2.00000
      4       5.2941      2.00000
      5       6.8936      2.00000
      6       7.7143      2.00000
      7       8.3402      2.00000
      8      10.1584      2.00000
      9      13.4012      0.00000
     10      18.5598      0.00000
     11      24.3668      0.00000
     12      27.8835      0.00000
     13      29.8890      0.00000
     14      35.4127      0.00000
     15      37.9833      0.00000
     16      41.4901      0.00000
     17      44.2307      0.00000
     18      45.6596      0.00000
     19      47.1171      0.00000
     20      48.5495      0.00000
     21      51.8503      0.00000
     22      52.0769      0.00000
     23      55.8156      0.00000
     24      56.5620      0.00000

 k-point   104 :      -0.3500    0.3500    0.3500
  band No.  band energies     occupation 
      1     -41.6733      2.00000
      2     -41.6280      2.00000
      3     -41.4868      2.00000
      4       5.6471      2.00000
      5       6.5844      2.00000
      6       7.4997      2.00000
      7       9.1107      2.00000
      8      10.3463      2.00000
      9      14.8869      0.00000
     10      18.9284      0.00000
     11      21.0559      0.00000
     12      27.5584      0.00000
     13      29.1971      0.00000
     14      36.7702      0.00000
     15      37.7472      0.00000
     16      39.7373      0.00000
     17      46.3059      0.00000
     18      47.2666      0.00000
     19      47.4621      0.00000
     20      50.3511      0.00000
     21      50.6539      0.00000
     22      51.8554      0.00000
     23      52.4886      0.00000
     24      57.7125      0.00000

 k-point   105 :       0.4500    0.4500    0.3500
  band No.  band energies     occupation 
      1     -41.7403      2.00000
      2     -41.4659      2.00000
      3     -41.4595      2.00000
      4       4.4760      2.00000
      5       7.2911      2.00000
      6       7.7878      2.00000
      7       8.5471      2.00000
      8      10.9843      0.96211
      9      11.7363      0.00000
     10      17.9251      0.00000
     11      25.9764      0.00000
     12      28.9247      0.00000
     13      29.5653      0.00000
     14      37.2306      0.00000
     15      38.2885      0.00000
     16      39.1187      0.00000
     17      41.9791      0.00000
     18      47.2068      0.00000
     19      47.3844      0.00000
     20      50.0007      0.00000
     21      51.8583      0.00000
     22      53.6827      0.00000
     23      54.4473      0.00000
     24      55.3660      0.00000

 k-point   106 :      -0.4500    0.4500    0.3500
  band No.  band energies     occupation 
      1     -41.7344      2.00000
      2     -41.5179      2.00000
      3     -41.4700      2.00000
      4       5.0226      2.00000
      5       6.8819      2.00000
      6       8.0302      2.00000
      7       8.2583      2.00000
      8      10.7728      2.00000
      9      13.6305      0.00000
     10      17.0818      0.00000
     11      25.9622      0.00000
     12      26.6305      0.00000
     13      29.5166      0.00000
     14      36.6332      0.00000
     15      38.6963      0.00000
     16      41.3718      0.00000
     17      42.1885      0.00000
     18      46.0208      0.00000
     19      47.8226      0.00000
     20      48.9067      0.00000
     21      51.8531      0.00000
     22      52.1629      0.00000
     23      55.6219      0.00000
     24      56.9832      0.00000

 k-point   107 :      -0.3500    0.4500    0.3500
  band No.  band energies     occupation 
      1     -41.7009      2.00000
      2     -41.5880      2.00000
      3     -41.4934      2.00000
      4       5.7372      2.00000
      5       6.4104      2.00000
      6       7.4804      2.00000
      7       8.9056      2.00000
      8      10.7086      2.00000
      9      15.5205      0.00000
     10      17.0023      0.00000
     11      23.0869      0.00000
     12      25.7549      0.00000
     13      30.4208      0.00000
     14      36.0578      0.00000
     15      39.3761      0.00000
     16      40.5570      0.00000
     17      43.0744      0.00000
     18      45.1613      0.00000
     19      49.6602      0.00000
     20      50.4050      0.00000
     21      50.9934      0.00000
     22      51.8583      0.00000
     23      54.0986      0.00000
     24      56.5943      0.00000

 k-point   108 :      -0.4500   -0.4500    0.3500
  band No.  band energies     occupation 
      1     -41.7312      2.00000
      2     -41.5377      2.00000
      3     -41.4779      2.00000
      4       5.1631      2.00000
      5       6.7458      2.00000
      6       7.9999      2.00000
      7       8.3787      2.00000
      8      10.9092      1.96228
      9      14.7563      0.00000
     10      16.1685      0.00000
     11      24.9795      0.00000
     12      27.7995      0.00000
     13      28.1389      0.00000
     14      37.7626      0.00000
     15      38.0072      0.00000
     16      40.5857      0.00000
     17      43.1685      0.00000
     18      46.4831      0.00000
     19      47.8417      0.00000
     20      49.1120      0.00000
     21      51.6717      0.00000
     22      51.8561      0.00000
     23      54.9348      0.00000
     24      57.5965      0.00000

 k-point   109 :       0.4500    0.4500    0.4500
  band No.  band energies     occupation 
      1     -41.7651      2.00000
      2     -41.4499      2.00000
      3     -41.4499      2.00000
      4       4.1944      2.00000
      5       7.4797      2.00000
      6       7.4797      2.00000
      7      10.2410      2.00000
      8      10.9126      1.95249
      9      10.9126      1.95249
     10      16.9905      0.00000
     11      25.3675      0.00000
     12      29.7429      0.00000
     13      29.7429      0.00000
     14      37.9962      0.00000
     15      37.9962      0.00000
     16      38.9559      0.00000
     17      45.1581      0.00000
     18      45.1581      0.00000
     19      45.8849      0.00000
     20      51.8527      0.00000
     21      53.5009      0.00000
     22      53.5009      0.00000
     23      54.6553      0.00000
     24      55.4125      0.00000

 k-point   110 :      -0.4500    0.4500    0.4500
  band No.  band energies     occupation 
      1     -41.7620      2.00000
      2     -41.4774      2.00000
      3     -41.4569      2.00000
      4       4.4945      2.00000
      5       7.2385      2.00000
      6       7.6905      2.00000
      7       9.2239      2.00000
      8      10.8803      1.99622
      9      12.7432      0.00000
     10      16.3778      0.00000
     11      25.7089      0.00000
     12      28.3344      0.00000
     13      29.3471      0.00000
     14      37.8134      0.00000
     15      38.1429      0.00000
     16      40.4906      0.00000
     17      44.6414      0.00000
     18      45.3981      0.00000
     19      45.7053      0.00000
     20      51.2567      0.00000
     21      51.8503      0.00000
     22      51.8699      0.00000
     23      55.5853      0.00000
     24      56.1862      0.00000


--------------------------------------------------------------------------------------------------------


 soft charge-density along one line, spin component           1
         0         1         2         3         4         5         6         7         8         9
 total charge-density along one line
 
 pseudopotential strength for first ion, spin component:           1
-31.722  -0.000  -0.000  10.775   0.000   0.000  -0.000   0.000
 -0.000 -31.722  -0.000   0.000  10.775   0.000   0.000  -0.000
 -0.000  -0.000 -31.722   0.000   0.000  10.775  -0.000  -0.000
 10.775   0.000   0.000  16.232  -0.000  -0.000   0.000  -0.000
  0.000  10.775   0.000  -0.000  16.232  -0.000  -0.000   0.000
  0.000   0.000  10.775  -0.000  -0.000  16.232   0.000  -0.000
 -0.000   0.000  -0.000   0.000  -0.000   0.000  -3.744   0.000
  0.000  -0.000  -0.000  -0.000   0.000  -0.000   0.000  -3.744
  0.000   0.000   0.000  -0.000  -0.000  -0.000   0.000  -0.000
 -0.000  -0.000   0.000  -0.000   0.000  -0.000   0.000   0.000
  0.000   0.000  -0.000  -0.000  -0.000   0.000  -0.000   0.000
 -0.000   0.000  -0.000   0.000  -0.000   0.000  -3.977   0.000
  0.000  -0.000  -0.000  -0.000   0.000   0.000   0.000  -3.977
  0.000   0.000   0.000  -0.000   0.000  -0.000   0.000  -0.000
 -0.000  -0.000   0.000   0.000   0.000  -0.000   0.000   0.000
  0.000   0.000  -0.000  -0.000  -0.000   0.000  -0.000   0.000
  0.000  -0.000   0.000   0.000  -0.000   0.000   0.000   0.000
 -0.000   0.000  -0.000  -0.000   0.000   0.000  -0.000  -0.000
 total augmentation occupancy for first ion, spin component:           1
  2.002  -0.000   0.000  -0.020   0.000  -0.000   0.000   0.000   0.000   0.000   0.000   0.000   0.000   0.000   0.000   0.000
 -0.000   2.002  -0.000  -0.000  -0.020   0.000   0.000   0.000   0.000   0.000   0.000   0.000   0.000   0.000   0.000   0.000
  0.000  -0.000   2.002   0.000  -0.000  -0.020   0.000   0.000   0.000   0.000   0.000   0.000   0.000   0.000   0.000   0.000
 -0.020   0.000   0.000   0.046  -0.000   0.000   0.000   0.000   0.000   0.000   0.000   0.000   0.000   0.000   0.000   0.000
  0.000  -0.020   0.000   0.000   0.046   0.000   0.000   0.000   0.000   0.000   0.000   0.000   0.000   0.000   0.000   0.000
  0.000   0.000  -0.020  -0.000  -0.000   0.046   0.000   0.000   0.000   0.000   0.000   0.000   0.000   0.000   0.000   0.000
  0.000   0.000   0.000   0.000   0.000   0.000   4.870  -0.000   0.000  -0.000   0.000  -2.643  -0.000   0.000   0.000  -0.000
  0.000   0.000   0.000   0.000   0.000   0.000  -0.000   4.870   0.000   0.000  -0.000  -0.000  -2.643   0.000   0.000   0.000
  0.000   0.000   0.000   0.000   0.000   0.000   0.000   0.000   4.012   0.000   0.000  -0.000   0.000  -2.082   0.000  -0.000
  0.000   0.000   0.000   0.000   0.000   0.000  -0.000  -0.000  -0.000   4.870  -0.000   0.000   0.000   0.000  -2.643   0.000
  0.000   0.000   0.000   0.000   0.000   0.000   0.000  -0.000   0.000  -0.000   4.012  -0.000   0.000  -0.000  -0.000  -2.082
  0.000   0.000   0.000   0.000   0.000   0.000  -2.643  -0.000   0.000   0.000  -0.000   2.140   0.000  -0.000   0.000   0.000
  0.000   0.000   0.000   0.000   0.000   0.000  -0.000  -2.643  -0.000   0.000   0.000   0.000   2.140  -0.000   0.000  -0.000
  0.000   0.000   0.000   0.000   0.000   0.000   0.000   0.000  -2.082   0.000  -0.000   0.000   0.000   1.994   0.000   0.000
  0.000   0.000   0.000   0.000   0.000   0.000   0.000   0.000   0.000  -2.643   0.000  -0.000   0.000   0.000   2.140   0.000
  0.000   0.000   0.000   0.000   0.000   0.000  -0.000   0.000  -0.000   0.000  -2.082   0.000   0.000   0.000   0.000   1.994
  0.000   0.000   0.000   0.000   0.000   0.000   0.000   0.000   0.000  -0.000   0.000  -0.000   0.000   0.000   0.000   0.000
  0.000   0.000   0.000   0.000   0.000   0.000   0.000   0.000  -0.000  -0.000  -0.000  -0.000   0.000   0.000   0.000   0.000


------------------------ aborting loop because EDIFF is reached ----------------------------------------





 total charge

# of ion       s       p       d       tot
------------------------------------------
    1        0.332   6.072   7.058  13.462
 
    CHARGE:  cpu time      0.0174: real time      0.0175
    FORLOC:  cpu time      0.0001: real time      0.0001
    FORNL :  cpu time      0.0064: real time      0.0064
    STRESS:  cpu time      0.1239: real time      0.1243
    FORCOR:  cpu time      0.0019: real time      0.0020
    FORHAR:  cpu time      0.0004: real time      0.0004
    MIXING:  cpu time      0.0002: real time      0.0002
    OFIELD:  cpu time      0.0000: real time      0.0000

  FORCE on cell =-STRESS in cart. coord.  units (eV):
  Direction    XX          YY          ZZ          XY          YZ          ZX
  --------------------------------------------------------------------------------------
  Alpha Z   150.26439   150.26439   150.26439
  Ewald    -704.70464  -704.70464  -704.70464    -0.00000    -0.00000     0.00000
  Hartree   130.89699   130.89699   130.89699     0.00000     0.00000     0.00000
  E(xc)     -85.35747   -85.35747   -85.35747     0.00000     0.00000     0.00000
  Local     116.90532   116.90532   116.90532    -0.00000    -0.00000    -0.00000
  n-local   -30.80594   -28.27247   -33.55025     3.23890    -3.02016     0.17488
  augment    73.33782    73.33782    73.33782     0.00001     0.00001     0.00001
  Kinetic   348.05635   353.02972   345.37556     4.33355    -3.62381    -0.52848
  Fock        0.00000     0.00000     0.00000     0.00000     0.00000     0.00000
  -------------------------------------------------------------------------------------
  Total      -0.71328    -0.71328    -0.71328    -0.00000     0.00000     0.00000
  in kB     -71.57126   -71.57126   -71.57126    -0.00000     0.00000     0.00000
  external pressure =      -71.57 kB  Pullay stress =        0.00 kB


 VOLUME and BASIS-vectors are now :
 -----------------------------------------------------------------------------
  energy-cutoff  :      425.00
  volume of cell :       15.97
      direct lattice vectors                 reciprocal lattice vectors
     0.000000000  1.998637116  1.998637116    -0.250170477  0.250170477  0.250170477
     1.998637116  0.000000000  1.998637116     0.250170477 -0.250170477  0.250170477
     1.998637116  1.998637116  0.000000000     0.250170477  0.250170477 -0.250170477

  length of vectors
     2.826499715  2.826499715  2.826499715     0.433307976  0.433307976  0.433307976


 FORCES acting on ions
    electron-ion (+dipol)            ewald-force                    non-local-force                 convergence-correction
 -----------------------------------------------------------------------------------------------
   -.582E-14 -.761E-14 -.985E-15   0.759E-16 -.149E-14 -.288E-14   0.000E+00 0.258E-25 -.727E-26   -.276E-13 -.473E-13 0.404E-13
 -----------------------------------------------------------------------------------------------
   -.582E-14 -.761E-14 -.985E-15   0.759E-16 -.149E-14 -.288E-14   0.000E+00 0.258E-25 -.727E-26   -.276E-13 -.473E-13 0.404E-13
 
 
 POSITION                                       TOTAL-FORCE (eV/Angst)
 -----------------------------------------------------------------------------------
      0.00000      0.00000      0.00000        -0.000000      0.000000      0.000000
 -----------------------------------------------------------------------------------
    total drift:                               -0.000000     -0.000000      0.000000


--------------------------------------------------------------------------------------------------------



  FREE ENERGIE OF THE ION-ELECTRON SYSTEM (eV)
  ---------------------------------------------------
  free  energy   TOTEN  =        -6.07774213 eV

  energy  without entropy=       -6.07509624  energy(sigma->0) =       -6.07641919
 


--------------------------------------------------------------------------------------------------------


    POTLOK:  cpu time      0.0044: real time      0.0044


--------------------------------------------------------------------------------------------------------




--------------------------------------------------------------------------------------------------------


  
 reached required accuracy - stopping structural energy minimisation
 writing wavefunctions
     LOOP+:  cpu time      7.6104: real time      7.7113
    4ORBIT:  cpu time      0.0000: real time      0.0000



 total charge

# of ion       s       p       d       tot
------------------------------------------
    1        0.332   6.072   7.058  13.462
 

 total amount of memory used by VASP MPI-rank0    36607. kBytes
=======================================================================

   base      :      30000. kBytes
   nonl-proj :       5327. kBytes
   fftplans  :        147. kBytes
   grid      :        485. kBytes
   one-center:         15. kBytes
   wavefun   :        633. kBytes
 
  
  
 General timing and accounting informations for this job:
 ========================================================
  
                  Total CPU time used (sec):        8.763
                            User time (sec):        8.276
                          System time (sec):        0.488
                         Elapsed time (sec):       10.268
  
                   Maximum memory used (kb):      223192.
                   Average memory used (kb):          N/A
  
                          Minor page faults:        26758
                          Major page faults:           64
                 Voluntary context switches:         2174
