PROCAR lm decomposed
# of k-points:  110         # of bands:   24         # of ions:    1

 k-point     1 :    0.05000000 0.05000000 0.05000000     weight = 0.00200000

band     1 # energy  -41.40558838 # occ.  2.00000000
 
ion      s     py     pz     px    dxy    dyz    dz2    dxz  x2-y2    tot
    1  0.000  0.332  0.332  0.332  0.000  0.000  0.000  0.000  0.000  0.996
 
band     2 # energy  -41.39748314 # occ.  2.00000000
 
ion      s     py     pz     px    dxy    dyz    dz2    dxz  x2-y2    tot
    1  0.000  0.371  0.594  0.031  0.000  0.000  0.000  0.000  0.000  0.996
 
band     3 # energy  -41.39748314 # occ.  2.00000000
 
ion      s     py     pz     px    dxy    dyz    dz2    dxz  x2-y2    tot
    1  0.000  0.293  0.070  0.633  0.000  0.000  0.000  0.000  0.000  0.996
 
band     4 # energy    1.43665940 # occ.  2.00000000
 
ion      s     py     pz     px    dxy    dyz    dz2    dxz  x2-y2    tot
    1  0.379  0.000  0.000  0.000  0.000  0.000  0.000  0.000  0.000  0.380
 
band     5 # energy    7.46328628 # occ.  2.00000000
 
ion      s     py     pz     px    dxy    dyz    dz2    dxz  x2-y2    tot
    1  0.000  0.000  0.000  0.000  0.279  0.279  0.000  0.279  0.000  0.838
 
band     6 # energy    7.54186094 # occ.  2.00000000
 
ion      s     py     pz     px    dxy    dyz    dz2    dxz  x2-y2    tot
    1  0.000  0.000  0.000  0.000  0.561  0.140  0.000  0.140  0.000  0.842
 
band     7 # energy    7.54186094 # occ.  2.00000000
 
ion      s     py     pz     px    dxy    dyz    dz2    dxz  x2-y2    tot
    1  0.000  0.000  0.000  0.000  0.000  0.421  0.000  0.421  0.000  0.842
 
band     8 # energy    9.45759794 # occ.  2.00000000
 
ion      s     py     pz     px    dxy    dyz    dz2    dxz  x2-y2    tot
    1  0.000  0.000  0.000  0.000  0.000  0.000  0.906  0.000  0.000  0.906
 
band     9 # energy    9.45759794 # occ.  2.00000000
 
ion      s     py     pz     px    dxy    dyz    dz2    dxz  x2-y2    tot
    1  0.000  0.000  0.000  0.000  0.000  0.000  0.000  0.000  0.906  0.906
 
band    10 # energy   25.85334878 # occ.  0.00000000
 
ion      s     py     pz     px    dxy    dyz    dz2    dxz  x2-y2    tot
    1  0.000  0.000  0.000  0.000  0.002  0.002  0.000  0.002  0.000  0.007
 
band    11 # energy   29.80856716 # occ.  0.00000000
 
ion      s     py     pz     px    dxy    dyz    dz2    dxz  x2-y2    tot
    1  0.010  0.023  0.023  0.023  0.002  0.002  0.000  0.002  0.000  0.084
 
band    12 # energy   30.49819833 # occ.  0.00000000
 
ion      s     py     pz     px    dxy    dyz    dz2    dxz  x2-y2    tot
    1  0.000  0.011  0.050  0.014  0.001  0.000  0.003  0.000  0.000  0.079
 
band    13 # energy   30.49819833 # occ.  0.00000000
 
ion      s     py     pz     px    dxy    dyz    dz2    dxz  x2-y2    tot
    1  0.000  0.039  0.000  0.036  0.000  0.001  0.000  0.001  0.003  0.079
 
band    14 # energy   36.09497310 # occ.  0.00000000
 
ion      s     py     pz     px    dxy    dyz    dz2    dxz  x2-y2    tot
    1  0.047  0.006  0.006  0.006  0.001  0.001  0.000  0.001  0.000  0.067
 
band    15 # energy   40.36985712 # occ.  0.00000000
 
ion      s     py     pz     px    dxy    dyz    dz2    dxz  x2-y2    tot
    1  0.009  0.053  0.053  0.053  0.095  0.095  0.000  0.095  0.000  0.454
 
band    16 # energy   41.09195549 # occ.  0.00000000
 
ion      s     py     pz     px    dxy    dyz    dz2    dxz  x2-y2    tot
    1  0.000  0.015  0.060  0.014  0.248  0.060  0.002  0.064  0.000  0.464
 
band    17 # energy   41.09195549 # occ.  0.00000000
 
ion      s     py     pz     px    dxy    dyz    dz2    dxz  x2-y2    tot
    1  0.000  0.044  0.000  0.045  0.000  0.188  0.000  0.184  0.002  0.464
 
band    18 # energy   44.05639793 # occ.  0.00000000
 
ion      s     py     pz     px    dxy    dyz    dz2    dxz  x2-y2    tot
    1  0.000  0.098  0.338  0.072  0.058  0.013  0.014  0.017  0.000  0.610
 
band    19 # energy   44.05639793 # occ.  0.00000000
 
ion      s     py     pz     px    dxy    dyz    dz2    dxz  x2-y2    tot
    1  0.000  0.241  0.001  0.266  0.000  0.046  0.000  0.042  0.014  0.610
 
band    20 # energy   44.95241369 # occ.  0.00000000
 
ion      s     py     pz     px    dxy    dyz    dz2    dxz  x2-y2    tot
    1  0.026  0.137  0.137  0.137  0.059  0.059  0.000  0.059  0.000  0.614
 
band    21 # energy   50.89553183 # occ.  0.00000000
 
ion      s     py     pz     px    dxy    dyz    dz2    dxz  x2-y2    tot
    1  0.000  0.005  0.015  0.003  0.000  0.000  0.430  0.000  0.004  0.456
 
band    22 # energy   50.89553183 # occ.  0.00000000
 
ion      s     py     pz     px    dxy    dyz    dz2    dxz  x2-y2    tot
    1  0.000  0.010  0.000  0.012  0.000  0.000  0.004  0.000  0.430  0.456
 
band    23 # energy   51.82680262 # occ.  0.00000000
 
ion      s     py     pz     px    dxy    dyz    dz2    dxz  x2-y2    tot
    1  6.293  0.000  0.000  0.000  0.000  0.000  0.000  0.000  0.000  6.293
 
band    24 # energy   57.37462324 # occ.  0.00000000
 
ion      s     py     pz     px    dxy    dyz    dz2    dxz  x2-y2    tot
    1  0.451  0.015  0.015  0.015  0.000  0.000  0.000  0.000  0.000  0.497
 

 k-point     2 :    0.15000000 0.05000000 0.05000000     weight = 0.00600000

band     1 # energy  -41.44868161 # occ.  2.00000000
 
ion      s     py     pz     px    dxy    dyz    dz2    dxz  x2-y2    tot
    1  0.000  0.454  0.454  0.086  0.000  0.000  0.000  0.000  0.000  0.994
 
band     2 # energy  -41.41026095 # occ.  2.00000000
 
ion      s     py     pz     px    dxy    dyz    dz2    dxz  x2-y2    tot
    1  0.000  0.043  0.043  0.909  0.000  0.000  0.000  0.000  0.000  0.996
 
band     3 # energy  -41.40091526 # occ.  2.00000000
 
ion      s     py     pz     px    dxy    dyz    dz2    dxz  x2-y2    tot
    1  0.000  0.498  0.498  0.000  0.000  0.000  0.000  0.000  0.000  0.996
 
band     4 # energy    1.93248276 # occ.  2.00000000
 
ion      s     py     pz     px    dxy    dyz    dz2    dxz  x2-y2    tot
    1  0.368  0.003  0.003  0.000  0.000  0.002  0.000  0.000  0.000  0.378
 
band     5 # energy    7.25394268 # occ.  2.00000000
 
ion      s     py     pz     px    dxy    dyz    dz2    dxz  x2-y2    tot
    1  0.000  0.000  0.000  0.002  0.393  0.029  0.000  0.393  0.000  0.818
 
band     6 # energy    7.70975984 # occ.  2.00000000
 
ion      s     py     pz     px    dxy    dyz    dz2    dxz  x2-y2    tot
    1  0.000  0.000  0.000  0.000  0.421  0.000  0.003  0.421  0.001  0.846
 
band     7 # energy    7.74628900 # occ.  2.00000000
 
ion      s     py     pz     px    dxy    dyz    dz2    dxz  x2-y2    tot
    1  0.000  0.001  0.001  0.000  0.015  0.786  0.006  0.015  0.018  0.842
 
band     8 # energy    9.25549746 # occ.  2.00000000
 
ion      s     py     pz     px    dxy    dyz    dz2    dxz  x2-y2    tot
    1  0.000  0.000  0.000  0.000  0.002  0.000  0.666  0.002  0.222  0.893
 
band     9 # energy    9.51243194 # occ.  2.00000000
 
ion      s     py     pz     px    dxy    dyz    dz2    dxz  x2-y2    tot
    1  0.000  0.000  0.000  0.000  0.001  0.024  0.220  0.001  0.659  0.904
 
band    10 # energy   26.52723644 # occ.  0.00000000
 
ion      s     py     pz     px    dxy    dyz    dz2    dxz  x2-y2    tot
    1  0.000  0.000  0.000  0.001  0.022  0.003  0.000  0.022  0.000  0.048
 
band    11 # energy   28.09870916 # occ.  0.00000000
 
ion      s     py     pz     px    dxy    dyz    dz2    dxz  x2-y2    tot
    1  0.035  0.028  0.028  0.008  0.003  0.018  0.001  0.003  0.004  0.126
 
band    12 # energy   30.54256188 # occ.  0.00000000
 
ion      s     py     pz     px    dxy    dyz    dz2    dxz  x2-y2    tot
    1  0.000  0.003  0.003  0.095  0.012  0.003  0.001  0.012  0.003  0.133
 
band    13 # energy   31.55666667 # occ.  0.00000000
 
ion      s     py     pz     px    dxy    dyz    dz2    dxz  x2-y2    tot
    1  0.000  0.035  0.035  0.000  0.001  0.000  0.020  0.001  0.007  0.100
 
band    14 # energy   36.31657521 # occ.  0.00000000
 
ion      s     py     pz     px    dxy    dyz    dz2    dxz  x2-y2    tot
    1  0.004  0.101  0.101  0.008  0.005  0.108  0.001  0.005  0.002  0.334
 
band    15 # energy   38.67159525 # occ.  0.00000000
 
ion      s     py     pz     px    dxy    dyz    dz2    dxz  x2-y2    tot
    1  0.004  0.005  0.005  0.148  0.071  0.033  0.002  0.071  0.006  0.345
 
band    16 # energy   39.31626234 # occ.  0.00000000
 
ion      s     py     pz     px    dxy    dyz    dz2    dxz  x2-y2    tot
    1  0.064  0.003  0.003  0.019  0.013  0.010  0.001  0.013  0.003  0.129
 
band    17 # energy   40.19619043 # occ.  0.00000000
 
ion      s     py     pz     px    dxy    dyz    dz2    dxz  x2-y2    tot
    1  0.000  0.085  0.085  0.000  0.126  0.000  0.017  0.126  0.006  0.445
 
band    18 # energy   42.51277262 # occ.  0.00000000
 
ion      s     py     pz     px    dxy    dyz    dz2    dxz  x2-y2    tot
    1  0.000  0.169  0.169  0.000  0.081  0.000  0.038  0.081  0.013  0.552
 
band    19 # energy   45.46213173 # occ.  0.00000000
 
ion      s     py     pz     px    dxy    dyz    dz2    dxz  x2-y2    tot
    1  0.074  0.107  0.107  0.028  0.000  0.249  0.006  0.000  0.017  0.588
 
band    20 # energy   47.63118510 # occ.  0.00000000
 
ion      s     py     pz     px    dxy    dyz    dz2    dxz  x2-y2    tot
    1  0.032  0.004  0.004  0.321  0.124  0.003  0.005  0.124  0.016  0.633
 
band    21 # energy   49.83853777 # occ.  0.00000000
 
ion      s     py     pz     px    dxy    dyz    dz2    dxz  x2-y2    tot
    1  0.007  0.006  0.006  0.051  0.003  0.008  0.068  0.003  0.204  0.358
 
band    22 # energy   51.84366593 # occ.  0.00000000
 
ion      s     py     pz     px    dxy    dyz    dz2    dxz  x2-y2    tot
    1  6.291  0.000  0.000  0.000  0.000  0.000  0.000  0.000  0.000  6.291
 
band    23 # energy   52.06392578 # occ.  0.00000000
 
ion      s     py     pz     px    dxy    dyz    dz2    dxz  x2-y2    tot
    1  0.000  0.053  0.053  0.000  0.001  0.000  0.231  0.001  0.077  0.415
 
band    24 # energy   59.04167899 # occ.  0.00000000
 
ion      s     py     pz     px    dxy    dyz    dz2    dxz  x2-y2    tot
    1  0.000  0.000  0.000  0.000  0.005  0.000  0.029  0.005  0.010  0.048
 

 k-point     3 :    0.25000000 0.05000000 0.05000000     weight = 0.00600000

band     1 # energy  -41.54870328 # occ.  2.00000000
 
ion      s     py     pz     px    dxy    dyz    dz2    dxz  x2-y2    tot
    1  0.000  0.389  0.389  0.212  0.000  0.000  0.000  0.000  0.000  0.991
 
band     2 # energy  -41.42776106 # occ.  2.00000000
 
ion      s     py     pz     px    dxy    dyz    dz2    dxz  x2-y2    tot
    1  0.000  0.106  0.106  0.782  0.000  0.000  0.000  0.000  0.000  0.995
 
band     3 # energy  -41.41377997 # occ.  2.00000000
 
ion      s     py     pz     px    dxy    dyz    dz2    dxz  x2-y2    tot
    1  0.000  0.498  0.498  0.000  0.000  0.000  0.000  0.000  0.000  0.995
 
band     4 # energy    3.00207497 # occ.  2.00000000
 
ion      s     py     pz     px    dxy    dyz    dz2    dxz  x2-y2    tot
    1  0.331  0.008  0.008  0.002  0.011  0.020  0.000  0.011  0.001  0.392
 
band     5 # energy    7.05013032 # occ.  2.00000000
 
ion      s     py     pz     px    dxy    dyz    dz2    dxz  x2-y2    tot
    1  0.009  0.003  0.003  0.006  0.337  0.064  0.000  0.337  0.000  0.759
 
band     6 # energy    7.88657399 # occ.  2.00000000
 
ion      s     py     pz     px    dxy    dyz    dz2    dxz  x2-y2    tot
    1  0.001  0.001  0.001  0.000  0.034  0.572  0.049  0.034  0.146  0.837
 
band     7 # energy    7.92255504 # occ.  2.00000000
 
ion      s     py     pz     px    dxy    dyz    dz2    dxz  x2-y2    tot
    1  0.000  0.000  0.000  0.000  0.346  0.000  0.117  0.346  0.039  0.848
 
band     8 # energy    9.24535191 # occ.  2.00000000
 
ion      s     py     pz     px    dxy    dyz    dz2    dxz  x2-y2    tot
    1  0.000  0.000  0.000  0.000  0.082  0.000  0.540  0.082  0.180  0.884
 
band     9 # energy    9.75934241 # occ.  2.00000000
 
ion      s     py     pz     px    dxy    dyz    dz2    dxz  x2-y2    tot
    1  0.002  0.001  0.001  0.000  0.011  0.180  0.174  0.011  0.521  0.900
 
band    10 # energy   25.09760877 # occ.  0.00000000
 
ion      s     py     pz     px    dxy    dyz    dz2    dxz  x2-y2    tot
    1  0.086  0.032  0.032  0.029  0.032  0.045  0.001  0.032  0.003  0.291
 
band    11 # energy   27.37241556 # occ.  0.00000000
 
ion      s     py     pz     px    dxy    dyz    dz2    dxz  x2-y2    tot
    1  0.000  0.001  0.001  0.008  0.041  0.008  0.000  0.041  0.001  0.101
 
band    12 # energy   31.43963095 # occ.  0.00000000
 
ion      s     py     pz     px    dxy    dyz    dz2    dxz  x2-y2    tot
    1  0.001  0.018  0.018  0.127  0.016  0.032  0.005  0.016  0.014  0.248
 
band    13 # energy   33.33270993 # occ.  0.00000000
 
ion      s     py     pz     px    dxy    dyz    dz2    dxz  x2-y2    tot
    1  0.034  0.072  0.072  0.004  0.000  0.031  0.003  0.000  0.008  0.223
 
band    14 # energy   33.48687980 # occ.  0.00000000
 
ion      s     py     pz     px    dxy    dyz    dz2    dxz  x2-y2    tot
    1  0.000  0.042  0.042  0.000  0.010  0.000  0.049  0.010  0.016  0.170
 
band    15 # energy   36.46154247 # occ.  0.00000000
 
ion      s     py     pz     px    dxy    dyz    dz2    dxz  x2-y2    tot
    1  0.000  0.103  0.103  0.000  0.049  0.000  0.038  0.049  0.013  0.355
 
band    16 # energy   36.64740119 # occ.  0.00000000
 
ion      s     py     pz     px    dxy    dyz    dz2    dxz  x2-y2    tot
    1  0.003  0.000  0.000  0.103  0.018  0.011  0.008  0.018  0.024  0.187
 
band    17 # energy   42.99656896 # occ.  0.00000000
 
ion      s     py     pz     px    dxy    dyz    dz2    dxz  x2-y2    tot
    1  0.000  0.115  0.115  0.000  0.113  0.000  0.041  0.113  0.014  0.510
 
band    18 # energy   43.12399379 # occ.  0.00000000
 
ion      s     py     pz     px    dxy    dyz    dz2    dxz  x2-y2    tot
    1  0.094  0.000  0.000  0.000  0.000  0.014  0.003  0.000  0.008  0.120
 
band    19 # energy   46.14785122 # occ.  0.00000000
 
ion      s     py     pz     px    dxy    dyz    dz2    dxz  x2-y2    tot
    1  0.046  0.059  0.059  0.083  0.002  0.226  0.012  0.002  0.037  0.527
 
band    20 # energy   48.25929806 # occ.  0.00000000
 
ion      s     py     pz     px    dxy    dyz    dz2    dxz  x2-y2    tot
    1  0.106  0.004  0.004  0.030  0.102  0.001  0.025  0.102  0.075  0.449
 
band    21 # energy   50.85222095 # occ.  0.00000000
 
ion      s     py     pz     px    dxy    dyz    dz2    dxz  x2-y2    tot
    1  0.020  0.012  0.012  0.212  0.043  0.034  0.014  0.043  0.041  0.430
 
band    22 # energy   51.84820923 # occ.  0.00000000
 
ion      s     py     pz     px    dxy    dyz    dz2    dxz  x2-y2    tot
    1  6.280  0.000  0.000  0.000  0.000  0.000  0.000  0.000  0.000  6.281
 
band    23 # energy   52.77347507 # occ.  0.00000000
 
ion      s     py     pz     px    dxy    dyz    dz2    dxz  x2-y2    tot
    1  0.000  0.076  0.076  0.000  0.006  0.000  0.122  0.006  0.041  0.326
 
band    24 # energy   59.33428245 # occ.  0.00000000
 
ion      s     py     pz     px    dxy    dyz    dz2    dxz  x2-y2    tot
    1  0.000  0.000  0.000  0.000  0.001  0.000  0.039  0.001  0.013  0.054
 

 k-point     4 :    0.35000000 0.05000000 0.05000000     weight = 0.00600000

band     1 # energy  -41.66235109 # occ.  2.00000000
 
ion      s     py     pz     px    dxy    dyz    dz2    dxz  x2-y2    tot
    1  0.000  0.359  0.359  0.268  0.000  0.000  0.000  0.000  0.000  0.987
 
band     2 # energy  -41.44540566 # occ.  2.00000000
 
ion      s     py     pz     px    dxy    dyz    dz2    dxz  x2-y2    tot
    1  0.000  0.135  0.135  0.724  0.000  0.000  0.000  0.000  0.000  0.994
 
band     3 # energy  -41.43062104 # occ.  2.00000000
 
ion      s     py     pz     px    dxy    dyz    dz2    dxz  x2-y2    tot
    1  0.000  0.497  0.497  0.000  0.000  0.000  0.000  0.000  0.000  0.995
 
band     4 # energy    3.98511744 # occ.  2.00000000
 
ion      s     py     pz     px    dxy    dyz    dz2    dxz  x2-y2    tot
    1  0.234  0.006  0.006  0.002  0.078  0.090  0.000  0.078  0.001  0.496
 
band     5 # energy    7.57541865 # occ.  2.00000000
 
ion      s     py     pz     px    dxy    dyz    dz2    dxz  x2-y2    tot
    1  0.040  0.009  0.009  0.015  0.269  0.010  0.011  0.269  0.033  0.665
 
band     6 # energy    7.75150129 # occ.  2.00000000
 
ion      s     py     pz     px    dxy    dyz    dz2    dxz  x2-y2    tot
    1  0.014  0.007  0.007  0.003  0.001  0.367  0.089  0.001  0.267  0.755
 
band     7 # energy    7.77872028 # occ.  2.00000000
 
ion      s     py     pz     px    dxy    dyz    dz2    dxz  x2-y2    tot
    1  0.000  0.000  0.000  0.000  0.216  0.000  0.305  0.216  0.102  0.839
 
band     8 # energy    9.85327438 # occ.  2.00000000
 
ion      s     py     pz     px    dxy    dyz    dz2    dxz  x2-y2    tot
    1  0.000  0.000  0.000  0.000  0.220  0.000  0.344  0.220  0.115  0.899
 
band     9 # energy   10.44568009 # occ.  2.00000000
 
ion      s     py     pz     px    dxy    dyz    dz2    dxz  x2-y2    tot
    1  0.007  0.002  0.002  0.000  0.026  0.364  0.119  0.026  0.357  0.904
 
band    10 # energy   21.52310984 # occ.  0.00000000
 
ion      s     py     pz     px    dxy    dyz    dz2    dxz  x2-y2    tot
    1  0.171  0.032  0.032  0.034  0.065  0.069  0.001  0.065  0.002  0.472
 
band    11 # energy   26.63388166 # occ.  0.00000000
 
ion      s     py     pz     px    dxy    dyz    dz2    dxz  x2-y2    tot
    1  0.002  0.004  0.004  0.011  0.026  0.004  0.001  0.026  0.003  0.080
 
band    12 # energy   30.71648981 # occ.  0.00000000
 
ion      s     py     pz     px    dxy    dyz    dz2    dxz  x2-y2    tot
    1  0.010  0.048  0.048  0.136  0.026  0.031  0.000  0.026  0.001  0.326
 
band    13 # energy   32.89833177 # occ.  0.00000000
 
ion      s     py     pz     px    dxy    dyz    dz2    dxz  x2-y2    tot
    1  0.000  0.121  0.121  0.000  0.029  0.000  0.013  0.029  0.004  0.318
 
band    14 # energy   34.31869808 # occ.  0.00000000
 
ion      s     py     pz     px    dxy    dyz    dz2    dxz  x2-y2    tot
    1  0.019  0.007  0.007  0.036  0.001  0.018  0.013  0.001  0.040  0.142
 
band    15 # energy   35.98188598 # occ.  0.00000000
 
ion      s     py     pz     px    dxy    dyz    dz2    dxz  x2-y2    tot
    1  0.000  0.010  0.010  0.000  0.016  0.000  0.127  0.016  0.042  0.220
 
band    16 # energy   36.67031500 # occ.  0.00000000
 
ion      s     py     pz     px    dxy    dyz    dz2    dxz  x2-y2    tot
    1  0.023  0.006  0.006  0.024  0.004  0.000  0.017  0.004  0.052  0.135
 
band    17 # energy   43.48805764 # occ.  0.00000000
 
ion      s     py     pz     px    dxy    dyz    dz2    dxz  x2-y2    tot
    1  0.000  0.120  0.120  0.000  0.086  0.000  0.030  0.086  0.010  0.452
 
band    18 # energy   45.55791631 # occ.  0.00000000
 
ion      s     py     pz     px    dxy    dyz    dz2    dxz  x2-y2    tot
    1  0.144  0.013  0.013  0.074  0.000  0.177  0.014  0.000  0.042  0.478
 
band    19 # energy   47.77112555 # occ.  0.00000000
 
ion      s     py     pz     px    dxy    dyz    dz2    dxz  x2-y2    tot
    1  0.084  0.029  0.029  0.055  0.070  0.008  0.013  0.070  0.038  0.396
 
band    20 # energy   49.24521468 # occ.  0.00000000
 
ion      s     py     pz     px    dxy    dyz    dz2    dxz  x2-y2    tot
    1  0.017  0.019  0.019  0.021  0.029  0.002  0.006  0.029  0.017  0.157
 
band    21 # energy   51.70843159 # occ.  0.00000000
 
ion      s     py     pz     px    dxy    dyz    dz2    dxz  x2-y2    tot
    1  0.056  0.021  0.021  0.112  0.017  0.069  0.003  0.017  0.008  0.324
 
band    22 # energy   51.85868533 # occ.  0.00000000
 
ion      s     py     pz     px    dxy    dyz    dz2    dxz  x2-y2    tot
    1  6.240  0.000  0.000  0.001  0.000  0.001  0.000  0.000  0.000  6.242
 
band    23 # energy   53.50504890 # occ.  0.00000000
 
ion      s     py     pz     px    dxy    dyz    dz2    dxz  x2-y2    tot
    1  0.000  0.082  0.082  0.000  0.014  0.000  0.057  0.014  0.019  0.266
 
band    24 # energy   58.26412892 # occ.  0.00000000
 
ion      s     py     pz     px    dxy    dyz    dz2    dxz  x2-y2    tot
    1  0.000  0.002  0.002  0.000  0.044  0.000  0.067  0.044  0.022  0.182
 

 k-point     5 :    0.45000000 0.05000000 0.05000000     weight = 0.00600000

band     1 # energy  -41.74752306 # occ.  2.00000000
 
ion      s     py     pz     px    dxy    dyz    dz2    dxz  x2-y2    tot
    1  0.000  0.340  0.340  0.304  0.000  0.000  0.000  0.000  0.000  0.984
 
band     2 # energy  -41.45670648 # occ.  2.00000000
 
ion      s     py     pz     px    dxy    dyz    dz2    dxz  x2-y2    tot
    1  0.000  0.154  0.154  0.687  0.000  0.000  0.000  0.000  0.000  0.994
 
band     3 # energy  -41.44641389 # occ.  2.00000000
 
ion      s     py     pz     px    dxy    dyz    dz2    dxz  x2-y2    tot
    1  0.000  0.497  0.497  0.000  0.000  0.000  0.000  0.000  0.000  0.994
 
band     4 # energy    4.26092988 # occ.  2.00000000
 
ion      s     py     pz     px    dxy    dyz    dz2    dxz  x2-y2    tot
    1  0.147  0.002  0.002  0.000  0.150  0.155  0.000  0.150  0.000  0.605
 
band     5 # energy    7.47858214 # occ.  2.00000000
 
ion      s     py     pz     px    dxy    dyz    dz2    dxz  x2-y2    tot
    1  0.000  0.000  0.000  0.000  0.055  0.245  0.117  0.055  0.351  0.824
 
band     6 # energy    7.56971975 # occ.  2.00000000
 
ion      s     py     pz     px    dxy    dyz    dz2    dxz  x2-y2    tot
    1  0.000  0.000  0.000  0.000  0.173  0.000  0.364  0.173  0.121  0.831
 
band     7 # energy    9.26212212 # occ.  2.00000000
 
ion      s     py     pz     px    dxy    dyz    dz2    dxz  x2-y2    tot
    1  0.045  0.032  0.032  0.033  0.113  0.009  0.017  0.113  0.051  0.444
 
band     8 # energy   10.62510084 # occ.  2.00000000
 
ion      s     py     pz     px    dxy    dyz    dz2    dxz  x2-y2    tot
    1  0.000  0.000  0.000  0.000  0.275  0.000  0.284  0.275  0.095  0.928
 
band     9 # energy   11.27422167 # occ.  0.00000000
 
ion      s     py     pz     px    dxy    dyz    dz2    dxz  x2-y2    tot
    1  0.019  0.010  0.010  0.006  0.023  0.406  0.084  0.023  0.251  0.831
 
band    10 # energy   17.92053616 # occ.  0.00000000
 
ion      s     py     pz     px    dxy    dyz    dz2    dxz  x2-y2    tot
    1  0.282  0.016  0.016  0.020  0.109  0.094  0.001  0.109  0.002  0.647
 
band    11 # energy   25.66542153 # occ.  0.00000000
 
ion      s     py     pz     px    dxy    dyz    dz2    dxz  x2-y2    tot
    1  0.000  0.003  0.003  0.006  0.007  0.000  0.001  0.007  0.004  0.031
 
band    12 # energy   29.39372207 # occ.  0.00000000
 
ion      s     py     pz     px    dxy    dyz    dz2    dxz  x2-y2    tot
    1  0.006  0.039  0.039  0.143  0.014  0.003  0.000  0.014  0.001  0.260
 
band    13 # energy   30.41649743 # occ.  0.00000000
 
ion      s     py     pz     px    dxy    dyz    dz2    dxz  x2-y2    tot
    1  0.000  0.111  0.111  0.000  0.006  0.000  0.011  0.006  0.004  0.247
 
band    14 # energy   36.99202734 # occ.  0.00000000
 
ion      s     py     pz     px    dxy    dyz    dz2    dxz  x2-y2    tot
    1  0.009  0.000  0.000  0.017  0.000  0.070  0.040  0.000  0.120  0.256
 
band    15 # energy   37.88572004 # occ.  0.00000000
 
ion      s     py     pz     px    dxy    dyz    dz2    dxz  x2-y2    tot
    1  0.000  0.003  0.003  0.000  0.048  0.000  0.185  0.048  0.062  0.349
 
band    16 # energy   38.59714792 # occ.  0.00000000
 
ion      s     py     pz     px    dxy    dyz    dz2    dxz  x2-y2    tot
    1  0.077  0.006  0.006  0.011  0.051  0.008  0.010  0.051  0.030  0.251
 
band    17 # energy   44.24521214 # occ.  0.00000000
 
ion      s     py     pz     px    dxy    dyz    dz2    dxz  x2-y2    tot
    1  0.000  0.147  0.147  0.000  0.028  0.000  0.003  0.028  0.001  0.353
 
band    18 # energy   45.49191781 # occ.  0.00000000
 
ion      s     py     pz     px    dxy    dyz    dz2    dxz  x2-y2    tot
    1  0.081  0.010  0.010  0.157  0.000  0.096  0.012  0.000  0.035  0.400
 
band    19 # energy   46.94549396 # occ.  0.00000000
 
ion      s     py     pz     px    dxy    dyz    dz2    dxz  x2-y2    tot
    1  0.039  0.062  0.062  0.023  0.039  0.007  0.004  0.039  0.013  0.287
 
band    20 # energy   51.41161697 # occ.  0.00000000
 
ion      s     py     pz     px    dxy    dyz    dz2    dxz  x2-y2    tot
    1  0.008  0.028  0.028  0.058  0.011  0.062  0.002  0.011  0.005  0.211
 
band    21 # energy   51.84817382 # occ.  0.00000000
 
ion      s     py     pz     px    dxy    dyz    dz2    dxz  x2-y2    tot
    1  6.289  0.000  0.000  0.000  0.000  0.000  0.000  0.000  0.000  6.289
 
band    22 # energy   54.15281393 # occ.  0.00000000
 
ion      s     py     pz     px    dxy    dyz    dz2    dxz  x2-y2    tot
    1  0.000  0.065  0.065  0.000  0.001  0.000  0.022  0.001  0.007  0.162
 
band    23 # energy   54.39499509 # occ.  0.00000000
 
ion      s     py     pz     px    dxy    dyz    dz2    dxz  x2-y2    tot
    1  0.063  0.001  0.001  0.003  0.001  0.001  0.000  0.001  0.000  0.072
 
band    24 # energy   55.39543588 # occ.  0.00000000
 
ion      s     py     pz     px    dxy    dyz    dz2    dxz  x2-y2    tot
    1  0.000  0.010  0.010  0.000  0.111  0.000  0.007  0.111  0.002  0.253
 

 k-point     6 :   -0.45000000 0.05000000 0.05000000     weight = 0.00600000

band     1 # energy  -41.77094201 # occ.  2.00000000
 
ion      s     py     pz     px    dxy    dyz    dz2    dxz  x2-y2    tot
    1  0.000  0.324  0.324  0.335  0.000  0.000  0.000  0.000  0.000  0.983
 
band     2 # energy  -41.45673866 # occ.  2.00000000
 
ion      s     py     pz     px    dxy    dyz    dz2    dxz  x2-y2    tot
    1  0.000  0.170  0.170  0.655  0.000  0.000  0.000  0.000  0.000  0.994
 
band     3 # energy  -41.45320330 # occ.  2.00000000
 
ion      s     py     pz     px    dxy    dyz    dz2    dxz  x2-y2    tot
    1  0.000  0.497  0.497  0.000  0.000  0.000  0.000  0.000  0.000  0.994
 
band     4 # energy    4.27267840 # occ.  2.00000000
 
ion      s     py     pz     px    dxy    dyz    dz2    dxz  x2-y2    tot
    1  0.129  0.000  0.000  0.001  0.162  0.172  0.000  0.162  0.000  0.626
 
band     5 # energy    7.39579839 # occ.  2.00000000
 
ion      s     py     pz     px    dxy    dyz    dz2    dxz  x2-y2    tot
    1  0.000  0.000  0.000  0.000  0.058  0.208  0.124  0.058  0.372  0.821
 
band     6 # energy    7.52124623 # occ.  2.00000000
 
ion      s     py     pz     px    dxy    dyz    dz2    dxz  x2-y2    tot
    1  0.000  0.000  0.000  0.000  0.169  0.000  0.367  0.169  0.122  0.828
 
band     7 # energy    9.94268607 # occ.  2.00000000
 
ion      s     py     pz     px    dxy    dyz    dz2    dxz  x2-y2    tot
    1  0.002  0.031  0.031  0.030  0.033  0.220  0.035  0.033  0.106  0.521
 
band     8 # energy   11.00283972 # occ.  0.56819962
 
ion      s     py     pz     px    dxy    dyz    dz2    dxz  x2-y2    tot
    1  0.000  0.000  0.000  0.000  0.283  0.000  0.285  0.283  0.095  0.946
 
band     9 # energy   11.74202897 # occ.  0.00000000
 
ion      s     py     pz     px    dxy    dyz    dz2    dxz  x2-y2    tot
    1  0.003  0.026  0.026  0.030  0.069  0.162  0.057  0.069  0.171  0.613
 
band    10 # energy   16.41914974 # occ.  0.00000000
 
ion      s     py     pz     px    dxy    dyz    dz2    dxz  x2-y2    tot
    1  0.366  0.002  0.002  0.000  0.134  0.140  0.000  0.134  0.000  0.778
 
band    11 # energy   25.40314765 # occ.  0.00000000
 
ion      s     py     pz     px    dxy    dyz    dz2    dxz  x2-y2    tot
    1  0.000  0.003  0.003  0.005  0.000  0.004  0.001  0.000  0.004  0.020
 
band    12 # energy   29.32024117 # occ.  0.00000000
 
ion      s     py     pz     px    dxy    dyz    dz2    dxz  x2-y2    tot
    1  0.005  0.036  0.036  0.142  0.003  0.005  0.002  0.003  0.006  0.239
 
band    13 # energy   29.38183290 # occ.  0.00000000
 
ion      s     py     pz     px    dxy    dyz    dz2    dxz  x2-y2    tot
    1  0.000  0.110  0.110  0.000  0.001  0.000  0.004  0.001  0.001  0.228
 
band    14 # energy   38.10036393 # occ.  0.00000000
 
ion      s     py     pz     px    dxy    dyz    dz2    dxz  x2-y2    tot
    1  0.000  0.001  0.001  0.000  0.051  0.000  0.187  0.051  0.062  0.354
 
band    15 # energy   38.29382819 # occ.  0.00000000
 
ion      s     py     pz     px    dxy    dyz    dz2    dxz  x2-y2    tot
    1  0.000  0.000  0.000  0.001  0.014  0.080  0.065  0.014  0.195  0.368
 
band    16 # energy   39.76106552 # occ.  0.00000000
 
ion      s     py     pz     px    dxy    dyz    dz2    dxz  x2-y2    tot
    1  0.132  0.002  0.002  0.000  0.071  0.064  0.000  0.071  0.000  0.342
 
band    17 # energy   44.55331835 # occ.  0.00000000
 
ion      s     py     pz     px    dxy    dyz    dz2    dxz  x2-y2    tot
    1  0.022  0.072  0.072  0.131  0.002  0.001  0.001  0.002  0.003  0.305
 
band    18 # energy   45.55252299 # occ.  0.00000000
 
ion      s     py     pz     px    dxy    dyz    dz2    dxz  x2-y2    tot
    1  0.000  0.159  0.159  0.000  0.002  0.000  0.016  0.002  0.005  0.343
 
band    19 # energy   45.65726434 # occ.  0.00000000
 
ion      s     py     pz     px    dxy    dyz    dz2    dxz  x2-y2    tot
    1  0.001  0.009  0.009  0.099  0.006  0.000  0.001  0.006  0.003  0.135
 
band    20 # energy   51.85206820 # occ.  0.00000000
 
ion      s     py     pz     px    dxy    dyz    dz2    dxz  x2-y2    tot
    1  6.302  0.000  0.000  0.000  0.000  0.000  0.000  0.000  0.000  6.302
 
band    21 # energy   52.52452295 # occ.  0.00000000
 
ion      s     py     pz     px    dxy    dyz    dz2    dxz  x2-y2    tot
    1  0.000  0.036  0.036  0.000  0.052  0.000  0.000  0.052  0.000  0.176
 
band    22 # energy   53.15845903 # occ.  0.00000000
 
ion      s     py     pz     px    dxy    dyz    dz2    dxz  x2-y2    tot
    1  0.006  0.009  0.009  0.036  0.009  0.049  0.001  0.009  0.002  0.132
 