<?xml version="1.0" encoding="ISO-8859-1"?>
<modeling>
 <generator>
  <i name="program" type="string">vasp </i>
  <i name="version" type="string">6.3.2  </i>
  <i name="subversion" type="string">27Jun22 (build Aug 12 2022 00:53:59) complex                          parallel </i>
  <i name="platform" type="string">tv2STD </i>
  <i name="date" type="string">2024 12 03 </i>
  <i name="time" type="string">02:20:02 </i>
 </generator>
 <incar>
  <i type="string" name="SYSTEM">Pt-fcc</i>
  <i type="int" name="ISTART">     0</i>
  <i type="string" name="PREC">accurate      normal | accurate</i>
  <i type="string" name="ALGO">Normal     Normal, Fast, Very_Fast</i>
  <i type="logical" name="ADDGRID"> F  </i>
  <i type="int" name="ICHARG">     2</i>
  <i type="int" name="INIWAV">     1</i>
  <i type="int" name="NELM">   100</i>
  <i type="int" name="IBRION">     2</i>
  <i name="EDIFF">      0.00000100</i>
  <i name="EDIFFG">     -0.02000000</i>
  <i type="int" name="NSW">   100</i>
  <i type="int" name="ISIF">     2</i>
  <i type="int" name="ISYM">     1</i>
  <i name="ENCUT">    425.00000000</i>
  <i type="logical" name="LREAL"> F  </i>
  <i type="int" name="ISMEAR">     0</i>
  <i name="SIGMA">      0.05000000</i>
  <i type="int" name="NWRITE">     2</i>
  <i type="logical" name="LWAVE"> T  </i>
  <i type="logical" name="LCHARG"> T  </i>
  <i type="int" name="LORBIT">    11</i>
 </incar>
 <primitive_cell>
  <structure name="primitive_cell" >
   <crystal>
    <varray name="basis" >
     <v>       0.00000000       1.99863712       1.99863712 </v>
     <v>       1.99863712       0.00000000       1.99863712 </v>
     <v>       1.99863712       1.99863712       0.00000000 </v>
    </varray>
    <i name="volume">     15.96731306 </i>
    <varray name="rec_basis" >
     <v>      -0.25017048       0.25017048       0.25017048 </v>
     <v>       0.25017048      -0.25017048       0.25017048 </v>
     <v>       0.25017048       0.25017048      -0.25017048 </v>
    </varray>
   </crystal>
   <varray name="positions" >
    <v>       0.00000000       0.00000000       0.00000000 </v>
   </varray>
  </structure>
  <varray name="primitive_index" >
   <v type="int" >        1 </v>
  </varray>
 </primitive_cell>
 <kpoints>
  <generation param="Monkhorst-Pack">
   <v type="int" name="divisions">      10       10       10 </v>
   <v name="usershift">      0.00000000       0.00000000       0.00000000 </v>
   <v name="genvec1">      0.10000000       0.00000000       0.00000000 </v>
   <v name="genvec2">      0.00000000       0.10000000      -0.00000000 </v>
   <v name="genvec3">      0.00000000      -0.00000000       0.10000000 </v>
   <v name="shift">      0.50000000       0.50000000       0.50000000 </v>
  </generation>
  <varray name="kpointlist" >
   <v>       0.05000000       0.05000000       0.05000000 </v>
   <v>       0.15000000       0.05000000       0.05000000 </v>
   <v>       0.25000000       0.05000000       0.05000000 </v>
   <v>       0.35000000       0.05000000       0.05000000 </v>
   <v>       0.45000000       0.05000000       0.05000000 </v>
   <v>      -0.45000000       0.05000000       0.05000000 </v>
   <v>      -0.35000000       0.05000000       0.05000000 </v>
   <v>      -0.25000000       0.05000000       0.05000000 </v>
   <v>      -0.15000000       0.05000000       0.05000000 </v>
   <v>      -0.05000000       0.05000000       0.05000000 </v>
   <v>       0.15000000       0.15000000       0.05000000 </v>
   <v>       0.25000000       0.15000000       0.05000000 </v>
   <v>       0.35000000       0.15000000       0.05000000 </v>
   <v>       0.45000000       0.15000000       0.05000000 </v>
   <v>      -0.45000000       0.15000000       0.05000000 </v>
   <v>      -0.35000000       0.15000000       0.05000000 </v>
   <v>      -0.25000000       0.15000000       0.05000000 </v>
   <v>      -0.15000000       0.15000000       0.05000000 </v>
   <v>      -0.05000000       0.15000000       0.05000000 </v>
   <v>       0.25000000       0.25000000       0.05000000 </v>
   <v>       0.35000000       0.25000000       0.05000000 </v>
   <v>       0.45000000       0.25000000       0.05000000 </v>
   <v>      -0.45000000       0.25000000       0.05000000 </v>
   <v>      -0.35000000       0.25000000       0.05000000 </v>
   <v>      -0.25000000       0.25000000       0.05000000 </v>
   <v>      -0.15000000       0.25000000       0.05000000 </v>
   <v>      -0.05000000       0.25000000       0.05000000 </v>
   <v>       0.35000000       0.35000000       0.05000000 </v>
   <v>       0.45000000       0.35000000       0.05000000 </v>
   <v>      -0.45000000       0.35000000       0.05000000 </v>
   <v>      -0.35000000       0.35000000       0.05000000 </v>
   <v>      -0.25000000       0.35000000       0.05000000 </v>
   <v>      -0.15000000       0.35000000       0.05000000 </v>
   <v>      -0.05000000       0.35000000       0.05000000 </v>
   <v>       0.45000000       0.45000000       0.05000000 </v>
   <v>      -0.45000000       0.45000000       0.05000000 </v>
   <v>      -0.35000000       0.45000000       0.05000000 </v>
   <v>      -0.25000000       0.45000000       0.05000000 </v>
   <v>      -0.15000000       0.45000000       0.05000000 </v>
   <v>      -0.05000000       0.45000000       0.05000000 </v>
   <v>      -0.45000000      -0.45000000       0.05000000 </v>
   <v>      -0.35000000      -0.45000000       0.05000000 </v>
   <v>      -0.25000000      -0.45000000       0.05000000 </v>
   <v>      -0.15000000      -0.45000000       0.05000000 </v>
   <v>      -0.35000000      -0.35000000       0.05000000 </v>
   <v>      -0.25000000      -0.35000000       0.05000000 </v>
   <v>      -0.15000000      -0.35000000       0.05000000 </v>
   <v>      -0.25000000      -0.25000000       0.05000000 </v>
   <v>      -0.15000000      -0.25000000       0.05000000 </v>
   <v>      -0.15000000      -0.15000000       0.05000000 </v>
   <v>       0.15000000       0.15000000       0.15000000 </v>
   <v>       0.25000000       0.15000000       0.15000000 </v>
   <v>       0.35000000       0.15000000       0.15000000 </v>
   <v>       0.45000000       0.15000000       0.15000000 </v>
   <v>      -0.45000000       0.15000000       0.15000000 </v>
   <v>      -0.35000000       0.15000000       0.15000000 </v>
   <v>      -0.25000000       0.15000000       0.15000000 </v>
   <v>      -0.15000000       0.15000000       0.15000000 </v>
   <v>       0.25000000       0.25000000       0.15000000 </v>
   <v>       0.35000000       0.25000000       0.15000000 </v>
   <v>       0.45000000       0.25000000       0.15000000 </v>
   <v>      -0.45000000       0.25000000       0.15000000 </v>
   <v>      -0.35000000       0.25000000       0.15000000 </v>
   <v>      -0.25000000       0.25000000       0.15000000 </v>
   <v>      -0.15000000       0.25000000       0.15000000 </v>
   <v>       0.35000000       0.35000000       0.15000000 </v>
   <v>       0.45000000       0.35000000       0.15000000 </v>
   <v>      -0.45000000       0.35000000       0.15000000 </v>
   <v>      -0.35000000       0.35000000       0.15000000 </v>
   <v>      -0.25000000       0.35000000       0.15000000 </v>
   <v>      -0.15000000       0.35000000       0.15000000 </v>
   <v>       0.45000000       0.45000000       0.15000000 </v>
   <v>      -0.45000000       0.45000000       0.15000000 </v>
   <v>      -0.35000000       0.45000000       0.15000000 </v>
   <v>      -0.25000000       0.45000000       0.15000000 </v>
   <v>      -0.15000000       0.45000000       0.15000000 </v>
   <v>      -0.45000000      -0.45000000       0.15000000 </v>
   <v>      -0.35000000      -0.45000000       0.15000000 </v>
   <v>      -0.25000000      -0.45000000       0.15000000 </v>
   <v>      -0.35000000      -0.35000000       0.15000000 </v>
   <v>      -0.25000000      -0.35000000       0.15000000 </v>
   <v>      -0.25000000      -0.25000000       0.15000000 </v>
   <v>       0.25000000       0.25000000       0.25000000 </v>
   <v>       0.35000000       0.25000000       0.25000000 </v>
   <v>       0.45000000       0.25000000       0.25000000 </v>
   <v>      -0.45000000       0.25000000       0.25000000 </v>
   <v>      -0.35000000       0.25000000       0.25000000 </v>
   <v>      -0.25000000       0.25000000       0.25000000 </v>
   <v>       0.35000000       0.35000000       0.25000000 </v>
   <v>       0.45000000       0.35000000       0.25000000 </v>
   <v>      -0.45000000       0.35000000       0.25000000 </v>
   <v>      -0.35000000       0.35000000       0.25000000 </v>
   <v>      -0.25000000       0.35000000       0.25000000 </v>
   <v>       0.45000000       0.45000000       0.25000000 </v>
   <v>      -0.45000000       0.45000000       0.25000000 </v>
   <v>      -0.35000000       0.45000000       0.25000000 </v>
   <v>      -0.25000000       0.45000000       0.25000000 </v>
   <v>      -0.45000000      -0.45000000       0.25000000 </v>
   <v>      -0.35000000      -0.45000000       0.25000000 </v>
   <v>      -0.35000000      -0.35000000       0.25000000 </v>
   <v>       0.35000000       0.35000000       0.35000000 </v>
   <v>       0.45000000       0.35000000       0.35000000 </v>
   <v>      -0.45000000       0.35000000       0.35000000 </v>
   <v>      -0.35000000       0.35000000       0.35000000 </v>
   <v>       0.45000000       0.45000000       0.35000000 </v>
   <v>      -0.45000000       0.45000000       0.35000000 </v>
   <v>      -0.35000000       0.45000000       0.35000000 </v>
   <v>      -0.45000000      -0.45000000       0.35000000 </v>
   <v>       0.45000000       0.45000000       0.45000000 </v>
   <v>      -0.45000000       0.45000000       0.45000000 </v>
  </varray>
  <varray name="weights" >
   <v>       0.00200000 </v>
   <v>       0.00600000 </v>
   <v>       0.00600000 </v>
   <v>       0.00600000 </v>
   <v>       0.00600000 </v>
   <v>       0.00600000 </v>
   <v>       0.00600000 </v>
   <v>       0.00600000 </v>
   <v>       0.00600000 </v>
   <v>       0.00600000 </v>
   <v>       0.00600000 </v>
   <v>       0.01200000 </v>
   <v>       0.01200000 </v>
   <v>       0.01200000 </v>
   <v>       0.01200000 </v>
   <v>       0.01200000 </v>
   <v>       0.01200000 </v>
   <v>       0.01200000 </v>
   <v>       0.01200000 </v>
   <v>       0.00600000 </v>
   <v>       0.01200000 </v>
   <v>       0.01200000 </v>
   <v>       0.01200000 </v>
   <v>       0.01200000 </v>
   <v>       0.01200000 </v>
   <v>       0.01200000 </v>
   <v>       0.01200000 </v>
   <v>       0.00600000 </v>
   <v>       0.01200000 </v>
   <v>       0.01200000 </v>
   <v>       0.01200000 </v>
   <v>       0.01200000 </v>
   <v>       0.01200000 </v>
   <v>       0.01200000 </v>
   <v>       0.00600000 </v>
   <v>       0.01200000 </v>
   <v>       0.01200000 </v>
   <v>       0.01200000 </v>
   <v>       0.01200000 </v>
   <v>       0.01200000 </v>
   <v>       0.00600000 </v>
   <v>       0.01200000 </v>
   <v>       0.01200000 </v>
   <v>       0.01200000 </v>
   <v>       0.00600000 </v>
   <v>       0.01200000 </v>
   <v>       0.01200000 </v>
   <v>       0.00600000 </v>
   <v>       0.01200000 </v>
   <v>       0.00600000 </v>
   <v>       0.00200000 </v>
   <v>       0.00600000 </v>
   <v>       0.00600000 </v>
   <v>       0.00600000 </v>
   <v>       0.00600000 </v>
   <v>       0.00600000 </v>
   <v>       0.00600000 </v>
   <v>       0.00600000 </v>
   <v>       0.00600000 </v>
   <v>       0.01200000 </v>
   <v>       0.01200000 </v>
   <v>       0.01200000 </v>
   <v>       0.01200000 </v>
   <v>       0.01200000 </v>
   <v>       0.01200000 </v>
   <v>       0.00600000 </v>
   <v>       0.01200000 </v>
   <v>       0.01200000 </v>
   <v>       0.01200000 </v>
   <v>       0.01200000 </v>
   <v>       0.01200000 </v>
   <v>       0.00600000 </v>
   <v>       0.01200000 </v>
   <v>       0.01200000 </v>
   <v>       0.01200000 </v>
   <v>       0.01200000 </v>
   <v>       0.00600000 </v>
   <v>       0.01200000 </v>
   <v>       0.01200000 </v>
   <v>       0.00600000 </v>
   <v>       0.01200000 </v>
   <v>       0.00600000 </v>
   <v>       0.00200000 </v>
   <v>       0.00600000 </v>
   <v>       0.00600000 </v>
   <v>       0.00600000 </v>
   <v>       0.00600000 </v>
   <v>       0.00600000 </v>
   <v>       0.00600000 </v>
   <v>       0.01200000 </v>
   <v>       0.01200000 </v>
   <v>       0.01200000 </v>
   <v>       0.01200000 </v>
   <v>       0.00600000 </v>
   <v>       0.01200000 </v>
   <v>       0.01200000 </v>
   <v>       0.01200000 </v>
   <v>       0.00600000 </v>
   <v>       0.01200000 </v>
   <v>       0.00600000 </v>
   <v>       0.00200000 </v>
   <v>       0.00600000 </v>
   <v>       0.00600000 </v>
   <v>       0.00600000 </v>
   <v>       0.00600000 </v>
   <v>       0.01200000 </v>
   <v>       0.01200000 </v>
   <v>       0.00600000 </v>
   <v>       0.00200000 </v>
   <v>       0.00600000 </v>
  </varray>
 </kpoints>
 <parameters>
  <separator name="general" >
   <i type="string" name="SYSTEM">Pt-fcc</i>
   <i type="logical" name="LCOMPAT"> F  </i>
  </separator>
  <separator name="electronic" >
   <i type="string" name="PREC">accura</i>
   <i name="ENMAX">    425.00000000</i>
   <i name="ENAUG">    527.01400000</i>
   <i name="EDIFF">      0.00000100</i>
   <i type="int" name="IALGO">    38</i>
   <i type="int" name="IWAVPR">    11</i>
   <i type="int" name="NBANDS">    24</i>
   <i type="int" name="NBANDSLOW">    -1</i>
   <i type="int" name="NBANDSHIGH">    -1</i>
   <i name="NELECT">     16.00000000</i>
   <i type="int" name="TURBO">     0</i>
   <i type="int" name="IRESTART">     0</i>
   <i type="int" name="NREBOOT">     0</i>
   <i type="int" name="NMIN">     0</i>
   <i name="EREF">      0.00000000</i>
   <separator name="electronic smearing" >
    <i type="int" name="ISMEAR">     0</i>
    <i name="SIGMA">      0.05000000</i>
    <i name="KSPACING">      0.50000000</i>
    <i type="logical" name="KGAMMA"> T  </i>
    <i type="logical" name="KBLOWUP"> T  </i>
   </separator>
   <separator name="electronic projectors" >
    <i type="logical" name="LREAL"> F  </i>
    <v name="ROPT">      0.00000000</v>
    <i type="int" name="LMAXPAW">  -100</i>
    <i type="int" name="LMAXMIX">     2</i>
    <i type="logical" name="NLSPLINE"> F  </i>
   </separator>
   <separator name="electronic startup" >
    <i type="int" name="ISTART">     0</i>
    <i type="int" name="ICHARG">     2</i>
    <i type="int" name="INIWAV">     1</i>
   </separator>
   <separator name="electronic spin" >
    <i type="int" name="ISPIN">     1</i>
    <i type="logical" name="LNONCOLLINEAR"> F  </i>
    <v name="MAGMOM">      1.00000000</v>
    <i name="NUPDOWN">     -1.00000000</i>
    <i type="logical" name="LSORBIT"> F  </i>
    <v name="SAXIS">      0.00000000      0.00000000      1.00000000</v>
    <i type="logical" name="LSPIRAL"> F  </i>
    <v name="QSPIRAL">      0.00000000      0.00000000      0.00000000</v>
    <i type="logical" name="LZEROZ"> F  </i>
   </separator>
   <separator name="electronic exchange-correlation" >
    <i type="logical" name="LASPH"> F  </i>
    <i type="logical" name="LMETAGGA"> F  </i>
   </separator>
   <separator name="electronic convergence" >
    <i type="int" name="NELM">   100</i>
    <i type="int" name="NELMDL">    -5</i>
    <i type="int" name="NELMIN">     2</i>
    <i name="ENINI">    425.00000000</i>
    <separator name="electronic convergence detail" >
     <i type="logical" name="LDIAG"> T  </i>
     <i type="logical" name="LSUBROT"> F  </i>
     <i name="WEIMIN">      0.00100000</i>
     <i name="EBREAK">      0.00000001</i>
     <i name="DEPER">      0.30000000</i>
     <i type="int" name="NRMM">     4</i>
     <i name="TIME">      0.40000000</i>
    </separator>
   </separator>
   <separator name="electronic mixer" >
    <i name="AMIX">      0.40000000</i>
    <i name="BMIX">      1.00000000</i>
    <i name="AMIN">      0.10000000</i>
    <i name="AMIX_MAG">      1.60000000</i>
    <i name="BMIX_MAG">      1.00000000</i>
    <separator name="electronic mixer details" >
     <i type="int" name="IMIX">     4</i>
     <i type="logical" name="MIXFIRST"> F  </i>
     <i type="int" name="MAXMIX">   -45</i>
     <i name="WC">    100.00000000</i>
     <i type="int" name="INIMIX">     1</i>
     <i type="int" name="MIXPRE">     1</i>
     <i type="int" name="MREMOVE">     5</i>
    </separator>
   </separator>
   <separator name="electronic dipolcorrection" >
    <i type="logical" name="LDIPOL"> F  </i>
    <i type="logical" name="LMONO"> F  </i>
    <i type="int" name="IDIPOL">     0</i>
    <i name="EPSILON">      1.00000000</i>
    <v name="DIPOL">   -100.00000000   -100.00000000   -100.00000000</v>
    <i name="EFIELD">      0.00000000</i>
   </separator>
  </separator>
  <separator name="grids" >
   <i type="int" name="NGX">    20</i>
   <i type="int" name="NGY">    20</i>
   <i type="int" name="NGZ">    20</i>
   <i type="int" name="NGXF">    40</i>
   <i type="int" name="NGYF">    40</i>
   <i type="int" name="NGZF">    40</i>
   <i type="logical" name="ADDGRID"> F  </i>
  </separator>
  <separator name="ionic" >
   <i type="int" name="NSW">   100</i>
   <i type="int" name="IBRION">     2</i>
   <i type="int" name="MDALGO">     0</i>
   <i type="int" name="ISIF">     2</i>
   <i name="PSTRESS">      0.00000000</i>
   <i name="EDIFFG">     -0.02000000</i>
   <i type="int" name="NFREE">     1</i>
   <i name="POTIM">      0.50000000</i>
   <i name="SMASS">     -3.00000000</i>
   <i name="SCALEE">      1.00000000</i>
  </separator>
  <separator name="ionic md" >
   <i name="TEBEG">      0.00010000</i>
   <i name="TEEND">      0.00010000</i>
   <i type="int" name="NBLOCK">     1</i>
   <i type="int" name="KBLOCK">   100</i>
   <i type="int" name="NPACO">   256</i>
   <i name="APACO">     10.00000000</i>
  </separator>
  <separator name="symmetry" >
   <i type="int" name="ISYM">     1</i>
   <i name="SYMPREC">      0.00001000</i>
  </separator>
  <separator name="dos" >
   <i type="int" name="LORBIT">    11</i>
   <v name="RWIGS">     -1.00000000</v>
   <i type="int" name="NEDOS">   301</i>
   <i name="EMIN">     10.00000000</i>
   <i name="EMAX">    -10.00000000</i>
   <i name="EFERMI">      0.00000000</i>
  </separator>
  <separator name="writing" >
   <i type="int" name="NWRITE">     2</i>
   <i type="logical" name="LWAVE"> T  </i>
   <i type="logical" name="LDOWNSAMPLE"> F  </i>
   <i type="logical" name="LCHARG"> T  </i>
   <i type="logical" name="LPARD"> F  </i>
   <i type="logical" name="LVTOT"> F  </i>
   <i type="logical" name="LVHAR"> F  </i>
   <i type="logical" name="LELF"> F  </i>
   <i type="logical" name="LOPTICS"> F  </i>
   <v name="STM">      0.00000000      0.00000000      0.00000000      0.00000000      0.00000000      0.00000000      0.00000000</v>
  </separator>
  <separator name="performance" >
   <i type="int" name="NPAR">    24</i>
   <i type="int" name="NSIM">     4</i>
   <i type="int" name="NBLK">    -1</i>
   <i type="logical" name="LPLANE"> T  </i>
   <i type="logical" name="LSCALAPACK"> T  </i>
   <i type="logical" name="LSCAAWARE"> T  </i>
   <i type="logical" name="LSCALU"> F  </i>
   <i type="logical" name="LASYNC"> F  </i>
   <i type="logical" name="LORBITALREAL"> F  </i>
  </separator>
  <separator name="miscellaneous" >
   <i type="int" name="IDIOT">     3</i>
   <i type="int" name="PHON_NSTRUCT">    -1</i>
   <i type="logical" name="LMUSIC"> F  </i>
   <v name="POMASS">    195.08000000</v>
   <v name="DARWINR">      0.00000000</v>
   <v name="DARWINV">      1.00000000</v>
   <i type="logical" name="LCORR"> T  </i>
  </separator>
  <i type="logical" name="GGA_COMPAT"> T  </i>
  <i type="logical" name="LBERRY"> F  </i>
  <i type="int" name="ICORELEVEL">     0</i>
  <i type="logical" name="LDAU"> F  </i>
  <i type="int" name="I_CONSTRAINED_M">     0</i>
  <separator name="electronic exchange-correlation" >
   <i type="string" name="GGA">--</i>
   <i type="int" name="VOSKOWN">     0</i>
   <i type="logical" name="LHFCALC"> F  </i>
   <i type="string" name="PRECFOCK"></i>
   <i type="logical" name="LSYMGRAD"> F  </i>
   <i type="logical" name="LHFONE"> F  </i>
   <i type="logical" name="LRHFCALC"> F  </i>
   <i type="logical" name="LTHOMAS"> F  </i>
   <i type="logical" name="LMODELHF"> F  </i>
   <i type="logical" name="LFOCKACE"> F  </i>
   <i name="ENCUT4O">     -1.00000000</i>
   <i type="int" name="EXXOEP">     0</i>
   <i type="int" name="FOURORBIT">     0</i>
   <i name="AEXX">      0.00000000</i>
   <i name="HFALPHA">      0.00000000</i>
   <i name="MCALPHA">      0.00000000</i>
   <i name="ALDAX">      1.00000000</i>
   <i name="AGGAX">      1.00000000</i>
   <i name="ALDAC">      1.00000000</i>
   <i name="AGGAC">      1.00000000</i>
   <i type="int" name="NKREDX">     1</i>
   <i type="int" name="NKREDY">     1</i>
   <i type="int" name="NKREDZ">     1</i>
   <i type="logical" name="SHIFTRED"> F  </i>
   <i type="logical" name="ODDONLY"> F  </i>
   <i type="logical" name="EVENONLY"> F  </i>
   <i type="int" name="LMAXFOCK">     0</i>
   <i type="int" name="NMAXFOCKAE">     0</i>
   <i type="logical" name="LFOCKAEDFT"> F  </i>
   <i name="HFSCREEN">      0.00000000</i>
   <i name="HFSCREENC">      0.00000000</i>
   <i type="int" name="NBANDSGWLOW">     0</i>
  </separator>
  <separator name="vdW DFT" >
   <i type="logical" name="LUSE_VDW"> F  </i>
   <i name="Zab_VDW">     -0.84910000</i>
   <i name="PARAM1">      0.12340000</i>
   <i name="PARAM2">      1.00000000</i>
   <i name="PARAM3">      0.00000000</i>
  </separator>
  <separator name="model GW" >
   <i type="int" name="MODEL_GW">     0</i>
   <i name="MODEL_EPS0">      9.58038784</i>
   <i name="MODEL_ALPHA">      1.00000000</i>
  </separator>
  <separator name="linear response parameters" >
   <i type="logical" name="LEPSILON"> F  </i>
   <i type="logical" name="LRPA"> F  </i>
   <i type="logical" name="LNABLA"> F  </i>
   <i type="logical" name="LVEL"> F  </i>
   <i name="CSHIFT">      0.10000000</i>
   <i name="OMEGAMAX">     -1.00000000</i>
   <i name="DEG_THRESHOLD">      0.00200000</i>
   <i name="RTIME">     -0.10000000</i>
   <i name="WPLASMAI">      0.00000000</i>
   <v name="DFIELD">      0.00000000      0.00000000      0.00000000</v>
   <v name="WPLASMA">      0.00000000      0.00000000      0.00000000      0.00000000      0.00000000      0.00000000      0.00000000      0.00000000      0.00000000</v>
  </separator>
  <separator name="orbital magnetization" >
   <i type="logical" name="NUCIND"> F  </i>
   <v name="MAGPOS">      0.00000000      0.00000000      0.00000000</v>
   <i type="logical" name="LNICSALL"> T  </i>
   <i type="logical" name="ORBITALMAG"> F  </i>
   <i type="logical" name="LMAGBLOCH"> F  </i>
   <i type="logical" name="LCHIMAG"> F  </i>
   <i type="logical" name="LGAUGE"> T  </i>
   <i type="int" name="MAGATOM">     0</i>
   <v name="MAGDIPOL">      0.00000000      0.00000000      0.00000000</v>
   <v name="AVECCONST">      0.00000000      0.00000000      0.00000000</v>
  </separator>
  <separator name="response functions" >
   <i type="logical" name="LFINITE_TEMPERATURE"> F  </i>
   <i type="logical" name="LADDER"> F  </i>
   <i type="logical" name="LRPAFORCE"> F  </i>
   <i type="logical" name="LFXC"> F  </i>
   <i type="logical" name="LHARTREE"> T  </i>
   <i type="int" name="IBSE">     0</i>
   <v type="int" name="KPOINT">    -1     0     0     0</v>
   <i type="logical" name="LTCTC"> F  </i>
   <i type="logical" name="LTCTE"> F  </i>
   <i type="logical" name="LTETE"> F  </i>
   <i type="logical" name="LTRIPLET"> F  </i>
   <i type="logical" name="LFXCEPS"> F  </i>
   <i type="logical" name="LFXHEG"> F  </i>
   <i type="int" name="NATURALO">     2</i>
   <i type="logical" name="LHOLEGF"> F  </i>
   <i type="logical" name="L2ORDER"> F  </i>
   <i type="logical" name="LDMP1"> F  </i>
   <i type="logical" name="LMP2LT"> F  </i>
   <i type="logical" name="LSMP2LT"> F  </i>
   <i type="logical" name="LGWLF"> F  </i>
   <i name="ENCUTGW">     -2.00000000</i>
   <i name="ENCUTGWSOFT">     -2.00000000</i>
   <i name="ENCUTLF">     -1.00000000</i>
   <i type="logical" name="LESF_SPLINES"> F  </i>
   <i type="int" name="LMAXMP2">    -1</i>
   <i name="SCISSOR">      0.00000000</i>
   <i type="int" name="NOMEGA">     0</i>
   <i type="int" name="NOMEGAR">     0</i>
   <i type="int" name="NBANDSGW">    -1</i>
   <i type="int" name="NBANDSO">    -1</i>
   <i type="int" name="NBANDSV">    -1</i>
   <i type="int" name="NELMGW">     1</i>
   <i type="int" name="NELMHF">     1</i>
   <i type="int" name="DIM">     3</i>
   <i type="int" name="IESPILON">     4</i>
   <i type="int" name="ANTIRES">     0</i>
   <i name="OMEGAMAX">    -30.00000000</i>
   <i name="OMEGAMIN">    -30.00000000</i>
   <i name="OMEGATL">   -200.00000000</i>
   <i type="int" name="OMEGAGRID">     0</i>
   <i name="CSHIFT">     -0.10000000</i>
   <i type="logical" name="LSELFENERGY"> F  </i>
   <i type="logical" name="LSPECTRAL"> F  </i>
   <i type="logical" name="LSPECTRALGW"> F  </i>
   <i type="logical" name="LSINGLES"> F  </i>
   <i type="logical" name="LFERMIGW"> F  </i>
   <i type="logical" name="ODDONLYGW"> F  </i>
   <i type="logical" name="EVENONLYGW"> F  </i>
   <i type="int" name="NKREDLFX">     1</i>
   <i type="int" name="NKREDLFY">     1</i>
   <i type="int" name="NKREDLFZ">     1</i>
   <i type="int" name="MAXMEM">  2800</i>
   <i type="int" name="TELESCOPE">     0</i>
   <i type="int" name="NTAUPAR">    -1</i>
   <i type="int" name="NOMEGAPAR">    -1</i>
   <i name="DAMP_NEWTON">      0.80000001</i>
   <i name="LAMBDA">      1.00000000</i>
  </separator>
  <separator name="External order field" >
   <i name="OFIELD_KAPPA">      0.00000000</i>
   <v name="OFIELD_K">      0.00000000      0.00000000      0.00000000</v>
   <i name="OFIELD_Q6_NEAR">      0.00000000</i>
   <i name="OFIELD_Q6_FAR">      0.00000000</i>
   <i name="OFIELD_A">      0.00000000</i>
  </separator>
  <separator name="optional k-points parameters" >
   <i type="int" name="KPOINTS_OPT_MODE">     1</i>
   <i type="logical" name="LKPOINTS_OPT"> F  </i>
  </separator>
 </parameters>
 <atominfo>
  <atoms>       1 </atoms>
  <types>       1 </types>
  <array name="atoms" >
   <dimension dim="1">ion</dimension>
   <field type="string">element</field>
   <field type="int">atomtype</field>
   <set>
    <rc><c>Pt</c><c>   1</c></rc>
   </set>
  </array>
  <array name="atomtypes" >
   <dimension dim="1">type</dimension>
   <field type="int">atomspertype</field>
   <field type="string">element</field>
   <field>mass</field>
   <field>valence</field>
   <field type="string">pseudopotential</field>
   <set>
    <rc><c>   1</c><c>Pt</c><c>    195.08000000</c><c>     16.00000000</c><c>  PAW_PBE Pt_pv 12Dec2005               </c></rc>
   </set>
  </array>
 </atominfo>
 <structure name="initialpos" >
  <crystal>
   <varray name="basis" >
    <v>       0.00000000       1.99863712       1.99863712 </v>
    <v>       1.99863712       0.00000000       1.99863712 </v>
    <v>       1.99863712       1.99863712       0.00000000 </v>
   </varray>
   <i name="volume">     15.96731306 </i>
   <varray name="rec_basis" >
    <v>      -0.25017048       0.25017048       0.25017048 </v>
    <v>       0.25017048      -0.25017048       0.25017048 </v>
    <v>       0.25017048       0.25017048      -0.25017048 </v>
   </varray>
  </crystal>
  <varray name="positions" >
   <v>       0.00000000       0.00000000       0.00000000 </v>
  </varray>
 </structure>
 <calculation>
  <scstep>
   <time name="dav">    0.51    0.51</time>
   <time name="total">    0.52    0.52</time>
   <energy>
    <i name="alphaZ">    150.26439018 </i>
    <i name="ewald">  -2114.11386377 </i>
    <i name="hartreedc">   -412.18926590 </i>
    <i name="XCdc">     63.60320827 </i>
    <i name="pawpsdc">   2065.75261637 </i>
    <i name="pawaedc">  -2030.83594803 </i>
    <i name="eentropy">     -0.00071616 </i>
    <i name="bandstr">   -132.38138684 </i>
    <i name="atom">   2428.19501064 </i>
    <i name="e_fr_energy">     18.29404476 </i>
    <i name="e_wo_entrp">     18.29476092 </i>
    <i name="e_0_energy">     18.29440284 </i>
   </energy>
  </scstep>
  <scstep>
   <time name="dav">    0.70    0.70</time>
   <time name="total">    0.70    0.70</time>
   <energy>
    <i name="e_fr_energy">     -6.40005460 </i>
    <i name="e_wo_entrp">     -6.39813890 </i>
    <i name="e_0_energy">     -6.39909675 </i>
   </energy>
  </scstep>
  <scstep>
   <time name="dav">    0.64    0.64</time>
   <time name="total">    0.64    0.64</time>
   <energy>
    <i name="e_fr_energy">     -6.43807774 </i>
    <i name="e_wo_entrp">     -6.43617968 </i>
    <i name="e_0_energy">     -6.43712871 </i>
   </energy>
  </scstep>
  <scstep>
   <time name="dav">    1.03    1.03</time>
   <time name="total">    1.03    1.03</time>
   <energy>
    <i name="e_fr_energy">     -6.43811773 </i>
    <i name="e_wo_entrp">     -6.43621966 </i>
    <i name="e_0_energy">     -6.43716869 </i>
   </energy>
  </scstep>
  <scstep>
   <time name="dav">    0.62    0.62</time>
   <time name="total">    0.64    0.64</time>
   <energy>
    <i name="e_fr_energy">     -6.43811773 </i>
    <i name="e_wo_entrp">     -6.43621966 </i>
    <i name="e_0_energy">     -6.43716869 </i>
   </energy>
  </scstep>
  <scstep>
   <time name="dav">    0.51    0.51</time>
   <time name="total">    0.53    0.54</time>
   <energy>
    <i name="e_fr_energy">     -6.09513834 </i>
    <i name="e_wo_entrp">     -6.09256635 </i>
    <i name="e_0_energy">     -6.09385235 </i>
   </energy>
  </scstep>
  <scstep>
   <time name="dav">    0.82    0.82</time>
   <time name="total">    0.84    0.85</time>
   <energy>
    <i name="e_fr_energy">     -6.07921124 </i>
    <i name="e_wo_entrp">     -6.07658696 </i>
    <i name="e_0_energy">     -6.07789910 </i>
   </energy>
  </scstep>
  <scstep>
   <time name="dav">    0.55    0.56</time>
   <time name="total">    0.58    0.58</time>
   <energy>
    <i name="e_fr_energy">     -6.07778736 </i>
    <i name="e_wo_entrp">     -6.07513646 </i>
    <i name="e_0_energy">     -6.07646191 </i>
   </energy>
  </scstep>
  <scstep>
   <time name="dav">    0.78    0.78</time>
   <time name="total">    0.80    0.81</time>
   <energy>
    <i name="e_fr_energy">     -6.07773594 </i>
    <i name="e_wo_entrp">     -6.07508875 </i>
    <i name="e_0_energy">     -6.07641234 </i>
   </energy>
  </scstep>
  <scstep>
   <time name="dav">    0.72    0.73</time>
   <time name="total">    0.74    0.75</time>
   <energy>
    <i name="e_fr_energy">     -6.07774221 </i>
    <i name="e_wo_entrp">     -6.07509631 </i>
    <i name="e_0_energy">     -6.07641926 </i>
   </energy>
  </scstep>
  <scstep>
   <time name="dav">    0.34    0.34</time>
   <time name="total">    0.34    0.34</time>
   <energy>
    <i name="alphaZ">    150.26439018 </i>
    <i name="ewald">  -2114.11386377 </i>
    <i name="hartreedc">   -392.69313679 </i>
    <i name="XCdc">     62.74403448 </i>
    <i name="pawpsdc">   2292.84929680 </i>
    <i name="pawaedc">  -2260.37687157 </i>
    <i name="eentropy">     -0.00264589 </i>
    <i name="bandstr">   -172.94395621 </i>
    <i name="atom">   2428.19501064 </i>
    <i name="e_fr_energy">     -6.07774213 </i>
    <i name="e_wo_entrp">     -6.07509624 </i>
    <i name="e_0_energy">     -6.07641919 </i>
   </energy>
  </scstep>
  <structure>
   <crystal>
    <varray name="basis" >
     <v>       0.00000000       1.99863712       1.99863712 </v>
     <v>       1.99863712       0.00000000       1.99863712 </v>
     <v>       1.99863712       1.99863712       0.00000000 </v>
    </varray>
    <i name="volume">     15.96731306 </i>
    <varray name="rec_basis" >
     <v>      -0.25017048       0.25017048       0.25017048 </v>
     <v>       0.25017048      -0.25017048       0.25017048 </v>
     <v>       0.25017048       0.25017048      -0.25017048 </v>
    </varray>
   </crystal>
   <varray name="positions" >
    <v>       0.00000000       0.00000000       0.00000000 </v>
   </varray>
  </structure>
  <varray name="forces" >
   <v>      -0.00000000       0.00000000       0.00000000 </v>
  </varray>
  <varray name="stress" >
   <v>     -71.57126269       0.00000000       0.00000000 </v>
   <v>      -0.00000000     -71.57126269       0.00000000 </v>
   <v>       0.00000000       0.00000000     -71.57126269 </v>
  </varray>
  <energy>
   <i name="e_fr_energy">     -6.07774213 </i>
   <i name="e_wo_entrp">     -6.07509624 </i>
   <i name="e_0_energy">     -6.07641919 </i>
  </energy>
  <time name="totalsc">    7.61    7.71</time>
  <eigenvalues>
   <array>
    <dimension dim="1">band</dimension>
    <dimension dim="2">kpoint</dimension>
    <dimension dim="3">spin</dimension>
    <field>eigene</field>
    <field>occ</field>
    <set>
     <set comment="spin 1">
      <set comment="kpoint 1">
       <r>  -41.4056    1.0000 </r>
       <r>  -41.3975    1.0000 </r>
       <r>  -41.3975    1.0000 </r>
       <r>    1.4367    1.0000 </r>
       <r>    7.4633    1.0000 </r>
       <r>    7.5419    1.0000 </r>
       <r>    7.5419    1.0000 </r>
       <r>    9.4576    1.0000 </r>
       <r>    9.4576    1.0000 </r>
       <r>   25.8533    0.0000 </r>
       <r>   29.8086    0.0000 </r>
       <r>   30.4982    0.0000 </r>
       <r>   30.4982    0.0000 </r>
       <r>   36.0950    0.0000 </r>
       <r>   40.3699    0.0000 </r>
       <r>   41.0920    0.0000 </r>
       <r>   41.0920    0.0000 </r>
       <r>   44.0564    0.0000 </r>
       <r>   44.0564    0.0000 </r>
       <r>   44.9524    0.0000 </r>
       <r>   50.8955    0.0000 </r>
       <r>   50.8955    0.0000 </r>
       <r>   51.8268    0.0000 </r>
       <r>   57.3746    0.0000 </r>
      </set>
      <set comment="kpoint 2">
       <r>  -41.4487    1.0000 </r>
       <r>  -41.4103    1.0000 </r>
       <r>  -41.4009    1.0000 </r>
       <r>    1.9325    1.0000 </r>
       <r>    7.2539    1.0000 </r>
       <r>    7.7098    1.0000 </r>
       <r>    7.7463    1.0000 </r>
       <r>    9.2555    1.0000 </r>
       <r>    9.5124    1.0000 </r>
       <r>   26.5272    0.0000 </r>
       <r>   28.0987    0.0000 </r>
       <r>   30.5426    0.0000 </r>
       <r>   31.5567    0.0000 </r>
       <r>   36.3166    0.0000 </r>
       <r>   38.6716    0.0000 </r>
       <r>   39.3163    0.0000 </r>
       <r>   40.1962    0.0000 </r>
       <r>   42.5128    0.0000 </r>
       <r>   45.4621    0.0000 </r>
       <r>   47.6312    0.0000 </r>
       <r>   49.8385    0.0000 </r>
       <r>   51.8437    0.0000 </r>
       <r>   52.0639    0.0000 </r>
       <r>   59.0417    0.0000 </r>
      </set>
      <set comment="kpoint 3">
       <r>  -41.5487    1.0000 </r>
       <r>  -41.4278    1.0000 </r>
       <r>  -41.4138    1.0000 </r>
       <r>    3.0021    1.0000 </r>
       <r>    7.0501    1.0000 </r>
       <r>    7.8866    1.0000 </r>
       <r>    7.9226    1.0000 </r>
       <r>    9.2454    1.0000 </r>
       <r>    9.7593    1.0000 </r>
       <r>   25.0976    0.0000 </r>
       <r>   27.3724    0.0000 </r>
       <r>   31.4396    0.0000 </r>
       <r>   33.3327    0.0000 </r>
       <r>   33.4869    0.0000 </r>
       <r>   36.4615    0.0000 </r>
       <r>   36.6474    0.0000 </r>
       <r>   42.9966    0.0000 </r>
       <r>   43.1240    0.0000 </r>
       <r>   46.1479    0.0000 </r>
       <r>   48.2593    0.0000 </r>
       <r>   50.8522    0.0000 </r>
       <r>   51.8482    0.0000 </r>
       <r>   52.7735    0.0000 </r>
       <r>   59.3343    0.0000 </r>
      </set>
      <set comment="kpoint 4">
       <r>  -41.6624    1.0000 </r>
       <r>  -41.4454    1.0000 </r>
       <r>  -41.4306    1.0000 </r>
       <r>    3.9851    1.0000 </r>
       <r>    7.5754    1.0000 </r>
       <r>    7.7515    1.0000 </r>
       <r>    7.7787    1.0000 </r>
       <r>    9.8533    1.0000 </r>
       <r>   10.4457    1.0000 </r>
       <r>   21.5231    0.0000 </r>
       <r>   26.6339    0.0000 </r>
       <r>   30.7165    0.0000 </r>
       <r>   32.8983    0.0000 </r>
       <r>   34.3187    0.0000 </r>
       <r>   35.9819    0.0000 </r>
       <r>   36.6703    0.0000 </r>
       <r>   43.4881    0.0000 </r>
       <r>   45.5579    0.0000 </r>
       <r>   47.7711    0.0000 </r>
       <r>   49.2452    0.0000 </r>
       <r>   51.7084    0.0000 </r>
       <r>   51.8587    0.0000 </r>
       <r>   53.5050    0.0000 </r>
       <r>   58.2641    0.0000 </r>
      </set>
      <set comment="kpoint 5">
       <r>  -41.7475    1.0000 </r>
       <r>  -41.4567    1.0000 </r>
       <r>  -41.4464    1.0000 </r>
       <r>    4.2609    1.0000 </r>
       <r>    7.4786    1.0000 </r>
       <r>    7.5697    1.0000 </r>
       <r>    9.2621    1.0000 </r>
       <r>   10.6251    1.0000 </r>
       <r>   11.2742    0.0000 </r>
       <r>   17.9205    0.0000 </r>
       <r>   25.6654    0.0000 </r>
       <r>   29.3937    0.0000 </r>
       <r>   30.4165    0.0000 </r>
       <r>   36.9920    0.0000 </r>
       <r>   37.8857    0.0000 </r>
       <r>   38.5971    0.0000 </r>
       <r>   44.2452    0.0000 </r>
       <r>   45.4919    0.0000 </r>
       <r>   46.9455    0.0000 </r>
       <r>   51.4116    0.0000 </r>
       <r>   51.8482    0.0000 </r>
       <r>   54.1528    0.0000 </r>
       <r>   54.3950    0.0000 </r>
       <r>   55.3954    0.0000 </r>
      </set>
      <set comment="kpoint 6">
       <r>  -41.7709    1.0000 </r>
       <r>  -41.4567    1.0000 </r>
       <r>  -41.4532    1.0000 </r>
       <r>    4.2727    1.0000 </r>
       <r>    7.3958    1.0000 </r>
       <r>    7.5212    1.0000 </r>
       <r>    9.9427    1.0000 </r>
       <r>   11.0028    0.2841 </r>
       <r>   11.7420    0.0000 </r>
       <r>   16.4191    0.0000 </r>
       <r>   25.4031    0.0000 </r>
       <r>   29.3202    0.0000 </r>
       <r>   29.3818    0.0000 </r>
       <r>   38.1004    0.0000 </r>
       <r>   38.2938    0.0000 </r>
       <r>   39.7611    0.0000 </r>
       <r>   44.5533    0.0000 </r>
       <r>   45.5525    0.0000 </r>
       <r>   45.6573    0.0000 </r>
       <r>   51.8521    0.0000 </r>
       <r>   52.5245    0.0000 </r>
       <r>   53.1585    0.0000 </r>
       <r>   54.7877    0.0000 </r>
       <r>   55.7805    0.0000 </r>
      </set>
      <set comment="kpoint 7">
       <r>  -41.7249    1.0000 </r>
       <r>  -41.4495    1.0000 </r>
       <r>  -41.4461    1.0000 </r>
       <r>    4.2240    1.0000 </r>
       <r>    7.5167    1.0000 </r>
       <r>    7.6575    1.0000 </r>
       <r>    8.6344    1.0000 </r>
       <r>   10.6956    1.0000 </r>
       <r>   10.7360    1.0000 </r>
       <r>   19.0387    0.0000 </r>
       <r>   25.9278    0.0000 </r>
       <r>   29.9710    0.0000 </r>
       <r>   30.7884    0.0000 </r>
       <r>   36.7767    0.0000 </r>
       <r>   36.9340    0.0000 </r>
       <r>   37.7788    0.0000 </r>
       <r>   43.4511    0.0000 </r>
       <r>   46.4629    0.0000 </r>
       <r>   47.1833    0.0000 </r>
       <r>   51.2529    0.0000 </r>
       <r>   51.8525    0.0000 </r>
       <r>   52.6186    0.0000 </r>
       <r>   54.2732    0.0000 </r>
       <r>   56.0076    0.0000 </r>
      </set>
      <set comment="kpoint 8">
       <r>  -41.6258    1.0000 </r>
       <r>  -41.4360    1.0000 </r>
       <r>  -41.4288    1.0000 </r>
       <r>    3.7287    1.0000 </r>
       <r>    7.2584    1.0000 </r>
       <r>    7.7810    1.0000 </r>
       <r>    7.8721    1.0000 </r>
       <r>    9.7153    1.0000 </r>
       <r>   10.0891    1.0000 </r>
       <r>   22.7686    0.0000 </r>
       <r>   27.0298    0.0000 </r>
       <r>   31.3894    0.0000 </r>
       <r>   32.8838    0.0000 </r>
       <r>   34.4289    0.0000 </r>
       <r>   35.4514    0.0000 </r>
       <r>   36.0341    0.0000 </r>
       <r>   42.9860    0.0000 </r>
       <r>   46.2632    0.0000 </r>
       <r>   46.5679    0.0000 </r>
       <r>   48.9933    0.0000 </r>
       <r>   50.5078    0.0000 </r>
       <r>   51.8562    0.0000 </r>
       <r>   53.7635    0.0000 </r>
       <r>   59.1236    0.0000 </r>
      </set>
      <set comment="kpoint 9">
       <r>  -41.5112    1.0000 </r>
       <r>  -41.4185    1.0000 </r>
       <r>  -41.4120    1.0000 </r>
       <r>    2.6088    1.0000 </r>
       <r>    7.0640    1.0000 </r>
       <r>    7.8802    1.0000 </r>
       <r>    7.8997    1.0000 </r>
       <r>    9.1922    1.0000 </r>
       <r>    9.6161    1.0000 </r>
       <r>   26.1720    0.0000 </r>
       <r>   27.2538    0.0000 </r>
       <r>   31.2887    0.0000 </r>
       <r>   32.2943    0.0000 </r>
       <r>   34.6027    0.0000 </r>
       <r>   36.6559    0.0000 </r>
       <r>   37.9250    0.0000 </r>
       <r>   41.7330    0.0000 </r>
       <r>   42.8138    0.0000 </r>
       <r>   46.4482    0.0000 </r>
       <r>   48.0528    0.0000 </r>
       <r>   49.8666    0.0000 </r>
       <r>   51.8484    0.0000 </r>
       <r>   52.8430    0.0000 </r>
       <r>   59.2797    0.0000 </r>
      </set>
      <set comment="kpoint 10">
       <r>  -41.4250    1.0000 </r>
       <r>  -41.4042    1.0000 </r>
       <r>  -41.4017    1.0000 </r>
       <r>    1.6891    1.0000 </r>
       <r>    7.3206    1.0000 </r>
       <r>    7.6560    1.0000 </r>
       <r>    7.6630    1.0000 </r>
       <r>    9.2896    1.0000 </r>
       <r>    9.5288    1.0000 </r>
       <r>   26.2187    0.0000 </r>
       <r>   29.0443    0.0000 </r>
       <r>   30.4942    0.0000 </r>
       <r>   30.7575    0.0000 </r>
       <r>   37.1677    0.0000 </r>
       <r>   39.0242    0.0000 </r>
       <r>   39.2378    0.0000 </r>
       <r>   41.1165    0.0000 </r>
       <r>   42.1932    0.0000 </r>
       <r>   45.9881    0.0000 </r>
       <r>   46.4329    0.0000 </r>
       <r>   49.7387    0.0000 </r>
       <r>   51.8255    0.0000 </r>
       <r>   51.8768    0.0000 </r>
       <r>   58.5403    0.0000 </r>
      </set>
      <set comment="kpoint 11">
       <r>  -41.4584    1.0000 </r>
       <r>  -41.4169    1.0000 </r>
       <r>  -41.4143    1.0000 </r>
       <r>    2.1781    1.0000 </r>
       <r>    7.0408    1.0000 </r>
       <r>    7.8966    1.0000 </r>
       <r>    7.9025    1.0000 </r>
       <r>    8.9935    1.0000 </r>
       <r>    9.6660    1.0000 </r>
       <r>   26.9025    0.0000 </r>
       <r>   28.3198    0.0000 </r>
       <r>   30.3128    0.0000 </r>
       <r>   30.7099    0.0000 </r>
       <r>   36.7563    0.0000 </r>
       <r>   37.6689    0.0000 </r>
       <r>   39.1549    0.0000 </r>
       <r>   39.9741    0.0000 </r>
       <r>   41.8024    0.0000 </r>
       <r>   47.4697    0.0000 </r>
       <r>   48.0466    0.0000 </r>
       <r>   48.4495    0.0000 </r>
       <r>   51.8435    0.0000 </r>
       <r>   52.5916    0.0000 </r>
       <r>   59.8247    0.0000 </r>
      </set>
      <set comment="kpoint 12">
       <r>  -41.5285    1.0000 </r>
       <r>  -41.4418    1.0000 </r>
       <r>  -41.4244    1.0000 </r>
       <r>    3.0658    1.0000 </r>
       <r>    6.7154    1.0000 </r>
       <r>    8.0061    1.0000 </r>
       <r>    8.2402    1.0000 </r>
       <r>    8.8950    1.0000 </r>
       <r>    9.9295    1.0000 </r>
       <r>   26.4547    0.0000 </r>
       <r>   27.7475    0.0000 </r>
       <r>   29.8538    0.0000 </r>
       <r>   31.1193    0.0000 </r>
       <r>   34.5895    0.0000 </r>
       <r>   36.8823    0.0000 </r>
       <r>   37.7325    0.0000 </r>
       <r>   41.2971    0.0000 </r>
       <r>   43.2868    0.0000 </r>
       <r>   46.6868    0.0000 </r>
       <r>   47.6279    0.0000 </r>
       <r>   50.8526    0.0000 </r>
       <r>   51.8479    0.0000 </r>
       <r>   53.9366    0.0000 </r>
       <r>   59.5975    0.0000 </r>
      </set>
      <set comment="kpoint 13">
       <r>  -41.6287    1.0000 </r>
       <r>  -41.4646    1.0000 </r>
       <r>  -41.4409    1.0000 </r>
       <r>    4.1748    1.0000 </r>
       <r>    6.7473    1.0000 </r>
       <r>    7.6186    1.0000 </r>
       <r>    8.2513    1.0000 </r>
       <r>    9.6789    1.0000 </r>
       <r>   10.6040    1.0000 </r>
       <r>   23.0072    0.0000 </r>
       <r>   27.3750    0.0000 </r>
       <r>   29.0775    0.0000 </r>
       <r>   31.2905    0.0000 </r>
       <r>   35.1186    0.0000 </r>
       <r>   36.1242    0.0000 </r>
       <r>   38.0600    0.0000 </r>
       <r>   40.6804    0.0000 </r>
       <r>   46.3570    0.0000 </r>
       <r>   47.5277    0.0000 </r>
       <r>   48.3971    0.0000 </r>
       <r>   51.2078    0.0000 </r>
       <r>   51.8514    0.0000 </r>
       <r>   55.5835    0.0000 </r>
       <r>   57.5641    0.0000 </r>
      </set>
      <set comment="kpoint 14">
       <r>  -41.7148    1.0000 </r>
       <r>  -41.4818    1.0000 </r>
       <r>  -41.4581    1.0000 </r>
       <r>    4.6538    1.0000 </r>
       <r>    7.2322    1.0000 </r>
       <r>    7.7381    1.0000 </r>
       <r>    8.0560    1.0000 </r>
       <r>   10.6731    1.0000 </r>
       <r>   11.7518    0.0000 </r>
       <r>   19.1489    0.0000 </r>
       <r>   26.4131    0.0000 </r>
       <r>   28.0610    0.0000 </r>
       <r>   30.2087    0.0000 </r>
       <r>   36.2490    0.0000 </r>
       <r>   38.2194    0.0000 </r>
       <r>   39.2759    0.0000 </r>
       <r>   40.9455    0.0000 </r>
       <r>   47.3810    0.0000 </r>
       <r>   47.9778    0.0000 </r>
       <r>   49.1779    0.0000 </r>
       <r>   51.8500    0.0000 </r>
       <r>   53.1623    0.0000 </r>
       <r>   54.4776    0.0000 </r>
       <r>   56.0790    0.0000 </r>
      </set>
      <set comment="kpoint 15">
       <r>  -41.7538    1.0000 </r>
       <r>  -41.4926    1.0000 </r>
       <r>  -41.4640    1.0000 </r>
       <r>    4.6976    1.0000 </r>
       <r>    7.0759    1.0000 </r>
       <r>    7.8813    1.0000 </r>
       <r>    8.7417    1.0000 </r>
       <r>   10.9357    0.9081 </r>
       <r>   13.3662    0.0000 </r>
       <r>   16.3074    0.0000 </r>
       <r>   25.9206    0.0000 </r>
       <r>   27.7477    0.0000 </r>
       <r>   29.0365    0.0000 </r>
       <r>   37.5737    0.0000 </r>
       <r>   38.3793    0.0000 </r>
       <r>   40.9795    0.0000 </r>
       <r>   43.1860    0.0000 </r>
       <r>   45.5158    0.0000 </r>
       <r>   47.0409    0.0000 </r>
       <r>   50.3345    0.0000 </r>
       <r>   51.6824    0.0000 </r>
       <r>   51.8525    0.0000 </r>
       <r>   55.2672    0.0000 </r>
       <r>   57.0047    0.0000 </r>
      </set>
      <set comment="kpoint 16">
       <r>  -41.7322    1.0000 </r>
       <r>  -41.4936    1.0000 </r>
       <r>  -41.4543    1.0000 </r>
       <r>    4.7077    1.0000 </r>
       <r>    7.1811    1.0000 </r>
       <r>    7.9083    1.0000 </r>
       <r>    8.3134    1.0000 </r>
       <r>   10.5026    1.0000 </r>
       <r>   12.4684    0.0000 </r>
       <r>   18.0600    0.0000 </r>
       <r>   26.0533    0.0000 </r>
       <r>   27.6245    0.0000 </r>
       <r>   30.2574    0.0000 </r>
       <r>   36.1386    0.0000 </r>
       <r>   38.2985    0.0000 </r>
       <r>   40.3789    0.0000 </r>
       <r>   42.6357    0.0000 </r>
       <r>   46.2294    0.0000 </r>
       <r>   47.6650    0.0000 </r>
       <r>   48.8316    0.0000 </r>
       <r>   51.8583    0.0000 </r>
       <r>   53.2329    0.0000 </r>
       <r>   55.3388    0.0000 </r>
       <r>   56.1634    0.0000 </r>
      </set>
      <set comment="kpoint 17">
       <r>  -41.6590    1.0000 </r>
       <r>  -41.4815    1.0000 </r>
       <r>  -41.4364    1.0000 </r>
       <r>    4.4578    1.0000 </r>
       <r>    7.0613    1.0000 </r>
       <r>    7.5199    1.0000 </r>
       <r>    8.1425    1.0000 </r>
       <r>    9.6058    1.0000 </r>
       <r>   11.2055    0.0000 </r>
       <r>   21.7363    0.0000 </r>
       <r>   26.7124    0.0000 </r>
       <r>   28.5460    0.0000 </r>
       <r>   32.2131    0.0000 </r>
       <r>   34.0892    0.0000 </r>
       <r>   37.2433    0.0000 </r>
       <r>   39.1409    0.0000 </r>
       <r>   40.7742    0.0000 </r>
       <r>   45.8047    0.0000 </r>
       <r>   46.7848    0.0000 </r>
       <r>   50.3246    0.0000 </r>
       <r>   51.8540    0.0000 </r>
       <r>   52.1322    0.0000 </r>
       <r>   55.3400    0.0000 </r>
       <r>   56.5979    0.0000 </r>
      </set>
      <set comment="kpoint 18">
       <r>  -41.5627    1.0000 </r>
       <r>  -41.4566    1.0000 </r>
       <r>  -41.4187    1.0000 </r>
       <r>    3.4521    1.0000 </r>
       <r>    6.7544    1.0000 </r>
       <r>    7.8648    1.0000 </r>
       <r>    8.2710    1.0000 </r>
       <r>    8.8998    1.0000 </r>
       <r>   10.2274    1.0000 </r>
       <r>   25.2265    0.0000 </r>
       <r>   27.4103    0.0000 </r>
       <r>   30.1043    0.0000 </r>
       <r>   31.1369    0.0000 </r>
       <r>   34.7725    0.0000 </r>
       <r>   36.9682    0.0000 </r>
       <r>   38.2681    0.0000 </r>
       <r>   40.3341    0.0000 </r>
       <r>   44.1578    0.0000 </r>
       <r>   45.8530    0.0000 </r>
       <r>   47.9522    0.0000 </r>
       <r>   51.8498    0.0000 </r>
       <r>   52.6349    0.0000 </r>
       <r>   54.3235    0.0000 </r>
       <r>   58.5129    0.0000 </r>
      </set>
      <set comment="kpoint 19">
       <r>  -41.4850    1.0000 </r>
       <r>  -41.4237    1.0000 </r>
       <r>  -41.4086    1.0000 </r>
       <r>    2.4039    1.0000 </r>
       <r>    7.0360    1.0000 </r>
       <r>    7.8965    1.0000 </r>
       <r>    7.9141    1.0000 </r>
       <r>    9.0443    1.0000 </r>
       <r>    9.6677    1.0000 </r>
       <r>   27.0231    0.0000 </r>
       <r>   27.2881    0.0000 </r>
       <r>   30.3612    0.0000 </r>
       <r>   31.9700    0.0000 </r>
       <r>   34.9586    0.0000 </r>
       <r>   37.7071    0.0000 </r>
       <r>   39.3043    0.0000 </r>
       <r>   40.9184    0.0000 </r>
       <r>   41.3702    0.0000 </r>
       <r>   46.3865    0.0000 </r>
       <r>   48.2909    0.0000 </r>
       <r>   49.6207    0.0000 </r>
       <r>   51.8416    0.0000 </r>
       <r>   53.0307    0.0000 </r>
       <r>   59.3954    0.0000 </r>
      </set>
      <set comment="kpoint 20">
       <r>  -41.5563    1.0000 </r>
       <r>  -41.4555    1.0000 </r>
       <r>  -41.4550    1.0000 </r>
       <r>    3.6574    1.0000 </r>
       <r>    6.2773    1.0000 </r>
       <r>    8.1533    1.0000 </r>
       <r>    8.7050    1.0000 </r>
       <r>    8.9187    1.0000 </r>
       <r>   10.0943    1.0000 </r>
       <r>   27.1159    0.0000 </r>
       <r>   28.4162    0.0000 </r>
       <r>   28.6773    0.0000 </r>
       <r>   29.4447    0.0000 </r>
       <r>   32.5906    0.0000 </r>
       <r>   37.1103    0.0000 </r>
       <r>   37.2842    0.0000 </r>
       <r>   42.8251    0.0000 </r>
       <r>   44.3708    0.0000 </r>
       <r>   45.4005    0.0000 </r>
       <r>   50.2086    0.0000 </r>
       <r>   50.8711    0.0000 </r>
       <r>   51.8545    0.0000 </r>
       <r>   52.7265    0.0000 </r>
       <r>   62.0426    0.0000 </r>
      </set>
      <set comment="kpoint 21">
       <r>  -41.6237    1.0000 </r>
       <r>  -41.4871    1.0000 </r>
       <r>  -41.4705    1.0000 </r>
       <r>    4.5393    1.0000 </r>
       <r>    5.9921    1.0000 </r>
       <r>    7.7894    1.0000 </r>
       <r>    9.1305    1.0000 </r>
       <r>    9.6950    1.0000 </r>
       <r>   10.6415    1.0000 </r>
       <r>   24.6380    0.0000 </r>
       <r>   26.5924    0.0000 </r>
       <r>   27.8810    0.0000 </r>
       <r>   30.4203    0.0000 </r>
       <r>   32.2311    0.0000 </r>
       <r>   37.3545    0.0000 </r>
       <r>   38.5660    0.0000 </r>
       <r>   42.8335    0.0000 </r>
       <r>   43.6833    0.0000 </r>
       <r>   47.6504    0.0000 </r>
       <r>   50.4516    0.0000 </r>
       <r>   51.8489    0.0000 </r>
       <r>   52.2239    0.0000 </r>
       <r>   53.4611    0.0000 </r>
       <r>   60.2090    0.0000 </r>
      </set>
      <set comment="kpoint 22">
       <r>  -41.6879    1.0000 </r>
       <r>  -41.5185    1.0000 </r>
       <r>  -41.4859    1.0000 </r>
       <r>    5.1275    1.0000 </r>
       <r>    6.2466    1.0000 </r>
       <r>    7.4551    1.0000 </r>
       <r>    8.9652    1.0000 </r>
       <r>   10.7950    1.0000 </r>
       <r>   12.0389    0.0000 </r>
       <r>   20.5911    0.0000 </r>
       <r>   25.9049    0.0000 </r>
       <r>   26.2804    0.0000 </r>
       <r>   30.0720    0.0000 </r>
       <r>   35.0146    0.0000 </r>
       <r>   37.7581    0.0000 </r>
       <r>   39.5999    0.0000 </r>
       <r>   42.3992    0.0000 </r>
       <r>   45.1088    0.0000 </r>
       <r>   47.9430    0.0000 </r>
       <r>   50.3849    0.0000 </r>
       <r>   51.8471    0.0000 </r>
       <r>   53.7803    0.0000 </r>
       <r>   54.2974    0.0000 </r>
       <r>   57.9462    0.0000 </r>
      </set>
      <set comment="kpoint 23">
       <r>  -41.7188    1.0000 </r>
       <r>  -41.5498    1.0000 </r>
       <r>  -41.4881    1.0000 </r>
       <r>    5.3024    1.0000 </r>
       <r>    6.5717    1.0000 </r>
       <r>    7.6641    1.0000 </r>
       <r>    8.7171    1.0000 </r>
       <r>   10.9768    0.5663 </r>
       <r>   14.5243    0.0000 </r>
       <r>   17.0121    0.0000 </r>
       <r>   24.7301    0.0000 </r>
       <r>   26.3341    0.0000 </r>
       <r>   29.2726    0.0000 </r>
       <r>   37.0487    0.0000 </r>
       <r>   38.8721    0.0000 </r>
       <r>   39.6403    0.0000 </r>
       <r>   42.9911    0.0000 </r>
       <r>   46.4472    0.0000 </r>
       <r>   47.7739    0.0000 </r>
       <r>   49.4814    0.0000 </r>
       <r>   51.8561    0.0000 </r>
       <r>   52.6634    0.0000 </r>
       <r>   55.0647    0.0000 </r>
       <r>   57.6588    0.0000 </r>
      </set>
      <set comment="kpoint 24">
       <r>  -41.7094    1.0000 </r>
       <r>  -41.5676    1.0000 </r>
       <r>  -41.4755    1.0000 </r>
       <r>    5.5008    1.0000 </r>
       <r>    6.6657    1.0000 </r>
       <r>    7.6646    1.0000 </r>
       <r>    8.5903    1.0000 </r>
       <r>   10.4479    1.0000 </r>
       <r>   14.3252    0.0000 </r>
       <r>   17.7304    0.0000 </r>
       <r>   23.6647    0.0000 </r>
       <r>   27.3892    0.0000 </r>
       <r>   29.4792    0.0000 </r>
       <r>   36.0974    0.0000 </r>
       <r>   38.2268    0.0000 </r>
       <r>   41.1518    0.0000 </r>
       <r>   44.3150    0.0000 </r>
       <r>   45.9735    0.0000 </r>
       <r>   47.6438    0.0000 </r>
       <r>   49.2767    0.0000 </r>
       <r>   51.1238    0.0000 </r>
       <r>   51.8601    0.0000 </r>
       <r>   54.8214    0.0000 </r>
       <r>   56.9295    0.0000 </r>
      </set>
      <set comment="kpoint 25">
       <r>  -41.6738    1.0000 </r>
       <r>  -41.5529    1.0000 </r>
       <r>  -41.4545    1.0000 </r>
       <r>    5.5318    1.0000 </r>
       <r>    6.7664    1.0000 </r>
       <r>    7.0392    1.0000 </r>
       <r>    8.6837    1.0000 </r>
       <r>    9.5625    1.0000 </r>
       <r>   12.7014    0.0000 </r>
       <r>   20.9704    0.0000 </r>
       <r>   23.7507    0.0000 </r>
       <r>   28.0645    0.0000 </r>
       <r>   31.6105    0.0000 </r>
       <r>   33.4685    0.0000 </r>
       <r>   38.2780    0.0000 </r>
       <r>   41.2784    0.0000 </r>
       <r>   42.5687    0.0000 </r>
       <r>   44.6002    0.0000 </r>
       <r>   46.5469    0.0000 </r>
       <r>   50.6940    0.0000 </r>
       <r>   51.8521    0.0000 </r>
       <r>   53.9899    0.0000 </r>
       <r>   54.8465    0.0000 </r>
       <r>   55.5009    0.0000 </r>
      </set>
      <set comment="kpoint 26">
       <r>  -41.6327    1.0000 </r>
       <r>  -41.5009    1.0000 </r>
       <r>  -41.4341    1.0000 </r>
       <r>    4.6074    1.0000 </r>
       <r>    6.6327    1.0000 </r>
       <r>    7.4955    1.0000 </r>
       <r>    8.5446    1.0000 </r>
       <r>    9.0605    1.0000 </r>
       <r>   11.3204    0.0000 </r>
       <r>   23.0354    0.0000 </r>
       <r>   25.9301    0.0000 </r>
       <r>   28.8008    0.0000 </r>
       <r>   31.5991    0.0000 </r>
       <r>   34.1430    0.0000 </r>
       <r>   37.8384    0.0000 </r>
       <r>   39.1510    0.0000 </r>
       <r>   40.6787    0.0000 </r>
       <r>   44.5722    0.0000 </r>
       <r>   45.8976    0.0000 </r>
       <r>   50.4663    0.0000 </r>
       <r>   51.8513    0.0000 </r>
       <r>   53.7152    0.0000 </r>
       <r>   55.4873    0.0000 </r>
       <r>   56.5177    0.0000 </r>
      </set>
      <set comment="kpoint 27">
       <r>  -41.5892    1.0000 </r>
       <r>  -41.4440    1.0000 </r>
       <r>  -41.4228    1.0000 </r>
       <r>    3.5469    1.0000 </r>
       <r>    6.9349    1.0000 </r>
       <r>    7.8374    1.0000 </r>
       <r>    8.0382    1.0000 </r>
       <r>    9.2994    1.0000 </r>
       <r>   10.1417    1.0000 </r>
       <r>   24.0683    0.0000 </r>
       <r>   27.4414    0.0000 </r>
       <r>   30.5812    0.0000 </r>
       <r>   32.1831    0.0000 </r>
       <r>   34.8470    0.0000 </r>
       <r>   35.5414    0.0000 </r>
       <r>   37.2472    0.0000 </r>
       <r>   41.6149    0.0000 </r>
       <r>   45.0308    0.0000 </r>
       <r>   46.9570    0.0000 </r>
       <r>   47.9727    0.0000 </r>
       <r>   51.0247    0.0000 </r>
       <r>   51.8534    0.0000 </r>
       <r>   54.3489    0.0000 </r>
       <r>   58.9088    0.0000 </r>
      </set>
      <set comment="kpoint 28">
       <r>  -41.6620    1.0000 </r>
       <r>  -41.5017    1.0000 </r>
       <r>  -41.4994    1.0000 </r>
       <r>    4.7256    1.0000 </r>
       <r>    5.5372    1.0000 </r>
       <r>    8.6594    1.0000 </r>
       <r>    9.8024    1.0000 </r>
       <r>   10.1990    1.0000 </r>
       <r>   10.6159    1.0000 </r>
       <r>   24.5562    0.0000 </r>
       <r>   25.3443    0.0000 </r>
       <r>   26.0597    0.0000 </r>
       <r>   29.7221    0.0000 </r>
       <r>   31.4007    0.0000 </r>
       <r>   39.2843    0.0000 </r>
       <r>   39.6643    0.0000 </r>
       <r>   41.7552    0.0000 </r>
       <r>   44.7306    0.0000 </r>
       <r>   47.5799    0.0000 </r>
       <r>   51.8447    0.0000 </r>
       <r>   52.6057    0.0000 </r>
       <r>   52.7164    0.0000 </r>
       <r>   53.5996    0.0000 </r>
       <r>   58.6876    0.0000 </r>
      </set>
      <set comment="kpoint 29">
       <r>  -41.7027    1.0000 </r>
       <r>  -41.5310    1.0000 </r>
       <r>  -41.5141    1.0000 </r>
       <r>    4.9217    1.0000 </r>
       <r>    5.4011    1.0000 </r>
       <r>    8.7870    1.0000 </r>
       <r>   10.1679    1.0000 </r>
       <r>   10.8107    1.0000 </r>
       <r>   11.9995    0.0000 </r>
       <r>   21.7407    0.0000 </r>
       <r>   23.7805    0.0000 </r>
       <r>   24.4934    0.0000 </r>
       <r>   30.7705    0.0000 </r>
       <r>   32.6072    0.0000 </r>
       <r>   38.9089    0.0000 </r>
       <r>   41.4272    0.0000 </r>
       <r>   42.8503    0.0000 </r>
       <r>   45.6337    0.0000 </r>
       <r>   46.7900    0.0000 </r>
       <r>   51.2828    0.0000 </r>
       <r>   51.8477    0.0000 </r>
       <r>   53.6544    0.0000 </r>
       <r>   55.4110    0.0000 </r>
       <r>   56.3485    0.0000 </r>
      </set>
      <set comment="kpoint 30">
       <r>  -41.7107    1.0000 </r>
       <r>  -41.5763    1.0000 </r>
       <r>  -41.5158    1.0000 </r>
       <r>    5.1514    1.0000 </r>
       <r>    5.7478    1.0000 </r>
       <r>    8.3959    1.0000 </r>
       <r>    9.7955    1.0000 </r>
       <r>   11.1011    0.0004 </r>
       <r>   14.7336    0.0000 </r>
       <r>   18.3561    0.0000 </r>
       <r>   22.4786    0.0000 </r>
       <r>   24.3709    0.0000 </r>
       <r>   30.8500    0.0000 </r>
       <r>   35.2024    0.0000 </r>
       <r>   38.0782    0.0000 </r>
       <r>   40.9556    0.0000 </r>
       <r>   44.9379    0.0000 </r>
       <r>   46.2626    0.0000 </r>
       <r>   47.0652    0.0000 </r>
       <r>   50.6615    0.0000 </r>
       <r>   51.8576    0.0000 </r>
       <r>   52.3427    0.0000 </r>
       <r>   54.8448    0.0000 </r>
       <r>   56.0624    0.0000 </r>
      </set>
      <set comment="kpoint 31">
       <r>  -41.6766    1.0000 </r>
       <r>  -41.6308    1.0000 </r>
       <r>  -41.5016    1.0000 </r>
       <r>    5.5155    1.0000 </r>
       <r>    6.3197    1.0000 </r>
       <r>    7.7684    1.0000 </r>
       <r>    9.3784    1.0000 </r>
       <r>   10.6691    1.0000 </r>
       <r>   15.7803    0.0000 </r>
       <r>   18.1206    0.0000 </r>
       <r>   20.8088    0.0000 </r>
       <r>   25.8855    0.0000 </r>
       <r>   30.2632    0.0000 </r>
       <r>   36.9662    0.0000 </r>
       <r>   38.3974    0.0000 </r>
       <r>   38.9621    0.0000 </r>
       <r>   45.2880    0.0000 </r>
       <r>   46.6251    0.0000 </r>
       <r>   49.2777    0.0000 </r>
       <r>   50.5066    0.0000 </r>
       <r>   50.7578    0.0000 </r>
       <r>   51.8594    0.0000 </r>
       <r>   53.7965    0.0000 </r>
       <r>   56.4110    0.0000 </r>
      </set>
      <set comment="kpoint 32">
       <r>  -41.6788    1.0000 </r>
       <r>  -41.6063    1.0000 </r>
       <r>  -41.4778    1.0000 </r>
       <r>    5.8408    1.0000 </r>
       <r>    6.6627    1.0000 </r>
       <r>    7.1685    1.0000 </r>
       <r>    8.9268    1.0000 </r>
       <r>   10.1355    1.0000 </r>
       <r>   14.1831    0.0000 </r>
       <r>   19.5649    0.0000 </r>
       <r>   21.7044    0.0000 </r>
       <r>   27.5925    0.0000 </r>
       <r>   29.9543    0.0000 </r>
       <r>   35.3564    0.0000 </r>
       <r>   38.1576    0.0000 </r>
       <r>   41.0123    0.0000 </r>
       <r>   44.0984    0.0000 </r>
       <r>   47.2663    0.0000 </r>
       <r>   48.0632    0.0000 </r>
       <r>   48.6944    0.0000 </r>
       <r>   51.7101    0.0000 </r>
       <r>   51.8555    0.0000 </r>
       <r>   53.1842    0.0000 </r>
       <r>   57.0246    0.0000 </r>
      </set>
      <set comment="kpoint 33">
       <r>  -41.7011    1.0000 </r>
       <r>  -41.5254    1.0000 </r>
       <r>  -41.4543    1.0000 </r>
       <r>    5.1102    1.0000 </r>
       <r>    7.0449    1.0000 </r>
       <r>    7.4679    1.0000 </r>
       <r>    8.3037    1.0000 </r>
       <r>   10.0213    1.0000 </r>
       <r>   12.6367    0.0000 </r>
       <r>   19.4965    0.0000 </r>
       <r>   25.2188    0.0000 </r>
       <r>   27.5934    0.0000 </r>
       <r>   30.9621    0.0000 </r>
       <r>   34.6504    0.0000 </r>
       <r>   38.2808    0.0000 </r>
       <r>   41.3249    0.0000 </r>
       <r>   41.8520    0.0000 </r>
       <r>   45.7992    0.0000 </r>
       <r>   47.1391    0.0000 </r>
       <r>   49.3048    0.0000 </r>
       <r>   51.8541    0.0000 </r>
       <r>   53.5663    0.0000 </r>
       <r>   54.9912    0.0000 </r>
       <r>   56.5724    0.0000 </r>
      </set>
      <set comment="kpoint 34">
       <r>  -41.6937    1.0000 </r>
       <r>  -41.4609    1.0000 </r>
       <r>  -41.4409    1.0000 </r>
       <r>    4.3006    1.0000 </r>
       <r>    7.5121    1.0000 </r>
       <r>    7.7717    1.0000 </r>
       <r>    7.8740    1.0000 </r>
       <r>   10.1698    1.0000 </r>
       <r>   10.9872    0.4493 </r>
       <r>   20.3239    0.0000 </r>
       <r>   26.4347    0.0000 </r>
       <r>   29.3551    0.0000 </r>
       <r>   31.6456    0.0000 </r>
       <r>   35.2541    0.0000 </r>
       <r>   37.0612    0.0000 </r>
       <r>   38.0089    0.0000 </r>
       <r>   42.1742    0.0000 </r>
       <r>   46.3537    0.0000 </r>
       <r>   48.3203    0.0000 </r>
       <r>   49.6996    0.0000 </r>
       <r>   51.7625    0.0000 </r>
       <r>   51.8527    0.0000 </r>
       <r>   54.9040    0.0000 </r>
       <r>   56.3021    0.0000 </r>
      </set>
      <set comment="kpoint 35">
       <r>  -41.7351    1.0000 </r>
       <r>  -41.5353    1.0000 </r>
       <r>  -41.5306    1.0000 </r>
       <r>    4.6256    1.0000 </r>
       <r>    5.0588    1.0000 </r>
       <r>   10.4703    1.0000 </r>
       <r>   10.7184    1.0000 </r>
       <r>   11.1414    0.0000 </r>
       <r>   12.1324    0.0000 </r>
       <r>   20.8101    0.0000 </r>
       <r>   22.7648    0.0000 </r>
       <r>   22.9520    0.0000 </r>
       <r>   30.3032    0.0000 </r>
       <r>   32.9774    0.0000 </r>
       <r>   39.3566    0.0000 </r>
       <r>   43.3072    0.0000 </r>
       <r>   43.8466    0.0000 </r>
       <r>   45.6304    0.0000 </r>
       <r>   47.4070    0.0000 </r>
       <r>   51.8438    0.0000 </r>
       <r>   52.5489    0.0000 </r>
       <r>   52.5519    0.0000 </r>
       <r>   53.2954    0.0000 </r>
       <r>   53.7545    0.0000 </r>
      </set>
      <set comment="kpoint 36">
       <r>  -41.7402    1.0000 </r>
       <r>  -41.5543    1.0000 </r>
       <r>  -41.5360    1.0000 </r>
       <r>    4.7166    1.0000 </r>
       <r>    5.1167    1.0000 </r>
       <r>    9.9933    1.0000 </r>
       <r>   10.6451    1.0000 </r>
       <r>   11.3307    0.0000 </r>
       <r>   14.2183    0.0000 </r>
       <r>   18.8820    0.0000 </r>
       <r>   21.8251    0.0000 </r>
       <r>   22.6514    0.0000 </r>
       <r>   31.3001    0.0000 </r>
       <r>   33.4229    0.0000 </r>
       <r>   38.6852    0.0000 </r>
       <r>   43.2841    0.0000 </r>
       <r>   45.8872    0.0000 </r>
       <r>   46.0855    0.0000 </r>
       <r>   47.8927    0.0000 </r>
       <r>   50.8866    0.0000 </r>
       <r>   51.7850    0.0000 </r>
       <r>   51.8619    0.0000 </r>
       <r>   52.2378    0.0000 </r>
       <r>   53.2574    0.0000 </r>
      </set>
      <set comment="kpoint 37">
       <r>  -41.7126    1.0000 </r>
       <r>  -41.5929    1.0000 </r>
       <r>  -41.5221    1.0000 </r>
       <r>    5.0886    1.0000 </r>
       <r>    5.6432    1.0000 </r>
       <r>    8.7581    1.0000 </r>
       <r>   10.0223    1.0000 </r>
       <r>   11.0901    0.0012 </r>
       <r>   16.0772    0.0000 </r>
       <r>   17.5703    0.0000 </r>
       <r>   21.1136    0.0000 </r>
       <r>   23.9942    0.0000 </r>
       <r>   31.2210    0.0000 </r>
       <r>   35.3040    0.0000 </r>
       <r>   37.9502    0.0000 </r>
       <r>   41.0013    0.0000 </r>
       <r>   45.9265    0.0000 </r>
       <r>   46.4120    0.0000 </r>
       <r>   48.4439    0.0000 </r>
       <r>   49.6297    0.0000 </r>
       <r>   51.8558    0.0000 </r>
       <r>   52.3140    0.0000 </r>
       <r>   53.4128    0.0000 </r>
       <r>   55.7553    0.0000 </r>
      </set>
      <set comment="kpoint 38">
       <r>  -41.7020    1.0000 </r>
       <r>  -41.5918    1.0000 </r>
       <r>  -41.4970    1.0000 </r>
       <r>    5.4701    1.0000 </r>
       <r>    6.3832    1.0000 </r>
       <r>    7.7100    1.0000 </r>
       <r>    9.0986    1.0000 </r>
       <r>   10.8365    1.0000 </r>
       <r>   16.1818    0.0000 </r>
       <r>   16.3481    0.0000 </r>
       <r>   22.7555    0.0000 </r>
       <r>   26.0318    0.0000 </r>
       <r>   29.8060    0.0000 </r>
       <r>   37.0094    0.0000 </r>
       <r>   38.6342    0.0000 </r>
       <r>   39.3068    0.0000 </r>
       <r>   44.7028    0.0000 </r>
       <r>   45.9354    0.0000 </r>
       <r>   48.4320    0.0000 </r>
       <r>   50.0882    0.0000 </r>
       <r>   51.8509    0.0000 </r>
       <r>   51.8775    0.0000 </r>
       <r>   54.6321    0.0000 </r>
       <r>   57.0789    0.0000 </r>
      </set>
      <set comment="kpoint 39">
       <r>  -41.7369    1.0000 </r>
       <r>  -41.5267    1.0000 </r>
       <r>  -41.4708    1.0000 </r>
       <r>    5.0734    1.0000 </r>
       <r>    6.8369    1.0000 </r>
       <r>    8.2012    1.0000 </r>
       <r>    8.2196    1.0000 </r>
       <r>   10.7643    1.0000 </r>
       <r>   14.2963    0.0000 </r>
       <r>   16.3806    0.0000 </r>
       <r>   25.3833    0.0000 </r>
       <r>   27.1534    0.0000 </r>
       <r>   29.0447    0.0000 </r>
       <r>   37.0273    0.0000 </r>
       <r>   38.3021    0.0000 </r>
       <r>   41.3357    0.0000 </r>
       <r>   44.1504    0.0000 </r>
       <r>   44.8116    0.0000 </r>
       <r>   47.4914    0.0000 </r>
       <r>   50.0648    0.0000 </r>
       <r>   50.7551    0.0000 </r>
       <r>   51.8578    0.0000 </r>
       <r>   55.6148    0.0000 </r>
       <r>   56.9721    0.0000 </r>
      </set>
      <set comment="kpoint 40">
       <r>  -41.7572    1.0000 </r>
       <r>  -41.4693    1.0000 </r>
       <r>  -41.4546    1.0000 </r>
       <r>    4.4205    1.0000 </r>
       <r>    7.3095    1.0000 </r>
       <r>    7.6616    1.0000 </r>
       <r>    9.1776    1.0000 </r>
       <r>   10.8707    0.9992 </r>
       <r>   12.1390    0.0000 </r>
       <r>   16.9819    0.0000 </r>
       <r>   25.7108    0.0000 </r>
       <r>   28.6496    0.0000 </r>
       <r>   29.6732    0.0000 </r>
       <r>   37.4447    0.0000 </r>
       <r>   38.3202    0.0000 </r>
       <r>   39.8197    0.0000 </r>
       <r>   43.5534    0.0000 </r>
       <r>   46.1657    0.0000 </r>
       <r>   46.3734    0.0000 </r>
       <r>   50.7888    0.0000 </r>
       <r>   51.8513    0.0000 </r>
       <r>   53.1624    0.0000 </r>
       <r>   55.1141    0.0000 </r>
       <r>   55.9073    0.0000 </r>
      </set>
      <set comment="kpoint 41">
       <r>  -41.7501    1.0000 </r>
       <r>  -41.5427    1.0000 </r>
       <r>  -41.5372    1.0000 </r>
       <r>    4.5412    1.0000 </r>
       <r>    4.9578    1.0000 </r>
       <r>   10.8838    0.9974 </r>
       <r>   10.9331    0.9197 </r>
       <r>   11.3483    0.0000 </r>
       <r>   13.1443    0.0000 </r>
       <r>   19.3242    0.0000 </r>
       <r>   22.1151    0.0000 </r>
       <r>   22.3877    0.0000 </r>
       <r>   30.5545    0.0000 </r>
       <r>   33.3231    0.0000 </r>
       <r>   39.0453    0.0000 </r>
       <r>   44.3073    0.0000 </r>
       <r>   45.8069    0.0000 </r>
       <r>   45.8942    0.0000 </r>
       <r>   48.2777    0.0000 </r>
       <r>   50.1564    0.0000 </r>
       <r>   50.6645    0.0000 </r>
       <r>   51.8537    0.0000 </r>
       <r>   53.0237    0.0000 </r>
       <r>   53.8665    0.0000 </r>
      </set>
      <set comment="kpoint 42">
       <r>  -41.7278    1.0000 </r>
       <r>  -41.5463    1.0000 </r>
       <r>  -41.5287    1.0000 </r>
       <r>    4.8045    1.0000 </r>
       <r>    5.2132    1.0000 </r>
       <r>    9.5116    1.0000 </r>
       <r>   10.5312    1.0000 </r>
       <r>   11.1255    0.0000 </r>
       <r>   13.1556    0.0000 </r>
       <r>   20.1675    0.0000 </r>
       <r>   22.5606    0.0000 </r>
       <r>   23.2468    0.0000 </r>
       <r>   31.0646    0.0000 </r>
       <r>   33.1375    0.0000 </r>
       <r>   38.8520    0.0000 </r>
       <r>   42.7642    0.0000 </r>
       <r>   44.0723    0.0000 </r>
       <r>   46.0571    0.0000 </r>
       <r>   47.2620    0.0000 </r>
       <r>   51.2723    0.0000 </r>
       <r>   51.8492    0.0000 </r>
       <r>   52.4877    0.0000 </r>
       <r>   53.7946    0.0000 </r>
       <r>   54.3907    0.0000 </r>
      </set>
      <set comment="kpoint 43">
       <r>  -41.7038    1.0000 </r>
       <r>  -41.5493    1.0000 </r>
       <r>  -41.5034    1.0000 </r>
       <r>    5.2099    1.0000 </r>
       <r>    5.9592    1.0000 </r>
       <r>    7.8745    1.0000 </r>
       <r>    9.4037    1.0000 </r>
       <r>   11.0376    0.0600 </r>
       <r>   13.2854    0.0000 </r>
       <r>   19.3868    0.0000 </r>
       <r>   24.2936    0.0000 </r>
       <r>   25.1230    0.0000 </r>
       <r>   30.3471    0.0000 </r>
       <r>   35.0832    0.0000 </r>
       <r>   38.0898    0.0000 </r>
       <r>   40.4714    0.0000 </r>
       <r>   43.6948    0.0000 </r>
       <r>   45.6047    0.0000 </r>
       <r>   47.0540    0.0000 </r>
       <r>   50.4629    0.0000 </r>
       <r>   51.8536    0.0000 </r>
       <r>   53.3264    0.0000 </r>
       <r>   55.4599    0.0000 </r>
       <r>   57.7307    0.0000 </r>
      </set>
      <set comment="kpoint 44">
       <r>  -41.7234    1.0000 </r>
       <r>  -41.5117    1.0000 </r>
       <r>  -41.4748    1.0000 </r>
       <r>    5.0080    1.0000 </r>
       <r>    6.8821    1.0000 </r>
       <r>    7.6775    1.0000 </r>
       <r>    8.3491    1.0000 </r>
       <r>   10.9531    0.7982 </r>
       <r>   12.9632    0.0000 </r>
       <r>   18.0211    0.0000 </r>
       <r>   26.1739    0.0000 </r>
       <r>   26.8948    0.0000 </r>
       <r>   29.2574    0.0000 </r>
       <r>   36.8655    0.0000 </r>
       <r>   39.0146    0.0000 </r>
       <r>   39.5782    0.0000 </r>
       <r>   41.3702    0.0000 </r>
       <r>   47.4522    0.0000 </r>
       <r>   47.6311    0.0000 </r>
       <r>   48.8115    0.0000 </r>
       <r>   51.8528    0.0000 </r>
       <r>   53.3557    0.0000 </r>
       <r>   54.6948    0.0000 </r>
       <r>   57.4693    0.0000 </r>
      </set>
      <set comment="kpoint 45">
       <r>  -41.7046    1.0000 </r>
       <r>  -41.5213    1.0000 </r>
       <r>  -41.5176    1.0000 </r>
       <r>    4.7376    1.0000 </r>
       <r>    5.2555    1.0000 </r>
       <r>    9.5967    1.0000 </r>
       <r>   10.3373    1.0000 </r>
       <r>   10.8753    0.9988 </r>
       <r>   11.0530    0.0234 </r>
       <r>   22.7845    0.0000 </r>
       <r>   23.9834    0.0000 </r>
       <r>   24.0708    0.0000 </r>
       <r>   29.9392    0.0000 </r>
       <r>   32.3136    0.0000 </r>
       <r>   39.8004    0.0000 </r>
       <r>   41.4288    0.0000 </r>
       <r>   42.0352    0.0000 </r>
       <r>   46.0134    0.0000 </r>
       <r>   46.5659    0.0000 </r>
       <r>   51.8413    0.0000 </r>
       <r>   52.9290    0.0000 </r>
       <r>   53.1555    0.0000 </r>
       <r>   55.4221    0.0000 </r>
       <r>   55.7720    0.0000 </r>
      </set>
      <set comment="kpoint 46">
       <r>  -41.6672    1.0000 </r>
       <r>  -41.5104    1.0000 </r>
       <r>  -41.4941    1.0000 </r>
       <r>    4.9103    1.0000 </r>
       <r>    5.6671    1.0000 </r>
       <r>    8.0982    1.0000 </r>
       <r>    9.6574    1.0000 </r>
       <r>   10.3289    1.0000 </r>
       <r>   11.1548    0.0000 </r>
       <r>   23.2688    0.0000 </r>
       <r>   25.1583    0.0000 </r>
       <r>   26.2310    0.0000 </r>
       <r>   30.6519    0.0000 </r>
       <r>   32.0079    0.0000 </r>
       <r>   38.3606    0.0000 </r>
       <r>   39.8821    0.0000 </r>
       <r>   42.7813    0.0000 </r>
       <r>   44.1258    0.0000 </r>
       <r>   47.5697    0.0000 </r>
       <r>   51.5397    0.0000 </r>
       <r>   51.8475    0.0000 </r>
       <r>   53.5531    0.0000 </r>
       <r>   53.8011    0.0000 </r>
       <r>   58.3920    0.0000 </r>
      </set>
      <set comment="kpoint 47">
       <r>  -41.6625    1.0000 </r>
       <r>  -41.4895    1.0000 </r>
       <r>  -41.4640    1.0000 </r>
       <r>    4.7620    1.0000 </r>
       <r>    6.5231    1.0000 </r>
       <r>    7.3891    1.0000 </r>
       <r>    8.5660    1.0000 </r>
       <r>   10.2899    1.0000 </r>
       <r>   11.1665    0.0000 </r>
       <r>   21.8372    0.0000 </r>
       <r>   26.9806    0.0000 </r>
       <r>   27.5962    0.0000 </r>
       <r>   30.4252    0.0000 </r>
       <r>   35.0269    0.0000 </r>
       <r>   37.0858    0.0000 </r>
       <r>   38.7633    0.0000 </r>
       <r>   41.1173    0.0000 </r>
       <r>   45.6109    0.0000 </r>
       <r>   48.0157    0.0000 </r>
       <r>   50.9012    0.0000 </r>
       <r>   51.2112    0.0000 </r>
       <r>   51.8455    0.0000 </r>
       <r>   54.5786    0.0000 </r>
       <r>   58.0451    0.0000 </r>
      </set>
      <set comment="kpoint 48">
       <r>  -41.6104    1.0000 </r>
       <r>  -41.4787    1.0000 </r>
       <r>  -41.4778    1.0000 </r>
       <r>    4.3652    1.0000 </r>
       <r>    5.8862    1.0000 </r>
       <r>    8.1520    1.0000 </r>
       <r>    9.2343    1.0000 </r>
       <r>    9.4917    1.0000 </r>
       <r>   10.3528    1.0000 </r>
       <r>   26.0562    0.0000 </r>
       <r>   26.8854    0.0000 </r>
       <r>   27.9290    0.0000 </r>
       <r>   30.0583    0.0000 </r>
       <r>   30.6294    0.0000 </r>
       <r>   38.0271    0.0000 </r>
       <r>   38.2201    0.0000 </r>
       <r>   42.8635    0.0000 </r>
       <r>   43.6596    0.0000 </r>
       <r>   47.5817    0.0000 </r>
       <r>   51.1900    0.0000 </r>
       <r>   51.8476    0.0000 </r>
       <r>   51.8562    0.0000 </r>
       <r>   52.5921    0.0000 </r>
       <r>   61.1451    0.0000 </r>
      </set>
      <set comment="kpoint 49">
       <r>  -41.5760    1.0000 </r>
       <r>  -41.4637    1.0000 </r>
       <r>  -41.4462    1.0000 </r>
       <r>    3.8364    1.0000 </r>
       <r>    6.3525    1.0000 </r>
       <r>    7.8808    1.0000 </r>
       <r>    8.6508    1.0000 </r>
       <r>    9.1440    1.0000 </r>
       <r>   10.2565    1.0000 </r>
       <r>   25.6883    0.0000 </r>
       <r>   27.7321    0.0000 </r>
       <r>   29.1890    0.0000 </r>
       <r>   30.0524    0.0000 </r>
       <r>   33.7269    0.0000 </r>
       <r>   36.5025    0.0000 </r>
       <r>   37.6913    0.0000 </r>
       <r>   41.8983    0.0000 </r>
       <r>   44.8575    0.0000 </r>
       <r>   46.2715    0.0000 </r>
       <r>   48.4979    0.0000 </r>
       <r>   51.8422    0.0000 </r>
       <r>   51.8755    0.0000 </r>
       <r>   53.9345    0.0000 </r>
       <r>   60.0869    0.0000 </r>
      </set>
      <set comment="kpoint 50">
       <r>  -41.5039    1.0000 </r>
       <r>  -41.4346    1.0000 </r>
       <r>  -41.4331    1.0000 </r>
       <r>    2.8640    1.0000 </r>
       <r>    6.6765    1.0000 </r>
       <r>    8.1858    1.0000 </r>
       <r>    8.2537    1.0000 </r>
       <r>    8.7062    1.0000 </r>
       <r>    9.8592    1.0000 </r>
       <r>   27.6440    0.0000 </r>
       <r>   27.9241    0.0000 </r>
       <r>   29.6496    0.0000 </r>
       <r>   30.1621    0.0000 </r>
       <r>   35.0807    0.0000 </r>
       <r>   36.9081    0.0000 </r>
       <r>   37.3192    0.0000 </r>
       <r>   42.2038    0.0000 </r>
       <r>   42.5577    0.0000 </r>
       <r>   46.0688    0.0000 </r>
       <r>   49.3258    0.0000 </r>
       <r>   49.6339    0.0000 </r>
       <r>   51.8474    0.0000 </r>
       <r>   52.8466    0.0000 </r>
       <r>   61.1433    0.0000 </r>
      </set>
      <set comment="kpoint 51">
       <r>  -41.4745    1.0000 </r>
       <r>  -41.4071    1.0000 </r>
       <r>  -41.4071    1.0000 </r>
       <r>    2.1631    1.0000 </r>
       <r>    7.2190    1.0000 </r>
       <r>    7.7699    1.0000 </r>
       <r>    7.7699    1.0000 </r>
       <r>    9.3821    1.0000 </r>
       <r>    9.3821    1.0000 </r>
       <r>   26.7289    0.0000 </r>
       <r>   27.2192    0.0000 </r>
       <r>   31.5446    0.0000 </r>
       <r>   31.5446    0.0000 </r>
       <r>   35.6201    0.0000 </r>
       <r>   38.1766    0.0000 </r>
       <r>   38.1766    0.0000 </r>
       <r>   40.2305    0.0000 </r>
       <r>   44.6460    0.0000 </r>
       <r>   44.6460    0.0000 </r>
       <r>   47.3407    0.0000 </r>
       <r>   51.1579    0.0000 </r>
       <r>   51.1579    0.0000 </r>
       <r>   51.8415    0.0000 </r>
       <r>   58.8166    0.0000 </r>
      </set>
      <set comment="kpoint 52">
       <r>  -41.5217    1.0000 </r>
       <r>  -41.4374    1.0000 </r>
       <r>  -41.4089    1.0000 </r>
       <r>    2.8403    1.0000 </r>
       <r>    6.9531    1.0000 </r>
       <r>    7.9103    1.0000 </r>
       <r>    8.0218    1.0000 </r>
       <r>    8.9731    1.0000 </r>
       <r>    9.8522    1.0000 </r>
       <r>   26.1510    0.0000 </r>
       <r>   27.3686    0.0000 </r>
       <r>   30.2728    0.0000 </r>
       <r>   32.8622    0.0000 </r>
       <r>   33.4799    0.0000 </r>
       <r>   37.9575    0.0000 </r>
       <r>   38.4297    0.0000 </r>
       <r>   40.8579    0.0000 </r>
       <r>   42.2882    0.0000 </r>
       <r>   45.7064    0.0000 </r>
       <r>   48.3854    0.0000 </r>
       <r>   51.3183    0.0000 </r>
[...]
       </set>
       <set comment="band 3">
        <r>  0.0000  0.4970  0.0000  0.4970  0.0000  0.0000  0.0000  0.0000  0.0000 </r>
       </set>
       <set comment="band 4">
        <r>  0.1379  0.0000  0.0057  0.0000  0.1847  0.1377  0.0046  0.1377  0.0000 </r>
       </set>
       <set comment="band 5">
        <r>  0.0001  0.0010  0.0000  0.0010  0.1264  0.0734  0.5272  0.0734  0.0000 </r>
       </set>
       <set comment="band 6">
        <r>  0.0000  0.0006  0.0000  0.0006  0.0000  0.1819  0.0000  0.1819  0.4684 </r>
       </set>
       <set comment="band 7">
        <r>  0.0328  0.0217  0.0219  0.0217  0.3730  0.0073  0.0796  0.0073  0.0000 </r>
       </set>
       <set comment="band 8">
        <r>  0.0000  0.0001  0.0000  0.0001  0.0000  0.2678  0.0000  0.2678  0.4093 </r>
       </set>
       <set comment="band 9">
        <r>  0.0408  0.0137  0.0262  0.0137  0.0756  0.1533  0.2323  0.1533  0.0000 </r>
       </set>
       <set comment="band 10">
        <r>  0.2775  0.0215  0.0141  0.0215  0.1131  0.0874  0.0040  0.0874  0.0000 </r>
       </set>
       <set comment="band 11">
        <r>  0.0011  0.0018  0.0106  0.0018  0.0180  0.0001  0.0249  0.0001  0.0000 </r>
       </set>
       <set comment="band 12">
        <r>  0.0000  0.1139  0.0000  0.1139  0.0000  0.0131  0.0000  0.0131  0.0150 </r>
       </set>
       <set comment="band 13">
        <r>  0.0224  0.0326  0.1345  0.0326  0.0418  0.0063  0.0316  0.0063  0.0000 </r>
       </set>
       <set comment="band 14">
        <r>  0.0000  0.0011  0.0000  0.0011  0.0000  0.0281  0.0000  0.0281  0.1626 </r>
       </set>
       <set comment="band 15">
        <r>  0.0000  0.0089  0.0022  0.0089  0.0505  0.0164  0.1944  0.0164  0.0000 </r>
       </set>
       <set comment="band 16">
        <r>  0.0567  0.0282  0.0024  0.0282  0.0721  0.0178  0.0286  0.0178  0.0000 </r>
       </set>
       <set comment="band 17">
        <r>  0.1014  0.0373  0.0949  0.0373  0.0129  0.0297  0.0001  0.0297  0.0000 </r>
       </set>
       <set comment="band 18">
        <r>  0.0379  0.0015  0.0907  0.0015  0.0145  0.0325  0.0008  0.0325  0.0000 </r>
       </set>
       <set comment="band 19">
        <r>  0.0000  0.1269  0.0000  0.1269  0.0000  0.0343  0.0000  0.0343  0.0820 </r>
       </set>
       <set comment="band 20">
        <r>  0.0000  0.0765  0.0000  0.0765  0.0000  0.0258  0.0000  0.0258  0.0002 </r>
       </set>
       <set comment="band 21">
        <r>  6.2991  0.0000  0.0000  0.0000  0.0000  0.0000  0.0000  0.0000  0.0000 </r>
       </set>
       <set comment="band 22">
        <r>  0.0039  0.0097  0.0693  0.0097  0.0268  0.0022  0.0415  0.0022  0.0000 </r>
       </set>
       <set comment="band 23">
        <r>  0.0307  0.0041  0.0317  0.0041  0.1693  0.0091  0.0000  0.0091  0.0000 </r>
       </set>
       <set comment="band 24">
        <r>  0.0830  0.0014  0.0008  0.0014  0.0128  0.0009  0.0004  0.0009  0.0000 </r>
       </set>
      </set>
      <set comment="kpoint 106">
       <set comment="band 1">
        <r>  0.0000  0.2962  0.4061  0.2819  0.0000  0.0000  0.0000  0.0000  0.0000 </r>
       </set>
       <set comment="band 2">
        <r>  0.0000  0.0044  0.3622  0.6253  0.0000  0.0000  0.0000  0.0000  0.0000 </r>
       </set>
       <set comment="band 3">
        <r>  0.0000  0.6901  0.2208  0.0827  0.0000  0.0000  0.0000  0.0000  0.0000 </r>
       </set>
       <set comment="band 4">
        <r>  0.1042  0.0003  0.0068  0.0029  0.2179  0.1883  0.0065  0.1051  0.0010 </r>
       </set>
       <set comment="band 5">
        <r>  0.0000  0.0051  0.0001  0.0002  0.0641  0.1298  0.4398  0.0012  0.1196 </r>
       </set>
       <set comment="band 6">
        <r>  0.0076  0.0107  0.0095  0.0180  0.1726  0.1737  0.1558  0.0793  0.0560 </r>
       </set>
       <set comment="band 7">
        <r>  0.0038  0.0054  0.0112  0.0015  0.1788  0.0037  0.0286  0.1656  0.3759 </r>
       </set>
       <set comment="band 8">
        <r>  0.0006  0.0001  0.0011  0.0005  0.0823  0.0857  0.0672  0.4447  0.2458 </r>
       </set>
       <set comment="band 9">
        <r>  0.0733  0.0201  0.0378  0.0188  0.0181  0.2709  0.1278  0.0182  0.0525 </r>
       </set>
       <set comment="band 10">
        <r>  0.2922  0.0145  0.0089  0.0262  0.1308  0.0446  0.0081  0.0930  0.0174 </r>
       </set>
       <set comment="band 11">
        <r>  0.0072  0.0177  0.0000  0.0765  0.0464  0.0073  0.0361  0.0153  0.0383 </r>
       </set>
       <set comment="band 12">
        <r>  0.0368  0.0005  0.0954  0.0599  0.0073  0.0216  0.0470  0.0230  0.0085 </r>
       </set>
       <set comment="band 13">
        <r>  0.0030  0.1359  0.0445  0.0070  0.0128  0.0004  0.0230  0.0000  0.0001 </r>
       </set>
       <set comment="band 14">
        <r>  0.0002  0.0029  0.0040  0.0121  0.0380  0.0486  0.0057  0.0114  0.0904 </r>
       </set>
       <set comment="band 15">
        <r>  0.0000  0.0001  0.0017  0.0027  0.0717  0.0083  0.1174  0.0119  0.0013 </r>
       </set>
       <set comment="band 16">
        <r>  0.1789  0.0016  0.0051  0.0004  0.0186  0.0164  0.0120  0.0476  0.0013 </r>
       </set>
       <set comment="band 17">
        <r>  0.0242  0.1005  0.0465  0.0315  0.0157  0.0231  0.0183  0.0047  0.0393 </r>
       </set>
       <set comment="band 18">
        <r>  0.0051  0.1036  0.0468  0.0415  0.0022  0.0189  0.0002  0.0225  0.0457 </r>
       </set>
       <set comment="band 19">
        <r>  0.0195  0.0620  0.0547  0.0579  0.0001  0.0430  0.0456  0.0002  0.0289 </r>
       </set>
       <set comment="band 20">
        <r>  0.0000  0.0019  0.0009  0.0177  0.0006  0.0513  0.0051  0.0055  0.0002 </r>
       </set>
       <set comment="band 21">
        <r>  6.2908  0.0000  0.0000  0.0000  0.0001  0.0000  0.0000  0.0000  0.0000 </r>
       </set>
       <set comment="band 22">
        <r>  0.0048  0.0004  0.0151  0.0059  0.0587  0.0007  0.0090  0.0000  0.0115 </r>
       </set>
       <set comment="band 23">
        <r>  0.0201  0.0137  0.0360  0.0059  0.0278  0.0005  0.0028  0.0282  0.0328 </r>
       </set>
       <set comment="band 24">
        <r>  0.0097  0.0026  0.0617  0.0310  0.0274  0.0510  0.0007  0.0081  0.0166 </r>
       </set>
      </set>
      <set comment="kpoint 107">
       <set comment="band 1">
        <r>  0.0000  0.2459  0.3552  0.3844  0.0000  0.0000  0.0000  0.0000  0.0000 </r>
       </set>
       <set comment="band 2">
        <r>  0.0000  0.0520  0.3606  0.5770  0.0000  0.0000  0.0000  0.0000  0.0000 </r>
       </set>
       <set comment="band 3">
        <r>  0.0000  0.6930  0.2732  0.0267  0.0000  0.0000  0.0000  0.0000  0.0000 </r>
       </set>
       <set comment="band 4">
        <r>  0.0561  0.0000  0.0063  0.0051  0.0935  0.4002  0.0200  0.0402  0.0590 </r>
       </set>
       <set comment="band 5">
        <r>  0.0041  0.0118  0.0050  0.0008  0.0942  0.0014  0.3507  0.0154  0.1997 </r>
       </set>
       <set comment="band 6">
        <r>  0.0001  0.0068  0.0096  0.0215  0.3725  0.2090  0.0146  0.0315  0.0140 </r>
       </set>
       <set comment="band 7">
        <r>  0.0016  0.0002  0.0034  0.0017  0.0073  0.0005  0.2860  0.1408  0.4026 </r>
       </set>
       <set comment="band 8">
        <r>  0.0047  0.0000  0.0000  0.0004  0.1484  0.0293  0.0603  0.6005  0.0821 </r>
       </set>
       <set comment="band 9">
        <r>  0.2374  0.0152  0.0377  0.0077  0.0003  0.2135  0.0569  0.0206  0.0064 </r>
       </set>
       <set comment="band 10">
        <r>  0.1551  0.0164  0.0166  0.0631  0.1512  0.0005  0.0313  0.0656  0.0711 </r>
       </set>
       <set comment="band 11">
        <r>  0.0757  0.0148  0.0386  0.1077  0.0579  0.0071  0.0100  0.0375  0.0932 </r>
       </set>
       <set comment="band 12">
        <r>  0.0112  0.0508  0.0942  0.0001  0.0020  0.0421  0.1401  0.0022  0.0039 </r>
       </set>
       <set comment="band 13">
        <r>  0.0020  0.0977  0.0072  0.0046  0.0041  0.0460  0.0021  0.0000  0.0095 </r>
       </set>
       <set comment="band 14">
        <r>  0.0002  0.0000  0.0022  0.0102  0.0727  0.0429  0.0044  0.0066  0.0273 </r>
       </set>
       <set comment="band 15">
        <r>  0.0000  0.0003  0.0005  0.0093  0.0268  0.0159  0.0283  0.0122  0.0033 </r>
       </set>
       <set comment="band 16">
        <r>  0.1531  0.0582  0.0083  0.0011  0.0165  0.0101  0.0001  0.0042  0.0391 </r>
       </set>
       <set comment="band 17">
        <r>  0.0850  0.1343  0.0029  0.0015  0.0013  0.0673  0.0299  0.0017  0.0295 </r>
       </set>
       <set comment="band 18">
        <r>  0.0014  0.0010  0.0367  0.0241  0.0019  0.0038  0.0009  0.0289  0.0553 </r>
       </set>
       <set comment="band 19">
        <r>  0.0087  0.0492  0.1034  0.0013  0.0011  0.0530  0.1144  0.0017  0.0007 </r>
       </set>
       <set comment="band 20">
        <r>  0.0026  0.0150  0.0018  0.0370  0.0318  0.0099  0.0030  0.0049  0.0313 </r>
       </set>
       <set comment="band 21">
        <r>  0.0001  0.0038  0.0023  0.0021  0.0016  0.0117  0.0029  0.0008  0.0009 </r>
       </set>
       <set comment="band 22">
        <r>  6.2928  0.0000  0.0000  0.0000  0.0000  0.0000  0.0000  0.0000  0.0000 </r>
       </set>
       <set comment="band 23">
        <r>  0.0067  0.0002  0.0385  0.0573  0.0235  0.0236  0.0003  0.0197  0.0129 </r>
       </set>
       <set comment="band 24">
        <r>  0.0082  0.0051  0.0375  0.0052  0.0042  0.0013  0.0148  0.0159  0.0273 </r>
       </set>
      </set>
      <set comment="kpoint 108">
       <set comment="band 1">
        <r>  0.0000  0.2827  0.4189  0.2827  0.0000  0.0000  0.0000  0.0000  0.0000 </r>
       </set>
       <set comment="band 2">
        <r>  0.0000  0.2109  0.5694  0.2109  0.0000  0.0000  0.0000  0.0000  0.0000 </r>
       </set>
       <set comment="band 3">
        <r>  0.0000  0.4967  0.0000  0.4967  0.0000  0.0000  0.0000  0.0000  0.0000 </r>
       </set>
       <set comment="band 4">
        <r>  0.0854  0.0012  0.0063  0.0012  0.3321  0.0965  0.0348  0.0965  0.0000 </r>
       </set>
       <set comment="band 5">
        <r>  0.0010  0.0061  0.0003  0.0061  0.0086  0.0627  0.5738  0.0627  0.0000 </r>
       </set>
       <set comment="band 6">
        <r>  0.0065  0.0118  0.0231  0.0118  0.3131  0.1251  0.0381  0.1251  0.0000 </r>
       </set>
       <set comment="band 7">
        <r>  0.0000  0.0013  0.0000  0.0013  0.0000  0.1410  0.0000  0.1410  0.5574 </r>
       </set>
       <set comment="band 8">
        <r>  0.0000  0.0001  0.0000  0.0001  0.0000  0.3157  0.0000  0.3157  0.3087 </r>
       </set>
       <set comment="band 9">
        <r>  0.0027  0.0344  0.0584  0.0344  0.0825  0.0633  0.1706  0.0633  0.0000 </r>
       </set>
       <set comment="band 10">
        <r>  0.3804  0.0049  0.0004  0.0049  0.1207  0.0993  0.0007  0.0993  0.0000 </r>
       </set>
       <set comment="band 11">
        <r>  0.0385  0.0144  0.0992  0.0144  0.0002  0.0324  0.1210  0.0324  0.0000 </r>
       </set>
       <set comment="band 12">
        <r>  0.0000  0.1140  0.0000  0.1140  0.0000  0.0032  0.0000  0.0032  0.0693 </r>
       </set>
       <set comment="band 13">
        <r>  0.0232  0.0255  0.0245  0.0255  0.0830  0.0018  0.0036  0.0018  0.0000 </r>
       </set>
       <set comment="band 14">
        <r>  0.0000  0.0005  0.0000  0.0005  0.0000  0.0460  0.0000  0.0460  0.0847 </r>
       </set>
       <set comment="band 15">
        <r>  0.0001  0.0016  0.0208  0.0016  0.0961  0.0001  0.0778  0.0001  0.0000 </r>
       </set>
       <set comment="band 16">
        <r>  0.1706  0.0267  0.0099  0.0267  0.0011  0.0157  0.0458  0.0157  0.0000 </r>
       </set>
       <set comment="band 17">
        <r>  0.0296  0.0404  0.0142  0.0404  0.0203  0.0252  0.0155  0.0252  0.0000 </r>
       </set>
       <set comment="band 18">
        <r>  0.0206  0.0057  0.0512  0.0057  0.0695  0.0097  0.0577  0.0097  0.0000 </r>
       </set>
       <set comment="band 19">
        <r>  0.0000  0.1684  0.0000  0.1684  0.0000  0.0003  0.0000  0.0003  0.1174 </r>
       </set>
       <set comment="band 20">
        <r>  0.0000  0.0051  0.0000  0.0051  0.0000  0.0188  0.0000  0.0188  0.0025 </r>
       </set>
       <set comment="band 21">
        <r>  0.0114  0.0029  0.0279  0.0029  0.0535  0.0031  0.0063  0.0031  0.0000 </r>
       </set>
       <set comment="band 22">
        <r>  6.2854  0.0000  0.0000  0.0000  0.0000  0.0000  0.0000  0.0000  0.0000 </r>
       </set>
       <set comment="band 23">
        <r>  0.0402  0.0073  0.0227  0.0073  0.0721  0.0196  0.0004  0.0196  0.0000 </r>
       </set>
       <set comment="band 24">
        <r>  0.0000  0.0333  0.0000  0.0333  0.0000  0.0132  0.0000  0.0132  0.0423 </r>
       </set>
      </set>
      <set comment="kpoint 109">
       <set comment="band 1">
        <r>  0.0000  0.3277  0.3277  0.3277  0.0000  0.0000  0.0000  0.0000  0.0000 </r>
       </set>
       <set comment="band 2">
        <r>  0.0000  0.6004  0.1202  0.2737  0.0000  0.0000  0.0000  0.0000  0.0000 </r>
       </set>
       <set comment="band 3">
        <r>  0.0000  0.0625  0.5427  0.3892  0.0000  0.0000  0.0000  0.0000  0.0000 </r>
       </set>
       <set comment="band 4">
        <r>  0.1378  0.0003  0.0003  0.0003  0.1600  0.1600  0.0000  0.1600  0.0000 </r>
       </set>
       <set comment="band 5">
        <r>  0.0000  0.0000  0.0000  0.0000  0.2310  0.0579  0.4818  0.0576  0.0000 </r>
       </set>
       <set comment="band 6">
        <r>  0.0000  0.0000  0.0000  0.0000  0.0000  0.1731  0.0000  0.1734  0.4818 </r>
       </set>
       <set comment="band 7">
        <r>  0.0326  0.0505  0.0505  0.0505  0.0217  0.0217  0.0000  0.0217  0.0000 </r>
       </set>
       <set comment="band 8">
        <r>  0.0000  0.0000  0.0001  0.0000  0.3696  0.0926  0.3871  0.0922  0.0000 </r>
       </set>
       <set comment="band 9">
        <r>  0.0000  0.0001  0.0000  0.0001  0.0000  0.2770  0.0000  0.2774  0.3871 </r>
       </set>
       <set comment="band 10">
        <r>  0.3292  0.0081  0.0081  0.0081  0.1238  0.1238  0.0000  0.1238  0.0000 </r>
       </set>
       <set comment="band 11">
        <r>  0.0002  0.0036  0.0036  0.0036  0.0010  0.0010  0.0000  0.0010  0.0000 </r>
       </set>
       <set comment="band 12">
        <r>  0.0000  0.0258  0.1434  0.0502  0.0041  0.0014  0.0004  0.0007  0.0000 </r>
       </set>
       <set comment="band 13">
        <r>  0.0000  0.1204  0.0028  0.0960  0.0001  0.0027  0.0000  0.0034  0.0004 </r>
       </set>
       <set comment="band 14">
        <r>  0.0000  0.0005  0.0021  0.0005  0.0635  0.0154  0.2608  0.0163  0.0000 </r>
       </set>
       <set comment="band 15">
        <r>  0.0000  0.0015  0.0000  0.0016  0.0000  0.0481  0.0000  0.0472  0.2608 </r>
       </set>
       <set comment="band 16">
        <r>  0.1117  0.0050  0.0050  0.0050  0.0592  0.0592  0.0000  0.0592  0.0000 </r>
       </set>
       <set comment="band 17">
        <r>  0.0000  0.0393  0.2036  0.0654  0.0173  0.0056  0.0117  0.0033  0.0001 </r>
       </set>
       <set comment="band 18">
        <r>  0.0000  0.1662  0.0019  0.1401  0.0002  0.0119  0.0001  0.0141  0.0117 </r>
       </set>
       <set comment="band 19">
        <r>  0.0503  0.0256  0.0256  0.0256  0.0195  0.0195  0.0000  0.0195  0.0000 </r>
       </set>
       <set comment="band 20">
        <r>  6.3016  0.0000  0.0000  0.0000  0.0000  0.0000  0.0000  0.0000  0.0000 </r>
       </set>
       <set comment="band 21">
        <r>  0.0000  0.0083  0.0735  0.0506  0.0380  0.0261  0.0030  0.0043  0.0006 </r>
       </set>
       <set comment="band 22">
        <r>  0.0000  0.0799  0.0147  0.0377  0.0076  0.0194  0.0006  0.0413  0.0030 </r>
       </set>
       <set comment="band 23">
        <r>  0.1889  0.0006  0.0006  0.0006  0.0110  0.0110  0.0000  0.0110  0.0000 </r>
       </set>
       <set comment="band 24">
        <r>  0.0000  0.0007  0.0062  0.0043  0.1297  0.0888  0.0105  0.0147  0.0021 </r>
       </set>
      </set>
      <set comment="kpoint 110">
       <set comment="band 1">
        <r>  0.0000  0.3280  0.3280  0.3273  0.0000  0.0000  0.0000  0.0000  0.0000 </r>
       </set>
       <set comment="band 2">
        <r>  0.0000  0.1653  0.1653  0.6627  0.0000  0.0000  0.0000  0.0000  0.0000 </r>
       </set>
       <set comment="band 3">
        <r>  0.0000  0.4971  0.4971  0.0000  0.0000  0.0000  0.0000  0.0000  0.0000 </r>
       </set>
       <set comment="band 4">
        <r>  0.1213  0.0009  0.0009  0.0018  0.1557  0.1924  0.0001  0.1557  0.0003 </r>
       </set>
       <set comment="band 5">
        <r>  0.0000  0.0009  0.0009  0.0001  0.0558  0.1794  0.1272  0.0558  0.3815 </r>
       </set>
       <set comment="band 6">
        <r>  0.0000  0.0003  0.0003  0.0000  0.1609  0.0000  0.3812  0.1609  0.1271 </r>
       </set>
       <set comment="band 7">
        <r>  0.0010  0.0252  0.0252  0.0254  0.0782  0.2000  0.0336  0.0782  0.1007 </r>
       </set>
       <set comment="band 8">
        <r>  0.0000  0.0001  0.0001  0.0000  0.2917  0.0000  0.2672  0.2917  0.0891 </r>
       </set>
       <set comment="band 9">
        <r>  0.0087  0.0317  0.0317  0.0325  0.0223  0.2150  0.0534  0.0223  0.1601 </r>
       </set>
       <set comment="band 10">
        <r>  0.3646  0.0008  0.0008  0.0048  0.1381  0.1120  0.0008  0.1381  0.0025 </r>
       </set>
       <set comment="band 11">
        <r>  0.0003  0.0008  0.0008  0.0141  0.0065  0.0081  0.0059  0.0065  0.0176 </r>
       </set>
       <set comment="band 12">
        <r>  0.0178  0.0384  0.0384  0.1294  0.0143  0.0072  0.0034  0.0143  0.0101 </r>
       </set>
       <set comment="band 13">
        <r>  0.0000  0.1111  0.1111  0.0000  0.0001  0.0000  0.0223  0.0001  0.0074 </r>
       </set>
       <set comment="band 14">
        <r>  0.0029  0.0000  0.0000  0.0111  0.0009  0.0904  0.0449  0.0009  0.1348 </r>
       </set>
       <set comment="band 15">
        <r>  0.0000  0.0005  0.0005  0.0000  0.0576  0.0000  0.1584  0.0576  0.0528 </r>
       </set>
       <set comment="band 16">
        <r>  0.1384  0.0001  0.0001  0.0023  0.0713  0.0249  0.0018  0.0713  0.0053 </r>
       </set>
       <set comment="band 17">
        <r>  0.0301  0.0680  0.0680  0.1108  0.0013  0.0002  0.0112  0.0013  0.0336 </r>
       </set>
       <set comment="band 18">
        <r>  0.0000  0.1595  0.1595  0.0000  0.0004  0.0000  0.0270  0.0004  0.0090 </r>
       </set>
       <set comment="band 19">
        <r>  0.0187  0.0154  0.0154  0.0624  0.0008  0.0467  0.0050  0.0008  0.0151 </r>
       </set>
       <set comment="band 20">
        <r>  0.0039  0.0053  0.0053  0.0221  0.0059  0.0692  0.0000  0.0059  0.0001 </r>
       </set>
       <set comment="band 21">
        <r>  6.2943  0.0000  0.0000  0.0000  0.0000  0.0000  0.0000  0.0000  0.0000 </r>
       </set>
       <set comment="band 22">
        <r>  0.0000  0.0125  0.0125  0.0000  0.0406  0.0000  0.0049  0.0406  0.0016 </r>
       </set>
       <set comment="band 23">
        <r>  0.1031  0.0032  0.0032  0.0001  0.0023  0.1001  0.0012  0.0023  0.0036 </r>
       </set>
       <set comment="band 24">
        <r>  0.0000  0.0482  0.0482  0.0000  0.0499  0.0000  0.0022  0.0499  0.0007 </r>
       </set>
      </set>
     </set>
    </set>
   </array>
  </projected>
 </calculation>
 <structure name="finalpos" >
  <crystal>
   <varray name="basis" >
    <v>       0.00000000       1.99863712       1.99863712 </v>
    <v>       1.99863712       0.00000000       1.99863712 </v>
    <v>       1.99863712       1.99863712       0.00000000 </v>
   </varray>
   <i name="volume">     15.96731306 </i>
   <varray name="rec_basis" >
    <v>      -0.25017048       0.25017048       0.25017048 </v>
    <v>       0.25017048      -0.25017048       0.25017048 </v>
    <v>       0.25017048       0.25017048      -0.25017048 </v>
   </varray>
  </crystal>
  <varray name="positions" >
   <v>       0.00000000       0.00000000       0.00000000 </v>
  </varray>
 </structure>
</modeling>
