<?xml version="1.0" encoding="ISO-8859-1"?>
<modeling>
 <generator>
  <i name="program" type="string">vasp </i>
  <i name="version" type="string">6.3.2  </i>
  <i name="subversion" type="string">27Jun22 (build Aug 12 2022 00:53:59) complex                          parallel </i>
  <i name="platform" type="string">tv2STD </i>
  <i name="date" type="string">2024 11 30 </i>
  <i name="time" type="string">17:14:44 </i>
 </generator>
 <incar>
  <i type="string" name="SYSTEM">Pt-fcc</i>
  <i type="int" name="ISTART">     0</i>
  <i type="string" name="PREC">accurate      normal | accurate</i>
  <i type="string" name="ALGO">Normal     Normal, Fast, Very_Fast</i>
  <i type="logical" name="ADDGRID"> F  </i>
  <i type="int" name="ICHARG">     2</i>
  <i type="int" name="INIWAV">     1</i>
  <i type="int" name="NELM">   100</i>
  <i type="int" name="IBRION">     2</i>
  <i name="EDIFF">      0.00000100</i>
  <i name="EDIFFG">     -0.02000000</i>
  <i type="int" name="NSW">   100</i>
  <i type="int" name="ISIF">     2</i>
  <i type="int" name="ISYM">     1</i>
  <i name="ENCUT">    425.00000000</i>
  <i type="logical" name="LREAL"> F  </i>
  <i type="int" name="ISMEAR">     0</i>
  <i name="SIGMA">      0.05000000</i>
  <i type="int" name="NWRITE">     2</i>
  <i type="logical" name="LWAVE"> T  </i>
  <i type="logical" name="LCHARG"> T  </i>
  <i type="int" name="LORBIT">    11</i>
 </incar>
 <primitive_cell>
  <structure name="primitive_cell" >
   <crystal>
    <varray name="basis" >
     <v>       0.00000000       1.98978172       1.98978172 </v>
     <v>       1.98978172       0.00000000       1.98978172 </v>
     <v>       1.98978172       1.98978172       0.00000000 </v>
    </varray>
    <i name="volume">     15.75601203 </i>
    <varray name="rec_basis" >
     <v>      -0.25128384       0.25128384       0.25128384 </v>
     <v>       0.25128384      -0.25128384       0.25128384 </v>
     <v>       0.25128384       0.25128384      -0.25128384 </v>
    </varray>
   </crystal>
   <varray name="positions" >
    <v>       0.00000000       0.00000000       0.00000000 </v>
   </varray>
  </structure>
  <varray name="primitive_index" >
   <v type="int" >        1 </v>
  </varray>
 </primitive_cell>
 <kpoints>
  <generation param="Monkhorst-Pack">
   <v type="int" name="divisions">      10       10       10 </v>
   <v name="usershift">      0.00000000       0.00000000       0.00000000 </v>
   <v name="genvec1">      0.10000000       0.00000000       0.00000000 </v>
   <v name="genvec2">      0.00000000       0.10000000       0.00000000 </v>
   <v name="genvec3">      0.00000000       0.00000000       0.10000000 </v>
   <v name="shift">      0.50000000       0.50000000       0.50000000 </v>
  </generation>
  <varray name="kpointlist" >
   <v>       0.05000000       0.05000000       0.05000000 </v>
   <v>       0.15000000       0.05000000       0.05000000 </v>
   <v>       0.25000000       0.05000000       0.05000000 </v>
   <v>       0.35000000       0.05000000       0.05000000 </v>
   <v>       0.45000000       0.05000000       0.05000000 </v>
   <v>      -0.45000000       0.05000000       0.05000000 </v>
   <v>      -0.35000000       0.05000000       0.05000000 </v>
   <v>      -0.25000000       0.05000000       0.05000000 </v>
   <v>      -0.15000000       0.05000000       0.05000000 </v>
   <v>      -0.05000000       0.05000000       0.05000000 </v>
   <v>       0.15000000       0.15000000       0.05000000 </v>
   <v>       0.25000000       0.15000000       0.05000000 </v>
   <v>       0.35000000       0.15000000       0.05000000 </v>
   <v>       0.45000000       0.15000000       0.05000000 </v>
   <v>      -0.45000000       0.15000000       0.05000000 </v>
   <v>      -0.35000000       0.15000000       0.05000000 </v>
   <v>      -0.25000000       0.15000000       0.05000000 </v>
   <v>      -0.15000000       0.15000000       0.05000000 </v>
   <v>      -0.05000000       0.15000000       0.05000000 </v>
   <v>       0.25000000       0.25000000       0.05000000 </v>
   <v>       0.35000000       0.25000000       0.05000000 </v>
   <v>       0.45000000       0.25000000       0.05000000 </v>
   <v>      -0.45000000       0.25000000       0.05000000 </v>
   <v>      -0.35000000       0.25000000       0.05000000 </v>
   <v>      -0.25000000       0.25000000       0.05000000 </v>
   <v>      -0.15000000       0.25000000       0.05000000 </v>
   <v>      -0.05000000       0.25000000       0.05000000 </v>
   <v>       0.35000000       0.35000000       0.05000000 </v>
   <v>       0.45000000       0.35000000       0.05000000 </v>
   <v>      -0.45000000       0.35000000       0.05000000 </v>
   <v>      -0.35000000       0.35000000       0.05000000 </v>
   <v>      -0.25000000       0.35000000       0.05000000 </v>
   <v>      -0.15000000       0.35000000       0.05000000 </v>
   <v>      -0.05000000       0.35000000       0.05000000 </v>
   <v>       0.45000000       0.45000000       0.05000000 </v>
   <v>      -0.45000000       0.45000000       0.05000000 </v>
   <v>      -0.35000000       0.45000000       0.05000000 </v>
   <v>      -0.25000000       0.45000000       0.05000000 </v>
   <v>      -0.15000000       0.45000000       0.05000000 </v>
   <v>      -0.05000000       0.45000000       0.05000000 </v>
   <v>      -0.45000000      -0.45000000       0.05000000 </v>
   <v>      -0.35000000      -0.45000000       0.05000000 </v>
   <v>      -0.25000000      -0.45000000       0.05000000 </v>
   <v>      -0.15000000      -0.45000000       0.05000000 </v>
   <v>      -0.35000000      -0.35000000       0.05000000 </v>
   <v>      -0.25000000      -0.35000000       0.05000000 </v>
   <v>      -0.15000000      -0.35000000       0.05000000 </v>
   <v>      -0.25000000      -0.25000000       0.05000000 </v>
   <v>      -0.15000000      -0.25000000       0.05000000 </v>
   <v>      -0.15000000      -0.15000000       0.05000000 </v>
   <v>       0.15000000       0.15000000       0.15000000 </v>
   <v>       0.25000000       0.15000000       0.15000000 </v>
   <v>       0.35000000       0.15000000       0.15000000 </v>
   <v>       0.45000000       0.15000000       0.15000000 </v>
   <v>      -0.45000000       0.15000000       0.15000000 </v>
   <v>      -0.35000000       0.15000000       0.15000000 </v>
   <v>      -0.25000000       0.15000000       0.15000000 </v>
   <v>      -0.15000000       0.15000000       0.15000000 </v>
   <v>       0.25000000       0.25000000       0.15000000 </v>
   <v>       0.35000000       0.25000000       0.15000000 </v>
   <v>       0.45000000       0.25000000       0.15000000 </v>
   <v>      -0.45000000       0.25000000       0.15000000 </v>
   <v>      -0.35000000       0.25000000       0.15000000 </v>
   <v>      -0.25000000       0.25000000       0.15000000 </v>
   <v>      -0.15000000       0.25000000       0.15000000 </v>
   <v>       0.35000000       0.35000000       0.15000000 </v>
   <v>       0.45000000       0.35000000       0.15000000 </v>
   <v>      -0.45000000       0.35000000       0.15000000 </v>
   <v>      -0.35000000       0.35000000       0.15000000 </v>
   <v>      -0.25000000       0.35000000       0.15000000 </v>
   <v>      -0.15000000       0.35000000       0.15000000 </v>
   <v>       0.45000000       0.45000000       0.15000000 </v>
   <v>      -0.45000000       0.45000000       0.15000000 </v>
   <v>      -0.35000000       0.45000000       0.15000000 </v>
   <v>      -0.25000000       0.45000000       0.15000000 </v>
   <v>      -0.15000000       0.45000000       0.15000000 </v>
   <v>      -0.45000000      -0.45000000       0.15000000 </v>
   <v>      -0.35000000      -0.45000000       0.15000000 </v>
   <v>      -0.25000000      -0.45000000       0.15000000 </v>
   <v>      -0.35000000      -0.35000000       0.15000000 </v>
   <v>      -0.25000000      -0.35000000       0.15000000 </v>
   <v>      -0.25000000      -0.25000000       0.15000000 </v>
   <v>       0.25000000       0.25000000       0.25000000 </v>
   <v>       0.35000000       0.25000000       0.25000000 </v>
   <v>       0.45000000       0.25000000       0.25000000 </v>
   <v>      -0.45000000       0.25000000       0.25000000 </v>
   <v>      -0.35000000       0.25000000       0.25000000 </v>
   <v>      -0.25000000       0.25000000       0.25000000 </v>
   <v>       0.35000000       0.35000000       0.25000000 </v>
   <v>       0.45000000       0.35000000       0.25000000 </v>
   <v>      -0.45000000       0.35000000       0.25000000 </v>
   <v>      -0.35000000       0.35000000       0.25000000 </v>
   <v>      -0.25000000       0.35000000       0.25000000 </v>
   <v>       0.45000000       0.45000000       0.25000000 </v>
   <v>      -0.45000000       0.45000000       0.25000000 </v>
   <v>      -0.35000000       0.45000000       0.25000000 </v>
   <v>      -0.25000000       0.45000000       0.25000000 </v>
   <v>      -0.45000000      -0.45000000       0.25000000 </v>
   <v>      -0.35000000      -0.45000000       0.25000000 </v>
   <v>      -0.35000000      -0.35000000       0.25000000 </v>
   <v>       0.35000000       0.35000000       0.35000000 </v>
   <v>       0.45000000       0.35000000       0.35000000 </v>
   <v>      -0.45000000       0.35000000       0.35000000 </v>
   <v>      -0.35000000       0.35000000       0.35000000 </v>
   <v>       0.45000000       0.45000000       0.35000000 </v>
   <v>      -0.45000000       0.45000000       0.35000000 </v>
   <v>      -0.35000000       0.45000000       0.35000000 </v>
   <v>      -0.45000000      -0.45000000       0.35000000 </v>
   <v>       0.45000000       0.45000000       0.45000000 </v>
   <v>      -0.45000000       0.45000000       0.45000000 </v>
  </varray>
  <varray name="weights" >
   <v>       0.00200000 </v>
   <v>       0.00600000 </v>
   <v>       0.00600000 </v>
   <v>       0.00600000 </v>
   <v>       0.00600000 </v>
   <v>       0.00600000 </v>
   <v>       0.00600000 </v>
   <v>       0.00600000 </v>
   <v>       0.00600000 </v>
   <v>       0.00600000 </v>
   <v>       0.00600000 </v>
   <v>       0.01200000 </v>
   <v>       0.01200000 </v>
   <v>       0.01200000 </v>
   <v>       0.01200000 </v>
   <v>       0.01200000 </v>
   <v>       0.01200000 </v>
   <v>       0.01200000 </v>
   <v>       0.01200000 </v>
   <v>       0.00600000 </v>
   <v>       0.01200000 </v>
   <v>       0.01200000 </v>
   <v>       0.01200000 </v>
   <v>       0.01200000 </v>
   <v>       0.01200000 </v>
   <v>       0.01200000 </v>
   <v>       0.01200000 </v>
   <v>       0.00600000 </v>
   <v>       0.01200000 </v>
   <v>       0.01200000 </v>
   <v>       0.01200000 </v>
   <v>       0.01200000 </v>
   <v>       0.01200000 </v>
   <v>       0.01200000 </v>
   <v>       0.00600000 </v>
   <v>       0.01200000 </v>
   <v>       0.01200000 </v>
   <v>       0.01200000 </v>
   <v>       0.01200000 </v>
   <v>       0.01200000 </v>
   <v>       0.00600000 </v>
   <v>       0.01200000 </v>
   <v>       0.01200000 </v>
   <v>       0.01200000 </v>
   <v>       0.00600000 </v>
   <v>       0.01200000 </v>
   <v>       0.01200000 </v>
   <v>       0.00600000 </v>
   <v>       0.01200000 </v>
   <v>       0.00600000 </v>
   <v>       0.00200000 </v>
   <v>       0.00600000 </v>
   <v>       0.00600000 </v>
   <v>       0.00600000 </v>
   <v>       0.00600000 </v>
   <v>       0.00600000 </v>
   <v>       0.00600000 </v>
   <v>       0.00600000 </v>
   <v>       0.00600000 </v>
   <v>       0.01200000 </v>
   <v>       0.01200000 </v>
   <v>       0.01200000 </v>
   <v>       0.01200000 </v>
   <v>       0.01200000 </v>
   <v>       0.01200000 </v>
   <v>       0.00600000 </v>
   <v>       0.01200000 </v>
   <v>       0.01200000 </v>
   <v>       0.01200000 </v>
   <v>       0.01200000 </v>
   <v>       0.01200000 </v>
   <v>       0.00600000 </v>
   <v>       0.01200000 </v>
   <v>       0.01200000 </v>
   <v>       0.01200000 </v>
   <v>       0.01200000 </v>
   <v>       0.00600000 </v>
   <v>       0.01200000 </v>
   <v>       0.01200000 </v>
   <v>       0.00600000 </v>
   <v>       0.01200000 </v>
   <v>       0.00600000 </v>
   <v>       0.00200000 </v>
   <v>       0.00600000 </v>
   <v>       0.00600000 </v>
   <v>       0.00600000 </v>
   <v>       0.00600000 </v>
   <v>       0.00600000 </v>
   <v>       0.00600000 </v>
   <v>       0.01200000 </v>
   <v>       0.01200000 </v>
   <v>       0.01200000 </v>
   <v>       0.01200000 </v>
   <v>       0.00600000 </v>
   <v>       0.01200000 </v>
   <v>       0.01200000 </v>
   <v>       0.01200000 </v>
   <v>       0.00600000 </v>
   <v>       0.01200000 </v>
   <v>       0.00600000 </v>
   <v>       0.00200000 </v>
   <v>       0.00600000 </v>
   <v>       0.00600000 </v>
   <v>       0.00600000 </v>
   <v>       0.00600000 </v>
   <v>       0.01200000 </v>
   <v>       0.01200000 </v>
   <v>       0.00600000 </v>
   <v>       0.00200000 </v>
   <v>       0.00600000 </v>
  </varray>
 </kpoints>
 <parameters>
  <separator name="general" >
   <i type="string" name="SYSTEM">Pt-fcc</i>
   <i type="logical" name="LCOMPAT"> F  </i>
  </separator>
  <separator name="electronic" >
   <i type="string" name="PREC">accura</i>
   <i name="ENMAX">    425.00000000</i>
   <i name="ENAUG">    527.01400000</i>
   <i name="EDIFF">      0.00000100</i>
   <i type="int" name="IALGO">    38</i>
   <i type="int" name="IWAVPR">    11</i>
   <i type="int" name="NBANDS">    24</i>
   <i type="int" name="NBANDSLOW">    -1</i>
   <i type="int" name="NBANDSHIGH">    -1</i>
   <i name="NELECT">     16.00000000</i>
   <i type="int" name="TURBO">     0</i>
   <i type="int" name="IRESTART">     0</i>
   <i type="int" name="NREBOOT">     0</i>
   <i type="int" name="NMIN">     0</i>
   <i name="EREF">      0.00000000</i>
   <separator name="electronic smearing" >
    <i type="int" name="ISMEAR">     0</i>
    <i name="SIGMA">      0.05000000</i>
    <i name="KSPACING">      0.50000000</i>
    <i type="logical" name="KGAMMA"> T  </i>
    <i type="logical" name="KBLOWUP"> T  </i>
   </separator>
   <separator name="electronic projectors" >
    <i type="logical" name="LREAL"> F  </i>
    <v name="ROPT">      0.00000000</v>
    <i type="int" name="LMAXPAW">  -100</i>
    <i type="int" name="LMAXMIX">     2</i>
    <i type="logical" name="NLSPLINE"> F  </i>
   </separator>
   <separator name="electronic startup" >
    <i type="int" name="ISTART">     0</i>
    <i type="int" name="ICHARG">     2</i>
    <i type="int" name="INIWAV">     1</i>
   </separator>
   <separator name="electronic spin" >
    <i type="int" name="ISPIN">     1</i>
    <i type="logical" name="LNONCOLLINEAR"> F  </i>
    <v name="MAGMOM">      1.00000000</v>
    <i name="NUPDOWN">     -1.00000000</i>
    <i type="logical" name="LSORBIT"> F  </i>
    <v name="SAXIS">      0.00000000      0.00000000      1.00000000</v>
    <i type="logical" name="LSPIRAL"> F  </i>
    <v name="QSPIRAL">      0.00000000      0.00000000      0.00000000</v>
    <i type="logical" name="LZEROZ"> F  </i>
   </separator>
   <separator name="electronic exchange-correlation" >
    <i type="logical" name="LASPH"> F  </i>
    <i type="logical" name="LMETAGGA"> F  </i>
   </separator>
   <separator name="electronic convergence" >
    <i type="int" name="NELM">   100</i>
    <i type="int" name="NELMDL">    -5</i>
    <i type="int" name="NELMIN">     2</i>
    <i name="ENINI">    425.00000000</i>
    <separator name="electronic convergence detail" >
     <i type="logical" name="LDIAG"> T  </i>
     <i type="logical" name="LSUBROT"> F  </i>
     <i name="WEIMIN">      0.00100000</i>
     <i name="EBREAK">      0.00000001</i>
     <i name="DEPER">      0.30000000</i>
     <i type="int" name="NRMM">     4</i>
     <i name="TIME">      0.40000000</i>
    </separator>
   </separator>
   <separator name="electronic mixer" >
    <i name="AMIX">      0.40000000</i>
    <i name="BMIX">      1.00000000</i>
    <i name="AMIN">      0.10000000</i>
    <i name="AMIX_MAG">      1.60000000</i>
    <i name="BMIX_MAG">      1.00000000</i>
    <separator name="electronic mixer details" >
     <i type="int" name="IMIX">     4</i>
     <i type="logical" name="MIXFIRST"> F  </i>
     <i type="int" name="MAXMIX">   -45</i>
     <i name="WC">    100.00000000</i>
     <i type="int" name="INIMIX">     1</i>
     <i type="int" name="MIXPRE">     1</i>
     <i type="int" name="MREMOVE">     5</i>
    </separator>
   </separator>
   <separator name="electronic dipolcorrection" >
    <i type="logical" name="LDIPOL"> F  </i>
    <i type="logical" name="LMONO"> F  </i>
    <i type="int" name="IDIPOL">     0</i>
    <i name="EPSILON">      1.00000000</i>
    <v name="DIPOL">   -100.00000000   -100.00000000   -100.00000000</v>
    <i name="EFIELD">      0.00000000</i>
   </separator>
  </separator>
  <separator name="grids" >
   <i type="int" name="NGX">    20</i>
   <i type="int" name="NGY">    20</i>
   <i type="int" name="NGZ">    20</i>
   <i type="int" name="NGXF">    40</i>
   <i type="int" name="NGYF">    40</i>
   <i type="int" name="NGZF">    40</i>
   <i type="logical" name="ADDGRID"> F  </i>
  </separator>
  <separator name="ionic" >
   <i type="int" name="NSW">   100</i>
   <i type="int" name="IBRION">     2</i>
   <i type="int" name="MDALGO">     0</i>
   <i type="int" name="ISIF">     2</i>
   <i name="PSTRESS">      0.00000000</i>
   <i name="EDIFFG">     -0.02000000</i>
   <i type="int" name="NFREE">     1</i>
   <i name="POTIM">      0.50000000</i>
   <i name="SMASS">     -3.00000000</i>
   <i name="SCALEE">      1.00000000</i>
  </separator>
  <separator name="ionic md" >
   <i name="TEBEG">      0.00010000</i>
   <i name="TEEND">      0.00010000</i>
   <i type="int" name="NBLOCK">     1</i>
   <i type="int" name="KBLOCK">   100</i>
   <i type="int" name="NPACO">   256</i>
   <i name="APACO">     10.00000000</i>
  </separator>
  <separator name="symmetry" >
   <i type="int" name="ISYM">     1</i>
   <i name="SYMPREC">      0.00001000</i>
  </separator>
  <separator name="dos" >
   <i type="int" name="LORBIT">    11</i>
   <v name="RWIGS">     -1.00000000</v>
   <i type="int" name="NEDOS">   301</i>
   <i name="EMIN">     10.00000000</i>
   <i name="EMAX">    -10.00000000</i>
   <i name="EFERMI">      0.00000000</i>
  </separator>
  <separator name="writing" >
   <i type="int" name="NWRITE">     2</i>
   <i type="logical" name="LWAVE"> T  </i>
   <i type="logical" name="LDOWNSAMPLE"> F  </i>
   <i type="logical" name="LCHARG"> T  </i>
   <i type="logical" name="LPARD"> F  </i>
   <i type="logical" name="LVTOT"> F  </i>
   <i type="logical" name="LVHAR"> F  </i>
   <i type="logical" name="LELF"> F  </i>
   <i type="logical" name="LOPTICS"> F  </i>
   <v name="STM">      0.00000000      0.00000000      0.00000000      0.00000000      0.00000000      0.00000000      0.00000000</v>
  </separator>
  <separator name="performance" >
   <i type="int" name="NPAR">    24</i>
   <i type="int" name="NSIM">     4</i>
   <i type="int" name="NBLK">    -1</i>
   <i type="logical" name="LPLANE"> T  </i>
   <i type="logical" name="LSCALAPACK"> T  </i>
   <i type="logical" name="LSCAAWARE"> T  </i>
   <i type="logical" name="LSCALU"> F  </i>
   <i type="logical" name="LASYNC"> F  </i>
   <i type="logical" name="LORBITALREAL"> F  </i>
  </separator>
  <separator name="miscellaneous" >
   <i type="int" name="IDIOT">     3</i>
   <i type="int" name="PHON_NSTRUCT">    -1</i>
   <i type="logical" name="LMUSIC"> F  </i>
   <v name="POMASS">    195.08000000</v>
   <v name="DARWINR">      0.00000000</v>
   <v name="DARWINV">      1.00000000</v>
   <i type="logical" name="LCORR"> T  </i>
  </separator>
  <i type="logical" name="GGA_COMPAT"> T  </i>
  <i type="logical" name="LBERRY"> F  </i>
  <i type="int" name="ICORELEVEL">     0</i>
  <i type="logical" name="LDAU"> F  </i>
  <i type="int" name="I_CONSTRAINED_M">     0</i>
  <separator name="electronic exchange-correlation" >
   <i type="string" name="GGA">--</i>
   <i type="int" name="VOSKOWN">     0</i>
   <i type="logical" name="LHFCALC"> F  </i>
   <i type="string" name="PRECFOCK"></i>
   <i type="logical" name="LSYMGRAD"> F  </i>
   <i type="logical" name="LHFONE"> F  </i>
   <i type="logical" name="LRHFCALC"> F  </i>
   <i type="logical" name="LTHOMAS"> F  </i>
   <i type="logical" name="LMODELHF"> F  </i>
   <i type="logical" name="LFOCKACE"> F  </i>
   <i name="ENCUT4O">     -1.00000000</i>
   <i type="int" name="EXXOEP">     0</i>
   <i type="int" name="FOURORBIT">     0</i>
   <i name="AEXX">      0.00000000</i>
   <i name="HFALPHA">      0.00000000</i>
   <i name="MCALPHA">      0.00000000</i>
   <i name="ALDAX">      1.00000000</i>
   <i name="AGGAX">      1.00000000</i>
   <i name="ALDAC">      1.00000000</i>
   <i name="AGGAC">      1.00000000</i>
   <i type="int" name="NKREDX">     1</i>
   <i type="int" name="NKREDY">     1</i>
   <i type="int" name="NKREDZ">     1</i>
   <i type="logical" name="SHIFTRED"> F  </i>
   <i type="logical" name="ODDONLY"> F  </i>
   <i type="logical" name="EVENONLY"> F  </i>
   <i type="int" name="LMAXFOCK">     0</i>
   <i type="int" name="NMAXFOCKAE">     0</i>
   <i type="logical" name="LFOCKAEDFT"> F  </i>
   <i name="HFSCREEN">      0.00000000</i>
   <i name="HFSCREENC">      0.00000000</i>
   <i type="int" name="NBANDSGWLOW">     0</i>
  </separator>
  <separator name="vdW DFT" >
   <i type="logical" name="LUSE_VDW"> F  </i>
   <i name="Zab_VDW">     -0.84910000</i>
   <i name="PARAM1">      0.12340000</i>
   <i name="PARAM2">      1.00000000</i>
   <i name="PARAM3">      0.00000000</i>
  </separator>
  <separator name="model GW" >
   <i type="int" name="MODEL_GW">     0</i>
   <i name="MODEL_EPS0">      9.45360722</i>
   <i name="MODEL_ALPHA">      1.00000000</i>
  </separator>
  <separator name="linear response parameters" >
   <i type="logical" name="LEPSILON"> F  </i>
   <i type="logical" name="LRPA"> F  </i>
   <i type="logical" name="LNABLA"> F  </i>
   <i type="logical" name="LVEL"> F  </i>
   <i name="CSHIFT">      0.10000000</i>
   <i name="OMEGAMAX">     -1.00000000</i>
   <i name="DEG_THRESHOLD">      0.00200000</i>
   <i name="RTIME">     -0.10000000</i>
   <i name="WPLASMAI">      0.00000000</i>
   <v name="DFIELD">      0.00000000      0.00000000      0.00000000</v>
   <v name="WPLASMA">      0.00000000      0.00000000      0.00000000      0.00000000      0.00000000      0.00000000      0.00000000      0.00000000      0.00000000</v>
  </separator>
  <separator name="orbital magnetization" >
   <i type="logical" name="NUCIND"> F  </i>
   <v name="MAGPOS">      0.00000000      0.00000000      0.00000000</v>
   <i type="logical" name="LNICSALL"> T  </i>
   <i type="logical" name="ORBITALMAG"> F  </i>
   <i type="logical" name="LMAGBLOCH"> F  </i>
   <i type="logical" name="LCHIMAG"> F  </i>
   <i type="logical" name="LGAUGE"> T  </i>
   <i type="int" name="MAGATOM">     0</i>
   <v name="MAGDIPOL">      0.00000000      0.00000000      0.00000000</v>
   <v name="AVECCONST">      0.00000000      0.00000000      0.00000000</v>
  </separator>
  <separator name="response functions" >
   <i type="logical" name="LFINITE_TEMPERATURE"> F  </i>
   <i type="logical" name="LADDER"> F  </i>
   <i type="logical" name="LRPAFORCE"> F  </i>
   <i type="logical" name="LFXC"> F  </i>
   <i type="logical" name="LHARTREE"> T  </i>
   <i type="int" name="IBSE">     0</i>
   <v type="int" name="KPOINT">    -1     0     0     0</v>
   <i type="logical" name="LTCTC"> F  </i>
   <i type="logical" name="LTCTE"> F  </i>
   <i type="logical" name="LTETE"> F  </i>
   <i type="logical" name="LTRIPLET"> F  </i>
   <i type="logical" name="LFXCEPS"> F  </i>
   <i type="logical" name="LFXHEG"> F  </i>
   <i type="int" name="NATURALO">     2</i>
   <i type="logical" name="LHOLEGF"> F  </i>
   <i type="logical" name="L2ORDER"> F  </i>
   <i type="logical" name="LDMP1"> F  </i>
   <i type="logical" name="LMP2LT"> F  </i>
   <i type="logical" name="LSMP2LT"> F  </i>
   <i type="logical" name="LGWLF"> F  </i>
   <i name="ENCUTGW">     -2.00000000</i>
   <i name="ENCUTGWSOFT">     -2.00000000</i>
   <i name="ENCUTLF">     -1.00000000</i>
   <i type="logical" name="LESF_SPLINES"> F  </i>
   <i type="int" name="LMAXMP2">    -1</i>
   <i name="SCISSOR">      0.00000000</i>
   <i type="int" name="NOMEGA">     0</i>
   <i type="int" name="NOMEGAR">     0</i>
   <i type="int" name="NBANDSGW">    -1</i>
   <i type="int" name="NBANDSO">    -1</i>
   <i type="int" name="NBANDSV">    -1</i>
   <i type="int" name="NELMGW">     1</i>
   <i type="int" name="NELMHF">     1</i>
   <i type="int" name="DIM">     3</i>
   <i type="int" name="IESPILON">     4</i>
   <i type="int" name="ANTIRES">     0</i>
   <i name="OMEGAMAX">    -30.00000000</i>
   <i name="OMEGAMIN">    -30.00000000</i>
   <i name="OMEGATL">   -200.00000000</i>
   <i type="int" name="OMEGAGRID">     0</i>
   <i name="CSHIFT">     -0.10000000</i>
   <i type="logical" name="LSELFENERGY"> F  </i>
   <i type="logical" name="LSPECTRAL"> F  </i>
   <i type="logical" name="LSPECTRALGW"> F  </i>
   <i type="logical" name="LSINGLES"> F  </i>
   <i type="logical" name="LFERMIGW"> F  </i>
   <i type="logical" name="ODDONLYGW"> F  </i>
   <i type="logical" name="EVENONLYGW"> F  </i>
   <i type="int" name="NKREDLFX">     1</i>
   <i type="int" name="NKREDLFY">     1</i>
   <i type="int" name="NKREDLFZ">     1</i>
   <i type="int" name="MAXMEM">  2800</i>
   <i type="int" name="TELESCOPE">     0</i>
   <i type="int" name="NTAUPAR">    -1</i>
   <i type="int" name="NOMEGAPAR">    -1</i>
   <i name="DAMP_NEWTON">      0.80000001</i>
   <i name="LAMBDA">      1.00000000</i>
  </separator>
  <separator name="External order field" >
   <i name="OFIELD_KAPPA">      0.00000000</i>
   <v name="OFIELD_K">      0.00000000      0.00000000      0.00000000</v>
   <i name="OFIELD_Q6_NEAR">      0.00000000</i>
   <i name="OFIELD_Q6_FAR">      0.00000000</i>
   <i name="OFIELD_A">      0.00000000</i>
  </separator>
  <separator name="optional k-points parameters" >
   <i type="int" name="KPOINTS_OPT_MODE">     1</i>
   <i type="logical" name="LKPOINTS_OPT"> F  </i>
  </separator>
 </parameters>
 <atominfo>
  <atoms>       1 </atoms>
  <types>       1 </types>
  <array name="atoms" >
   <dimension dim="1">ion</dimension>
   <field type="string">element</field>
   <field type="int">atomtype</field>
   <set>
    <rc><c>Pt</c><c>   1</c></rc>
   </set>
  </array>
  <array name="atomtypes" >
   <dimension dim="1">type</dimension>
   <field type="int">atomspertype</field>
   <field type="string">element</field>
   <field>mass</field>
   <field>valence</field>
   <field type="string">pseudopotential</field>
   <set>
    <rc><c>   1</c><c>Pt</c><c>    195.08000000</c><c>     16.00000000</c><c>  PAW_PBE Pt_pv 12Dec2005               </c></rc>
   </set>
  </array>
 </atominfo>
 <structure name="initialpos" >
  <crystal>
   <varray name="basis" >
    <v>       0.00000000       1.98978172       1.98978172 </v>
    <v>       1.98978172       0.00000000       1.98978172 </v>
    <v>       1.98978172       1.98978172       0.00000000 </v>
   </varray>
   <i name="volume">     15.75601203 </i>
   <varray name="rec_basis" >
    <v>      -0.25128384       0.25128384       0.25128384 </v>
    <v>       0.25128384      -0.25128384       0.25128384 </v>
    <v>       0.25128384       0.25128384      -0.25128384 </v>
   </varray>
  </crystal>
  <varray name="positions" >
   <v>       0.00000000       0.00000000       0.00000000 </v>
  </varray>
 </structure>
 <calculation>
  <scstep>
   <time name="dav">    0.51    0.51</time>
   <time name="total">    0.51    0.51</time>
   <energy>
    <i name="alphaZ">    152.27955882 </i>
    <i name="ewald">  -2123.52259528 </i>
    <i name="hartreedc">   -407.75413922 </i>
    <i name="XCdc">     63.66756102 </i>
    <i name="pawpsdc">   2065.75261637 </i>
    <i name="pawaedc">  -2030.83594803 </i>
    <i name="eentropy">     -0.00063294 </i>
    <i name="bandstr">   -131.05066127 </i>
    <i name="atom">   2428.19501064 </i>
    <i name="e_fr_energy">     16.73077011 </i>
    <i name="e_wo_entrp">     16.73140305 </i>
    <i name="e_0_energy">     16.73108658 </i>
   </energy>
  </scstep>
  <scstep>
   <time name="dav">    0.66    0.66</time>
   <time name="total">    0.66    0.66</time>
   <energy>
    <i name="e_fr_energy">     -6.40526907 </i>
    <i name="e_wo_entrp">     -6.40340241 </i>
    <i name="e_0_energy">     -6.40433574 </i>
   </energy>
  </scstep>
  <scstep>
   <time name="dav">    0.71    0.72</time>
   <time name="total">    0.71    0.72</time>
   <energy>
    <i name="e_fr_energy">     -6.44078247 </i>
    <i name="e_wo_entrp">     -6.43894007 </i>
    <i name="e_0_energy">     -6.43986127 </i>
   </energy>
  </scstep>
  <scstep>
   <time name="dav">    0.90    0.91</time>
   <time name="total">    0.90    0.91</time>
   <energy>
    <i name="e_fr_energy">     -6.44080749 </i>
    <i name="e_wo_entrp">     -6.43896508 </i>
    <i name="e_0_energy">     -6.43988629 </i>
   </energy>
  </scstep>
  <scstep>
   <time name="dav">    0.70    0.70</time>
   <time name="total">    0.72    0.72</time>
   <energy>
    <i name="e_fr_energy">     -6.44080749 </i>
    <i name="e_wo_entrp">     -6.43896508 </i>
    <i name="e_0_energy">     -6.43988629 </i>
   </energy>
  </scstep>
  <scstep>
   <time name="dav">    0.52    0.52</time>
   <time name="total">    0.54    0.54</time>
   <energy>
    <i name="e_fr_energy">     -6.10026055 </i>
    <i name="e_wo_entrp">     -6.09774571 </i>
    <i name="e_0_energy">     -6.09900313 </i>
   </energy>
  </scstep>
  <scstep>
   <time name="dav">    0.79    0.79</time>
   <time name="total">    0.81    0.82</time>
   <energy>
    <i name="e_fr_energy">     -6.08352595 </i>
    <i name="e_wo_entrp">     -6.08097177 </i>
    <i name="e_0_energy">     -6.08224886 </i>
   </energy>
  </scstep>
  <scstep>
   <time name="dav">    0.56    0.57</time>
   <time name="total">    0.59    0.59</time>
   <energy>
    <i name="e_fr_energy">     -6.08206737 </i>
    <i name="e_wo_entrp">     -6.07948790 </i>
    <i name="e_0_energy">     -6.08077763 </i>
   </energy>
  </scstep>
  <scstep>
   <time name="dav">    0.73    0.73</time>
   <time name="total">    0.75    0.76</time>
   <energy>
    <i name="e_fr_energy">     -6.08201058 </i>
    <i name="e_wo_entrp">     -6.07943473 </i>
    <i name="e_0_energy">     -6.08072266 </i>
   </energy>
  </scstep>
  <scstep>
   <time name="dav">    0.76    0.76</time>
   <time name="total">    0.78    0.79</time>
   <energy>
    <i name="e_fr_energy">     -6.08201663 </i>
    <i name="e_wo_entrp">     -6.07944203 </i>
    <i name="e_0_energy">     -6.08072933 </i>
   </energy>
  </scstep>
  <scstep>
   <time name="dav">    0.26    0.27</time>
   <time name="total">    0.27    0.27</time>
   <energy>
    <i name="alphaZ">    152.27955882 </i>
    <i name="ewald">  -2123.52259528 </i>
    <i name="hartreedc">   -388.31148406 </i>
    <i name="XCdc">     62.80957436 </i>
    <i name="pawpsdc">   2310.15278576 </i>
    <i name="pawaedc">  -2277.74108060 </i>
    <i name="eentropy">     -0.00257460 </i>
    <i name="bandstr">   -169.94121159 </i>
    <i name="atom">   2428.19501064 </i>
    <i name="e_fr_energy">     -6.08201655 </i>
    <i name="e_wo_entrp">     -6.07944196 </i>
    <i name="e_0_energy">     -6.08072926 </i>
   </energy>
  </scstep>
  <structure>
   <crystal>
    <varray name="basis" >
     <v>       0.00000000       1.98978172       1.98978172 </v>
     <v>       1.98978172       0.00000000       1.98978172 </v>
     <v>       1.98978172       1.98978172       0.00000000 </v>
    </varray>
    <i name="volume">     15.75601203 </i>
    <varray name="rec_basis" >
     <v>      -0.25128384       0.25128384       0.25128384 </v>
     <v>       0.25128384      -0.25128384       0.25128384 </v>
     <v>       0.25128384       0.25128384      -0.25128384 </v>
    </varray>
   </crystal>
   <varray name="positions" >
    <v>       0.00000000       0.00000000       0.00000000 </v>
   </varray>
  </structure>
  <varray name="forces" >
   <v>       0.00000000      -0.00000000       0.00000000 </v>
  </varray>
  <varray name="stress" >
   <v>     -41.06062131      -0.00000000      -0.00000000 </v>
   <v>       0.00000000     -41.06062131       0.00000000 </v>
   <v>      -0.00000000       0.00000000     -41.06062131 </v>
  </varray>
  <energy>
   <i name="e_fr_energy">     -6.08201655 </i>
   <i name="e_wo_entrp">     -6.07944196 </i>
   <i name="e_0_energy">     -6.08072926 </i>
  </energy>
  <time name="totalsc">    7.50    7.61</time>
  <eigenvalues>
   <array>
    <dimension dim="1">band</dimension>
    <dimension dim="2">kpoint</dimension>
    <dimension dim="3">spin</dimension>
    <field>eigene</field>
    <field>occ</field>
    <set>
     <set comment="spin 1">
      <set comment="kpoint 1">
       <r>  -41.1951    1.0000 </r>
       <r>  -41.1870    1.0000 </r>
       <r>  -41.1870    1.0000 </r>
       <r>    1.5451    1.0000 </r>
       <r>    7.6365    1.0000 </r>
       <r>    7.7166    1.0000 </r>
       <r>    7.7166    1.0000 </r>
       <r>    9.6750    1.0000 </r>
       <r>    9.6750    1.0000 </r>
       <r>   26.0791    0.0000 </r>
       <r>   30.1040    0.0000 </r>
       <r>   30.7975    0.0000 </r>
       <r>   30.7975    0.0000 </r>
       <r>   36.4459    0.0000 </r>
       <r>   40.8834    0.0000 </r>
       <r>   41.6116    0.0000 </r>
       <r>   41.6116    0.0000 </r>
       <r>   44.6554    0.0000 </r>
       <r>   44.6554    0.0000 </r>
       <r>   45.5595    0.0000 </r>
       <r>   51.4740    0.0000 </r>
       <r>   51.4740    0.0000 </r>
       <r>   52.0303    0.0000 </r>
       <r>   58.1647    0.0000 </r>
      </set>
      <set comment="kpoint 2">
       <r>  -41.2411    1.0000 </r>
       <r>  -41.2005    1.0000 </r>
       <r>  -41.1904    1.0000 </r>
       <r>    2.0472    1.0000 </r>
       <r>    7.4216    1.0000 </r>
       <r>    7.8878    1.0000 </r>
       <r>    7.9252    1.0000 </r>
       <r>    9.4673    1.0000 </r>
       <r>    9.7304    1.0000 </r>
       <r>   26.7728    0.0000 </r>
       <r>   28.3948    0.0000 </r>
       <r>   30.8628    0.0000 </r>
       <r>   31.8719    0.0000 </r>
       <r>   36.7612    0.0000 </r>
       <r>   39.1341    0.0000 </r>
       <r>   39.7159    0.0000 </r>
       <r>   40.7042    0.0000 </r>
       <r>   43.0780    0.0000 </r>
       <r>   46.0659    0.0000 </r>
       <r>   48.2599    0.0000 </r>
       <r>   50.3840    0.0000 </r>
       <r>   52.0432    0.0000 </r>
       <r>   52.6433    0.0000 </r>
       <r>   59.5859    0.0000 </r>
      </set>
      <set comment="kpoint 3">
       <r>  -41.3464    1.0000 </r>
       <r>  -41.2189    1.0000 </r>
       <r>  -41.2040    1.0000 </r>
       <r>    3.1280    1.0000 </r>
       <r>    7.2130    1.0000 </r>
       <r>    8.0679    1.0000 </r>
       <r>    8.1046    1.0000 </r>
       <r>    9.4558    1.0000 </r>
       <r>    9.9820    1.0000 </r>
       <r>   25.4237    0.0000 </r>
       <r>   27.6460    0.0000 </r>
       <r>   31.8115    0.0000 </r>
       <r>   33.7113    0.0000 </r>
       <r>   33.8440    0.0000 </r>
       <r>   36.9112    0.0000 </r>
       <r>   37.0364    0.0000 </r>
       <r>   43.5483    0.0000 </r>
       <r>   43.5567    0.0000 </r>
       <r>   46.7330    0.0000 </r>
       <r>   48.8364    0.0000 </r>
       <r>   51.4372    0.0000 </r>
       <r>   52.0470    0.0000 </r>
       <r>   53.3362    0.0000 </r>
       <r>   59.8829    0.0000 </r>
      </set>
      <set comment="kpoint 4">
       <r>  -41.4659    1.0000 </r>
       <r>  -41.2372    1.0000 </r>
       <r>  -41.2220    1.0000 </r>
       <r>    4.1131    1.0000 </r>
       <r>    7.7499    1.0000 </r>
       <r>    7.9284    1.0000 </r>
       <r>    7.9570    1.0000 </r>
       <r>   10.0772    1.0000 </r>
       <r>   10.6837    1.0000 </r>
       <r>   21.8708    0.0000 </r>
       <r>   26.8959    0.0000 </r>
       <r>   31.1131    0.0000 </r>
       <r>   33.3076    0.0000 </r>
       <r>   34.6722    0.0000 </r>
       <r>   36.3767    0.0000 </r>
       <r>   37.0402    0.0000 </r>
       <r>   44.0242    0.0000 </r>
       <r>   46.1341    0.0000 </r>
       <r>   48.3304    0.0000 </r>
       <r>   49.7321    0.0000 </r>
       <r>   52.0541    0.0000 </r>
       <r>   52.2542    0.0000 </r>
       <r>   54.0585    0.0000 </r>
       <r>   58.8293    0.0000 </r>
      </set>
      <set comment="kpoint 5">
       <r>  -41.5551    1.0000 </r>
       <r>  -41.2489    1.0000 </r>
       <r>  -41.2383    1.0000 </r>
       <r>    4.3831    1.0000 </r>
       <r>    7.6505    1.0000 </r>
       <r>    7.7437    1.0000 </r>
       <r>    9.4580    1.0000 </r>
       <r>   10.8681    1.0000 </r>
       <r>   11.5258    0.0000 </r>
       <r>   18.2650    0.0000 </r>
       <r>   25.9021    0.0000 </r>
       <r>   29.7547    0.0000 </r>
       <r>   30.7803    0.0000 </r>
       <r>   37.4085    0.0000 </r>
       <r>   38.3421    0.0000 </r>
       <r>   39.0274    0.0000 </r>
       <r>   44.7557    0.0000 </r>
       <r>   46.0356    0.0000 </r>
       <r>   47.4584    0.0000 </r>
       <r>   51.9285    0.0000 </r>
       <r>   52.0506    0.0000 </r>
       <r>   54.6837    0.0000 </r>
       <r>   54.9179    0.0000 </r>
       <r>   55.9516    0.0000 </r>
      </set>
      <set comment="kpoint 6">
       <r>  -41.5795    1.0000 </r>
       <r>  -41.2493    1.0000 </r>
       <r>  -41.2456    1.0000 </r>
       <r>    4.3933    1.0000 </r>
       <r>    7.5655    1.0000 </r>
       <r>    7.6939    1.0000 </r>
       <r>   10.1501    1.0000 </r>
       <r>   11.2560    0.2687 </r>
       <r>   11.9851    0.0000 </r>
       <r>   16.7646    0.0000 </r>
       <r>   25.6338    0.0000 </r>
       <r>   29.6726    0.0000 </r>
       <r>   29.7308    0.0000 </r>
       <r>   38.5599    0.0000 </r>
       <r>   38.7602    0.0000 </r>
       <r>   40.2371    0.0000 </r>
       <r>   45.0530    0.0000 </r>
       <r>   46.0710    0.0000 </r>
       <r>   46.1050    0.0000 </r>
       <r>   52.0523    0.0000 </r>
       <r>   53.0399    0.0000 </r>
       <r>   53.6690    0.0000 </r>
       <r>   55.3950    0.0000 </r>
       <r>   56.3876    0.0000 </r>
      </set>
      <set comment="kpoint 7">
       <r>  -41.5315    1.0000 </r>
       <r>  -41.2413    1.0000 </r>
       <r>  -41.2381    1.0000 </r>
       <r>    4.3478    1.0000 </r>
       <r>    7.6892    1.0000 </r>
       <r>    7.8336    1.0000 </r>
       <r>    8.8231    1.0000 </r>
       <r>   10.9358    1.0000 </r>
       <r>   10.9822    1.0000 </r>
       <r>   19.3850    0.0000 </r>
       <r>   26.1701    0.0000 </r>
       <r>   30.3420    0.0000 </r>
       <r>   31.1657    0.0000 </r>
       <r>   37.1786    0.0000 </r>
       <r>   37.3419    0.0000 </r>
       <r>   38.2070    0.0000 </r>
       <r>   43.9738    0.0000 </r>
       <r>   47.0182    0.0000 </r>
       <r>   47.7295    0.0000 </r>
       <r>   51.7774    0.0000 </r>
       <r>   52.0530    0.0000 </r>
       <r>   53.1106    0.0000 </r>
       <r>   54.8108    0.0000 </r>
       <r>   56.5827    0.0000 </r>
      </set>
      <set comment="kpoint 8">
       <r>  -41.4276    1.0000 </r>
       <r>  -41.2273    1.0000 </r>
       <r>  -41.2200    1.0000 </r>
       <r>    3.8577    1.0000 </r>
       <r>    7.4263    1.0000 </r>
       <r>    7.9592    1.0000 </r>
       <r>    8.0530    1.0000 </r>
       <r>    9.9357    1.0000 </r>
       <r>   10.3192    1.0000 </r>
       <r>   23.1124    0.0000 </r>
       <r>   27.3005    0.0000 </r>
       <r>   31.7990    0.0000 </r>
       <r>   33.2674    0.0000 </r>
       <r>   34.8289    0.0000 </r>
       <r>   35.7990    0.0000 </r>
       <r>   36.4084    0.0000 </r>
       <r>   43.5291    0.0000 </r>
       <r>   46.7608    0.0000 </r>
       <r>   47.1449    0.0000 </r>
       <r>   49.5481    0.0000 </r>
       <r>   51.0410    0.0000 </r>
       <r>   52.0539    0.0000 </r>
       <r>   54.3374    0.0000 </r>
       <r>   59.7287    0.0000 </r>
      </set>
      <set comment="kpoint 9">
       <r>  -41.3070    1.0000 </r>
       <r>  -41.2092    1.0000 </r>
       <r>  -41.2024    1.0000 </r>
       <r>    2.7312    1.0000 </r>
       <r>    7.2272    1.0000 </r>
       <r>    8.0613    1.0000 </r>
       <r>    8.0815    1.0000 </r>
       <r>    9.4015    1.0000 </r>
       <r>    9.8358    1.0000 </r>
       <r>   26.4909    0.0000 </r>
       <r>   27.5124    0.0000 </r>
       <r>   31.6446    0.0000 </r>
       <r>   32.6330    0.0000 </r>
       <r>   35.0153    0.0000 </r>
       <r>   37.0690    0.0000 </r>
       <r>   38.3934    0.0000 </r>
       <r>   42.1526    0.0000 </r>
       <r>   43.3516    0.0000 </r>
       <r>   47.0413    0.0000 </r>
       <r>   48.6766    0.0000 </r>
       <r>   50.4020    0.0000 </r>
       <r>   52.0446    0.0000 </r>
       <r>   53.4303    0.0000 </r>
       <r>   59.8235    0.0000 </r>
      </set>
      <set comment="kpoint 10">
       <r>  -41.2159    1.0000 </r>
       <r>  -41.1939    1.0000 </r>
       <r>  -41.1916    1.0000 </r>
       <r>    1.8008    1.0000 </r>
       <r>    7.4901    1.0000 </r>
       <r>    7.8332    1.0000 </r>
       <r>    7.8402    1.0000 </r>
       <r>    9.5023    1.0000 </r>
       <r>    9.7477    1.0000 </r>
       <r>   26.4538    0.0000 </r>
       <r>   29.3399    0.0000 </r>
       <r>   30.8046    0.0000 </r>
       <r>   31.0656    0.0000 </r>
       <r>   37.5544    0.0000 </r>
       <r>   39.4872    0.0000 </r>
       <r>   39.7250    0.0000 </r>
       <r>   41.6465    0.0000 </r>
       <r>   42.7552    0.0000 </r>
       <r>   46.5999    0.0000 </r>
       <r>   47.0527    0.0000 </r>
       <r>   50.2802    0.0000 </r>
       <r>   52.0366    0.0000 </r>
       <r>   52.4639    0.0000 </r>
       <r>   59.2854    0.0000 </r>
      </set>
      <set comment="kpoint 11">
       <r>  -41.2513    1.0000 </r>
       <r>  -41.2072    1.0000 </r>
       <r>  -41.2047    1.0000 </r>
       <r>    2.2959    1.0000 </r>
       <r>    7.2037    1.0000 </r>
       <r>    8.0787    1.0000 </r>
       <r>    8.0847    1.0000 </r>
       <r>    9.1984    1.0000 </r>
       <r>    9.8878    1.0000 </r>
       <r>   27.1563    0.0000 </r>
       <r>   28.6192    0.0000 </r>
       <r>   30.6474    0.0000 </r>
       <r>   31.0379    0.0000 </r>
       <r>   37.2092    0.0000 </r>
       <r>   38.1052    0.0000 </r>
       <r>   39.6881    0.0000 </r>
       <r>   40.3612    0.0000 </r>
       <r>   42.3150    0.0000 </r>
       <r>   48.0227    0.0000 </r>
       <r>   48.6723    0.0000 </r>
       <r>   49.0178    0.0000 </r>
       <r>   52.0447    0.0000 </r>
       <r>   53.2081    0.0000 </r>
       <r>   60.4516    0.0000 </r>
      </set>
      <set comment="kpoint 12">
       <r>  -41.3249    1.0000 </r>
       <r>  -41.2336    1.0000 </r>
       <r>  -41.2153    1.0000 </r>
       <r>    3.1934    1.0000 </r>
       <r>    6.8710    1.0000 </r>
       <r>    8.1890    1.0000 </r>
       <r>    8.4292    1.0000 </r>
       <r>    9.0973    1.0000 </r>
       <r>   10.1567    1.0000 </r>
       <r>   26.7781    0.0000 </r>
       <r>   28.0455    0.0000 </r>
       <r>   30.2033    0.0000 </r>
       <r>   31.4759    0.0000 </r>
       <r>   34.9962    0.0000 </r>
       <r>   37.3009    0.0000 </r>
       <r>   38.1819    0.0000 </r>
       <r>   41.7831    0.0000 </r>
       <r>   43.7045    0.0000 </r>
       <r>   47.1753    0.0000 </r>
       <r>   48.2115    0.0000 </r>
       <r>   51.4949    0.0000 </r>
       <r>   52.0468    0.0000 </r>
       <r>   54.5613    0.0000 </r>
       <r>   60.1983    0.0000 </r>
      </set>
      <set comment="kpoint 13">
       <r>  -41.4299    1.0000 </r>
       <r>  -41.2575    1.0000 </r>
       <r>  -41.2324    1.0000 </r>
       <r>    4.3096    1.0000 </r>
       <r>    6.9046    1.0000 </r>
       <r>    7.7922    1.0000 </r>
       <r>    8.4401    1.0000 </r>
       <r>    9.8980    1.0000 </r>
       <r>   10.8461    1.0000 </r>
       <r>   23.3572    0.0000 </r>
       <r>   27.6779    0.0000 </r>
       <r>   29.4528    0.0000 </r>
       <r>   31.6507    0.0000 </r>
       <r>   35.5384    0.0000 </r>
       <r>   36.5032    0.0000 </r>
       <r>   38.4523    0.0000 </r>
       <r>   41.1522    0.0000 </r>
       <r>   46.8316    0.0000 </r>
       <r>   48.0965    0.0000 </r>
       <r>   48.8675    0.0000 </r>
       <r>   51.8143    0.0000 </r>
       <r>   52.0556    0.0000 </r>
       <r>   56.1938    0.0000 </r>
       <r>   58.1511    0.0000 </r>
      </set>
      <set comment="kpoint 14">
       <r>  -41.5207    1.0000 </r>
       <r>  -41.2752    1.0000 </r>
       <r>  -41.2502    1.0000 </r>
       <r>    4.7835    1.0000 </r>
       <r>    7.3969    1.0000 </r>
       <r>    7.9148    1.0000 </r>
       <r>    8.2403    1.0000 </r>
       <r>   10.9162    1.0000 </r>
       <r>   12.0105    0.0000 </r>
       <r>   19.4905    0.0000 </r>
       <r>   26.6831    0.0000 </r>
       <r>   28.4310    0.0000 </r>
       <r>   30.5940    0.0000 </r>
       <r>   36.6230    0.0000 </r>
       <r>   38.6537    0.0000 </r>
       <r>   39.6973    0.0000 </r>
       <r>   41.4270    0.0000 </r>
       <r>   47.9156    0.0000 </r>
       <r>   48.4446    0.0000 </r>
       <r>   49.7330    0.0000 </r>
       <r>   52.0557    0.0000 </r>
       <r>   53.6839    0.0000 </r>
       <r>   55.0306    0.0000 </r>
       <r>   56.6387    0.0000 </r>
      </set>
      <set comment="kpoint 15">
       <r>  -41.5617    1.0000 </r>
       <r>  -41.2868    1.0000 </r>
       <r>  -41.2567    1.0000 </r>
       <r>    4.8244    1.0000 </r>
       <r>    7.2373    1.0000 </r>
       <r>    8.0615    1.0000 </r>
       <r>    8.9335    1.0000 </r>
       <r>   11.1868    0.9101 </r>
       <r>   13.6290    0.0000 </r>
       <r>   16.6455    0.0000 </r>
       <r>   26.1848    0.0000 </r>
       <r>   28.1156    0.0000 </r>
       <r>   29.3889    0.0000 </r>
       <r>   38.0016    0.0000 </r>
       <r>   38.8070    0.0000 </r>
       <r>   41.4526    0.0000 </r>
       <r>   43.6744    0.0000 </r>
       <r>   46.0070    0.0000 </r>
       <r>   47.5595    0.0000 </r>
       <r>   50.8076    0.0000 </r>
       <r>   52.0538    0.0000 </r>
       <r>   52.1678    0.0000 </r>
       <r>   55.8241    0.0000 </r>
       <r>   57.5760    0.0000 </r>
      </set>
      <set comment="kpoint 16">
       <r>  -41.5392    1.0000 </r>
       <r>  -41.2881    1.0000 </r>
       <r>  -41.2466    1.0000 </r>
       <r>    4.8365    1.0000 </r>
       <r>    7.3449    1.0000 </r>
       <r>    8.0889    1.0000 </r>
       <r>    8.4982    1.0000 </r>
       <r>   10.7419    1.0000 </r>
       <r>   12.7370    0.0000 </r>
       <r>   18.3988    0.0000 </r>
       <r>   26.3352    0.0000 </r>
       <r>   27.9716    0.0000 </r>
       <r>   30.6342    0.0000 </r>
       <r>   36.5203    0.0000 </r>
       <r>   38.7411    0.0000 </r>
       <r>   40.8133    0.0000 </r>
       <r>   43.1381    0.0000 </r>
       <r>   46.7782    0.0000 </r>
       <r>   48.1757    0.0000 </r>
       <r>   49.2993    0.0000 </r>
       <r>   52.0566    0.0000 </r>
       <r>   53.7360    0.0000 </r>
       <r>   55.8721    0.0000 </r>
       <r>   56.7110    0.0000 </r>
      </set>
      <set comment="kpoint 17">
       <r>  -41.4624    1.0000 </r>
       <r>  -41.2755    1.0000 </r>
       <r>  -41.2277    1.0000 </r>
       <r>    4.5926    1.0000 </r>
       <r>    7.2257    1.0000 </r>
       <r>    7.6908    1.0000 </r>
       <r>    8.3283    1.0000 </r>
       <r>    9.8236    1.0000 </r>
       <r>   11.4596    0.0000 </r>
       <r>   22.0858    0.0000 </r>
       <r>   27.0310    0.0000 </r>
       <r>   28.8901    0.0000 </r>
       <r>   32.5806    0.0000 </r>
       <r>   34.4689    0.0000 </r>
       <r>   37.6670    0.0000 </r>
       <r>   39.5285    0.0000 </r>
       <r>   41.2559    0.0000 </r>
       <r>   46.3795    0.0000 </r>
       <r>   47.2532    0.0000 </r>
       <r>   50.8392    0.0000 </r>
       <r>   52.0518    0.0000 </r>
       <r>   52.6944    0.0000 </r>
       <r>   55.9108    0.0000 </r>
       <r>   57.1625    0.0000 </r>
      </set>
      <set comment="kpoint 18">
       <r>  -41.3610    1.0000 </r>
       <r>  -41.2492    1.0000 </r>
       <r>  -41.2093    1.0000 </r>
       <r>    3.5836    1.0000 </r>
       <r>    6.9109    1.0000 </r>
       <r>    8.0445    1.0000 </r>
       <r>    8.4603    1.0000 </r>
       <r>    9.1018    1.0000 </r>
       <r>   10.4610    1.0000 </r>
       <r>   25.5564    0.0000 </r>
       <r>   27.7468    0.0000 </r>
       <r>   30.4369    0.0000 </r>
       <r>   31.4829    0.0000 </r>
       <r>   35.1299    0.0000 </r>
       <r>   37.4606    0.0000 </r>
       <r>   38.6715    0.0000 </r>
       <r>   40.8050    0.0000 </r>
       <r>   44.6004    0.0000 </r>
       <r>   46.4177    0.0000 </r>
       <r>   48.4508    0.0000 </r>
       <r>   52.0480    0.0000 </r>
       <r>   53.2964    0.0000 </r>
       <r>   54.9208    0.0000 </r>
       <r>   59.1075    0.0000 </r>
      </set>
      <set comment="kpoint 19">
       <r>  -41.2792    1.0000 </r>
       <r>  -41.2141    1.0000 </r>
       <r>  -41.1985    1.0000 </r>
       <r>    2.5243    1.0000 </r>
       <r>    7.1988    1.0000 </r>
       <r>    8.0783    1.0000 </r>
       <r>    8.0966    1.0000 </r>
       <r>    9.2504    1.0000 </r>
       <r>    9.8892    1.0000 </r>
       <r>   27.3083    0.0000 </r>
       <r>   27.5718    0.0000 </r>
       <r>   30.7001    0.0000 </r>
       <r>   32.3063    0.0000 </r>
       <r>   35.3803    0.0000 </r>
       <r>   38.1351    0.0000 </r>
       <r>   39.8218    0.0000 </r>
       <r>   41.3225    0.0000 </r>
       <r>   41.8797    0.0000 </r>
       <r>   46.9892    0.0000 </r>
       <r>   48.8215    0.0000 </r>
       <r>   50.2461    0.0000 </r>
       <r>   52.0449    0.0000 </r>
       <r>   53.6288    0.0000 </r>
       <r>   59.9896    0.0000 </r>
      </set>
      <set comment="kpoint 20">
       <r>  -41.3538    1.0000 </r>
       <r>  -41.2482    1.0000 </r>
       <r>  -41.2473    1.0000 </r>
       <r>    3.7903    1.0000 </r>
       <r>    6.4236    1.0000 </r>
       <r>    8.3387    1.0000 </r>
       <r>    8.9037    1.0000 </r>
       <r>    9.1219    1.0000 </r>
       <r>   10.3256    1.0000 </r>
       <r>   27.4589    0.0000 </r>
       <r>   28.7908    0.0000 </r>
       <r>   28.9966    0.0000 </r>
       <r>   29.7710    0.0000 </r>
       <r>   33.0884    0.0000 </r>
       <r>   37.4621    0.0000 </r>
       <r>   37.6461    0.0000 </r>
       <r>   43.3209    0.0000 </r>
       <r>   44.7970    0.0000 </r>
       <r>   45.8483    0.0000 </r>
       <r>   50.8082    0.0000 </r>
       <r>   51.4899    0.0000 </r>
       <r>   52.0561    0.0000 </r>
       <r>   53.3311    0.0000 </r>
       <r>   62.6863    0.0000 </r>
      </set>
      <set comment="kpoint 21">
       <r>  -41.4252    1.0000 </r>
       <r>  -41.2813    1.0000 </r>
       <r>  -41.2636    1.0000 </r>
       <r>    4.6762    1.0000 </r>
       <r>    6.1329    1.0000 </r>
       <r>    7.9672    1.0000 </r>
       <r>    9.3381    1.0000 </r>
       <r>    9.9143    1.0000 </r>
       <r>   10.8846    1.0000 </r>
       <r>   24.9950    0.0000 </r>
       <r>   26.9625    0.0000 </r>
       <r>   28.2272    0.0000 </r>
       <r>   30.7712    0.0000 </r>
       <r>   32.6709    0.0000 </r>
       <r>   37.7077    0.0000 </r>
       <r>   38.9298    0.0000 </r>
       <r>   43.2945    0.0000 </r>
       <r>   44.0965    0.0000 </r>
       <r>   48.1541    0.0000 </r>
       <r>   51.0046    0.0000 </r>
       <r>   52.0488    0.0000 </r>
       <r>   52.8007    0.0000 </r>
       <r>   54.0719    0.0000 </r>
       <r>   60.8262    0.0000 </r>
      </set>
      <set comment="kpoint 22">
       <r>  -41.4927    1.0000 </r>
       <r>  -41.3144    1.0000 </r>
       <r>  -41.2800    1.0000 </r>
       <r>    5.2614    1.0000 </r>
       <r>    6.3931    1.0000 </r>
       <r>    7.6273    1.0000 </r>
       <r>    9.1685    1.0000 </r>
       <r>   11.0413    1.0000 </r>
       <r>   12.3024    0.0000 </r>
       <r>   20.9287    0.0000 </r>
       <r>   26.2700    0.0000 </r>
       <r>   26.6252    0.0000 </r>
       <r>   30.4431    0.0000 </r>
       <r>   35.4184    0.0000 </r>
       <r>   38.1402    0.0000 </r>
       <r>   40.0131    0.0000 </r>
       <r>   42.8325    0.0000 </r>
       <r>   45.5242    0.0000 </r>
       <r>   48.4095    0.0000 </r>
       <r>   50.9598    0.0000 </r>
       <r>   52.0445    0.0000 </r>
       <r>   54.3550    0.0000 </r>
       <r>   54.8805    0.0000 </r>
       <r>   58.5116    0.0000 </r>
      </set>
      <set comment="kpoint 23">
       <r>  -41.5251    1.0000 </r>
       <r>  -41.3473    1.0000 </r>
       <r>  -41.2820    1.0000 </r>
       <r>    5.4360    1.0000 </r>
       <r>    6.7219    1.0000 </r>
       <r>    7.8399    1.0000 </r>
       <r>    8.9148    1.0000 </r>
       <r>   11.2287    0.5619 </r>
       <r>   14.8154    0.0000 </r>
       <r>   17.3276    0.0000 </r>
       <r>   25.0920    0.0000 </r>
       <r>   26.6874    0.0000 </r>
       <r>   29.6087    0.0000 </r>
       <r>   37.4335    0.0000 </r>
       <r>   39.2826    0.0000 </r>
       <r>   40.0945    0.0000 </r>
       <r>   43.4368    0.0000 </r>
       <r>   46.9240    0.0000 </r>
       <r>   48.2165    0.0000 </r>
       <r>   50.0387    0.0000 </r>
       <r>   52.0545    0.0000 </r>
       <r>   53.1779    0.0000 </r>
       <r>   55.6229    0.0000 </r>
       <r>   58.2212    0.0000 </r>
      </set>
      <set comment="kpoint 24">
       <r>  -41.5148    1.0000 </r>
       <r>  -41.3660    1.0000 </r>
       <r>  -41.2688    1.0000 </r>
       <r>    5.6398    1.0000 </r>
       <r>    6.8177    1.0000 </r>
       <r>    7.8391    1.0000 </r>
       <r>    8.7848    1.0000 </r>
       <r>   10.6864    1.0000 </r>
       <r>   14.6154    0.0000 </r>
       <r>   18.0611    0.0000 </r>
       <r>   24.0253    0.0000 </r>
       <r>   27.7285    0.0000 </r>
       <r>   29.8275    0.0000 </r>
       <r>   36.4619    0.0000 </r>
       <r>   38.6126    0.0000 </r>
       <r>   41.6150    0.0000 </r>
       <r>   44.8446    0.0000 </r>
       <r>   46.4607    0.0000 </r>
       <r>   48.1928    0.0000 </r>
       <r>   49.7275    0.0000 </r>
       <r>   51.5868    0.0000 </r>
       <r>   52.0602    0.0000 </r>
       <r>   55.3610    0.0000 </r>
       <r>   57.4803    0.0000 </r>
      </set>
      <set comment="kpoint 25">
       <r>  -41.4779    1.0000 </r>
       <r>  -41.3506    1.0000 </r>
       <r>  -41.2468    1.0000 </r>
       <r>    5.6784    1.0000 </r>
       <r>    6.9242    1.0000 </r>
       <r>    7.1987    1.0000 </r>
       <r>    8.8800    1.0000 </r>
       <r>    9.7797    1.0000 </r>
       <r>   12.9820    0.0000 </r>
       <r>   21.3124    0.0000 </r>
       <r>   24.1248    0.0000 </r>
       <r>   28.3706    0.0000 </r>
       <r>   32.0181    0.0000 </r>
       <r>   33.7898    0.0000 </r>
       <r>   38.6774    0.0000 </r>
       <r>   41.7784    0.0000 </r>
       <r>   43.0111    0.0000 </r>
       <r>   45.0346    0.0000 </r>
       <r>   47.1011    0.0000 </r>
       <r>   51.2269    0.0000 </r>
       <r>   52.0499    0.0000 </r>
       <r>   54.5114    0.0000 </r>
       <r>   55.3646    0.0000 </r>
       <r>   56.0664    0.0000 </r>
      </set>
      <set comment="kpoint 26">
       <r>  -41.4348    1.0000 </r>
       <r>  -41.2960    1.0000 </r>
       <r>  -41.2256    1.0000 </r>
       <r>    4.7486    1.0000 </r>
       <r>    6.7872    1.0000 </r>
       <r>    7.6655    1.0000 </r>
       <r>    8.7386    1.0000 </r>
       <r>    9.2661    1.0000 </r>
       <r>   11.5774    0.0000 </r>
       <r>   23.3818    0.0000 </r>
       <r>   26.3109    0.0000 </r>
       <r>   29.1077    0.0000 </r>
       <r>   31.9060    0.0000 </r>
       <r>   34.5734    0.0000 </r>
       <r>   38.2778    0.0000 </r>
       <r>   39.5884    0.0000 </r>
       <r>   41.0746    0.0000 </r>
       <r>   45.0563    0.0000 </r>
       <r>   46.4448    0.0000 </r>
       <r>   50.9500    0.0000 </r>
       <r>   52.0467    0.0000 </r>
       <r>   54.3004    0.0000 </r>
       <r>   56.1102    0.0000 </r>
       <r>   57.0952    0.0000 </r>
      </set>
      <set comment="kpoint 27">
       <r>  -41.3888    1.0000 </r>
       <r>  -41.2358    1.0000 </r>
       <r>  -41.2137    1.0000 </r>
       <r>    3.6774    1.0000 </r>
       <r>    7.0958    1.0000 </r>
       <r>    8.0166    1.0000 </r>
       <r>    8.2225    1.0000 </r>
       <r>    9.5107    1.0000 </r>
       <r>   10.3732    1.0000 </r>
       <r>   24.4075    0.0000 </r>
       <r>   27.7300    0.0000 </r>
       <r>   30.9730    0.0000 </r>
       <r>   32.5240    0.0000 </r>
       <r>   35.2352    0.0000 </r>
       <r>   35.9537    0.0000 </r>
       <r>   37.6360    0.0000 </r>
       <r>   42.1337    0.0000 </r>
       <r>   45.5037    0.0000 </r>
       <r>   47.5146    0.0000 </r>
       <r>   48.4947    0.0000 </r>
       <r>   51.6299    0.0000 </r>
       <r>   52.0531    0.0000 </r>
       <r>   54.9430    0.0000 </r>
       <r>   59.4964    0.0000 </r>
      </set>
      <set comment="kpoint 28">
       <r>  -41.4654    1.0000 </r>
       <r>  -41.2966    1.0000 </r>
       <r>  -41.2942    1.0000 </r>
       <r>    4.8549    1.0000 </r>
       <r>    5.6687    1.0000 </r>
       <r>    8.8548    1.0000 </r>
       <r>   10.0251    1.0000 </r>
       <r>   10.4285    1.0000 </r>
       <r>   10.8594    1.0000 </r>
       <r>   24.9123    0.0000 </r>
       <r>   25.6913    0.0000 </r>
       <r>   26.4459    0.0000 </r>
       <r>   30.1174    0.0000 </r>
       <r>   31.7782    0.0000 </r>
       <r>   39.6361    0.0000 </r>
       <r>   40.0250    0.0000 </r>
       <r>   42.1318    0.0000 </r>
       <r>   45.1994    0.0000 </r>
       <r>   48.0760    0.0000 </r>
       <r>   52.0431    0.0000 </r>
       <r>   53.2134    0.0000 </r>
       <r>   53.3094    0.0000 </r>
       <r>   54.1350    0.0000 </r>
       <r>   59.2433    0.0000 </r>
      </set>
      <set comment="kpoint 29">
       <r>  -41.5081    1.0000 </r>
       <r>  -41.3273    1.0000 </r>
       <r>  -41.3095    1.0000 </r>
       <r>    5.0465    1.0000 </r>
       <r>    5.5305    1.0000 </r>
       <r>    8.9846    1.0000 </r>
       <r>   10.3985    1.0000 </r>
       <r>   11.0573    1.0000 </r>
       <r>   12.2600    0.0000 </r>
       <r>   22.0844    0.0000 </r>
       <r>   24.1212    0.0000 </r>
       <r>   24.8568    0.0000 </r>
       <r>   31.1663    0.0000 </r>
       <r>   33.0090    0.0000 </r>
       <r>   39.2667    0.0000 </r>
       <r>   41.8165    0.0000 </r>
       <r>   43.2413    0.0000 </r>
       <r>   46.0778    0.0000 </r>
       <r>   47.2341    0.0000 </r>
       <r>   51.8479    0.0000 </r>
       <r>   52.0502    0.0000 </r>
       <r>   54.2382    0.0000 </r>
       <r>   55.9532    0.0000 </r>
       <r>   56.9003    0.0000 </r>
      </set>
      <set comment="kpoint 30">
       <r>  -41.5166    1.0000 </r>
       <r>  -41.3751    1.0000 </r>
       <r>  -41.3113    1.0000 </r>
       <r>    5.2767    1.0000 </r>
       <r>    5.8844    1.0000 </r>
       <r>    8.5857    1.0000 </r>
       <r>   10.0170    1.0000 </r>
       <r>   11.3562    0.0003 </r>
       <r>   15.0288    0.0000 </r>
       <r>   18.6662    0.0000 </r>
       <r>   22.8462    0.0000 </r>
       <r>   24.7099    0.0000 </r>
       <r>   31.2334    0.0000 </r>
       <r>   35.6231    0.0000 </r>
       <r>   38.4397    0.0000 </r>
       <r>   41.3544    0.0000 </r>
       <r>   45.3649    0.0000 </r>
       <r>   46.7179    0.0000 </r>
       <r>   47.5066    0.0000 </r>
       <r>   51.1778    0.0000 </r>
       <r>   52.0546    0.0000 </r>
       <r>   52.8937    0.0000 </r>
       <r>   55.3813    0.0000 </r>
       <r>   56.5919    0.0000 </r>
      </set>
      <set comment="kpoint 31">
       <r>  -41.4802    1.0000 </r>
       <r>  -41.4322    1.0000 </r>
       <r>  -41.2961    1.0000 </r>
       <r>    5.6477    1.0000 </r>
       <r>    6.4674    1.0000 </r>
       <r>    7.9461    1.0000 </r>
       <r>    9.5902    1.0000 </r>
       <r>   10.9135    1.0000 </r>
       <r>   16.0786    0.0000 </r>
       <r>   18.4457    0.0000 </r>
       <r>   21.1666    0.0000 </r>
       <r>   26.2475    0.0000 </r>
       <r>   30.6202    0.0000 </r>
       <r>   37.3215    0.0000 </r>
       <r>   38.8368    0.0000 </r>
       <r>   39.3260    0.0000 </r>
       <r>   45.8272    0.0000 </r>
       <r>   47.0706    0.0000 </r>
       <r>   49.7891    0.0000 </r>
       <r>   50.9921    0.0000 </r>
       <r>   51.2654    0.0000 </r>
       <r>   52.0623    0.0000 </r>
       <r>   54.3266    0.0000 </r>
       <r>   56.9162    0.0000 </r>
      </set>
      <set comment="kpoint 32">
       <r>  -41.4828    1.0000 </r>
       <r>  -41.4065    1.0000 </r>
       <r>  -41.2712    1.0000 </r>
       <r>    5.9842    1.0000 </r>
       <r>    6.8156    1.0000 </r>
       <r>    7.3343    1.0000 </r>
       <r>    9.1283    1.0000 </r>
       <r>   10.3665    1.0000 </r>
       <r>   14.4753    0.0000 </r>
       <r>   19.9058    0.0000 </r>
       <r>   22.0606    0.0000 </r>
       <r>   27.9497    0.0000 </r>
       <r>   30.3084    0.0000 </r>
       <r>   35.6938    0.0000 </r>
       <r>   38.5314    0.0000 </r>
       <r>   41.4684    0.0000 </r>
       <r>   44.6374    0.0000 </r>
       <r>   47.7841    0.0000 </r>
       <r>   48.5922    0.0000 </r>
       <r>   49.1479    0.0000 </r>
       <r>   52.0560    0.0000 </r>
       <r>   52.1858    0.0000 </r>
       <r>   53.6991    0.0000 </r>
       <r>   57.5751    0.0000 </r>
      </set>
      <set comment="kpoint 33">
       <r>  -41.5065    1.0000 </r>
       <r>  -41.3217    1.0000 </r>
       <r>  -41.2467    1.0000 </r>
       <r>    5.2472    1.0000 </r>
       <r>    7.2057    1.0000 </r>
       <r>    7.6386    1.0000 </r>
       <r>    8.4922    1.0000 </r>
       <r>   10.2488    1.0000 </r>
       <r>   12.9139    0.0000 </r>
       <r>   19.8374    0.0000 </r>
       <r>   25.5786    0.0000 </r>
       <r>   27.8899    0.0000 </r>
       <r>   31.3554    0.0000 </r>
       <r>   34.9977    0.0000 </r>
       <r>   38.7011    0.0000 </r>
       <r>   41.7591    0.0000 </r>
       <r>   42.3442    0.0000 </r>
       <r>   46.3200    0.0000 </r>
       <r>   47.6342    0.0000 </r>
       <r>   49.8248    0.0000 </r>
       <r>   52.0515    0.0000 </r>
       <r>   54.0751    0.0000 </r>
       <r>   55.5081    0.0000 </r>
       <r>   57.1217    0.0000 </r>
      </set>
      <set comment="kpoint 34">
       <r>  -41.4984    1.0000 </r>
       <r>  -41.2535    1.0000 </r>
       <r>  -41.2324    1.0000 </r>
       <r>    4.4288    1.0000 </r>
       <r>    7.6844    1.0000 </r>
       <r>    7.9488    1.0000 </r>
       <r>    8.0536    1.0000 </r>
       <r>   10.4007    1.0000 </r>
       <r>   11.2362    0.4775 </r>
       <r>   20.6719    0.0000 </r>
       <r>   26.6945    0.0000 </r>
       <r>   29.7345    0.0000 </r>
       <r>   32.0376    0.0000 </r>
       <r>   35.6199    0.0000 </r>
       <r>   37.4788    0.0000 </r>
       <r>   38.4061    0.0000 </r>
       <r>   42.6852    0.0000 </r>
       <r>   46.9264    0.0000 </r>
       <r>   48.8401    0.0000 </r>
       <r>   50.2372    0.0000 </r>
       <r>   52.0554    0.0000 </r>
       <r>   52.2567    0.0000 </r>
       <r>   55.4565    0.0000 </r>
       <r>   56.8737    0.0000 </r>
      </set>
      <set comment="kpoint 35">
       <r>  -41.5423    1.0000 </r>
       <r>  -41.3320    1.0000 </r>
       <r>  -41.3270    1.0000 </r>
       <r>    4.7419    1.0000 </r>
       <r>    5.1814    1.0000 </r>
       <r>   10.6997    1.0000 </r>
       <r>   10.9637    1.0000 </r>
       <r>   11.3974    0.0000 </r>
       <r>   12.3804    0.0000 </r>
       <r>   21.1849    0.0000 </r>
       <r>   23.0868    0.0000 </r>
       <r>   23.2615    0.0000 </r>
       <r>   30.7043    0.0000 </r>
       <r>   33.4169    0.0000 </r>
       <r>   39.6998    0.0000 </r>
       <r>   43.7040    0.0000 </r>
       <r>   44.2372    0.0000 </r>
       <r>   46.0559    0.0000 </r>
       <r>   47.8470    0.0000 </r>
       <r>   52.0402    0.0000 </r>
       <r>   53.0463    0.0000 </r>
       <r>   53.0600    0.0000 </r>
       <r>   53.8527    0.0000 </r>
       <r>   54.3437    0.0000 </r>
      </set>
      <set comment="kpoint 36">
       <r>  -41.5476    1.0000 </r>
       <r>  -41.3520    1.0000 </r>
       <r>  -41.3327    1.0000 </r>
       <r>    4.8331    1.0000 </r>
       <r>    5.2409    1.0000 </r>
       <r>   10.2138    1.0000 </r>
       <r>   10.8879    1.0000 </r>
       <r>   11.5916    0.0000 </r>
       <r>   14.4862    0.0000 </r>
       <r>   19.2394    0.0000 </r>
       <r>   22.1432    0.0000 </r>
       <r>   22.9676    0.0000 </r>
       <r>   31.7130    0.0000 </r>
       <r>   33.8618    0.0000 </r>
       <r>   39.0257    0.0000 </r>
       <r>   43.6833    0.0000 </r>
       <r>   46.3003    0.0000 </r>
       <r>   46.5215    0.0000 </r>
       <r>   48.3184    0.0000 </r>
       <r>   51.3776    0.0000 </r>
       <r>   52.0487    0.0000 </r>
       <r>   52.3147    0.0000 </r>
       <r>   52.7260    0.0000 </r>
       <r>   53.8204    0.0000 </r>
      </set>
      <set comment="kpoint 37">
       <r>  -41.5182    1.0000 </r>
       <r>  -41.3925    1.0000 </r>
       <r>  -41.3180    1.0000 </r>
       <r>    5.2117    1.0000 </r>
       <r>    5.7781    1.0000 </r>
       <r>    8.9542    1.0000 </r>
       <r>   10.2492    1.0000 </r>
       <r>   11.3449    0.0009 </r>
       <r>   16.3782    0.0000 </r>
       <r>   17.8830    0.0000 </r>
       <r>   21.4692    0.0000 </r>
       <r>   24.3290    0.0000 </r>
       <r>   31.6181    0.0000 </r>
       <r>   35.7329    0.0000 </r>
       <r>   38.2994    0.0000 </r>
       <r>   41.3780    0.0000 </r>
       <r>   46.4193    0.0000 </r>
       <r>   46.8362    0.0000 </r>
       <r>   48.8892    0.0000 </r>
       <r>   50.1110    0.0000 </r>
       <r>   52.0556    0.0000 </r>
       <r>   52.9001    0.0000 </r>
       <r>   53.8965    0.0000 </r>
       <r>   56.2711    0.0000 </r>
      </set>
      <set comment="kpoint 38">
       <r>  -41.5070    1.0000 </r>
       <r>  -41.3914    1.0000 </r>
       <r>  -41.2913    1.0000 </r>
       <r>    5.6036    1.0000 </r>
       <r>    6.5311    1.0000 </r>
       <r>    7.8866    1.0000 </r>
       <r>    9.3044    1.0000 </r>
       <r>   11.0848    1.0000 </r>
       <r>   16.5027    0.0000 </r>
       <r>   16.6414    0.0000 </r>
       <r>   23.1213    0.0000 </r>
       <r>   26.3902    0.0000 </r>
       <r>   30.1492    0.0000 </r>
       <r>   37.3824    0.0000 </r>
       <r>   39.0495    0.0000 </r>
       <r>   39.7174    0.0000 </r>
       <r>   45.1749    0.0000 </r>
       <r>   46.4184    0.0000 </r>
       <r>   48.9038    0.0000 </r>
       <r>   50.6281    0.0000 </r>
       <r>   52.0597    0.0000 </r>
       <r>   52.3620    0.0000 </r>
       <r>   55.1759    0.0000 </r>
       <r>   57.6143    0.0000 </r>
      </set>
      <set comment="kpoint 39">
       <r>  -41.5438    1.0000 </r>
       <r>  -41.3230    1.0000 </r>
       <r>  -41.2637    1.0000 </r>
       <r>    5.2059    1.0000 </r>
       <r>    6.9926    1.0000 </r>
       <r>    8.3874    1.0000 </r>
       <r>    8.4038    1.0000 </r>
       <r>   11.0110    1.0000 </r>
       <r>   14.5733    0.0000 </r>
       <r>   16.7132    0.0000 </r>
       <r>   25.7209    0.0000 </r>
       <r>   27.4841    0.0000 </r>
       <r>   29.3932    0.0000 </r>
       <r>   37.4291    0.0000 </r>
       <r>   38.7049    0.0000 </r>
       <r>   41.8118    0.0000 </r>
       <r>   44.6292    0.0000 </r>
       <r>   45.3240    0.0000 </r>
       <r>   48.0225    0.0000 </r>
       <r>   50.5320    0.0000 </r>
       <r>   51.2154    0.0000 </r>
       <r>   52.0596    0.0000 </r>
       <r>   56.1603    0.0000 </r>
       <r>   57.5368    0.0000 </r>
      </set>
      <set comment="kpoint 40">
       <r>  -41.5654    1.0000 </r>
       <r>  -41.2623    1.0000 </r>
       <r>  -41.2468    1.0000 </r>
       <r>    4.5438    1.0000 </r>
       <r>    7.4770    1.0000 </r>
       <r>    7.8374    1.0000 </r>
       <r>    9.3750    1.0000 </r>
       <r>   11.1198    0.9994 </r>
       <r>   12.3939    0.0000 </r>
       <r>   17.3232    0.0000 </r>
       <r>   25.9527    0.0000 </r>
       <r>   29.0091    0.0000 </r>
       <r>   30.0337    0.0000 </r>
       <r>   37.8699    0.0000 </r>
       <r>   38.7781    0.0000 </r>
       <r>   40.2742    0.0000 </r>
       <r>   44.0561    0.0000 </r>
       <r>   46.6938    0.0000 </r>
       <r>   46.8561    0.0000 </r>
       <r>   51.2835    0.0000 </r>
       <r>   52.0531    0.0000 </r>
       <r>   53.6681    0.0000 </r>
       <r>   55.6874    0.0000 </r>
       <r>   56.4747    0.0000 </r>
      </set>
      <set comment="kpoint 41">
       <r>  -41.5575    1.0000 </r>
       <r>  -41.3393    1.0000 </r>
       <r>  -41.3340    1.0000 </r>
       <r>    4.6549    1.0000 </r>
       <r>    5.0787    1.0000 </r>
       <r>   11.1337    0.9978 </r>
       <r>   11.1769    0.9473 </r>
       <r>   11.6098    0.0000 </r>
       <r>   13.3894    0.0000 </r>
       <r>   19.7031    0.0000 </r>
       <r>   22.4200    0.0000 </r>
       <r>   22.6868    0.0000 </r>
       <r>   30.9645    0.0000 </r>
       <r>   33.7775    0.0000 </r>
       <r>   39.3825    0.0000 </r>
       <r>   44.7159    0.0000 </r>
       <r>   46.2182    0.0000 </r>
       <r>   46.3098    0.0000 </r>
       <r>   48.7063    0.0000 </r>
       <r>   50.6105    0.0000 </r>
       <r>   51.1241    0.0000 </r>
       <r>   52.0557    0.0000 </r>
       <r>   53.5992    0.0000 </r>
       <r>   54.4680    0.0000 </r>
      </set>
      <set comment="kpoint 42">
       <r>  -41.5341    1.0000 </r>
       <r>  -41.3434    1.0000 </r>
       <r>  -41.3249    1.0000 </r>
       <r>    4.9239    1.0000 </r>
       <r>    5.3392    1.0000 </r>
       <r>    9.7225    1.0000 </r>
       <r>   10.7705    1.0000 </r>
       <r>   11.3810    0.0000 </r>
       <r>   13.4241    0.0000 </r>
       <r>   20.5146    0.0000 </r>
       <r>   22.8923    0.0000 </r>
       <r>   23.5793    0.0000 </r>
       <r>   31.4687    0.0000 </r>
       <r>   33.5630    0.0000 </r>
       <r>   39.1995    0.0000 </r>
       <r>   43.1697    0.0000 </r>
       <r>   44.4713    0.0000 </r>
       <r>   46.4793    0.0000 </r>
       <r>   47.7007    0.0000 </r>
       <r>   51.8237    0.0000 </r>
       <r>   52.0523    0.0000 </r>
       <r>   52.9877    0.0000 </r>
       <r>   54.3427    0.0000 </r>
       <r>   54.9218    0.0000 </r>
      </set>
      <set comment="kpoint 43">
       <r>  -41.5087    1.0000 </r>
       <r>  -41.3464    1.0000 </r>
       <r>  -41.2984    1.0000 </r>
       <r>    5.3396    1.0000 </r>
       <r>    6.0995    1.0000 </r>
       <r>    8.0553    1.0000 </r>
       <r>    9.6166    1.0000 </r>
       <r>   11.2912    0.0535 </r>
       <r>   13.5652    0.0000 </r>
       <r>   19.7087    0.0000 </r>
       <r>   24.6646    0.0000 </r>
       <r>   25.4702    0.0000 </r>
       <r>   30.7166    0.0000 </r>
       <r>   35.4939    0.0000 </r>
       <r>   38.4646    0.0000 </r>
       <r>   40.8849    0.0000 </r>
       <r>   44.1277    0.0000 </r>
       <r>   46.0226    0.0000 </r>
       <r>   47.4931    0.0000 </r>
       <r>   51.0251    0.0000 </r>
       <r>   52.0563    0.0000 </r>
       <r>   53.8910    0.0000 </r>
       <r>   56.0253    0.0000 </r>
       <r>   58.2866    0.0000 </r>
      </set>
      <set comment="kpoint 44">
       <r>  -41.5298    1.0000 </r>
       <r>  -41.3071    1.0000 </r>
       <r>  -41.2683    1.0000 </r>
       <r>    5.1399    1.0000 </r>
       <r>    7.0385    1.0000 </r>
       <r>    7.8534    1.0000 </r>
       <r>    8.5390    1.0000 </r>
       <r>   11.2042    0.8015 </r>
       <r>   13.2355    0.0000 </r>
       <r>   18.3508    0.0000 </r>
       <r>   26.4818    0.0000 </r>
       <r>   27.2633    0.0000 </r>
       <r>   29.6160    0.0000 </r>
       <r>   37.2491    0.0000 </r>
       <r>   39.4424    0.0000 </r>
       <r>   40.0352    0.0000 </r>
       <r>   41.8183    0.0000 </r>
       <r>   47.9126    0.0000 </r>
       <r>   48.0763    0.0000 </r>
       <r>   49.3914    0.0000 </r>
       <r>   52.0516    0.0000 </r>
       <r>   53.8976    0.0000 </r>
       <r>   55.2525    0.0000 </r>
       <r>   58.0356    0.0000 </r>
      </set>
      <set comment="kpoint 45">
       <r>  -41.5103    1.0000 </r>
       <r>  -41.3173    1.0000 </r>
       <r>  -41.3134    1.0000 </r>
       <r>    4.8595    1.0000 </r>
       <r>    5.3818    1.0000 </r>
       <r>    9.8072    1.0000 </r>
       <r>   10.5726    1.0000 </r>
       <r>   11.1250    0.9990 </r>
       <r>   11.2958    0.0408 </r>
       <r>   23.1480    0.0000 </r>
       <r>   24.3103    0.0000 </r>
       <r>   24.4309    0.0000 </r>
       <r>   30.3299    0.0000 </r>
       <r>   32.7257    0.0000 </r>
       <r>   40.1536    0.0000 </r>
       <r>   41.8052    0.0000 </r>
       <r>   42.4079    0.0000 </r>
       <r>   46.4680    0.0000 </r>
       <r>   47.0238    0.0000 </r>
       <r>   52.0380    0.0000 </r>
       <r>   53.5177    0.0000 </r>
       <r>   53.7592    0.0000 </r>
       <r>   55.9532    0.0000 </r>
       <r>   56.2875    0.0000 </r>
      </set>
      <set comment="kpoint 46">
       <r>  -41.4708    1.0000 </r>
       <r>  -41.3056    1.0000 </r>
       <r>  -41.2884    1.0000 </r>
       <r>    5.0423    1.0000 </r>
       <r>    5.8016    1.0000 </r>
       <r>    8.2833    1.0000 </r>
       <r>    9.8765    1.0000 </r>
       <r>   10.5624    1.0000 </r>
       <r>   11.4067    0.0000 </r>
       <r>   23.6203    0.0000 </r>
       <r>   25.5128    0.0000 </r>
       <r>   26.6007    0.0000 </r>
       <r>   31.0468    0.0000 </r>
       <r>   32.3916    0.0000 </r>
       <r>   38.7202    0.0000 </r>
       <r>   40.2557    0.0000 </r>
       <r>   43.1754    0.0000 </r>
       <r>   44.5759    0.0000 </r>
       <r>   48.0572    0.0000 </r>
       <r>   52.0428    0.0000 </r>
       <r>   52.1166    0.0000 </r>
       <r>   54.1283    0.0000 </r>
       <r>   54.3869    0.0000 </r>
       <r>   58.9447    0.0000 </r>
      </set>
      <set comment="kpoint 47">
       <r>  -41.4658    1.0000 </r>
       <r>  -41.2836    1.0000 </r>
       <r>  -41.2565    1.0000 </r>
       <r>    4.8985    1.0000 </r>
       <r>    6.6762    1.0000 </r>
       <r>    7.5581    1.0000 </r>
       <r>    8.7614    1.0000 </r>
       <r>   10.5225    1.0000 </r>
       <r>   11.4189    0.0000 </r>
       <r>   22.1864    0.0000 </r>
       <r>   27.3194    0.0000 </r>
       <r>   27.9404    0.0000 </r>
       <r>   30.8065    0.0000 </r>
       <r>   35.4329    0.0000 </r>
       <r>   37.4708    0.0000 </r>
       <r>   39.1698    0.0000 </r>
       <r>   41.5528    0.0000 </r>
       <r>   46.0476    0.0000 </r>
       <r>   48.5467    0.0000 </r>
       <r>   51.4605    0.0000 </r>
       <r>   51.7471    0.0000 </r>
       <r>   52.0487    0.0000 </r>
       <r>   55.1792    0.0000 </r>
       <r>   58.6344    0.0000 </r>
      </set>
      <set comment="kpoint 48">
       <r>  -41.4114    1.0000 </r>
       <r>  -41.2726    1.0000 </r>
       <r>  -41.2716    1.0000 </r>
       <r>    4.4998    1.0000 </r>
       <r>    6.0244    1.0000 </r>
       <r>    8.3374    1.0000 </r>
       <r>    9.4442    1.0000 </r>
       <r>    9.7067    1.0000 </r>
       <r>   10.5900    1.0000 </r>
       <r>   26.4179    0.0000 </r>
       <r>   27.2508    0.0000 </r>
       <r>   28.2748    0.0000 </r>
       <r>   30.4400    0.0000 </r>
       <r>   31.0439    0.0000 </r>
       <r>   38.3722    0.0000 </r>
       <r>   38.5729    0.0000 </r>
       <r>   43.2617    0.0000 </r>
       <r>   44.1431    0.0000 </r>
       <r>   48.0777    0.0000 </r>
       <r>   51.7424    0.0000 </r>
       <r>   52.0530    0.0000 </r>
       <r>   52.4599    0.0000 </r>
       <r>   53.1787    0.0000 </r>
       <r>   61.7571    0.0000 </r>
      </set>
      <set comment="kpoint 49">
       <r>  -41.3747    1.0000 </r>
       <r>  -41.2566    1.0000 </r>
       <r>  -41.2381    1.0000 </r>
       <r>    3.9711    1.0000 </r>
       <r>    6.5004    1.0000 </r>
       <r>    8.0603    1.0000 </r>
       <r>    8.8482    1.0000 </r>
       <r>    9.3515    1.0000 </r>
       <r>   10.4914    1.0000 </r>
       <r>   26.0330    0.0000 </r>
       <r>   28.0928    0.0000 </r>
       <r>   29.5292    0.0000 </r>
       <r>   30.3805    0.0000 </r>
       <r>   34.2070    0.0000 </r>
       <r>   36.8650    0.0000 </r>
       <r>   38.0601    0.0000 </r>
       <r>   42.3720    0.0000 </r>
       <r>   45.2975    0.0000 </r>
       <r>   46.7220    0.0000 </r>
       <r>   49.0825    0.0000 </r>
       <r>   52.0501    0.0000 </r>
       <r>   52.4986    0.0000 </r>
       <r>   54.5459    0.0000 </r>
       <r>   60.7062    0.0000 </r>
      </set>
      <set comment="kpoint 50">
       <r>  -41.2992    1.0000 </r>
       <r>  -41.2256    1.0000 </r>
       <r>  -41.2244    1.0000 </r>
       <r>    2.9896    1.0000 </r>
       <r>    6.8314    1.0000 </r>
       <r>    8.3730    1.0000 </r>
       <r>    8.4434    1.0000 </r>
       <r>    8.9039    1.0000 </r>
       <r>   10.0854    1.0000 </r>
       <r>   27.9549    0.0000 </r>
       <r>   28.2058    0.0000 </r>
       <r>   30.0131    0.0000 </r>
       <r>   30.5085    0.0000 </r>
       <r>   35.5690    0.0000 </r>
       <r>   37.2912    0.0000 </r>
       <r>   37.7452    0.0000 </r>
       <r>   42.7068    0.0000 </r>
       <r>   42.9717    0.0000 </r>
       <r>   46.5293    0.0000 </r>
       <r>   49.9445    0.0000 </r>
       <r>   50.2571    0.0000 </r>
       <r>   52.0487    0.0000 </r>
       <r>   53.4681    0.0000 </r>
       <r>   61.7735    0.0000 </r>
      </set>
      <set comment="kpoint 51">
       <r>  -41.2683    1.0000 </r>
       <r>  -41.1972    1.0000 </r>
       <r>  -41.1972    1.0000 </r>
       <r>    2.2805    1.0000 </r>
       <r>    7.3857    1.0000 </r>
       <r>    7.9491    1.0000 </r>
       <r>    7.9491    1.0000 </r>
       <r>    9.5965    1.0000 </r>
       <r>    9.5965    1.0000 </r>
       <r>   26.9977    0.0000 </r>
       <r>   27.5031    0.0000 </r>
       <r>   31.8721    0.0000 </r>
       <r>   31.8721    0.0000 </r>
       <r>   36.0524    0.0000 </r>
       <r>   38.6455    0.0000 </r>
       <r>   38.6455    0.0000 </r>
       <r>   40.6236    0.0000 </r>
       <r>   45.2336    0.0000 </r>
       <r>   45.2336    0.0000 </r>
       <r>   47.9706    0.0000 </r>
       <r>   51.7147    0.0000 </r>
       <r>   51.7147    0.0000 </r>
       <r>   52.0388    0.0000 </r>
       <r>   59.3467    0.0000 </r>
      </set>
      <set comment="kpoint 52">
       <r>  -41.3180    1.0000 </r>
       <r>  -41.2291    1.0000 </r>
       <r>  -41.1992    1.0000 </r>
       <r>    2.9655    1.0000 </r>
       <r>    7.1137    1.0000 </r>
       <r>    8.0918    1.0000 </r>
       <r>    8.2060    1.0000 </r>
       <r>    9.1772    1.0000 </r>
       <r>   10.0772    1.0000 </r>
       <r>   26.4667    0.0000 </r>
       <r>   27.6582    0.0000 </r>
       <r>   30.6124    0.0000 </r>
       <r>   33.2549    0.0000 </r>
       <r>   33.8210    0.0000 </r>
       <r>   38.3619    0.0000 </r>
       <r>   38.9362    0.0000 </r>
       <r>   41.3684    0.0000 </r>
       <r>   42.7040    0.0000 </r>
       <r>   46.2894    0.0000 </r>
       <r>   48.9072    0.0000 </r>
       <r>   51.9792    0.0000 </r>
[...]
       </set>
       <set comment="band 3">
        <r>  0.0000  0.4971  0.0000  0.4971  0.0000  0.0000  0.0000  0.0000  0.0000 </r>
       </set>
       <set comment="band 4">
        <r>  0.1390  0.0000  0.0058  0.0000  0.1857  0.1381  0.0046  0.1381  0.0000 </r>
       </set>
       <set comment="band 5">
        <r>  0.0001  0.0010  0.0000  0.0010  0.1259  0.0734  0.5281  0.0734  0.0000 </r>
       </set>
       <set comment="band 6">
        <r>  0.0000  0.0006  0.0000  0.0006  0.0000  0.1820  0.0000  0.1820  0.4690 </r>
       </set>
       <set comment="band 7">
        <r>  0.0331  0.0224  0.0226  0.0224  0.3716  0.0073  0.0778  0.0073  0.0000 </r>
       </set>
       <set comment="band 8">
        <r>  0.0000  0.0001  0.0000  0.0001  0.0000  0.2683  0.0000  0.2683  0.4095 </r>
       </set>
       <set comment="band 9">
        <r>  0.0402  0.0139  0.0267  0.0139  0.0775  0.1527  0.2339  0.1527  0.0000 </r>
       </set>
       <set comment="band 10">
        <r>  0.2801  0.0216  0.0141  0.0216  0.1130  0.0884  0.0039  0.0884  0.0000 </r>
       </set>
       <set comment="band 11">
        <r>  0.0012  0.0019  0.0105  0.0019  0.0184  0.0001  0.0246  0.0001  0.0000 </r>
       </set>
       <set comment="band 12">
        <r>  0.0000  0.1143  0.0000  0.1143  0.0000  0.0131  0.0000  0.0131  0.0149 </r>
       </set>
       <set comment="band 13">
        <r>  0.0218  0.0327  0.1348  0.0327  0.0424  0.0063  0.0323  0.0063  0.0000 </r>
       </set>
       <set comment="band 14">
        <r>  0.0000  0.0013  0.0000  0.0013  0.0000  0.0283  0.0000  0.0283  0.1643 </r>
       </set>
       <set comment="band 15">
        <r>  0.0002  0.0099  0.0023  0.0099  0.0481  0.0174  0.1929  0.0174  0.0000 </r>
       </set>
       <set comment="band 16">
        <r>  0.0551  0.0276  0.0022  0.0276  0.0755  0.0167  0.0336  0.0167  0.0000 </r>
       </set>
       <set comment="band 17">
        <r>  0.1021  0.0379  0.0982  0.0379  0.0129  0.0303  0.0001  0.0303  0.0000 </r>
       </set>
       <set comment="band 18">
        <r>  0.0378  0.0016  0.0898  0.0016  0.0147  0.0332  0.0007  0.0332  0.0000 </r>
       </set>
       <set comment="band 19">
        <r>  0.0000  0.1250  0.0000  0.1250  0.0000  0.0358  0.0000  0.0358  0.0845 </r>
       </set>
       <set comment="band 20">
        <r>  0.0000  0.0821  0.0000  0.0821  0.0000  0.0250  0.0000  0.0250  0.0004 </r>
       </set>
       <set comment="band 21">
        <r>  6.2971  0.0000  0.0000  0.0000  0.0000  0.0000  0.0000  0.0000  0.0000 </r>
       </set>
       <set comment="band 22">
        <r>  0.0032  0.0095  0.0721  0.0095  0.0255  0.0024  0.0422  0.0024  0.0000 </r>
       </set>
       <set comment="band 23">
        <r>  0.0270  0.0039  0.0315  0.0039  0.1699  0.0088  0.0000  0.0088  0.0000 </r>
       </set>
       <set comment="band 24">
        <r>  0.0880  0.0015  0.0005  0.0015  0.0187  0.0012  0.0003  0.0012  0.0000 </r>
       </set>
      </set>
      <set comment="kpoint 106">
       <set comment="band 1">
        <r>  0.0000  0.2959  0.4064  0.2818  0.0000  0.0000  0.0000  0.0000  0.0000 </r>
       </set>
       <set comment="band 2">
        <r>  0.0000  0.0043  0.3627  0.6249  0.0000  0.0000  0.0000  0.0000  0.0000 </r>
       </set>
       <set comment="band 3">
        <r>  0.0000  0.6906  0.2200  0.0831  0.0000  0.0000  0.0000  0.0000  0.0000 </r>
       </set>
       <set comment="band 4">
        <r>  0.1052  0.0003  0.0070  0.0030  0.2187  0.1884  0.0065  0.1052  0.0011 </r>
       </set>
       <set comment="band 5">
        <r>  0.0000  0.0053  0.0001  0.0002  0.0638  0.1296  0.4402  0.0012  0.1197 </r>
       </set>
       <set comment="band 6">
        <r>  0.0078  0.0111  0.0099  0.0186  0.1740  0.1742  0.1538  0.0782  0.0551 </r>
       </set>
       <set comment="band 7">
        <r>  0.0038  0.0054  0.0115  0.0015  0.1767  0.0035  0.0297  0.1667  0.3769 </r>
       </set>
       <set comment="band 8">
        <r>  0.0007  0.0001  0.0011  0.0005  0.0827  0.0854  0.0675  0.4452  0.2453 </r>
       </set>
       <set comment="band 9">
        <r>  0.0721  0.0205  0.0386  0.0193  0.0190  0.2712  0.1288  0.0175  0.0535 </r>
       </set>
       <set comment="band 10">
        <r>  0.2956  0.0145  0.0088  0.0262  0.1305  0.0456  0.0079  0.0941  0.0174 </r>
       </set>
       <set comment="band 11">
        <r>  0.0055  0.0165  0.0001  0.0698  0.0452  0.0086  0.0399  0.0136  0.0365 </r>
       </set>
       <set comment="band 12">
        <r>  0.0376  0.0011  0.0946  0.0681  0.0093  0.0204  0.0423  0.0250  0.0107 </r>
       </set>
       <set comment="band 13">
        <r>  0.0031  0.1370  0.0461  0.0069  0.0130  0.0005  0.0247  0.0000  0.0001 </r>
       </set>
       <set comment="band 14">
        <r>  0.0001  0.0029  0.0042  0.0127  0.0371  0.0489  0.0053  0.0115  0.0915 </r>
       </set>
       <set comment="band 15">
        <r>  0.0000  0.0000  0.0020  0.0027  0.0734  0.0081  0.1195  0.0124  0.0012 </r>
       </set>
       <set comment="band 16">
        <r>  0.1736  0.0027  0.0043  0.0006  0.0206  0.0151  0.0116  0.0490  0.0008 </r>
       </set>
       <set comment="band 17">
        <r>  0.0299  0.1013  0.0483  0.0312  0.0142  0.0254  0.0193  0.0035  0.0405 </r>
       </set>
       <set comment="band 18">
        <r>  0.0051  0.1016  0.0488  0.0398  0.0024  0.0195  0.0001  0.0226  0.0449 </r>
       </set>
       <set comment="band 19">
        <r>  0.0203  0.0665  0.0522  0.0606  0.0001  0.0416  0.0461  0.0002  0.0311 </r>
       </set>
       <set comment="band 20">
        <r>  0.0000  0.0020  0.0011  0.0176  0.0005  0.0532  0.0054  0.0054  0.0003 </r>
       </set>
       <set comment="band 21">
        <r>  6.2927  0.0000  0.0000  0.0000  0.0000  0.0000  0.0000  0.0000  0.0000 </r>
       </set>
       <set comment="band 22">
        <r>  0.0028  0.0004  0.0155  0.0057  0.0590  0.0008  0.0092  0.0001  0.0116 </r>
       </set>
       <set comment="band 23">
        <r>  0.0201  0.0141  0.0364  0.0055  0.0274  0.0004  0.0030  0.0286  0.0339 </r>
       </set>
       <set comment="band 24">
        <r>  0.0097  0.0028  0.0637  0.0314  0.0278  0.0516  0.0008  0.0077  0.0159 </r>
       </set>
      </set>
      <set comment="kpoint 107">
       <set comment="band 1">
        <r>  0.0000  0.2459  0.3562  0.3831  0.0000  0.0000  0.0000  0.0000  0.0000 </r>
       </set>
       <set comment="band 2">
        <r>  0.0000  0.0518  0.3593  0.5783  0.0000  0.0000  0.0000  0.0000  0.0000 </r>
       </set>
       <set comment="band 3">
        <r>  0.0000  0.6931  0.2734  0.0265  0.0000  0.0000  0.0000  0.0000  0.0000 </r>
       </set>
       <set comment="band 4">
        <r>  0.0566  0.0000  0.0064  0.0052  0.0928  0.4005  0.0207  0.0400  0.0600 </r>
       </set>
       <set comment="band 5">
        <r>  0.0043  0.0122  0.0052  0.0008  0.0949  0.0016  0.3499  0.0155  0.1986 </r>
       </set>
       <set comment="band 6">
        <r>  0.0001  0.0069  0.0099  0.0221  0.3723  0.2088  0.0144  0.0315  0.0138 </r>
       </set>
       <set comment="band 7">
        <r>  0.0016  0.0002  0.0035  0.0018  0.0073  0.0005  0.2862  0.1406  0.4028 </r>
       </set>
       <set comment="band 8">
        <r>  0.0048  0.0000  0.0000  0.0004  0.1488  0.0294  0.0602  0.6008  0.0820 </r>
       </set>
       <set comment="band 9">
        <r>  0.2346  0.0156  0.0388  0.0083  0.0001  0.2141  0.0581  0.0200  0.0069 </r>
       </set>
       <set comment="band 10">
        <r>  0.1596  0.0162  0.0163  0.0637  0.1519  0.0003  0.0306  0.0671  0.0713 </r>
       </set>
       <set comment="band 11">
        <r>  0.0752  0.0150  0.0387  0.1090  0.0584  0.0070  0.0103  0.0378  0.0947 </r>
       </set>
       <set comment="band 12">
        <r>  0.0113  0.0502  0.0954  0.0000  0.0019  0.0429  0.1412  0.0023  0.0038 </r>
       </set>
       <set comment="band 13">
        <r>  0.0019  0.0991  0.0073  0.0047  0.0041  0.0460  0.0025  0.0000  0.0091 </r>
       </set>
       <set comment="band 14">
        <r>  0.0003  0.0000  0.0022  0.0102  0.0731  0.0435  0.0044  0.0068  0.0276 </r>
       </set>
       <set comment="band 15">
        <r>  0.0000  0.0003  0.0006  0.0095  0.0272  0.0157  0.0289  0.0124  0.0035 </r>
       </set>
       <set comment="band 16">
        <r>  0.1527  0.0605  0.0082  0.0011  0.0173  0.0108  0.0001  0.0042  0.0383 </r>
       </set>
       <set comment="band 17">
        <r>  0.0870  0.1345  0.0029  0.0014  0.0012  0.0681  0.0296  0.0019  0.0302 </r>
       </set>
       <set comment="band 18">
        <r>  0.0019  0.0009  0.0372  0.0239  0.0018  0.0044  0.0008  0.0286  0.0571 </r>
       </set>
       <set comment="band 19">
        <r>  0.0086  0.0498  0.1023  0.0012  0.0013  0.0520  0.1155  0.0018  0.0007 </r>
       </set>
       <set comment="band 20">
        <r>  0.0027  0.0156  0.0018  0.0367  0.0318  0.0100  0.0033  0.0050  0.0320 </r>
       </set>
       <set comment="band 21">
        <r>  0.0002  0.0043  0.0028  0.0021  0.0016  0.0128  0.0037  0.0009  0.0010 </r>
       </set>
       <set comment="band 22">
        <r>  6.2924  0.0000  0.0000  0.0000  0.0000  0.0000  0.0000  0.0000  0.0000 </r>
       </set>
       <set comment="band 23">
        <r>  0.0069  0.0002  0.0390  0.0574  0.0236  0.0242  0.0004  0.0197  0.0129 </r>
       </set>
       <set comment="band 24">
        <r>  0.0082  0.0053  0.0380  0.0052  0.0041  0.0013  0.0148  0.0158  0.0274 </r>
       </set>
      </set>
      <set comment="kpoint 108">
       <set comment="band 1">
        <r>  0.0000  0.2823  0.4195  0.2823  0.0000  0.0000  0.0000  0.0000  0.0000 </r>
       </set>
       <set comment="band 2">
        <r>  0.0000  0.2113  0.5687  0.2113  0.0000  0.0000  0.0000  0.0000  0.0000 </r>
       </set>
       <set comment="band 3">
        <r>  0.0000  0.4968  0.0000  0.4968  0.0000  0.0000  0.0000  0.0000  0.0000 </r>
       </set>
       <set comment="band 4">
        <r>  0.0862  0.0013  0.0064  0.0013  0.3331  0.0964  0.0352  0.0964  0.0000 </r>
       </set>
       <set comment="band 5">
        <r>  0.0010  0.0063  0.0003  0.0063  0.0084  0.0628  0.5735  0.0628  0.0000 </r>
       </set>
       <set comment="band 6">
        <r>  0.0066  0.0121  0.0238  0.0121  0.3124  0.1251  0.0373  0.1251  0.0000 </r>
       </set>
       <set comment="band 7">
        <r>  0.0000  0.0014  0.0000  0.0014  0.0000  0.1410  0.0000  0.1410  0.5580 </r>
       </set>
       <set comment="band 8">
        <r>  0.0000  0.0001  0.0000  0.0001  0.0000  0.3162  0.0000  0.3162  0.3087 </r>
       </set>
       <set comment="band 9">
        <r>  0.0022  0.0350  0.0592  0.0350  0.0850  0.0625  0.1717  0.0625  0.0000 </r>
       </set>
       <set comment="band 10">
        <r>  0.3831  0.0047  0.0004  0.0047  0.1189  0.1009  0.0009  0.1009  0.0000 </r>
       </set>
       <set comment="band 11">
        <r>  0.0373  0.0139  0.0987  0.0139  0.0001  0.0324  0.1226  0.0324  0.0000 </r>
       </set>
       <set comment="band 12">
        <r>  0.0000  0.1148  0.0000  0.1148  0.0000  0.0031  0.0000  0.0031  0.0701 </r>
       </set>
       <set comment="band 13">
        <r>  0.0234  0.0264  0.0261  0.0264  0.0838  0.0020  0.0028  0.0020  0.0000 </r>
       </set>
       <set comment="band 14">
        <r>  0.0000  0.0006  0.0000  0.0006  0.0000  0.0466  0.0000  0.0466  0.0860 </r>
       </set>
       <set comment="band 15">
        <r>  0.0001  0.0016  0.0215  0.0016  0.0968  0.0001  0.0790  0.0001  0.0000 </r>
       </set>
       <set comment="band 16">
        <r>  0.1714  0.0275  0.0102  0.0275  0.0011  0.0161  0.0460  0.0161  0.0000 </r>
       </set>
       <set comment="band 17">
        <r>  0.0293  0.0404  0.0140  0.0404  0.0203  0.0254  0.0153  0.0254  0.0000 </r>
       </set>
       <set comment="band 18">
        <r>  0.0212  0.0056  0.0511  0.0056  0.0707  0.0095  0.0599  0.0095  0.0000 </r>
       </set>
       <set comment="band 19">
        <r>  0.0000  0.1697  0.0000  0.1697  0.0000  0.0004  0.0000  0.0004  0.1186 </r>
       </set>
       <set comment="band 20">
        <r>  0.0000  0.0064  0.0000  0.0064  0.0000  0.0189  0.0000  0.0189  0.0034 </r>
       </set>
       <set comment="band 21">
        <r>  6.2732  0.0000  0.0001  0.0000  0.0003  0.0000  0.0000  0.0000  0.0000 </r>
       </set>
       <set comment="band 22">
        <r>  0.0223  0.0029  0.0277  0.0029  0.0540  0.0032  0.0062  0.0032  0.0000 </r>
       </set>
       <set comment="band 23">
        <r>  0.0410  0.0074  0.0233  0.0074  0.0749  0.0198  0.0003  0.0198  0.0000 </r>
       </set>
       <set comment="band 24">
        <r>  0.0000  0.0342  0.0000  0.0342  0.0000  0.0129  0.0000  0.0129  0.0422 </r>
       </set>
      </set>
      <set comment="kpoint 109">
       <set comment="band 1">
        <r>  0.0000  0.3276  0.3276  0.3276  0.0000  0.0000  0.0000  0.0000  0.0000 </r>
       </set>
       <set comment="band 2">
        <r>  0.0000  0.6322  0.1281  0.2342  0.0000  0.0000  0.0000  0.0000  0.0000 </r>
       </set>
       <set comment="band 3">
        <r>  0.0000  0.0308  0.5349  0.4288  0.0000  0.0000  0.0000  0.0000  0.0000 </r>
       </set>
       <set comment="band 4">
        <r>  0.1391  0.0003  0.0003  0.0003  0.1605  0.1605  0.0000  0.1605  0.0000 </r>
       </set>
       <set comment="band 5">
        <r>  0.0000  0.0000  0.0000  0.0000  0.0000  0.1738  0.0000  0.1729  0.4826 </r>
       </set>
       <set comment="band 6">
        <r>  0.0000  0.0000  0.0000  0.0000  0.2311  0.0574  0.4826  0.0582  0.0000 </r>
       </set>
       <set comment="band 7">
        <r>  0.0323  0.0516  0.0516  0.0516  0.0213  0.0213  0.0000  0.0213  0.0000 </r>
       </set>
       <set comment="band 8">
        <r>  0.0000  0.0001  0.0000  0.0001  0.0000  0.2775  0.0000  0.2779  0.3871 </r>
       </set>
       <set comment="band 9">
        <r>  0.0000  0.0000  0.0001  0.0000  0.3703  0.0927  0.3871  0.0924  0.0000 </r>
       </set>
       <set comment="band 10">
        <r>  0.3320  0.0081  0.0081  0.0081  0.1243  0.1243  0.0000  0.1243  0.0000 </r>
       </set>
       <set comment="band 11">
        <r>  0.0003  0.0036  0.0036  0.0036  0.0011  0.0011  0.0000  0.0011  0.0000 </r>
       </set>
       <set comment="band 12">
        <r>  0.0000  0.0346  0.0420  0.1426  0.0012  0.0041  0.0001  0.0010  0.0003 </r>
       </set>
       <set comment="band 13">
        <r>  0.0000  0.1115  0.1041  0.0035  0.0030  0.0001  0.0003  0.0032  0.0001 </r>
       </set>
       <set comment="band 14">
        <r>  0.0000  0.0016  0.0000  0.0017  0.0001  0.0493  0.0003  0.0466  0.2640 </r>
       </set>
       <set comment="band 15">
        <r>  0.0000  0.0006  0.0023  0.0005  0.0639  0.0147  0.2640  0.0174  0.0003 </r>
       </set>
       <set comment="band 16">
        <r>  0.1091  0.0052  0.0052  0.0052  0.0592  0.0592  0.0000  0.0592  0.0000 </r>
       </set>
       <set comment="band 17">
        <r>  0.0000  0.0632  0.0419  0.2074  0.0036  0.0178  0.0025  0.0054  0.0101 </r>
       </set>
       <set comment="band 18">
        <r>  0.0000  0.1452  0.1664  0.0009  0.0143  0.0001  0.0101  0.0124  0.0025 </r>
       </set>
       <set comment="band 19">
        <r>  0.0500  0.0257  0.0257  0.0257  0.0202  0.0202  0.0000  0.0202  0.0000 </r>
       </set>
       <set comment="band 20">
        <r>  6.2997  0.0000  0.0000  0.0000  0.0000  0.0000  0.0000  0.0000  0.0000 </r>
       </set>
       <set comment="band 21">
        <r>  0.0000  0.0078  0.0516  0.0788  0.0250  0.0382  0.0021  0.0038  0.0017 </r>
       </set>
       <set comment="band 22">
        <r>  0.0000  0.0843  0.0405  0.0133  0.0196  0.0065  0.0017  0.0409  0.0021 </r>
       </set>
       <set comment="band 23">
        <r>  0.1883  0.0004  0.0004  0.0004  0.0112  0.0112  0.0000  0.0112  0.0000 </r>
       </set>
       <set comment="band 24">
        <r>  0.0000  0.0005  0.0041  0.0063  0.0899  0.1376  0.0068  0.0116  0.0053 </r>
       </set>
      </set>
      <set comment="kpoint 110">
       <set comment="band 1">
        <r>  0.0000  0.3278  0.3278  0.3273  0.0000  0.0000  0.0000  0.0000  0.0000 </r>
       </set>
       <set comment="band 2">
        <r>  0.0000  0.1654  0.1654  0.6627  0.0000  0.0000  0.0000  0.0000  0.0000 </r>
       </set>
       <set comment="band 3">
        <r>  0.0000  0.4971  0.4971  0.0000  0.0000  0.0000  0.0000  0.0000  0.0000 </r>
       </set>
       <set comment="band 4">
        <r>  0.1225  0.0009  0.0009  0.0019  0.1561  0.1930  0.0001  0.1561  0.0003 </r>
       </set>
       <set comment="band 5">
        <r>  0.0000  0.0010  0.0010  0.0001  0.0558  0.1793  0.1274  0.0558  0.3821 </r>
       </set>
       <set comment="band 6">
        <r>  0.0000  0.0003  0.0003  0.0000  0.1610  0.0000  0.3817  0.1610  0.1272 </r>
       </set>
       <set comment="band 7">
        <r>  0.0010  0.0261  0.0261  0.0263  0.0777  0.1985  0.0329  0.0777  0.0986 </r>
       </set>
       <set comment="band 8">
        <r>  0.0000  0.0001  0.0001  0.0000  0.2921  0.0000  0.2672  0.2921  0.0891 </r>
       </set>
       <set comment="band 9">
        <r>  0.0085  0.0319  0.0319  0.0328  0.0231  0.2171  0.0541  0.0231  0.1623 </r>
       </set>
       <set comment="band 10">
        <r>  0.3672  0.0008  0.0008  0.0048  0.1383  0.1124  0.0008  0.1383  0.0025 </r>
       </set>
       <set comment="band 11">
        <r>  0.0002  0.0009  0.0009  0.0136  0.0064  0.0082  0.0057  0.0064  0.0172 </r>
       </set>
       <set comment="band 12">
        <r>  0.0173  0.0384  0.0384  0.1306  0.0145  0.0073  0.0035  0.0145  0.0104 </r>
       </set>
       <set comment="band 13">
        <r>  0.0000  0.1112  0.1112  0.0000  0.0000  0.0000  0.0224  0.0000  0.0075 </r>
       </set>
       <set comment="band 14">
        <r>  0.0026  0.0000  0.0000  0.0118  0.0009  0.0905  0.0455  0.0009  0.1366 </r>
       </set>
       <set comment="band 15">
        <r>  0.0000  0.0006  0.0006  0.0000  0.0582  0.0000  0.1609  0.0582  0.0536 </r>
       </set>
       <set comment="band 16">
        <r>  0.1368  0.0001  0.0001  0.0022  0.0721  0.0251  0.0018  0.0721  0.0054 </r>
       </set>
       <set comment="band 17">
        <r>  0.0297  0.0706  0.0706  0.1078  0.0011  0.0003  0.0110  0.0011  0.0331 </r>
       </set>
       <set comment="band 18">
        <r>  0.0000  0.1617  0.1617  0.0000  0.0004  0.0000  0.0274  0.0004  0.0091 </r>
       </set>
       <set comment="band 19">
        <r>  0.0202  0.0137  0.0137  0.0673  0.0008  0.0474  0.0057  0.0008  0.0170 </r>
       </set>
       <set comment="band 20">
        <r>  0.0072  0.0056  0.0056  0.0229  0.0059  0.0698  0.0000  0.0059  0.0001 </r>
       </set>
       <set comment="band 21">
        <r>  6.2908  0.0000  0.0000  0.0001  0.0000  0.0001  0.0000  0.0000  0.0000 </r>
       </set>
       <set comment="band 22">
        <r>  0.0000  0.0133  0.0133  0.0000  0.0408  0.0000  0.0049  0.0408  0.0016 </r>
       </set>
       <set comment="band 23">
        <r>  0.1007  0.0031  0.0031  0.0000  0.0028  0.1044  0.0011  0.0028  0.0034 </r>
       </set>
       <set comment="band 24">
        <r>  0.0000  0.0497  0.0497  0.0000  0.0500  0.0000  0.0021  0.0500  0.0007 </r>
       </set>
      </set>
     </set>
    </set>
   </array>
  </projected>
 </calculation>
 <structure name="finalpos" >
  <crystal>
   <varray name="basis" >
    <v>       0.00000000       1.98978172       1.98978172 </v>
    <v>       1.98978172       0.00000000       1.98978172 </v>
    <v>       1.98978172       1.98978172       0.00000000 </v>
   </varray>
   <i name="volume">     15.75601203 </i>
   <varray name="rec_basis" >
    <v>      -0.25128384       0.25128384       0.25128384 </v>
    <v>       0.25128384      -0.25128384       0.25128384 </v>
    <v>       0.25128384       0.25128384      -0.25128384 </v>
   </varray>
  </crystal>
  <varray name="positions" >
   <v>       0.00000000       0.00000000       0.00000000 </v>
  </varray>
 </structure>
</modeling>
