Co-fcc                                  
   1.00000000000000     
     0.000000    1.724528    1.724528
     1.724528    0.000000    1.724528
     1.724528    1.724528    0.000000
   Co
     1
Direct
  0.000000  0.000000  0.000000
 
   32   32   32
  97.113      95.036      89.082      80.008      68.873      56.809      44.849      33.820      24.313      16.693    
  11.093      7.4167      5.3447      4.3857      3.9696      3.7324      3.6527      3.7324      3.9696      4.3857    
  5.3447      7.4167      11.093      16.693      24.313      33.820      44.849      56.809      68.873      80.008    
  89.082      95.036      95.036      91.022      83.517      73.438      61.887      49.947      38.542      28.374    
  19.918      13.419      8.8959      6.1366      4.7279      4.1271      3.8174      3.6600      3.6600      3.8174    
  4.1271      4.7279      6.1366      8.8959      13.419      19.918      28.374      38.542      49.947      61.887    
  73.438      83.517      91.022      95.036      89.082      83.517      75.027      64.592      53.270      42.031    
  31.665      22.743      15.617      10.414      7.0333      5.1554      4.2970      3.9081      3.6805      3.6043    
  3.6805      3.9081      4.2970      5.1554      7.0333      10.414      15.617      22.743      31.665      42.031    
  53.270      64.592      75.027      83.517      89.082      91.022      80.008      73.438      64.592      54.424    
  43.887      33.811      24.843      17.424      11.783      7.9233      5.6280      4.4916      3.9965      3.7105    
  3.5664      3.5664      3.7105      3.9965      4.4916      5.6280      7.9233      11.783      17.424      24.843    
  33.811      43.887      54.424      64.592      73.438      80.008      83.517      83.517      68.873      61.887    
  53.270      43.887      34.557      25.962      18.612      12.818      8.6797      6.0787      4.6971      4.0768    
  3.7447      3.5448      3.4784      3.5448      3.7447      4.0768      4.6971      6.0787      8.6797      12.818    
  18.612      25.962      34.557      43.887      53.270      61.888      68.873      73.438      75.027      73.438    
  56.809      49.947      42.031      33.811      25.962      19.026      13.375      9.1873      6.4329      4.8823    
  4.1490      3.7777      3.5355      3.4157      3.4157      3.5355      3.7777      4.1490      4.8823      6.4329    
  9.1873      13.375      19.026      25.962      33.811      42.031      49.947      56.809      61.888      64.592    
  64.592      61.887      44.849      38.542      31.665      24.843      18.612      13.375      9.3660      6.6277    
  5.0117      4.2064      3.8045      3.5339      3.3748      3.3226      3.3748      3.5339      3.8045      4.2064    
  5.0117      6.6277      9.3660      13.375      18.612      24.843      31.665      38.542      44.849      49.947    
  53.270      54.424      53.270      49.947      33.820      28.374      22.743      17.424      12.818      9.1873    
  6.6277      5.0582      4.2387      3.8219      3.5357      3.3506      3.2610      3.2610      3.3506      3.5357    
  3.8219      4.2387      5.0582      6.6277      9.1873      12.818      17.424      22.743      28.374      33.820    
  38.542      42.031      43.887      43.887      42.031      38.542      24.313      19.918      15.617      11.783    
  8.6797      6.4329      5.0117      4.2387      3.8279      3.5375      3.3384      3.2247      3.1880      3.2247    
  3.3384      3.5375      3.8279      4.2387      5.0117      6.4329      8.6797      11.783      15.617      19.918    
  24.313      28.374      31.665      33.811      34.557      33.811      31.665      28.374      16.693      13.419    
  10.414      7.9233      6.0787      4.8823      4.2064      3.8219      3.5375      3.3347      3.2081      3.1481    
  3.1481      3.2081      3.3347      3.5375      3.8219      4.2064      4.8823      6.0787      7.9233      10.414    
  13.419      16.693      19.918      22.743      24.843      25.962      25.962      24.843      22.743      19.918    
  11.093      8.8959      7.0333      5.6280      4.6971      4.1490      3.8045      3.5357      3.3384      3.2081    
  3.1355      3.1124      3.1355      3.2081      3.3384      3.5357      3.8045      4.1490      4.6971      5.6280    
  7.0333      8.8959      11.093      13.419      15.617      17.424      18.612      19.026      18.612      17.424    
  15.617      13.419      7.4167      6.1366      5.1554      4.4916      4.0768      3.7777      3.5339      3.3506    
  3.2247      3.1481      3.1124      3.1124      3.1481      3.2247      3.3506      3.5339      3.7777      4.0768    
  4.4916      5.1554      6.1366      7.4167      8.8959      10.414      11.783      12.818      13.375      13.375    
  12.818      11.783      10.414      8.8959      5.3447      4.7279      4.2970      3.9965      3.7447      3.5355    
  3.3748      3.2610      3.1880      3.1481      3.1355      3.1481      3.1880      3.2610      3.3748      3.5355    
  3.7447      3.9965      4.2970      4.7279      5.3447      6.1366      7.0333      7.9233      8.6797      9.1873    
  9.3660      9.1873      8.6797      7.9233      7.0333      6.1366      4.3857      4.1271      3.9081      3.7105    
  3.5448      3.4157      3.3226      3.2610      3.2247      3.2081      3.2081      3.2247      3.2610      3.3226    
  3.4157      3.5448      3.7105      3.9081      4.1271      4.3857      4.7279      5.1554      5.6280      6.0787    
  6.4329      6.6277      6.6277      6.4329      6.0787      5.6280      5.1554      4.7279      3.9696      3.8174    
  3.6805      3.5664      3.4784      3.4157      3.3748      3.3506      3.3384      3.3347      3.3384      3.3506    
  3.3748      3.4157      3.4784      3.5664      3.6805      3.8174      3.9696      4.1271      4.2970      4.4916    
  4.6971      4.8823      5.0117      5.0582      5.0117      4.8823      4.6971      4.4916      4.2970      4.1271    
  3.7324      3.6600      3.6043      3.5664      3.5448      3.5355      3.5339      3.5357      3.5375      3.5375    
  3.5357      3.5339      3.5355      3.5448      3.5664      3.6043      3.6600      3.7324      3.8174      3.9081    
  3.9965      4.0768      4.1490      4.2064      4.2387      4.2387      4.2064      4.1490      4.0768      3.9965    
  3.9081      3.8174      3.6527      3.6600      3.6805      3.7105      3.7447      3.7777      3.8045      3.8219    
  3.8279      3.8219      3.8045      3.7777      3.7447      3.7105      3.6805      3.6600      3.6527      3.6600    
  3.6805      3.7105      3.7447      3.7777      3.8045      3.8219      3.8279      3.8219      3.8045      3.7777    
  3.7447      3.7105      3.6805      3.6600      3.7324      3.8174      3.9081      3.9965      4.0768      4.1490    
  4.2064      4.2387      4.2387      4.2064      4.1490      4.0768      3.9965      3.9081      3.8174      3.7324    
  3.6600      3.6043      3.5664      3.5448      3.5355      3.5339      3.5357      3.5375      3.5375      3.5357    
  3.5339      3.5355      3.5448      3.5664      3.6043      3.6600      3.9696      4.1271      4.2970      4.4916    
  4.6971      4.8823      5.0117      5.0582      5.0117      4.8823      4.6971      4.4916      4.2970      4.1271    
  3.9696      3.8174      3.6805      3.5664      3.4784      3.4157      3.3748      3.3506      3.3384      3.3347    
  3.3384      3.3506      3.3748      3.4157      3.4784      3.5664      3.6805      3.8174      4.3857      4.7279    
  5.1554      5.6280      6.0787      6.4329      6.6277      6.6277      6.4329      6.0787      5.6280      5.1554    
  4.7279      4.3857      4.1271      3.9081      3.7105      3.5448      3.4157      3.3226      3.2610      3.2247    
  3.2081      3.2081      3.2247      3.2610      3.3226      3.4157      3.5448      3.7105      3.9081      4.1271    
  5.3447      6.1366      7.0333      7.9233      8.6797      9.1873      9.3660      9.1873      8.6797      7.9233    
  7.0333      6.1366      5.3447      4.7279      4.2970      3.9965      3.7447      3.5355      3.3748      3.2610    
  3.1880      3.1481      3.1355      3.1481      3.1880      3.2610      3.3748      3.5355      3.7447      3.9965    
  4.2970      4.7279      7.4167      8.8959      10.414      11.783      12.818      13.375      13.375      12.818    
  11.783      10.414      8.8959      7.4167      6.1366      5.1554      4.4916      4.0768      3.7777      3.5339    
  3.3506      3.2247      3.1481      3.1124      3.1124      3.1481      3.2247      3.3506      3.5339      3.7777    
  4.0768      4.4916      5.1554      6.1366      11.093      13.419      15.617      17.424      18.612      19.026    
  18.612      17.424      15.617      13.419      11.093      8.8959      7.0333      5.6280      4.6971      4.1490    
  3.8045      3.5357      3.3384      3.2081      3.1355      3.1124      3.1355      3.2081      3.3384      3.5357    
  3.8045      4.1490      4.6971      5.6280      7.0333      8.8959      16.693      19.918      22.743      24.843    
  25.962      25.962      24.843      22.743      19.918      16.693      13.419      10.414      7.9233      6.0787    
  4.8823      4.2064      3.8219      3.5375      3.3347      3.2081      3.1481      3.1481      3.2081      3.3347    
  3.5375      3.8219      4.2064      4.8823      6.0787      7.9233      10.414      13.419      24.313      28.374    
  31.665      33.811      34.557      33.811      31.665      28.374      24.313      19.918      15.617      11.783    
  8.6797      6.4329      5.0117      4.2387      3.8279      3.5375      3.3384      3.2247      3.1880      3.2247    
  3.3384      3.5375      3.8279      4.2387      5.0117      6.4329      8.6797      11.783      15.617      19.918    
  33.820      38.542      42.031      43.887      43.887      42.031      38.542      33.820      28.374      22.743    
  17.424      12.818      9.1873      6.6277      5.0582      4.2387      3.8219      3.5357      3.3506      3.2610    
  3.2610      3.3506      3.5357      3.8219      4.2387      5.0582      6.6277      9.1873      12.818      17.424    
  22.743      28.374      44.849      49.947      53.270      54.424      53.270      49.947      44.849      38.542    
  31.665      24.843      18.612      13.375      9.3660      6.6277      5.0117      4.2064      3.8045      3.5339    
  3.3748      3.3226      3.3748      3.5339      3.8045      4.2064      5.0117      6.6277      9.3660      13.375    
  18.612      24.843      31.665      38.542      56.809      61.887      64.592      64.592      61.888      56.809    
  49.947      42.031      33.811      25.962      19.026      13.375      9.1873      6.4329      4.8823      4.1490    
  3.7777      3.5355      3.4157      3.4157      3.5355      3.7777      4.1490      4.8823      6.4329      9.1873    
  13.375      19.026      25.962      33.811      42.031      49.947      68.873      73.438      75.027      73.438    
  68.873      61.888      53.270      43.887      34.557      25.962      18.612      12.818      8.6797      6.0787    
  4.6971      4.0768      3.7447      3.5448      3.4784      3.5448      3.7447      4.0768      4.6971      6.0787    
  8.6797      12.818      18.612      25.962      34.557      43.887      53.270      61.887      80.008      83.517    
  83.517      80.008      73.438      64.592      54.424      43.887      33.811      24.843      17.424      11.783    
  7.9233      5.6280      4.4916      3.9965      3.7105      3.5664      3.5664      3.7105      3.9965      4.4916    
  5.6280      7.9233      11.783      17.424      24.843      33.811      43.887      54.424      64.592      73.438    
  89.082      91.022      89.082      83.517      75.027      64.592      53.270      42.031      31.665      22.743    
  15.617      10.414      7.0333      5.1554      4.2970      3.9081      3.6805      3.6043      3.6805      3.9081    
  4.2970      5.1554      7.0333      10.414      15.617      22.743      31.665      42.031      53.270      64.592    
  75.027      83.517      95.036      95.036      91.022      83.517      73.438      61.887      49.947      38.542    
  28.374      19.918      13.419      8.8959      6.1366      4.7279      4.1271      3.8174      3.6600      3.6600    
  3.8174      4.1271      4.7279      6.1366      8.8959      13.419      19.918      28.374      38.542      49.947    
  61.887      73.438      83.517      91.022      95.036      91.022      83.517      73.438      61.887      49.947    
  38.542      28.374      19.918      13.419      8.8959      6.1366      4.7279      4.1271      3.8174      3.6600    
  3.6600      3.8174      4.1271      4.7279      6.1366      8.8959      13.419      19.918      28.374      38.542    
  49.947      61.887      73.438      83.517      91.022      95.036      91.022      85.337      76.667      66.013    
  54.455      42.983      32.398      23.280      15.986      10.648      7.1667      5.2236      4.3319      3.9340    
  3.7030      3.6255      3.7030      3.9340      4.3319      5.2236      7.1667      10.648      15.986      23.280    
  32.398      42.983      54.455      66.013      76.667      85.337      91.022      93.004      83.517      76.667    
  67.448      56.856      45.880      35.378      26.019      18.257      12.330      8.2495      5.8016      4.5774    
  4.0498      3.7555      3.6068      3.6068      3.7555      4.0498      4.5774      5.8016      8.2495      12.330    
  18.257      26.019      35.378      45.880      56.856      67.448      76.667      83.517      87.176      87.176    
  73.438      66.013      56.856      46.886      36.965      27.810      19.954      13.727      9.2424      6.3902    
  4.8523      4.1606      3.8117      3.6022      3.5324      3.6022      3.8117      4.1606      4.8523      6.3902    
  9.2424      13.727      19.954      27.810      36.965      46.886      56.856      66.013      73.438      78.293    
  79.983      78.293      61.887      54.455      45.880      36.965      28.434      20.862      14.651      10.002    
  6.9000      5.1204      4.2691      3.8652      3.6080      3.4801      3.4801      3.6080      3.8652      4.2691    
  5.1204      6.9000      10.002      14.651      20.862      28.434      36.965      45.880      54.455      61.888    
  67.389      70.319      70.319      67.389      49.947      42.983      35.378      27.810      20.862      14.975    
  10.414      7.2462      5.3350      4.3656      3.9102      3.6193      3.4468      3.3900      3.4468      3.6193    
  3.9102      4.3656      5.3350      7.2462      10.414      14.975      20.862      27.810      35.378      42.983    
  49.947      55.573      59.238      60.512      59.238      55.573      38.542      32.398      26.019      19.954    
  14.651      10.414      7.3688      5.4545      4.4334      3.9424      3.6314      3.4280      3.3289      3.3289    
  3.4280      3.6314      3.9424      4.4334      5.4545      7.3688      10.414      14.651      19.954      26.019    
  32.398      38.542      43.857      47.780      49.865      49.865      47.780      43.857      28.374      23.280    
  18.257      13.727      10.002      7.2462      5.4545      4.4579      3.9592      3.6403      3.4189      3.2913    
  3.2499      3.2913      3.4189      3.6403      3.9592      4.4579      5.4545      7.2462      10.002      13.727    
  18.257      23.280      28.374      33.055      36.837      39.299      40.153      39.299      36.837      33.055    
  19.918      15.986      12.330      9.2424      6.9000      5.3350      4.4334      3.9592      3.6435      3.4154    
  3.2715      3.2029      3.2029      3.2715      3.4154      3.6436      3.9592      4.4334      5.3350      6.9000    
  9.2424      12.330      15.986      19.918      23.753      27.092      29.563      30.878      30.878      29.563    
  27.092      23.753      13.419      10.648      8.2495      6.3902      5.1204      4.3656      3.9424      3.6403    
  3.4154      3.2654      3.1813      3.1545      3.1813      3.2654      3.4154      3.6403      3.9424      4.3656    
  5.1204      6.3902      8.2495      10.648      13.419      16.306      19.005      21.207      22.648      23.149    
  22.648      21.207      19.005      16.306      8.8959      7.1667      5.8016      4.8523      4.2691      3.9102    
  3.6314      3.4189      3.2715      3.1813      3.1391      3.1391      3.1813      3.2715      3.4189      3.6314    
  3.9102      4.2691      4.8523      5.8016      7.1667      8.8959      10.847      12.814      14.565      15.878    
  16.581      16.581      15.878      14.565      12.814      10.847      6.1366      5.2236      4.5774      4.1606    
  3.8652      3.6193      3.4280      3.2913      3.2029      3.1545      3.1391      3.1545      3.2029      3.2913    
  3.4280      3.6193      3.8652      4.1606      4.5774      5.2236      6.1366      7.2750      8.5303      9.7512    
  10.774      11.454      11.692      11.454      10.774      9.7512      8.5303      7.2750      4.7279      4.3319    
  4.0498      3.8117      3.6080      3.4468      3.3289      3.2499      3.2029      3.1813      3.1813      3.2029    
  3.2499      3.3289      3.4468      3.6080      3.8117      4.0498      4.3319      4.7279      5.2717      5.9388    
  6.6571      7.3270      7.8452      8.1277      8.1277      7.8452      7.3270      6.6571      5.9388      5.2717    
  4.1271      3.9340      3.7555      3.6022      3.4801      3.3900      3.3289      3.2913      3.2715      3.2654    
  3.2715      3.2913      3.3289      3.3900      3.4801      3.6022      3.7555      3.9340      4.1271      4.3486    
  4.6296      4.9641      5.3139      5.6231      5.8359      5.9118      5.8359      5.6231      5.3139      4.9641    
  4.6296      4.3486      3.8174      3.7030      3.6068      3.5324      3.4801      3.4468      3.4280      3.4189    
  3.4154      3.4154      3.4189      3.4280      3.4468      3.4801      3.5324      3.6068      3.7030      3.8174    
  3.9426      4.0693      4.1978      4.3356      4.4711      4.5815      4.6438      4.6438      4.5815      4.4711    
  4.3356      4.1978      4.0693      3.9426      3.6600      3.6255      3.6068      3.6022      3.6080      3.6193    
  3.6314      3.6403      3.6436      3.6403      3.6314      3.6193      3.6080      3.6022      3.6068      3.6255    
  3.6600      3.7090      3.7685      3.8326      3.8945      3.9481      3.9905      4.0190      4.0292      4.0190    
  3.9905      3.9481      3.8944      3.8326      3.7685      3.7090      3.6600      3.7030      3.7555      3.8117    
  3.8652      3.9102      3.9424      3.9592      3.9592      3.9424      3.9102      3.8652      3.8117      3.7555    
  3.7030      3.6600      3.6305      3.6160      3.6152      3.6246      3.6396      3.6554      3.6681      3.6751    
  3.6751      3.6681      3.6554      3.6396      3.6246      3.6152      3.6160      3.6305      3.8174      3.9340    
  4.0498      4.1606      4.2691      4.3656      4.4334      4.4579      4.4334      4.3656      4.2691      4.1606    
  4.0498      3.9340      3.8174      3.7090      3.6160      3.5426      3.4895      3.4548      3.4344      3.4240    
  3.4196      3.4184      3.4196      3.4240      3.4345      3.4548      3.4895      3.5426      3.6160      3.7090    
  4.1271      4.3319      4.5774      4.8523      5.1204      5.3350      5.4545      5.4545      5.3350      5.1204    
  4.8523      4.5774      4.3319      4.1271      3.9426      3.7685      3.6152      3.4895      3.3937      3.3260    
  3.2820      3.2565      3.2450      3.2450      3.2565      3.2820      3.3260      3.3937      3.4895      3.6152    
  3.7685      3.9426      4.7279      5.2236      5.8016      6.3902      6.9000      7.2462      7.3688      7.2462    
  6.9000      6.3902      5.8016      5.2236      4.7279      4.3486      4.0693      3.8326      3.6246      3.4548    
  3.3260      3.2358      3.1782      3.1469      3.1371      3.1469      3.1782      3.2358      3.3260      3.4548    
  3.6246      3.8326      4.0693      4.3486      6.1366      7.1667      8.2495      9.2424      10.002      10.414    
  10.414      10.002      9.2424      8.2495      7.1667      6.1366      5.2717      4.6296      4.1978      3.8945    
  3.6396      3.4344      3.2820      3.1782      3.1154      3.0863      3.0863      3.1154      3.1782      3.2820    
  3.4344      3.6396      3.8944      4.1978      4.6296      5.2717      8.8959      10.648      12.330      13.727    
  14.651      14.975      14.651      13.727      12.330      10.648      8.8959      7.2750      5.9388      4.9641    
  4.3356      3.9481      3.6554      3.4240      3.2565      3.1469      3.0863      3.0670      3.0863      3.1469    
  3.2565      3.4240      3.6554      3.9481      4.3356      4.9641      5.9388      7.2750      13.419      15.986    
  18.257      19.954      20.862      20.862      19.954      18.257      15.986      13.419      10.847      8.5303    
  6.6571      5.3139      4.4711      3.9905      3.6681      3.4196      3.2450      3.1371      3.0863      3.0863    
  3.1371      3.2450      3.4196      3.6681      3.9905      4.4711      5.3139      6.6571      8.5303      10.847    
  19.918      23.280      26.019      27.810      28.434      27.810      26.019      23.280      19.918      16.306    
  12.814      9.7512      7.3270      5.6231      4.5815      4.0190      3.6751      3.4184      3.2450      3.1469    
  3.1154      3.1469      3.2450      3.4184      3.6751      4.0190      4.5815      5.6231      7.3270      9.7512    
  12.814      16.306      28.374      32.398      35.378      36.965      36.965      35.378      32.398      28.374    
  23.753      19.005      14.565      10.774      7.8452      5.8359      4.6438      4.0292      3.6751      3.4196    
  3.2565      3.1782      3.1782      3.2565      3.4196      3.6751      4.0292      4.6438      5.8359      7.8452    
  10.774      14.565      19.005      23.753      38.542      42.983      45.880      46.886      45.880      42.983    
  38.542      33.055      27.092      21.207      15.878      11.454      8.1277      5.9118      4.6438      4.0190    
  3.6681      3.4240      3.2820      3.2358      3.2820      3.4240      3.6681      4.0190      4.6438      5.9118    
  8.1277      11.454      15.878      21.207      27.092      33.055      49.947      54.455      56.856      56.856    
  54.455      49.947      43.857      36.837      29.563      22.648      16.581      11.692      8.1277      5.8359    
  4.5815      3.9905      3.6554      3.4345      3.3260      3.3260      3.4344      3.6554      3.9905      4.5815    
  5.8359      8.1277      11.692      16.581      22.648      29.563      36.837      43.857      61.887      66.013    
  67.448      66.013      61.888      55.573      47.780      39.299      30.878      23.149      16.581      11.454    
  7.8452      5.6231      4.4711      3.9481      3.6396      3.4548      3.3937      3.4548      3.6396      3.9481    
  4.4711      5.6231      7.8452      11.454      16.581      23.149      30.878      39.299      47.780      55.573    
  73.438      76.667      76.667      73.438      67.389      59.238      49.865      40.153      30.878      22.648    
  15.878      10.774      7.3270      5.3139      4.3356      3.8944      3.6246      3.4895      3.4895      3.6246    
  3.8944      4.3356      5.3139      7.3270      10.774      15.878      22.648      30.878      40.153      49.865    
  59.238      67.389      83.517      85.337      83.517      78.293      70.319      60.512      49.865      39.299    
  29.563      21.207      14.565      9.7512      6.6571      4.9641      4.1978      3.8326      3.6152      3.5426    
  3.6152      3.8326      4.1978      4.9641      6.6571      9.7512      14.565      21.207      29.563      39.299    
  49.865      60.512      70.319      78.293      91.022      91.022      87.176      79.983      70.319      59.238    
  47.780      36.837      27.092      19.005      12.814      8.5303      5.9388      4.6296      4.0693      3.7685    
  3.6160      3.6160      3.7685      4.0693      4.6296      5.9388      8.5303      12.814      19.005      27.092    
  36.837      47.780      59.238      70.319      79.983      87.176      95.036      93.004      87.176      78.293    
  67.389      55.573      43.857      33.055      23.753      16.306      10.847      7.2750      5.2717      4.3486    
  3.9426      3.7090      3.6305      3.7090      3.9426      4.3486      5.2717      7.2750      10.847      16.306    
  23.753      33.055      43.857      55.573      67.389      78.293      87.176      93.004      89.082      83.517    
  75.027      64.592      53.270      42.031      31.665      22.743      15.617      10.414      7.0333      5.1554    
  4.2970      3.9081      3.6805      3.6043      3.6805      3.9081      4.2970      5.1554      7.0333      10.414    
  15.617      22.743      31.665      42.031      53.270      64.592      75.027      83.517      89.082      91.022    
  83.517      76.667      67.448      56.856      45.880      35.378      26.019      18.257      12.330      8.2495    
  5.8016      4.5774      4.0498      3.7555      3.6068      3.6068      3.7555      4.0498      4.5774      5.8016    
  8.2495      12.330      18.257      26.019      35.378      45.880      56.856      67.448      76.667      83.517    
  87.176      87.176      75.027      67.448      58.103      47.930      37.804      28.455      20.423      14.046    
  9.4410      6.5009      4.9077      4.1898      3.8347      3.6219      3.5510      3.6219      3.8347      4.1898    
  4.9077      6.5009      9.4410      14.046      20.423      28.455      37.804      47.930      58.103      67.448    
  75.027      79.983      81.709      79.983      64.592      56.856      47.930      38.647      29.754      21.847    
  15.340      10.445      7.1566      5.2523      4.3345      3.9108      3.6459      3.5137      3.5137      3.6459    
  3.9108      4.3345      5.2523      7.1566      10.445      15.340      21.847      29.754      38.647      47.930    
  56.856      64.592      70.319      73.371      73.371      70.319      53.270      45.880      37.804      29.754    
  22.343      16.035      11.116      7.6660      5.5574      4.4740      3.9770      3.6735      3.4925      3.4328    
  3.4925      3.6735      3.9770      4.4740      5.5574      7.6660      11.116      16.035      22.343      29.754    
  37.804      45.880      53.270      59.238      63.127      64.478      63.127      59.238      42.031      35.378    
  28.455      21.847      16.035      11.351      7.9445      5.7678      4.5866      4.0284      3.6996      3.4831    
  3.3772      3.3772      3.4831      3.6996      4.0284      4.5866      5.7678      7.9445      11.351      16.035    
  21.847      28.455      35.378      42.031      47.780      52.020      54.274      54.274      52.020      47.780    
  31.665      26.019      20.423      15.340      11.116      7.9445      5.8429      4.6499      4.0620      3.7196    
  3.4809      3.3425      3.2974      3.3425      3.4809      3.7196      4.0620      4.6499      5.8429      7.9445    
  11.116      15.340      20.423      26.019      31.665      36.837      41.007      43.718      44.659      43.718    
  41.007      36.837      22.743      18.257      14.046      10.445      7.6660      5.7678      4.6499      4.0738    
  3.7304      3.4815      3.3232      3.2474      3.2474      3.3232      3.4815      3.7304      4.0738      4.6499    
  5.7678      7.6660      10.445      14.046      18.257      22.743      27.092      30.863      33.646      35.124    
  35.124      33.646      30.863      27.092      15.617      12.330      9.4410      7.1566      5.5574      4.5866    
  4.0620      3.7304      3.4820      3.3149      3.2206      3.1903      3.2206      3.3149      3.4820      3.7304    
  4.0620      4.5866      5.5574      7.1566      9.4410      12.330      15.617      19.005      22.148      24.698    
  26.361      26.939      26.361      24.698      22.148      19.005      10.414      8.2495      6.5009      5.2523    
  4.4740      4.0284      3.7196      3.4815      3.3149      3.2122      3.1640      3.1640      3.2122      3.3149    
  3.4815      3.7196      4.0284      4.4740      5.2523      6.5009      8.2495      10.414      12.814      15.203    
  17.309      18.878      19.716      19.716      18.878      17.309      15.203      12.814      7.0333      5.8016    
  4.9077      4.3345      3.9770      3.6996      3.4809      3.3232      3.2206      3.1640      3.1461      3.1640    
  3.2206      3.3232      3.4809      3.6996      3.9770      4.3345      4.9077      5.8016      7.0333      8.5303    
  10.148      11.697      12.981      13.829      14.125      13.829      12.981      11.697      10.148      8.5303    
  5.1554      4.5774      4.1898      3.9108      3.6735      3.4831      3.3425      3.2474      3.1903      3.1640    
  3.1640      3.1903      3.2474      3.3425      3.4831      3.6735      3.9108      4.1898      4.5774      5.1554    
  5.9388      6.8753      7.8607      8.7638      9.4541      9.8278      9.8278      9.4541      8.7638      7.8607    
  6.8753      5.9388      4.2970      4.0498      3.8347      3.6459      3.4925      3.3772      3.2974      3.2474    
  3.2206      3.2122      3.2206      3.2474      3.2974      3.3772      3.4925      3.6459      3.8347      4.0498    