PROCAR lm decomposed
# of k-points:   60         # of bands:   12         # of ions:    1

 k-point     1 :    0.06250000 0.06250000 0.06250000     weight = 0.00390625

band     1 # energy    1.98766648 # occ.  1.00000000
 
ion      s     py     pz     px    dxy    dyz    dz2    dxz  x2-y2    tot
    1  0.762  0.004  0.004  0.004  0.000  0.000  0.000  0.000  0.000  0.773
 
band     2 # energy    8.32447207 # occ.  1.00000000
 
ion      s     py     pz     px    dxy    dyz    dz2    dxz  x2-y2    tot
    1  0.000  0.001  0.001  0.001  0.325  0.325  0.000  0.325  0.000  0.976
 
band     3 # energy    8.41339911 # occ.  1.00000000
 
ion      s     py     pz     px    dxy    dyz    dz2    dxz  x2-y2    tot
    1  0.000  0.000  0.000  0.000  0.582  0.306  0.001  0.087  0.000  0.977
 
band     4 # energy    8.41339911 # occ.  1.00000000
 
ion      s     py     pz     px    dxy    dyz    dz2    dxz  x2-y2    tot
    1  0.000  0.000  0.000  0.000  0.068  0.344  0.000  0.563  0.001  0.977
 
band     5 # energy    9.54563547 # occ.  1.00000000
 
ion      s     py     pz     px    dxy    dyz    dz2    dxz  x2-y2    tot
    1  0.000  0.000  0.000  0.000  0.001  0.000  0.614  0.001  0.372  0.987
 
band     6 # energy    9.54563547 # occ.  1.00000000
 
ion      s     py     pz     px    dxy    dyz    dz2    dxz  x2-y2    tot
    1  0.000  0.000  0.000  0.000  0.000  0.001  0.372  0.000  0.614  0.987
 
band     7 # energy   34.38469526 # occ.  0.00000000
 
ion      s     py     pz     px    dxy    dyz    dz2    dxz  x2-y2    tot
    1  0.000  0.005  0.005  0.005  0.047  0.047  0.000  0.047  0.000  0.154
 
band     8 # energy   37.66092518 # occ.  0.00000000
 
ion      s     py     pz     px    dxy    dyz    dz2    dxz  x2-y2    tot
    1  0.021  0.082  0.082  0.082  0.044  0.044  0.000  0.044  0.000  0.400
 
band     9 # energy   39.22778139 # occ.  0.00000000
 
ion      s     py     pz     px    dxy    dyz    dz2    dxz  x2-y2    tot
    1  0.000  0.044  0.050  0.184  0.026  0.095  0.005  0.023  0.014  0.441
 
band    10 # energy   39.22778139 # occ.  0.00000000
 
ion      s     py     pz     px    dxy    dyz    dz2    dxz  x2-y2    tot
    1  0.000  0.141  0.136  0.001  0.070  0.001  0.014  0.073  0.005  0.441
 
band    11 # energy   43.33827315 # occ.  0.00000000
 
ion      s     py     pz     px    dxy    dyz    dz2    dxz  x2-y2    tot
    1  0.000  0.001  0.001  0.003  0.177  0.828  0.001  0.254  0.005  1.269
 
band    12 # energy   43.33838776 # occ.  0.00000000
 
ion      s     py     pz     px    dxy    dyz    dz2    dxz  x2-y2    tot
    1  0.000  0.002  0.002  0.000  0.652  0.012  0.005  0.595  0.001  1.269
 

 k-point     2 :    0.18750000 0.06250000 0.06250000     weight = 0.01171875

band     1 # energy    2.82127746 # occ.  1.00000000
 
ion      s     py     pz     px    dxy    dyz    dz2    dxz  x2-y2    tot
    1  0.699  0.033  0.033  0.003  0.001  0.005  0.000  0.001  0.001  0.776
 
band     2 # energy    8.09003695 # occ.  1.00000000
 
ion      s     py     pz     px    dxy    dyz    dz2    dxz  x2-y2    tot
    1  0.001  0.001  0.001  0.007  0.461  0.034  0.000  0.461  0.000  0.967
 
band     3 # energy    8.58639822 # occ.  1.00000000
 
ion      s     py     pz     px    dxy    dyz    dz2    dxz  x2-y2    tot
    1  0.000  0.003  0.003  0.000  0.017  0.849  0.022  0.017  0.065  0.975
 
band     4 # energy    8.59103427 # occ.  1.00000000
 
ion      s     py     pz     px    dxy    dyz    dz2    dxz  x2-y2    tot
    1  0.000  0.000  0.000  0.000  0.478  0.000  0.016  0.478  0.005  0.977
 
band     5 # energy    9.37412839 # occ.  1.00000000
 
ion      s     py     pz     px    dxy    dyz    dz2    dxz  x2-y2    tot
    1  0.000  0.000  0.000  0.000  0.011  0.000  0.720  0.011  0.240  0.981
 
band     6 # energy    9.64193499 # occ.  1.00000000
 
ion      s     py     pz     px    dxy    dyz    dz2    dxz  x2-y2    tot
    1  0.001  0.001  0.001  0.000  0.002  0.083  0.224  0.002  0.672  0.985
 
band     7 # energy   31.75202433 # occ.  0.00000000
 
ion      s     py     pz     px    dxy    dyz    dz2    dxz  x2-y2    tot
    1  0.024  0.042  0.042  0.112  0.191  0.087  0.001  0.191  0.002  0.691
 
band     8 # energy   34.42388693 # occ.  0.00000000
 
ion      s     py     pz     px    dxy    dyz    dz2    dxz  x2-y2    tot
    1  0.040  0.075  0.075  0.022  0.055  0.139  0.007  0.055  0.021  0.489
 
band     9 # energy   38.02288829 # occ.  0.00000000
 
ion      s     py     pz     px    dxy    dyz    dz2    dxz  x2-y2    tot
    1  0.001  0.008  0.008  0.226  0.018  0.077  0.002  0.018  0.005  0.362
 
band    10 # energy   40.27549909 # occ.  0.00000000
 
ion      s     py     pz     px    dxy    dyz    dz2    dxz  x2-y2    tot
    1  0.000  0.094  0.094  0.000  0.090  0.000  0.148  0.090  0.049  0.566
 
band    11 # energy   42.04719238 # occ.  0.00000000
 
ion      s     py     pz     px    dxy    dyz    dz2    dxz  x2-y2    tot
    1  0.000  0.064  0.064  0.010  0.000  0.325  0.012  0.000  0.037  0.512
 
band    12 # energy   43.43524361 # occ.  0.00000000
 
ion      s     py     pz     px    dxy    dyz    dz2    dxz  x2-y2    tot
    1  0.000  0.003  0.003  0.000  0.521  0.000  0.082  0.521  0.027  1.157
 

 k-point     3 :    0.31250000 0.06250000 0.06250000     weight = 0.01171875

band     1 # energy    4.55098435 # occ.  1.00000000
 
ion      s     py     pz     px    dxy    dyz    dz2    dxz  x2-y2    tot
    1  0.525  0.064  0.064  0.018  0.034  0.059  0.001  0.034  0.003  0.800
 
band     2 # energy    7.96750463 # occ.  1.00000000
 
ion      s     py     pz     px    dxy    dyz    dz2    dxz  x2-y2    tot
    1  0.025  0.025  0.025  0.036  0.380  0.058  0.001  0.380  0.002  0.932
 
band     3 # energy    8.52803603 # occ.  1.00000000
 
ion      s     py     pz     px    dxy    dyz    dz2    dxz  x2-y2    tot
    1  0.000  0.003  0.003  0.000  0.035  0.479  0.104  0.035  0.311  0.970
 
band     4 # energy    8.60984456 # occ.  1.00000000
 
ion      s     py     pz     px    dxy    dyz    dz2    dxz  x2-y2    tot
    1  0.000  0.000  0.000  0.000  0.272  0.000  0.322  0.272  0.107  0.974
 
band     5 # energy    9.60122200 # occ.  1.00000000
 
ion      s     py     pz     px    dxy    dyz    dz2    dxz  x2-y2    tot
    1  0.000  0.001  0.001  0.000  0.216  0.000  0.409  0.216  0.136  0.980
 
band     6 # energy   10.07607341 # occ.  1.00000000
 
ion      s     py     pz     px    dxy    dyz    dz2    dxz  x2-y2    tot
    1  0.010  0.006  0.006  0.000  0.017  0.368  0.140  0.017  0.419  0.982
 
band     7 # energy   25.59024641 # occ.  0.00000000
 
ion      s     py     pz     px    dxy    dyz    dz2    dxz  x2-y2    tot
    1  0.122  0.078  0.078  0.135  0.150  0.119  0.001  0.150  0.003  0.836
 
band     8 # energy   33.27895535 # occ.  0.00000000
 
ion      s     py     pz     px    dxy    dyz    dz2    dxz  x2-y2    tot
    1  0.026  0.023  0.023  0.101  0.107  0.058  0.017  0.107  0.052  0.515
 
band     9 # energy   36.97169943 # occ.  0.00000000
 
ion      s     py     pz     px    dxy    dyz    dz2    dxz  x2-y2    tot
    1  0.001  0.069  0.069  0.140  0.007  0.159  0.002  0.007  0.005  0.459
 
band    10 # energy   39.96359203 # occ.  0.00000000
 
ion      s     py     pz     px    dxy    dyz    dz2    dxz  x2-y2    tot
    1  0.000  0.119  0.119  0.000  0.259  0.000  0.136  0.259  0.045  0.937
 
band    11 # energy   41.13132896 # occ.  0.00000000
 
ion      s     py     pz     px    dxy    dyz    dz2    dxz  x2-y2    tot
    1  0.000  0.111  0.111  0.000  0.005  0.000  0.459  0.005  0.153  0.844
 
band    12 # energy   42.04636227 # occ.  0.00000000
 
ion      s     py     pz     px    dxy    dyz    dz2    dxz  x2-y2    tot
    1  0.076  0.056  0.056  0.011  0.010  0.013  0.068  0.010  0.205  0.507
 

 k-point     4 :    0.43750000 0.06250000 0.06250000     weight = 0.01171875

band     1 # energy    5.67228315 # occ.  1.00000000
 
ion      s     py     pz     px    dxy    dyz    dz2    dxz  x2-y2    tot
    1  0.240  0.022  0.022  0.002  0.195  0.214  0.000  0.195  0.001  0.892
 
band     2 # energy    8.27714738 # occ.  1.00000000
 
ion      s     py     pz     px    dxy    dyz    dz2    dxz  x2-y2    tot
    1  0.000  0.003  0.003  0.000  0.045  0.288  0.145  0.045  0.435  0.965
 
band     3 # energy    8.38609049 # occ.  1.00000000
 
ion      s     py     pz     px    dxy    dyz    dz2    dxz  x2-y2    tot
    1  0.000  0.000  0.000  0.000  0.187  0.000  0.447  0.187  0.149  0.970
 
band     4 # energy    9.10143243 # occ.  1.00000000
 
ion      s     py     pz     px    dxy    dyz    dz2    dxz  x2-y2    tot
    1  0.062  0.110  0.110  0.109  0.185  0.022  0.018  0.185  0.054  0.855
 
band     5 # energy   10.20608282 # occ.  1.00000000
 
ion      s     py     pz     px    dxy    dyz    dz2    dxz  x2-y2    tot
    1  0.000  0.001  0.001  0.000  0.304  0.000  0.283  0.304  0.094  0.986
 
band     6 # energy   10.90901887 # occ.  1.00000000
 
ion      s     py     pz     px    dxy    dyz    dz2    dxz  x2-y2    tot
    1  0.041  0.051  0.051  0.031  0.011  0.425  0.080  0.011  0.241  0.942
 
band     7 # energy   20.12809516 # occ.  0.00000000
 
ion      s     py     pz     px    dxy    dyz    dz2    dxz  x2-y2    tot
    1  0.295  0.046  0.046  0.098  0.144  0.116  0.001  0.144  0.002  0.893
 
band     8 # energy   32.68544923 # occ.  0.00000000
 
ion      s     py     pz     px    dxy    dyz    dz2    dxz  x2-y2    tot
    1  0.011  0.003  0.003  0.100  0.054  0.033  0.026  0.054  0.078  0.362
 
band     9 # energy   35.77144598 # occ.  0.00000000
 
ion      s     py     pz     px    dxy    dyz    dz2    dxz  x2-y2    tot
    1  0.017  0.105  0.105  0.199  0.020  0.037  0.005  0.020  0.016  0.523
 
band    10 # energy   37.78212830 # occ.  0.00000000
 
ion      s     py     pz     px    dxy    dyz    dz2    dxz  x2-y2    tot
    1  0.000  0.251  0.251  0.000  0.001  0.000  0.158  0.001  0.053  0.715
 
band    11 # energy   40.24616447 # occ.  0.00000000
 
ion      s     py     pz     px    dxy    dyz    dz2    dxz  x2-y2    tot
    1  0.000  0.031  0.031  0.000  0.224  0.000  0.449  0.224  0.150  1.107
 
band    12 # energy   41.83060384 # occ.  0.00000000
 
ion      s     py     pz     px    dxy    dyz    dz2    dxz  x2-y2    tot
    1  0.064  0.016  0.016  0.013  0.000  0.224  0.145  0.000  0.435  0.915
 

 k-point     5 :   -0.43750000 0.06250000 0.06250000     weight = 0.01171875

band     1 # energy    5.78693060 # occ.  1.00000000
 
ion      s     py     pz     px    dxy    dyz    dz2    dxz  x2-y2    tot
    1  0.173  0.000  0.000  0.007  0.238  0.259  0.000  0.238  0.000  0.916
 
band     2 # energy    8.17264357 # occ.  1.00000000
 
ion      s     py     pz     px    dxy    dyz    dz2    dxz  x2-y2    tot
    1  0.000  0.003  0.003  0.000  0.063  0.200  0.158  0.063  0.473  0.963
 
band     3 # energy    8.32823024 # occ.  1.00000000
 
ion      s     py     pz     px    dxy    dyz    dz2    dxz  x2-y2    tot
    1  0.000  0.000  0.000  0.000  0.184  0.000  0.450  0.184  0.150  0.969
 
band     4 # energy    9.72365443 # occ.  1.00000000
 
ion      s     py     pz     px    dxy    dyz    dz2    dxz  x2-y2    tot
    1  0.003  0.087  0.087  0.085  0.059  0.344  0.043  0.059  0.128  0.895
 
band     5 # energy   10.51550848 # occ.  1.00000000
 
ion      s     py     pz     px    dxy    dyz    dz2    dxz  x2-y2    tot
    1  0.000  0.000  0.000  0.000  0.308  0.000  0.281  0.308  0.094  0.992
 
band     6 # energy   11.67647361 # occ.  0.00000000
 
ion      s     py     pz     px    dxy    dyz    dz2    dxz  x2-y2    tot
    1  0.007  0.144  0.144  0.162  0.056  0.097  0.044  0.056  0.131  0.841
 
band     7 # energy   17.94876846 # occ.  0.00000000
 
ion      s     py     pz     px    dxy    dyz    dz2    dxz  x2-y2    tot
    1  0.443  0.011  0.011  0.000  0.152  0.165  0.000  0.152  0.000  0.935
 
band     8 # energy   32.70533695 # occ.  0.00000000
 
ion      s     py     pz     px    dxy    dyz    dz2    dxz  x2-y2    tot
    1  0.000  0.002  0.002  0.043  0.009  0.042  0.027  0.009  0.080  0.214
 
band     9 # energy   35.84564157 # occ.  0.00000000
 
ion      s     py     pz     px    dxy    dyz    dz2    dxz  x2-y2    tot
    1  0.000  0.248  0.248  0.000  0.040  0.000  0.128  0.040  0.043  0.746
 
band    10 # energy   36.01289535 # occ.  0.00000000
 
ion      s     py     pz     px    dxy    dyz    dz2    dxz  x2-y2    tot
    1  0.037  0.089  0.089  0.311  0.016  0.003  0.018  0.016  0.054  0.633
 
band    11 # energy   41.09887446 # occ.  0.00000000
 
ion      s     py     pz     px    dxy    dyz    dz2    dxz  x2-y2    tot
    1  0.014  0.004  0.004  0.029  0.030  0.294  0.155  0.030  0.466  1.025
 
band    12 # energy   41.10156818 # occ.  0.00000000
 
ion      s     py     pz     px    dxy    dyz    dz2    dxz  x2-y2    tot
    1  0.000  0.051  0.051  0.000  0.154  0.000  0.465  0.154  0.155  1.031
 

 k-point     6 :   -0.31250000 0.06250000 0.06250000     weight = 0.01171875

band     1 # energy    5.46595737 # occ.  1.00000000
 
ion      s     py     pz     px    dxy    dyz    dz2    dxz  x2-y2    tot
    1  0.321  0.016  0.016  0.055  0.149  0.151  0.002  0.149  0.005  0.862
 
band     2 # energy    8.31691785 # occ.  1.00000000
 
ion      s     py     pz     px    dxy    dyz    dz2    dxz  x2-y2    tot
    1  0.002  0.008  0.008  0.006  0.118  0.079  0.155  0.118  0.464  0.957
 
band     3 # energy    8.48317777 # occ.  1.00000000
 
ion      s     py     pz     px    dxy    dyz    dz2    dxz  x2-y2    tot
    1  0.000  0.001  0.001  0.000  0.227  0.000  0.386  0.227  0.129  0.972
 
band     4 # energy    8.54420218 # occ.  1.00000000
 
ion      s     py     pz     px    dxy    dyz    dz2    dxz  x2-y2    tot
    1  0.070  0.077  0.077  0.079  0.010  0.559  0.000  0.010  0.001  0.883
 
band     5 # energy   10.29055936 # occ.  1.00000000
 
ion      s     py     pz     px    dxy    dyz    dz2    dxz  x2-y2    tot
    1  0.000  0.001  0.001  0.000  0.262  0.000  0.347  0.262  0.116  0.989
 
band     6 # energy   10.34280440 # occ.  1.00000000
 
ion      s     py     pz     px    dxy    dyz    dz2    dxz  x2-y2    tot
    1  0.031  0.016  0.016  0.037  0.184  0.146  0.087  0.184  0.260  0.960
 
band     7 # energy   21.78036847 # occ.  0.00000000
 
ion      s     py     pz     px    dxy    dyz    dz2    dxz  x2-y2    tot
    1  0.226  0.100  0.100  0.050  0.121  0.152  0.001  0.121  0.002  0.874
 
band     8 # energy   33.44677440 # occ.  0.00000000
 
ion      s     py     pz     px    dxy    dyz    dz2    dxz  x2-y2    tot
    1  0.006  0.007  0.007  0.004  0.000  0.104  0.022  0.000  0.066  0.216
 
band     9 # energy   35.29374310 # occ.  0.00000000
 
ion      s     py     pz     px    dxy    dyz    dz2    dxz  x2-y2    tot
    1  0.000  0.224  0.224  0.000  0.134  0.000  0.085  0.134  0.028  0.831
 
band    10 # energy   37.83061586 # occ.  0.00000000
 
ion      s     py     pz     px    dxy    dyz    dz2    dxz  x2-y2    tot
    1  0.050  0.042  0.042  0.377  0.000  0.093  0.031  0.000  0.094  0.730
 
band    11 # energy   40.87765445 # occ.  0.00000000
 
ion      s     py     pz     px    dxy    dyz    dz2    dxz  x2-y2    tot
    1  0.000  0.003  0.003  0.018  0.072  0.201  0.145  0.072  0.436  0.950
 
band    12 # energy   42.83733332 # occ.  0.00000000
 
ion      s     py     pz     px    dxy    dyz    dz2    dxz  x2-y2    tot
    1  0.000  0.061  0.061  0.000  0.044  0.000  0.478  0.044  0.159  0.846
 

 k-point     7 :   -0.18750000 0.06250000 0.06250000     weight = 0.01171875

band     1 # energy    3.93449062 # occ.  1.00000000
 
ion      s     py     pz     px    dxy    dyz    dz2    dxz  x2-y2    tot
    1  0.599  0.026  0.026  0.078  0.020  0.011  0.001  0.020  0.004  0.786
 
band     2 # energy    7.91551572 # occ.  1.00000000
 
ion      s     py     pz     px    dxy    dyz    dz2    dxz  x2-y2    tot
    1  0.009  0.016  0.016  0.010  0.136  0.625  0.000  0.136  0.001  0.950
 
band     3 # energy    8.59749293 # occ.  1.00000000
 
ion      s     py     pz     px    dxy    dyz    dz2    dxz  x2-y2    tot
    1  0.000  0.001  0.001  0.001  0.198  0.217  0.089  0.198  0.267  0.972
 
band     4 # energy    8.66117184 # occ.  1.00000000
 
ion      s     py     pz     px    dxy    dyz    dz2    dxz  x2-y2    tot
    1  0.000  0.002  0.002  0.000  0.359  0.000  0.191  0.359  0.064  0.975
 
band     5 # energy    9.52486658 # occ.  1.00000000
 
ion      s     py     pz     px    dxy    dyz    dz2    dxz  x2-y2    tot
    1  0.007  0.001  0.001  0.006  0.123  0.104  0.153  0.123  0.459  0.977
 
band     6 # energy    9.81224505 # occ.  1.00000000
 
ion      s     py     pz     px    dxy    dyz    dz2    dxz  x2-y2    tot
    1  0.000  0.001  0.001  0.000  0.128  0.000  0.546  0.128  0.182  0.985
 
band     7 # energy   27.63734532 # occ.  0.00000000
 
ion      s     py     pz     px    dxy    dyz    dz2    dxz  x2-y2    tot
    1  0.084  0.112  0.112  0.060  0.134  0.170  0.001  0.134  0.003  0.809
 
band     8 # energy   34.59270022 # occ.  0.00000000
 
ion      s     py     pz     px    dxy    dyz    dz2    dxz  x2-y2    tot
    1  0.025  0.001  0.001  0.010  0.001  0.177  0.014  0.001  0.043  0.273
 
band     9 # energy   35.84723071 # occ.  0.00000000
 
ion      s     py     pz     px    dxy    dyz    dz2    dxz  x2-y2    tot
    1  0.000  0.191  0.191  0.000  0.207  0.000  0.045  0.207  0.015  0.856
 
band    10 # energy   40.39834355 # occ.  0.00000000
 
ion      s     py     pz     px    dxy    dyz    dz2    dxz  x2-y2    tot
    1  0.027  0.011  0.011  0.113  0.003  0.040  0.100  0.003  0.300  0.608
 
band    11 # energy   40.72927498 # occ.  0.00000000
 
ion      s     py     pz     px    dxy    dyz    dz2    dxz  x2-y2    tot
    1  0.008  0.032  0.032  0.218  0.079  0.247  0.014  0.079  0.041  0.751
 
band    12 # energy   45.06699105 # occ.  0.00000000
 
ion      s     py     pz     px    dxy    dyz    dz2    dxz  x2-y2    tot
    1  0.000  0.036  0.035  0.000  0.018  0.000  0.358  0.018  0.121  0.587
 

 k-point     8 :   -0.06250000 0.06250000 0.06250000     weight = 0.01171875

band     1 # energy    2.41191470 # occ.  1.00000000
 
ion      s     py     pz     px    dxy    dyz    dz2    dxz  x2-y2    tot
    1  0.730  0.004  0.004  0.034  0.001  0.000  0.000  0.001  0.001  0.774
 
band     2 # energy    8.16706120 # occ.  1.00000000
 
ion      s     py     pz     px    dxy    dyz    dz2    dxz  x2-y2    tot
    1  0.000  0.001  0.001  0.000  0.058  0.852  0.000  0.058  0.000  0.971
 
band     3 # energy    8.53287120 # occ.  1.00000000
 
ion      s     py     pz     px    dxy    dyz    dz2    dxz  x2-y2    tot
    1  0.000  0.001  0.001  0.001  0.423  0.118  0.002  0.423  0.007  0.977
 
band     4 # energy    8.53761436 # occ.  1.00000000
 
ion      s     py     pz     px    dxy    dyz    dz2    dxz  x2-y2    tot
    1  0.000  0.001  0.001  0.000  0.481  0.000  0.009  0.481  0.003  0.977
 
band     5 # energy    9.39632952 # occ.  1.00000000
 
ion      s     py     pz     px    dxy    dyz    dz2    dxz  x2-y2    tot
    1  0.001  0.000  0.000  0.000  0.004  0.001  0.243  0.004  0.729  0.982
 
band     6 # energy    9.61814614 # occ.  1.00000000
 
ion      s     py     pz     px    dxy    dyz    dz2    dxz  x2-y2    tot
    1  0.000  0.000  0.000  0.000  0.006  0.000  0.731  0.006  0.244  0.987
 
band     7 # energy   33.47329450 # occ.  0.00000000
 
ion      s     py     pz     px    dxy    dyz    dz2    dxz  x2-y2    tot
    1  0.006  0.038  0.038  0.011  0.073  0.240  0.000  0.073  0.001  0.479
 
band     8 # energy   35.99820086 # occ.  0.00000000
 
ion      s     py     pz     px    dxy    dyz    dz2    dxz  x2-y2    tot
    1  0.035  0.048  0.048  0.069  0.051  0.025  0.007  0.051  0.020  0.354
 
band     9 # energy   37.23471613 # occ.  0.00000000
 
ion      s     py     pz     px    dxy    dyz    dz2    dxz  x2-y2    tot
    1  0.000  0.162  0.162  0.000  0.201  0.000  0.008  0.201  0.003  0.736
 
band    10 # energy   39.01497629 # occ.  0.00000000
 
ion      s     py     pz     px    dxy    dyz    dz2    dxz  x2-y2    tot
    1  0.008  0.079  0.079  0.046  0.036  0.005  0.026  0.036  0.079  0.393
 
band    11 # energy   43.25055247 # occ.  0.00000000
 
ion      s     py     pz     px    dxy    dyz    dz2    dxz  x2-y2    tot
    1  0.001  0.000  0.000  0.065  0.263  0.446  0.001  0.263  0.002  1.039
 
band    12 # energy   45.02431160 # occ.  0.00000000
 
ion      s     py     pz     px    dxy    dyz    dz2    dxz  x2-y2    tot
    1  0.000  0.000  0.000  0.000  0.362  0.001  0.025  0.353  0.009  0.749
 

 k-point     9 :    0.18750000 0.18750000 0.06250000     weight = 0.01171875

band     1 # energy    3.21793527 # occ.  1.00000000
 
ion      s     py     pz     px    dxy    dyz    dz2    dxz  x2-y2    tot
    1  0.665  0.003  0.090  0.003  0.000  0.002  0.012  0.002  0.000  0.777
 
band     2 # energy    7.86372883 # occ.  1.00000000
 
ion      s     py     pz     px    dxy    dyz    dz2    dxz  x2-y2    tot
    1  0.000  0.001  0.000  0.001  0.924  0.019  0.000  0.019  0.000  0.965
 
band     3 # energy    8.74684854 # occ.  1.00000000
 
ion      s     py     pz     px    dxy    dyz    dz2    dxz  x2-y2    tot
    1  0.000  0.003  0.000  0.003  0.036  0.400  0.134  0.400  0.000  0.975
 
band     4 # energy    8.77960387 # occ.  1.00000000
 
ion      s     py     pz     px    dxy    dyz    dz2    dxz  x2-y2    tot
    1  0.000  0.003  0.000  0.003  0.000  0.467  0.000  0.467  0.034  0.976
 
band     5 # energy    9.19196354 # occ.  1.00000000
 
ion      s     py     pz     px    dxy    dyz    dz2    dxz  x2-y2    tot
    1  0.008  0.001  0.004  0.001  0.005  0.063  0.829  0.063  0.000  0.974
 
band     6 # energy    9.75334219 # occ.  1.00000000
 
ion      s     py     pz     px    dxy    dyz    dz2    dxz  x2-y2    tot
    1  0.000  0.000  0.000  0.000  0.000  0.017  0.000  0.017  0.953  0.987
 
band     7 # energy   32.07383019 # occ.  0.00000000
 
ion      s     py     pz     px    dxy    dyz    dz2    dxz  x2-y2    tot
    1  0.017  0.092  0.013  0.092  0.280  0.103  0.011  0.103  0.000  0.712
 
band     8 # energy   34.50392452 # occ.  0.00000000
 
ion      s     py     pz     px    dxy    dyz    dz2    dxz  x2-y2    tot
    1  0.032  0.020  0.019  0.020  0.204  0.021  0.098  0.021  0.000  0.433
 
band     9 # energy   34.90106272 # occ.  0.00000000
 
ion      s     py     pz     px    dxy    dyz    dz2    dxz  x2-y2    tot
    1  0.000  0.198  0.000  0.198  0.000  0.204  0.000  0.204  0.008  0.812
 
band    10 # energy   37.01667057 # occ.  0.00000000
 
ion      s     py     pz     px    dxy    dyz    dz2    dxz  x2-y2    tot
    1  0.003  0.077  0.001  0.077  0.042  0.065  0.206  0.065  0.000  0.534
 
band    11 # energy   43.26337079 # occ.  0.00000000
 
ion      s     py     pz     px    dxy    dyz    dz2    dxz  x2-y2    tot
    1  0.309  0.015  0.553  0.015  0.011  0.000  0.142  0.000  0.000  1.046
 
band    12 # energy   45.57464744 # occ.  0.00000000
 
ion      s     py     pz     px    dxy    dyz    dz2    dxz  x2-y2    tot
    1  0.091  0.001  0.005  0.001  0.383  0.161  0.089  0.161  0.000  0.892
 

 k-point    10 :    0.31250000 0.18750000 0.06250000     weight = 0.02343750

band     1 # energy    4.61537611 # occ.  1.00000000
 
ion      s     py     pz     px    dxy    dyz    dz2    dxz  x2-y2    tot
    1  0.524  0.025  0.144  0.002  0.003  0.031  0.055  0.004  0.001  0.789
 
band     2 # energy    7.53405134 # occ.  1.00000000
 
ion      s     py     pz     px    dxy    dyz    dz2    dxz  x2-y2    tot
    1  0.001  0.002  0.001  0.013  0.852  0.006  0.003  0.076  0.000  0.955
 
band     3 # energy    8.51295437 # occ.  1.00000000
 
ion      s     py     pz     px    dxy    dyz    dz2    dxz  x2-y2    tot
    1  0.007  0.004  0.002  0.000  0.017  0.351  0.530  0.016  0.037  0.964
 
band     4 # energy    9.06310116 # occ.  1.00000000
 
ion      s     py     pz     px    dxy    dyz    dz2    dxz  x2-y2    tot
    1  0.002  0.002  0.002  0.005  0.044  0.121  0.049  0.571  0.180  0.975
 
band     5 # energy    9.48152649 # occ.  1.00000000
 
ion      s     py     pz     px    dxy    dyz    dz2    dxz  x2-y2    tot
    1  0.017  0.004  0.015  0.003  0.035  0.120  0.262  0.290  0.225  0.971
 
band     6 # energy   10.16323116 # occ.  1.00000000
 
ion      s     py     pz     px    dxy    dyz    dz2    dxz  x2-y2    tot
    1  0.014  0.005  0.009  0.000  0.001  0.340  0.068  0.003  0.543  0.983
 
band     7 # energy   28.19823664 # occ.  0.00000000
 
ion      s     py     pz     px    dxy    dyz    dz2    dxz  x2-y2    tot
    1  0.056  0.103  0.019  0.191  0.204  0.087  0.022  0.132  0.003  0.816
 
band     8 # energy   30.84370895 # occ.  0.00000000
 
ion      s     py     pz     px    dxy    dyz    dz2    dxz  x2-y2    tot
    1  0.038  0.137  0.009  0.130  0.124  0.120  0.065  0.081  0.020  0.723
 
band     9 # energy   34.67108245 # occ.  0.00000000
 
ion      s     py     pz     px    dxy    dyz    dz2    dxz  x2-y2    tot
    1  0.011  0.079  0.091  0.030  0.029  0.041  0.334  0.022  0.007  0.643
 
band    10 # energy   36.75390696 # occ.  0.00000000
 
ion      s     py     pz     px    dxy    dyz    dz2    dxz  x2-y2    tot
    1  0.026  0.001  0.069  0.106  0.323  0.000  0.068  0.070  0.000  0.664
 
band    11 # energy   42.03887905 # occ.  0.00000000
 
ion      s     py     pz     px    dxy    dyz    dz2    dxz  x2-y2    tot
    1  0.253  0.179  0.328  0.023  0.011  0.055  0.010  0.005  0.000  0.864
 
band    12 # energy   45.28840601 # occ.  0.00000000
 
ion      s     py     pz     px    dxy    dyz    dz2    dxz  x2-y2    tot
    1  0.078  0.022  0.022  0.001  0.066  0.011  0.196  0.029  0.159  0.584
 

 k-point    11 :    0.43750000 0.18750000 0.06250000     weight = 0.02343750

band     1 # energy    5.99723613 # occ.  1.00000000
 
ion      s     py     pz     px    dxy    dyz    dz2    dxz  x2-y2    tot
    1  0.252  0.020  0.099  0.001  0.169  0.144  0.091  0.087  0.001  0.864
 
band     2 # energy    7.66648693 # occ.  1.00000000
 
ion      s     py     pz     px    dxy    dyz    dz2    dxz  x2-y2    tot
    1  0.015  0.043  0.027  0.044  0.352  0.024  0.332  0.061  0.011  0.911
 
band     3 # energy    8.17796919 # occ.  1.00000000
 
ion      s     py     pz     px    dxy    dyz    dz2    dxz  x2-y2    tot
    1  0.028  0.001  0.024  0.008  0.313  0.279  0.253  0.007  0.042  0.954
 
band     4 # energy    8.89357364 # occ.  1.00000000
 
ion      s     py     pz     px    dxy    dyz    dz2    dxz  x2-y2    tot
    1  0.002  0.004  0.006  0.001  0.038  0.077  0.051  0.300  0.490  0.970
 
band     5 # energy   10.25250910 # occ.  1.00000000
 
ion      s     py     pz     px    dxy    dyz    dz2    dxz  x2-y2    tot
    1  0.003  0.001  0.009  0.005  0.037  0.058  0.056  0.467  0.346  0.983
 
band     6 # energy   11.43107740 # occ.  0.00000000
 
ion      s     py     pz     px    dxy    dyz    dz2    dxz  x2-y2    tot
    1  0.088  0.035  0.092  0.018  0.017  0.389  0.180  0.031  0.087  0.936
 
band     7 # energy   22.28791213 # occ.  0.00000000
 
ion      s     py     pz     px    dxy    dyz    dz2    dxz  x2-y2    tot
    1  0.186  0.104  0.019  0.177  0.173  0.080  0.016  0.102  0.004  0.861
 
band     8 # energy   30.18006622 # occ.  0.00000000
 
ion      s     py     pz     px    dxy    dyz    dz2    dxz  x2-y2    tot
    1  0.014  0.094  0.004  0.158  0.113  0.072  0.145  0.041  0.059  0.698
 
band     9 # energy   32.31592137 # occ.  0.00000000
 
ion      s     py     pz     px    dxy    dyz    dz2    dxz  x2-y2    tot
    1  0.072  0.033  0.213  0.089  0.000  0.002  0.248  0.044  0.029  0.730
 
band    10 # energy   36.44974915 # occ.  0.00000000
 
ion      s     py     pz     px    dxy    dyz    dz2    dxz  x2-y2    tot
    1  0.065  0.137  0.111  0.026  0.247  0.022  0.010  0.016  0.007  0.640
 
band    11 # energy   43.29513850 # occ.  0.00000000
 
ion      s     py     pz     px    dxy    dyz    dz2    dxz  x2-y2    tot
    1  0.025  0.103  0.002  0.002  0.207  0.018  0.122  0.047  0.224  0.750
 
band    12 # energy   45.88720389 # occ.  0.00000000
 
ion      s     py     pz     px    dxy    dyz    dz2    dxz  x2-y2    tot
    1  0.465  0.109  0.095  0.044  0.001  0.000  0.228  0.006  0.000  0.948
 

 k-point    12 :   -0.43750000 0.18750000 0.06250000     weight = 0.02343750

band     1 # energy    6.29045954 # occ.  1.00000000
 
ion      s     py     pz     px    dxy    dyz    dz2    dxz  x2-y2    tot
    1  0.126  0.000  0.027  0.010  0.340  0.239  0.010  0.169  0.000  0.921
 
band     2 # energy    7.70415433 # occ.  1.00000000
 
ion      s     py     pz     px    dxy    dyz    dz2    dxz  x2-y2    tot
    1  0.000  0.032  0.004  0.014  0.030  0.075  0.684  0.011  0.075  0.925
 
band     3 # energy    8.64735844 # occ.  1.00000000
 
ion      s     py     pz     px    dxy    dyz    dz2    dxz  x2-y2    tot
    1  0.003  0.035  0.049  0.058  0.283  0.333  0.067  0.010  0.092  0.930
 
band     4 # energy    8.72678025 # occ.  1.00000000
 
ion      s     py     pz     px    dxy    dyz    dz2    dxz  x2-y2    tot
    1  0.001  0.015  0.026  0.003  0.143  0.000  0.023  0.251  0.495  0.958
 
band     5 # energy   10.47401894 # occ.  1.00000000
 
ion      s     py     pz     px    dxy    dyz    dz2    dxz  x2-y2    tot
    1  0.000  0.000  0.000  0.000  0.037  0.171  0.031  0.464  0.288  0.990
 
band     6 # energy   13.63710501 # occ.  0.00000000
 
ion      s     py     pz     px    dxy    dyz    dz2    dxz  x2-y2    tot
    1  0.012  0.134  0.192  0.135  0.063  0.112  0.166  0.015  0.021  0.851
 
band     7 # energy   18.12489425 # occ.  0.00000000
 
ion      s     py     pz     px    dxy    dyz    dz2    dxz  x2-y2    tot
    1  0.410  0.015  0.012  0.057  0.172  0.126  0.001  0.124  0.001  0.917
 
band     8 # energy   29.55020771 # occ.  0.00000000
 
ion      s     py     pz     px    dxy    dyz    dz2    dxz  x2-y2    tot