    2    2    1    2
  0.2137190E+02  0.2470000E-09  0.2470000E-09  0.8090000E-09  0.5000000E-15
  1.000000000000000E-004
  CAR 
 Co-hcc                                  
     18    144     16
 
  0.0000000E+00  0.0000000E+00  0.0000000E+00  0.5102041E-03
      1         -3.020960       -2.815420   1.000000   1.000000
      2         -2.554801       -2.170955   1.000000   1.000000
      3         -0.094880        1.555801   1.000000   1.000000
      4          0.759529        2.175970   1.000000   1.000000
      5          0.759530        2.529342   1.000000   1.000000
      6          0.760420        2.529343   1.000000   1.000000
      7          0.760421        2.530587   1.000000   1.000000
      8          0.927343        2.530588   1.000000   1.000000
      9          1.655249        2.765383   1.000000   1.000000
     10          1.655249        3.895300   1.000000   0.000000
     11          1.658140        3.895302   1.000000   0.000000
     12          1.658141        3.899193   1.000000   0.000000
     13          2.205819        3.899194   1.000000   0.000000
     14          6.472936        6.670261   0.000000   0.000000
     15         10.911728       11.225097   0.000000   0.000000
     16         18.836707       18.773653   0.000000   0.000000
 
  0.7142857E-01 -0.1387779E-16  0.0000000E+00  0.3061224E-02
      1         -2.833816       -2.626983   1.000000   1.000000
      2         -2.373668       -1.980718   1.000000   1.000000
      3         -0.036949        1.630605   1.000000   1.000000
      4          0.702535        2.141626   1.000000   1.000000
      5          0.703840        2.457073   1.000000   1.000000
      6          0.839813        2.458807   1.000000   1.000000
      7          0.840548        2.618117   1.000000   1.000000
      8          0.970174        2.619149   1.000000   1.000000
      9          1.298576        2.806610   1.000000   1.000000
     10          1.506523        3.650747   1.000000   0.000000
     11          1.638844        3.875819   1.000000   0.000000
     12          1.642581        3.880935   1.000000   0.000000
     13          2.687614        4.043833   1.000000   0.000000
     14          6.770874        7.059960   0.000000   0.000000
     15         11.023456       11.321242   0.000000   0.000000
     16         19.051945       18.998652   0.000000   0.000000
 
  0.1428571E+00  0.1387779E-16  0.0000000E+00  0.3061224E-02
      1         -2.295031       -2.076822   1.000000   1.000000
      2         -1.864365       -1.431468   1.000000   1.000000
      3          0.126165        1.830735   1.000000   1.000000
      4          0.566607        2.041471   1.000000   1.000000
      5          0.569668        2.276035   1.000000   1.000000
      6          0.845673        2.286360   1.000000   1.000000
      7          1.068991        2.872085   1.000000   1.000000
      8          1.069889        2.873390   1.000000   1.000000
      9          1.103172        2.923696   1.000000   1.000000
     10          1.150978        3.152620   1.000000   0.451510
     11          1.593213        3.821750   1.000000   0.000000
     12          1.598805        3.829502   1.000000   0.000000
     13          3.516160        4.487225   0.000000   0.000000
     14          7.573976        7.993450   0.000000   0.000000
     15         11.363329       11.615962   0.000000   0.000000
     16         19.685237       19.657339   0.000000   0.000000
 
  0.2142857E+00  0.0000000E+00  0.0000000E+00  0.3061224E-02
      1         -1.521454       -1.226912   1.000000   1.000000
      2         -1.194484       -0.616970   1.000000   1.000000
      3          0.368798        1.894867   1.000000   1.000000
      4          0.458212        1.949477   1.000000   1.000000
      5          0.494254        2.112192   1.000000   1.000000
      6          0.502060        2.283197   1.000000   1.000000
      7          0.737946        2.647211   1.000000   1.000000
      8          1.362044        3.099963   1.000000   0.914270
      9          1.413670        3.256264   1.000000   0.001132
     10          1.414592        3.257653   1.000000   0.000992
     11          1.528132        3.744815   1.000000   0.000000
     12          1.535704        3.755424   1.000000   0.000000
     13          4.555477        5.240731   0.000000   0.000000
     14          8.731588        9.223000   0.000000   0.000000
     15         11.937704       12.121741   0.000000   0.000000
     16         19.480557       19.841191   0.000000   0.000000
 
  0.2857143E+00  0.0000000E+00  0.0000000E+00  0.3061224E-02
      1         -0.952679       -0.284478   1.000000   1.000000
      2         -0.823813        0.145135   1.000000   1.000000
      3          0.147889        1.737594   1.000000   1.000000
      4          0.361915        1.996796   1.000000   1.000000
      5          0.664109        2.220660   1.000000   1.000000
      6          0.746820        2.290525   1.000000   1.000000
      7          0.948921        2.626162   1.000000   1.000000
      8          1.456553        3.324715   1.000000   0.000000
      9          1.466146        3.660333   1.000000   0.000000
     10          1.817200        3.673850   1.000000   0.000000
     11          1.817968        3.709879   1.000000   0.000000
     12          1.949161        3.711060   1.000000   0.000000
     13          5.821824        6.304718   0.000000   0.000000
     14         10.137678       10.650137   0.000000   0.000000
     15         12.700525       12.813840   0.000000   0.000000
     16         16.213822       16.628504   0.000000   0.000000
 
  0.3571429E+00  0.0000000E+00  0.0000000E+00  0.3061224E-02
      1         -0.899460        0.243279   1.000000   1.000000
      2         -0.860049        0.397701   1.000000   1.000000
      3         -0.077530        1.606031   1.000000   1.000000
      4          0.069247        1.900215   1.000000   1.000000
      5          0.910179        2.658512   1.000000   1.000000
      6          1.059848        3.016426   1.000000   0.999904
      7          1.392603        3.084372   1.000000   0.964735
      8          1.403882        3.584993   1.000000   0.000000
      9          2.202634        3.600936   1.000000   0.000000
     10          2.203179        3.771845   1.000000   0.000000
     11          2.283091        4.147642   1.000000   0.000000
     12          3.185031        4.148501   0.149505   0.000000
     13          7.328696        7.670104   0.000000   0.000000
     14         11.678087       12.173028   0.000000   0.000000
     15         12.753609       13.092553   0.000000   0.000000
     16         13.503077       13.905780   0.000000   0.000000
 
  0.4285714E+00  0.0000000E+00  0.0000000E+00  0.3061224E-02
      1         -0.984200        0.316873   1.000000   1.000000
      2         -0.970472        0.362758   1.000000   1.000000
      3         -0.210945        1.527150   1.000000   1.000000
      4         -0.118155        1.695085   1.000000   1.000000
      5          1.092029        3.148067   1.000000   0.502770
      6          1.214324        3.357742   1.000000   0.000000
      7          1.348606        3.533215   1.000000   0.000000
      8          1.361112        3.550923   1.000000   0.000000
      9          2.483463        4.251644   1.000000   0.000000
     10          2.483554        4.469890   1.000000   0.000000
     11          3.997749        4.470009   0.000000   0.000000
     12          4.754516        4.948302   0.000000   0.000000
     13          9.058806        9.304037   0.000000   0.000000
     14         10.469280       11.119815   0.000000   0.000000
     15         11.415826       12.081571   0.000000   0.000000
     16         12.660830       12.986551   0.000000   0.000000
 
  0.5000000E+00  0.0000000E+00  0.0000000E+00  0.1530612E-02
      1         -1.022936        0.310170   1.000000   1.000000
      2         -1.018608        0.325586   1.000000   1.000000
      3         -0.252986        1.505909   1.000000   1.000000
      4         -0.184360        1.619940   1.000000   1.000000
      5          1.161800        3.267148   1.000000   0.000388
      6          1.257475        3.410920   1.000000   0.000000
      7          1.333065        3.514949   1.000000   0.000000
      8          1.346019        3.533285   1.000000   0.000000
      9          2.586685        4.589059   1.000000   0.000000
     10          2.586890        4.589322   1.000000   0.000000
     11          5.197103        5.218805   0.000000   0.000000
     12          5.542479        5.591169   0.000000   0.000000
     13          9.277711       10.077966   0.000000   0.000000
     14         10.086054       10.730643   0.000000   0.000000
     15         10.531731       10.935307   0.000000   0.000000
     16         11.667120       11.856557   0.000000   0.000000
 
  0.7142857E-01  0.7142857E-01  0.0000000E+00  0.3061224E-02
      1         -2.469122       -2.256940   1.000000   1.000000
      2         -2.025858       -1.609722   1.000000   1.000000
      3          0.074165        1.772215   1.000000   1.000000
      4          0.594978        2.075070   1.000000   1.000000
      5          0.596331        2.320986   1.000000   1.000000
      6          0.964078        2.322947   1.000000   1.000000
      7          0.983683        2.798198   1.000000   1.000000
      8          1.005097        2.799572   1.000000   1.000000
      9          1.077895        2.885750   1.000000   1.000000
     10          1.260872        3.297215   1.000000   0.000013
     11          1.604790        3.835311   1.000000   0.000000
     12          1.608257        3.840092   1.000000   0.000000
     13          3.274810        4.341894   0.000173   0.000000
     14          7.318866        7.708789   0.000000   0.000000
     15         11.249658       11.517095   0.000000   0.000000
     16         19.476475       19.440801   0.000000   0.000000
 
  0.1428571E+00  0.7142857E-01  0.0000000E+00  0.6122449E-02
      1         -1.790942       -1.548846   1.000000   1.000000
      2         -1.405980       -0.913510   1.000000   1.000000
      3          0.278393        1.956598   1.000000   1.000000
      4          0.437742        1.989722   1.000000   1.000000
      5          0.441090        2.108452   1.000000   1.000000
      6          0.596586        2.145967   1.000000   1.000000
      7          0.895505        2.833356   1.000000   1.000000
      8          1.160833        3.029602   1.000000   0.999607
      9          1.323601        3.143295   1.000000   0.556420
     10          1.408905        3.148703   1.000000   0.495588
     11          1.539200        3.756829   1.000000   0.000000
     12          1.544506        3.764192   1.000000   0.000000
     13          4.166512        4.948678   0.000000   0.000000
     14          8.291590        8.766666   0.000000   0.000000
     15         11.710668       11.921261   0.000000   0.000000
     16         20.302437       20.295570   0.000000   0.000000
 
  0.2142857E+00  0.7142857E-01  0.0000000E+00  0.6122449E-02
      1         -1.029274       -0.608212   1.000000   1.000000
      2         -0.809266       -0.057256   1.000000   1.000000
      3          0.279247        1.815340   1.000000   1.000000
      4          0.448593        1.894491   1.000000   1.000000
      5          0.456362        2.001681   1.000000   1.000000
      6          0.523789        2.402239   1.000000   1.000000
      7          0.564760        2.413400   1.000000   1.000000
      8          1.393317        3.216715   1.000000   0.026513
      9          1.456704        3.603297   1.000000   0.000000
     10          1.464579        3.636551   1.000000   0.000000
     11          1.772353        3.657928   1.000000   0.000000
     12          1.978255        3.668745   1.000000   0.000000
     13          5.302159        5.865161   0.000000   0.000000
     14          9.568472       10.082559   0.000000   0.000000
     15         12.403630       12.541884   0.000000   0.000000
     16         17.926644       18.306176   0.000000   0.000000
 
  0.2857143E+00  0.7142857E-01  0.0000000E+00  0.6122449E-02
      1         -0.759244        0.199837   1.000000   1.000000
      2         -0.696200        0.474851   1.000000   1.000000
      3          0.033413        1.684790   1.000000   1.000000
      4          0.210096        2.056437   1.000000   1.000000
      5          0.779991        2.133775   1.000000   1.000000
      6          0.836246        2.415132   1.000000   1.000000
      7          1.204358        2.780534   1.000000   1.000000
      8          1.374427        3.426003   1.000000   0.000000
      9          1.384401        3.559126   1.000000   0.000000
     10          1.728172        3.572743   1.000000   0.000000
     11          2.410207        4.130850   1.000000   0.000000
     12          2.922747        4.255293   1.000000   0.000000
     13          6.683344        7.087173   0.000000   0.000000
     14         11.057013       11.573779   0.000000   0.000000
     15         13.139015       13.254436   0.000000   0.000000
     16         14.808234       15.239401   0.000000   0.000000
 
  0.3571429E+00  0.7142857E-01  0.0000000E+00  0.6122449E-02
      1         -0.835151        0.428640   1.000000   1.000000
      2         -0.814270        0.508490   1.000000   1.000000
      3         -0.130586        1.592680   1.000000   1.000000
      4         -0.015006        1.812668   1.000000   1.000000
      5          1.014102        2.983892   1.000000   0.999998
      6          1.129404        3.126418   1.000000   0.732133
      7          1.308409        3.211834   1.000000   0.036195
      8          1.320066        3.479703   1.000000   0.000000
      9          1.956813        3.495552   1.000000   0.000000
     10          2.089527        3.711039   1.000000   0.000000
     11          3.592919        4.752809   0.000000   0.000000
     12          4.346285        5.119475   0.000000   0.000000
     13          8.308725        8.600191   0.000000   0.000000
     14         11.727434       12.266631   0.000000   0.000000
     15         12.532151       13.000031   0.000000   0.000000
     16         12.627134       13.145962   0.000000   0.000000
 
  0.4285714E+00  0.7142857E-01  0.0000000E+00  0.6122449E-02
      1         -0.913723        0.420582   1.000000   1.000000
      2         -0.907467        0.443040   1.000000   1.000000
      3         -0.208984        1.553204   1.000000   1.000000
      4         -0.135289        1.679470   1.000000   1.000000
      5          1.147826        3.246373   1.000000   0.002772
      6          1.244729        3.389678   1.000000   0.000000
      7          1.271794        3.435592   1.000000   0.000000
      8          1.284369        3.452665   1.000000   0.000000
      9          2.278885        3.894466   1.000000   0.000000
     10          2.305462        4.024705   1.000000   0.000000
     11          5.163179        5.655298   0.000000   0.000000
     12          5.725799        6.091954   0.000000   0.000000
     13          9.676075       10.320663   0.000000   0.000000
     14         10.100164       10.417686   0.000000   0.000000
     15         10.567422       11.339475   0.000000   0.000000
     16         12.334309       12.549821   0.000000   0.000000
 
  0.1428571E+00  0.1428571E+00  0.0000000E+00  0.3061224E-02
      1         -1.037472       -0.721358   1.000000   1.000000
      2         -0.755966       -0.124068   1.000000   1.000000
      3          0.242407        1.853410   1.000000   1.000000
      4          0.245635        1.866596   1.000000   1.000000
      5          0.341464        1.871511   1.000000   1.000000
      6          0.518621        2.302801   1.000000   1.000000
      7          0.599643        2.488305   1.000000   1.000000
      8          1.285528        3.182675   1.000000   0.165547
      9          1.439470        3.596677   1.000000   0.000000
     10          1.445659        3.635441   1.000000   0.000000
     11          1.788922        3.644514   1.000000   0.000000
     12          2.016975        3.646049   1.000000   0.000000
     13          5.129628        5.729587   0.000000   0.000000
     14          9.375982        9.892014   0.000000   0.000000
     15         12.303384       12.452752   0.000000   0.000000
     16         19.769289       20.025904   0.000000   0.000000
 
  0.2142857E+00  0.1428571E+00  0.0000000E+00  0.6122449E-02
      1         -0.418188        0.242455   1.000000   1.000000
      2         -0.323335        0.688666   1.000000   1.000000
      3          0.132289        1.724663   1.000000   1.000000
      4          0.284271        1.761937   1.000000   1.000000
      5          0.299603        1.772440   1.000000   1.000000
      6          0.331107        2.192772   1.000000   1.000000
      7          0.823464        2.636775   1.000000   1.000000
      8          1.316859        3.348236   1.000000   0.000000
      9          1.325971        3.485182   1.000000   0.000000
     10          1.439707        3.498457   1.000000   0.000000
     11          2.503228        4.187895   1.000000   0.000000
     12          2.968834        4.367204   1.000000   0.000000
     13          6.367234        6.818628   0.000000   0.000000
     14         10.739744       11.272583   0.000000   0.000000
     15         13.112581       13.203295   0.000000   0.000000
     16         16.621927       17.009786   0.000000   0.000000
 
  0.2857143E+00  0.1428571E+00  0.0000000E+00  0.6122449E-02
      1         -0.463754        0.758770   1.000000   1.000000
      2         -0.441584        0.889698   1.000000   1.000000
      3         -0.013657        1.701182   1.000000   1.000000
      4          0.124483        1.973771   1.000000   1.000000
      5          0.790814        2.147559   1.000000   1.000000
      6          0.817727        2.319950   1.000000   1.000000
      7          1.200429        2.968762   1.000000   1.000000
      8          1.211967        3.341383   1.000000   0.000000
      9          1.218843        3.357499   1.000000   0.000000
     10          1.601543        3.483009   1.000000   0.000000
     11          3.615275        4.946134   0.000000   0.000000
     12          4.317927        5.367560   0.000000   0.000000
     13          7.868374        8.206600   0.000000   0.000000
     14         12.276998       12.805239   0.000000   0.000000
     15         13.249389       13.593925   0.000000   0.000000
     16         13.945240       14.293021   0.000000   0.000000
 
  0.3571429E+00  0.1428571E+00  0.0000000E+00  0.6122449E-02
      1         -0.594870        0.750454   1.000000   1.000000
      2         -0.587073        0.784434   1.000000   1.000000
      3         -0.093657        1.677627   1.000000   1.000000
      4         -0.007010        1.834382   1.000000   1.000000
      5          1.088060        2.918171   1.000000   1.000000
      6          1.117154        2.980537   1.000000   0.999999
      7          1.130009        3.223822   1.000000   0.016351
      8          1.150745        3.237693   1.000000   0.005734
      9          1.614378        3.254837   1.000000   0.001294
     10          1.745957        3.536830   1.000000   0.000000
     11          5.170725        6.012717   0.000000   0.000000
     12          5.930090        6.627857   0.000000   0.000000
     13          9.610283        9.869003   0.000000   0.000000
     14         10.837695       11.442237   0.000000   0.000000
     15         11.826165       12.462752   0.000000   0.000000
     16         13.297517       13.665625   0.000000   0.000000
 
  0.4285714E+00  0.1428571E+00  0.0000000E+00  0.3061224E-02
      1         -0.643865        0.720116   1.000000   1.000000
      2         -0.643598        0.728910   1.000000   1.000000
      3         -0.116367        1.678040   1.000000   1.000000
      4         -0.054200        1.781375   1.000000   1.000000
      5          1.086851        3.199774   1.000000   0.072757
      6          1.100122        3.215493   1.000000   0.028706
      7          1.175516        3.217094   1.000000   0.025861
      8          1.253675        3.234700   1.000000   0.007275
      9          1.774703        3.402941   1.000000   0.000000
     10          1.799007        3.469510   1.000000   0.000000
     11          6.456752        6.967733   0.000000   0.000000
     12          6.794442        7.297858   0.000000   0.000000
     13          9.551036       10.306186   0.000000   0.000000
     14         10.329229       11.136708   0.000000   0.000000
     15         11.139429       11.372436   0.000000   0.000000
     16         12.188725       12.381480   0.000000   0.000000
 
  0.2142857E+00  0.2142857E+00  0.0000000E+00  0.3061224E-02
      1          0.001018        1.167014   1.000000   1.000000
      2          0.007439        1.486333   1.000000   1.000000
      3          0.047386        1.517720   1.000000   1.000000
      4          0.197444        1.529170   1.000000   1.000000
      5          0.266150        1.758492   1.000000   1.000000
      6          0.295259        2.058088   1.000000   1.000000
      7          1.074055        2.930811   1.000000   1.000000
      8          1.136444        3.260762   1.000000   0.000735
      9          1.150047        3.282027   1.000000   0.000078
     10          1.483901        3.457254   1.000000   0.000000
     11          3.641600        5.008192   0.000000   0.000000
     12          4.334759        5.451446   0.000000   0.000000
     13          7.724455        8.082492   0.000000   0.000000
     14         12.174359       12.719871   0.000000   0.000000
     15         13.947331       14.045278   0.000000   0.000000
     16         15.536492       15.869014   0.000000   0.000000
 
  0.2857143E+00  0.2142857E+00  0.0000000E+00  0.6122449E-02
      1         -0.131780        1.273098   1.000000   1.000000
      2         -0.125522        1.299941   1.000000   1.000000
      3          0.024849        1.804333   1.000000   1.000000
      4          0.127547        1.996206   1.000000   1.000000
      5          0.723541        2.066918   1.000000   1.000000
      6          0.747676        2.188115   1.000000   1.000000
      7          0.962139        3.042205   1.000000   0.998655
      8          0.979926        3.069977   1.000000   0.986643
      9          1.233988        3.189184   1.000000   0.123837
     10          1.474856        3.501471   1.000000   0.000000
     11          5.184997        6.161220   0.000000   0.000000
     12          6.017894        6.874831   0.000000   0.000000
     13          9.355552        9.641244   0.000000   0.000000
     14         12.578774       13.057801   0.000000   0.000000
     15         13.559702       14.051443   0.000000   0.000000
     16         13.683295       14.231433   0.000000   0.000000
 
  0.3571429E+00  0.2142857E+00  0.0000000E+00  0.6122449E-02
      1         -0.225793        1.172318   1.000000   1.000000
      2         -0.219409        1.179117   1.000000   1.000000
      3          0.038663        1.866563   1.000000   1.000000
      4          0.101042        1.973949   1.000000   1.000000
      5          0.851042        2.556530   1.000000   1.000000
      6          0.869283        2.616934   1.000000   1.000000
      7          1.067366        2.902023   1.000000   1.000000
      8          1.127183        2.928586   1.000000   1.000000
      9          1.242137        3.334917   1.000000   0.000000
     10          1.367041        3.464529   1.000000   0.000000
     11          6.984132        7.637590   0.000000   0.000000
     12          7.703283        8.317067   0.000000   0.000000
     13         10.293960       10.937457   0.000000   0.000000
     14         11.196467       11.441556   0.000000   0.000000
     15         11.236348       11.917740   0.000000   0.000000
     16         13.429992       13.672307   0.000000   0.000000
 
  0.2857143E+00  0.2857143E+00  0.0000000E+00  0.3061224E-02
      1          0.124698        1.560298   1.000000   1.000000
      2          0.137246        1.581900   1.000000   1.000000
      3          0.140427        1.984731   1.000000   1.000000
      4          0.211847        2.067510   1.000000   1.000000
      5          0.710376        2.111995   1.000000   1.000000
      6          0.710603        2.151512   1.000000   1.000000
      7          0.711709        2.725072   1.000000   1.000000
      8          0.737650        2.769744   1.000000   1.000000
      9          1.211612        3.332012   1.000000   0.000000
     10          1.329601        3.471739   1.000000   0.000000
     11          7.055381        7.769712   0.000000   0.000000
     12          7.959488        8.664738   0.000000   0.000000
     13         11.117010       11.367933   0.000000   0.000000
     14         11.834174       12.284804   0.000000   0.000000
     15         12.114668       12.617195   0.000000   0.000000
     16         13.180271       13.790993   0.000000   0.000000
 
  0.3571429E+00  0.2857143E+00  0.0000000E+00  0.3061224E-02
      1          0.210486        1.623478   1.000000   1.000000
      2          0.225430        1.641135   1.000000   1.000000
      3          0.244957        2.133521   1.000000   1.000000
      4          0.290398        2.134189   1.000000   1.000000
      5          0.565816        2.175863   1.000000   1.000000
      6          0.594429        2.209395   1.000000   1.000000
      7          0.731480        2.543787   1.000000   1.000000
      8          0.752905        2.589081   1.000000   1.000000
      9          1.194651        3.389539   1.000000   0.000000
     10          1.224094        3.430886   1.000000   0.000000
     11          8.858729        9.388245   0.000000   0.000000
     12          9.191201        9.752241   0.000000   0.000000
     13         10.425812       11.052245   0.000000   0.000000
     14         10.818286       11.394299   0.000000   0.000000
     15         12.211520       12.804257   0.000000   0.000000
     16         12.788344       13.068999   0.000000   0.000000
 
  0.0000000E+00  0.0000000E+00  0.1000000E+00  0.1020408E-02
      1         -3.010245       -2.802148   1.000000   1.000000
      2         -2.566779       -2.190008   1.000000   1.000000
      3         -0.084869        1.560053   1.000000   1.000000
      4          0.759546        2.099149   1.000000   1.000000
      5          0.759547        2.529367   1.000000   1.000000
      6          0.760404        2.529368   1.000000   1.000000
      7          0.760405        2.530563   1.000000   1.000000
      8          0.846703        2.530564   1.000000   1.000000
      9          1.655335        2.901557   1.000000   1.000000
     10          1.655336        3.895412   1.000000   0.000000
     11          1.658064        3.895413   1.000000   0.000000
     12          1.658064        3.899092   1.000000   0.000000
     13          2.340058        3.899093   1.000000   0.000000
     14          6.314104        6.526373   0.000000   0.000000
     15         11.113612       11.413992   0.000000   0.000000
     16         18.372901       18.365259   0.000000   0.000000
 
  0.7142857E-01 -0.1387779E-16  0.1000000E+00  0.6122449E-02
      1         -2.823166       -2.613680   1.000000   1.000000
      2         -2.385436       -1.999893   1.000000   1.000000
      3         -0.027299        1.634378   1.000000   1.000000
      4          0.702465        2.088755   1.000000   1.000000
      5          0.703815        2.457122   1.000000   1.000000
      6          0.839743        2.458777   1.000000   1.000000
      7          0.840525        2.618021   1.000000   1.000000
      8          0.877419        2.619117   1.000000   1.000000
      9          1.347127        2.896934   1.000000   1.000000
     10          1.506080        3.648417   1.000000   0.000000
     11          1.638933        3.875941   1.000000   0.000000
     12          1.642449        3.880755   1.000000   0.000000
     13          2.785356        4.065937   1.000000   0.000000
     14          6.606968        6.911002   0.000000   0.000000
     15         11.231453       11.518234   0.000000   0.000000
     16         18.570706       18.573935   0.000000   0.000000
 
  0.1428571E+00  0.1387779E-16  0.1000000E+00  0.6122449E-02
      1         -2.284839       -2.063577   1.000000   1.000000
      2         -1.875012       -1.450637   1.000000   1.000000
      3          0.134597        1.832703   1.000000   1.000000
      4          0.566577        2.027902   1.000000   1.000000
      5          0.569597        2.276909   1.000000   1.000000
      6          0.803313        2.286266   1.000000   1.000000
      7          1.069013        2.872118   1.000000   1.000000
      8          1.069902        2.873402   1.000000   1.000000
      9          1.112339        2.941189   1.000000   1.000000
     10          1.151021        3.151181   1.000000   0.467665
     11          1.593390        3.821992   1.000000   0.000000
     12          1.598622        3.829262   1.000000   0.000000
     13          3.602448        4.543016   0.000000   0.000000
     14          7.393389        7.821218   0.000000   0.000000
     15         11.589504       11.837715   0.000000   0.000000
     16         19.143568       19.177779   0.000000   0.000000
 
  0.2142857E+00  0.0000000E+00  0.1000000E+00  0.6122449E-02
      1         -1.513203       -1.214295   1.000000   1.000000
      2         -1.202015       -0.634963   1.000000   1.000000
      3          0.371652        1.897364   1.000000   1.000000
      4          0.456670        1.948745   1.000000   1.000000
      5          0.494442        2.115400   1.000000   1.000000
      6          0.501856        2.277265   1.000000   1.000000