    2    2    1    2
  0.2137190E+02  0.2470000E-09  0.2470000E-09  0.8090000E-09  0.5000000E-15
  1.000000000000000E-004
  CAR 
 Co fcc                                  
     18     21     16
 
  0.0000000E+00  0.0000000E+00  0.0000000E+00  0.6944444E-02
      1         -3.005490       -2.775393   1.000000   1.000000
      2         -2.545605       -2.131842   1.000000   1.000000
      3         -0.293371        1.494282   1.000000   1.000000
      4          0.717279        2.181270   1.000000   1.000000
      5          0.717280        2.568162   1.000000   1.003147
      6          0.718161        2.568163   1.000000   1.003147
      7          0.718162        2.569402   1.000000   1.003224
      8          0.729866        2.569403   1.000000   1.003224
      9          1.423394        2.703297   1.000000   1.023737
     10          1.423395        3.847938   1.000000  -0.000000
     11          1.426219        3.847939   1.000000  -0.000000
     12          1.426220        3.851786   1.000000  -0.000000
     13          2.135562        3.851787   1.000000  -0.000000
     14          6.411890        6.700159  -0.000000  -0.000000
     15         10.843637       11.197839   0.000000   0.000000
     16         18.799721       18.785653   0.000000   0.000000
 
  0.1666667E+00 -0.1387779E-16  0.0000000E+00  0.4166667E-01
      1         -2.040119       -1.781488   1.000000   1.000000
      2         -1.649540       -1.143871   1.000000   1.000000
      3         -0.001671        1.848604   1.000000   1.000000
      4          0.478608        1.986927   1.000000   1.000000
      5          0.488045        2.249511   1.000000   1.000000
      6          0.522422        2.266277   1.000000   1.000001
      7          0.802257        2.914525   1.000000   0.885789
      8          0.994372        2.947259   1.000000   0.787718
      9          1.127018        3.025524   1.000000   0.478304
     10          1.127868        3.026792   1.000000   0.472947
     11          1.342748        3.751592   1.000000  -0.000001
     12          1.348819        3.760157   1.000000  -0.000001
     13          3.727147        4.673789  -0.000003  -0.000000
     14          7.846708        8.392868  -0.000000  -0.000000
     15         11.469370       11.737916   0.000000   0.000000
     16         19.942089       19.976089   0.000000   0.000000
 
  0.3333333E+00 -0.2775558E-16  0.0000000E+00  0.4166667E-01
      1         -0.904566        0.178992   1.000000   1.000000
      2         -0.855539        0.404636   1.000000   1.000000
      3         -0.200058        1.625498   1.000000   1.000000
      4         -0.040198        1.969751   1.000000   1.000000
      5          0.619774        2.389288   1.000000   1.000038
      6          0.784418        2.763901   1.000000   1.034984
      7          1.184872        2.844308   1.000000   1.007861
      8          1.195347        3.537659   1.000000  -0.000781
      9          1.769729        3.563757   1.000000  -0.000416
     10          2.025045        3.578754   1.000000  -0.000285
     11          2.025703        4.043162   1.000000  -0.000000
     12          2.701655        4.044203   1.023357  -0.000000
     13          6.699143        7.169801  -0.000000  -0.000000
     14         11.072527       11.686815   0.000000   0.000000
     15         13.011074       13.194059   0.000000   0.000000
     16         14.215797       14.712373   0.000000   0.000000
 
  0.5000000E+00 -0.5551115E-16  0.0000000E+00  0.2083333E-01
      1         -1.043888        0.351831   1.000000   1.000000
      2         -1.040795        0.366471   1.000000   1.000000
      3         -0.442263        1.483866   1.000000   1.000000
      4         -0.376065        1.596831   1.000000   1.000000
      5          0.935480        3.188468   1.000000   0.000335
      6          1.030109        3.329664   1.000000  -0.025547
      7          1.107089        3.471501   1.000000  -0.003216
      8          1.119711        3.489606   1.000000  -0.002240
      9          2.523943        4.620302   1.001253  -0.000000
     10          2.524144        4.620563   1.001259  -0.000000
     11          5.236854        5.265781  -0.000000  -0.000000
     12          5.590415        5.644023  -0.000000  -0.000000
     13          9.218550       10.095169   0.000000   0.000000
     14         10.037287       10.739382   0.000000   0.000000
     15         10.440655       10.964390   0.000000   0.000000
     16         11.576947       11.850108   0.000000   0.000000
 
  0.1666667E+00  0.1666667E+00  0.0000000E+00  0.4166667E-01
      1         -0.530307       -0.034484   1.000000   1.000000
      2         -0.393928        0.492321   1.000000   1.000000
      3          0.014760        1.764279   1.000000   1.000000
      4          0.105754        1.770577   1.000000   1.000000
      5          0.109758        1.776854   1.000000   1.000000
      6          0.223366        2.266747   1.000000   1.000001
      7          0.514931        2.443772   1.000000   1.000177
      8          1.128582        3.228486   1.000000  -0.028832
      9          1.136312        3.487678   1.000000  -0.002331
     10          1.220332        3.499491   1.000000  -0.001824
     11          2.187021        4.007190   1.000000  -0.000000
     12          2.576451        4.141554   1.003691  -0.000000
     13          5.802069        6.389589  -0.000000  -0.000000
     14         10.149258       10.784617   0.000000   0.000000
     15         12.775821       12.913404   0.000000   0.000000
     16         18.268051       18.596924   0.000000   0.000000
 
  0.3333333E+00  0.1666667E+00  0.0000000E+00  0.8333333E-01
      1         -0.474312        0.948134   1.000000   1.000000
      2         -0.467754        0.983128   1.000000   1.000000
      3         -0.241203        1.702428   1.000000   1.000000
      4         -0.152914        1.869417   1.000000   1.000000
      5          0.826923        2.659002   1.000000   1.014165
      6          0.839376        2.729810   1.000000   1.029690
      7          0.852833        3.124409   1.000000   0.119078
      8          0.876371        3.129607   1.000000   0.105660
      9          1.360106        3.143517   1.000000   0.073104
     10          1.522231        3.453713   1.000000  -0.004500
     11          5.158061        6.109157  -0.000000  -0.000000
     12          5.977614        6.784034  -0.000000  -0.000000
     13          9.400446        9.760255   0.000000   0.000000
     14         11.324125       11.947137   0.000000   0.000000
     15         12.348604       12.993331   0.000000   0.000000
     16         13.404239       13.972510   0.000000   0.000000
 
  0.3333333E+00  0.3333333E+00  0.0000000E+00  0.1388889E-01
      1          0.174471        1.909345   1.000000   1.000000
      2          0.211220        1.940268   1.000000   1.000000
      3          0.211220        1.940272   1.000000   1.000000
      4          0.250211        1.978119   1.000000   1.000000
      5          0.444063        2.266825   1.000000   1.000001
      6          0.459384        2.328699   1.000000   1.000006
      7          0.459388        2.328699   1.000000   1.000006
      8          0.480495        2.395452   1.000000   1.000046
      9          0.964496        3.321135   1.000000  -0.027486
     10          0.964500        3.321138   1.000000  -0.027485
     11          9.682565       10.210622   0.000000   0.000000
     12          9.937583       10.508639   0.000000   0.000000
     13          9.937585       10.508642   0.000000   0.000000
     14         10.588811       11.205100   0.000000   0.000000
     15         12.040976       12.797905   0.000000   0.000000
     16         12.040977       12.797908   0.000000   0.000000
 
  0.0000000E+00  0.0000000E+00  0.2500000E+00  0.1388889E-01
      1         -2.940759       -2.694404   1.000000   1.000000
      2         -2.614835       -2.242289   1.000000   1.000000
      3         -0.228050        1.524125   1.000000   1.000000
      4          0.388006        1.869860   1.000000   1.000000
      5          0.717382        2.568314   1.000000   1.003156
      6          0.717383        2.568314   1.000000   1.003156
      7          0.718038        2.569235   1.000000   1.003213
      8          0.718039        2.569236   1.000000   1.003213
      9          1.423764        3.376523   1.000000  -0.015187
     10          1.423764        3.848454   1.000000  -0.000000
     11          1.425744        3.848455   1.000000  -0.000000
     12          1.425744        3.851160   1.000000  -0.000000
     13          2.806085        3.851162   1.031048  -0.000000
     14          5.579384        5.931880  -0.000000  -0.000000
     15         11.944721       12.245748   0.000000   0.000000
     16         16.851547       16.987885   0.000000   0.000000
 
  0.1666667E+00 -0.1387779E-16  0.2500000E+00  0.8333333E-01
      1         -1.982265       -1.701451   1.000000   1.000000
      2         -1.704847       -1.253649   1.000000   1.000000
      3          0.049164        1.857871   1.000000   1.000000
      4          0.414986        1.947159   1.000000   1.000000
      5          0.487782        2.254461   1.000000   1.000000
      6          0.489612        2.265145   1.000000   1.000001
      7          0.809139        2.928470   1.000000   0.847123
      8          0.910979        2.947653   1.000000   0.786388
      9          1.127188        3.025776   1.000000   0.477241
     10          1.127833        3.026727   1.000000   0.473220
     11          1.343752        3.752981   1.000000  -0.000001
     12          1.347992        3.758977   1.000000  -0.000001
     13          4.228821        5.065412  -0.000000  -0.000000
     14          6.912968        7.482825  -0.000000  -0.000000
     15         12.689645       12.955858   0.000000   0.000000
     16         17.761802       17.937338   0.000000   0.000000
 
  0.3333333E+00 -0.2775558E-16  0.2500000E+00  0.8333333E-01
      1         -0.897495        0.211017   1.000000   1.000000
      2         -0.862859        0.370387   1.000000   1.000000
      3         -0.182801        1.658448   1.000000   1.000000
      4         -0.072714        1.879989   1.000000   1.000000
      5          0.659770        2.541077   1.000000   1.001815
      6          0.771959        2.765632   1.000000   1.035111
      7          1.186377        2.851795   1.000000   1.000246
      8          1.193839        3.343906   1.000000  -0.022256
      9          1.863269        3.565924   1.000000  -0.000395
     10          2.025170        3.576584   1.000000  -0.000302
     11          2.025643        4.043362   1.000000  -0.000000
     12          2.506294        4.044107   1.000840  -0.000000
     13          7.167936        7.636739  -0.000000  -0.000000
     14          9.900245       10.384165   0.000000   0.000000
     15         13.919387       14.385261   0.000000   0.000000
     16         14.395947       14.874011   0.000000   0.000000
 
  0.5000000E+00 -0.5551115E-16  0.2500000E+00  0.4166667E-01
      1         -1.043664        0.353599   1.000000   1.000000
      2         -1.041460        0.363963   1.000000   1.000000
      3         -0.433911        1.497974   1.000000   1.000000
      4         -0.387103        1.577587   1.000000   1.000000
      5          0.952279        3.218197   1.000000  -0.023949
      6          1.019457        3.320438   1.000000  -0.027642
      7          1.108786        3.473950   1.000000  -0.003066
      8          1.117724        3.486780   1.000000  -0.002374
      9          2.523933        4.620289   1.001253  -0.000000
     10          2.524070        4.620473   1.001257  -0.000000
     11          5.279303        5.300176  -0.000000  -0.000000
     12          5.529015        5.569012  -0.000000  -0.000000
     13          9.220938       10.086254   0.000000   0.000000
     14          9.628163       10.373118   0.000000   0.000000
     15         11.072384       11.551959   0.000000   0.000000
     16         11.772142       12.053034   0.000000   0.000000
 
  0.1666667E+00  0.1666667E+00  0.2500000E+00  0.8333333E-01
      1         -0.508698        0.032305   1.000000   1.000000
      2         -0.412483        0.401655   1.000000   1.000000
      3          0.032817        1.765128   1.000000   1.000000
      4          0.106267        1.769189   1.000000   1.000000
      5          0.109237        1.834759   1.000000   1.000000
      6          0.164570        2.136967   1.000000   1.000000
      7          0.638851        2.603262   1.000000   1.006003
      8          1.122662        3.110414   1.000000   0.158530
      9          1.132812        3.489451   1.000000  -0.002247
     10          1.135226        3.497785   1.000000  -0.001890
     11          2.211117        4.013068   1.000000  -0.000000
     12          2.461168        4.091668   1.000279  -0.000000
     13          6.284392        6.861159  -0.000000  -0.000000
     14          9.036945        9.584740   0.000000   0.000000
     15         14.163537       14.399714   0.000000   0.000000
     16         18.343118       18.697832   0.000000   0.000000
 
  0.3333333E+00  0.1666667E+00  0.2500000E+00  0.1666667E+00
      1         -0.473692        0.952829   1.000000   1.000000
      2         -0.469135        0.977581   1.000000   1.000000
      3         -0.229683        1.722491   1.000000   1.000000
      4         -0.167724        1.838692   1.000000   1.000000
      5          0.828283        2.679769   1.000000   1.018411
      6          0.845057        2.726794   1.000000   1.029052
      7          0.852855        3.120005   1.000000   0.130975
      8          0.876023        3.138472   1.000000   0.084347
      9          1.383328        3.181651   1.000000   0.008363
     10          1.498563        3.407221   1.000000  -0.009833
     11          5.241428        6.169066  -0.000000  -0.000000
     12          5.802031        6.623843  -0.000000  -0.000000
     13          9.832978       10.202967   0.000000   0.000000
     14         11.364209       11.953010   0.000000   0.000000
     15         12.104328       12.691080   0.000000   0.000000
     16         12.665670       13.218878   0.000000   0.000000
 
  0.3333333E+00  0.3333333E+00  0.2500000E+00  0.2777778E-01
      1          0.184289        1.917273   1.000000   1.000000
      2          0.209734        1.941340   1.000000   1.000000
      3          0.209734        1.941345   1.000000   1.000000
      4          0.237453        1.964939   1.000000   1.000000
      5          0.451107        2.288689   1.000000   1.000001
      6          0.460618        2.326057   1.000000   1.000005
      7          0.460623        2.326058   1.000000   1.000005
      8          0.476428        2.378728   1.000000   1.000028
      9          0.965180        3.323686   1.000000  -0.026912
     10          0.965183        3.323689   1.000000  -0.026911
     11          9.786960       10.321638   0.000000   0.000000
     12          9.962818       10.526300   0.000000   0.000000
     13          9.962820       10.526303   0.000000   0.000000
     14         10.415575       11.006898   0.000000   0.000000
     15         11.792078       12.492000   0.000000   0.000000
     16         11.792078       12.492001   0.000000   0.000000
 
  0.0000000E+00  0.0000000E+00  0.5000000E+00  0.6944444E-02
      1         -2.780181       -2.482746   1.000000   1.000000
      2         -2.780180       -2.482746   1.000000   1.000000
      3         -0.011150        1.630941   1.000000   1.000000
      4         -0.011148        1.630943   1.000000   1.000000
      5          0.717590        2.568608   1.000000   1.003174
      6          0.717591        2.568608   1.000000   1.003174
      7          0.717594        2.568612   1.000000   1.003174
      8          0.717595        2.568613   1.000000   1.003174
      9          1.424648        3.849661   1.000000  -0.000000
     10          1.424648        3.849661   1.000000  -0.000000
     11          1.424648        3.849663   1.000000  -0.000000
     12          1.424648        3.849663   1.000000  -0.000000
     13          4.119281        4.578795  -0.000000  -0.000000
     14          4.119281        4.578796  -0.000000  -0.000000
     15         14.210825       14.436654   0.000000   0.000000
     16         14.210826       14.436654   0.000000   0.000000
 
  0.1666667E+00 -0.1387779E-16  0.5000000E+00  0.4166667E-01
      1         -1.842384       -1.492055   1.000000   1.000000
      2         -1.842383       -1.492055   1.000000   1.000000
      3          0.204621        1.889655   1.000000   1.000000
      4          0.204623        1.889657   1.000000   1.000000
      5          0.487453        2.261058   1.000000   1.000001
      6          0.487457        2.261062   1.000000   1.000001
      7          0.835851        2.943504   1.000000   0.800226
      8          0.835851        2.943505   1.000000   0.800224
      9          1.127491        3.026233   1.000000   0.475308
     10          1.127495        3.026238   1.000000   0.475288
     11          1.345855        3.755962   1.000000  -0.000001
     12          1.345855        3.755962   1.000000  -0.000001
     13          5.430286        6.102917  -0.000000  -0.000000
     14          5.430286        6.102917  -0.000000  -0.000000
     15         15.046765       15.278980   0.000000   0.000000
     16         15.046765       15.278981   0.000000   0.000000
 
  0.3333333E+00 -0.2775558E-16  0.5000000E+00  0.4166667E-01
      1         -0.880232        0.289679   1.000000   1.000000
      2         -0.880229        0.289682   1.000000   1.000000
      3         -0.134671        1.749940   1.000000   1.000000
      4         -0.134671        1.749941   1.000000   1.000000
      5          0.728976        2.741171   1.000000   1.031913
      6          0.728979        2.741173   1.000000   1.031913
      7          1.190153        2.989530   1.000000   0.628891
      8          1.190153        2.989533   1.000000   0.628881
      9          2.025455        3.571295   1.000000  -0.000345
     10          2.025460        3.571296   1.000000  -0.000345
     11          2.138242        4.043811   1.000000  -0.000000
     12          2.138243        4.043816   1.000000  -0.000000
     13          8.347064        8.811012  -0.000000   0.000000
     14          8.347064        8.811012  -0.000000   0.000000
     15         14.384043       14.939801   0.000000   0.000000
     16         14.384044       14.939802   0.000000   0.000000
 
  0.5000000E+00 -0.5551115E-16  0.5000000E+00  0.2083333E-01
      1         -1.042738        0.358466   1.000000   1.000000
      2         -1.042734        0.358470   1.000000   1.000000
      3         -0.411708        1.535407   1.000000   1.000000
      4         -0.411708        1.535407   1.000000   1.000000
      5          0.988967        3.279504   1.000000  -0.034757
      6          0.988970        3.279507   1.000000  -0.034757
      7          1.113323        3.480429   1.000000  -0.002698
      8          1.113323        3.480429   1.000000  -0.002698
      9          2.523990        4.620362   1.001254  -0.000000
     10          2.523995        4.620367   1.001254  -0.000000
     11          5.394714        5.414494  -0.000000  -0.000000
     12          5.394714        5.414494  -0.000000  -0.000000
     13          9.320854       10.144673   0.000000   0.000000
     14          9.320854       10.144673   0.000000   0.000000
     15         11.783834       12.146063   0.000000   0.000000
     16         11.783834       12.146063   0.000000   0.000000
 
  0.1666667E+00  0.1666667E+00  0.5000000E+00  0.4166667E-01
      1         -0.459035        0.205649   1.000000   1.000000
      2         -0.459033        0.205650   1.000000   1.000000
      3          0.084555        1.767211   1.000000   1.000000
      4          0.084555        1.767216   1.000000   1.000000
      5          0.108275        1.970237   1.000000   1.000000
      6          0.108279        1.970238   1.000000   1.000000
      7          0.889050        2.857012   1.000000   0.994249
      8          0.889053        2.857014   1.000000   0.994247
      9          1.132477        3.493534   1.000000  -0.002066
     10          1.132477        3.493534   1.000000  -0.002066
     11          2.297252        4.036429   1.000002  -0.000000
     12          2.297255        4.036434   1.000002  -0.000000
     13          7.481572        8.031500  -0.000000  -0.000000
     14          7.481572        8.031500  -0.000000  -0.000000
     15         16.524026       16.808529   0.000000   0.000000
     16         16.524026       16.808530   0.000000   0.000000
 
  0.3333333E+00  0.1666667E+00  0.5000000E+00  0.8333333E-01
      1         -0.471814        0.964741   1.000000   1.000000
      2         -0.471810        0.964744   1.000000   1.000000
      3         -0.200370        1.775530   1.000000   1.000000
      4         -0.200370        1.775531   1.000000   1.000000
      5          0.836048        2.711398   1.000000   1.025609
      6          0.836049        2.711401   1.000000   1.025610
      7          0.868282        3.128641   1.000000   0.108103
      8          0.868284        3.128641   1.000000   0.108103
      9          1.440771        3.293455   1.000000  -0.032962
     10          1.440775        3.293458   1.000000  -0.032962
     11          5.480334        6.352266  -0.000000  -0.000000
     12          5.480336        6.352269  -0.000000  -0.000000
     13         10.833640       11.236374   0.000000   0.000000
     14         10.833640       11.236374   0.000000   0.000000
     15         11.962563       12.587837   0.000000   0.000000
     16         11.962563       12.587838   0.000000   0.000000
 
  0.3333333E+00  0.3333333E+00  0.5000000E+00  0.1388889E-01
      1          0.208277        1.938628   1.000000   1.000000
      2          0.208277        1.938632   1.000000   1.000000
      3          0.209485        1.942374   1.000000   1.000000
      4          0.209485        1.942378   1.000000   1.000000
      5          0.461797        2.323427   1.000000   1.000005
      6          0.461802        2.323428   1.000000   1.000005
      7          0.465136        2.336081   1.000000   1.000007
      8          0.465140        2.336082   1.000000   1.000007
      9          0.965882        3.326246   1.000000  -0.026330
     10          0.965885        3.326249   1.000000  -0.026329
     11          9.990416       10.545331   0.000000   0.000000
     12          9.990418       10.545334   0.000000   0.000000
     13         10.069419       10.625061   0.000000   0.000000
     14         10.069420       10.625062   0.000000   0.000000
     15         11.607004       12.292503   0.000000   0.000000
     16         11.607005       12.292503   0.000000   0.000000
