       N       E                     dE             d eps       ncg     rms          rms(c)
DAV:   1     0.769174965191E+02    0.76917E+02   -0.65702E+03  1352   0.981E+02
DAV:   2    -0.106586805162E+02   -0.87576E+02   -0.80949E+02  1360   0.211E+02
DAV:   3    -0.127253922047E+02   -0.20667E+01   -0.20400E+01  1640   0.450E+01
DAV:   4    -0.127592872525E+02   -0.33895E-01   -0.33886E-01  1840   0.462E+00
DAV:   5    -0.127595246753E+02   -0.23742E-03   -0.23742E-03  1608   0.378E-01    0.127E+01
DAV:   6    -0.126740009331E+02    0.85524E-01   -0.22937E+01  1504   0.782E+01    0.132E+01
DAV:   7    -0.111905231228E+02    0.14835E+01   -0.43638E+00  1568   0.340E+01    0.342E+00
DAV:   8    -0.112188529617E+02   -0.28330E-01   -0.17673E-01  1672   0.443E+00    0.188E+00
DAV:   9    -0.112394421674E+02   -0.20589E-01   -0.83441E-02  1624   0.329E+00    0.105E+00
DAV:  10    -0.112418429602E+02   -0.24008E-02   -0.17648E-02  1616   0.164E+00    0.726E-01
DAV:  11    -0.112379411011E+02    0.39019E-02   -0.31672E-03  1656   0.884E-01    0.339E-01
DAV:  12    -0.112374094352E+02    0.53167E-03   -0.25321E-03  1592   0.657E-01    0.116E-01
DAV:  13    -0.112377027672E+02   -0.29333E-03   -0.25417E-04  1576   0.162E-01    0.658E-02
DAV:  14    -0.112378257220E+02   -0.12295E-03   -0.18845E-04  1632   0.139E-01    0.312E-02
DAV:  15    -0.112378321212E+02   -0.63992E-05   -0.16833E-05  1504   0.486E-02    0.183E-02
DAV:  16    -0.112378419549E+02   -0.98337E-05   -0.76183E-06  1464   0.294E-02    0.654E-03
DAV:  17    -0.112378427673E+02   -0.81237E-06   -0.95412E-07  1272   0.128E-02
   1 F= -.11237843E+02 E0= -.11236322E+02  d E =-.456092E-02  mag=     4.1564
