 vasp.6.3.2 27Jun22 (build Aug 12 2022 00:53:59) complex                        
  
 executed on               tv2STD date 2024.11.30  15:14:14
 running   24 mpi-ranks, with    1 threads/rank
 distrk:  each k-point on   24 cores,    1 groups
 distr:  one band on NCORE=   6 cores,    4 groups


--------------------------------------------------------------------------------------------------------


 INCAR:
   SYSTEM = Co fcc
   NWRITE = 2    write-flag
   ISTART = 0    job   : 0-new, 1-cont, 2-samecut
   ICHARG = 2    charge: 0-wave, 1-file, 2-atom, >10-const
   INIWAV = 1    electr: 0-lowe 1-rand  2-diag
   ENCUT = 400     energy cutoff in eV
   PREC = Accurate      normal | accurate
   ADDGRID = .FALSE.  (use fine grid)
   NELM = 100     number of ELM steps
   EDIFF = 1E-06    energy stopping-criterion for ELM
   LREAL = .FALSE.      real-space projection (.FALSE., .TRUE., On, Auto)
   ALGO = Normal     Normal, Fast, Very_Fast
   LWAVE = .FALSE.
   LCHARG = .FALSE.
   NSW = 0       max number of geometry steps
   IBRION = -1     ionic relax: 0-MD, 1-quasi-Newton, 2-CG, 3-Damped MD
   EDIFFG = -0.02  force (eV/A) stopping-criterion for geometry steps
   ISIF = 2     (1:force\=y stress\=trace only ions\=y shape\=n volume\=n)
   ISYM = 1     (1-use symmetry, 0-no symmetry)
   ISMEAR = 1     (-1-Fermi, 1-Methfessel/Paxton)
   SIGMA = 0.2   broadening in eV
   NPAR = 4
   ISPIN = 2
   MAGMOM = 2*3

 POTCAR:    PAW_PBE Co 02Aug2007                  
 POTCAR:    PAW_PBE Co 02Aug2007                  
   SHA256 =  0e690c60710354995174544f52f9f2c30879afabeffe3b3fbd4001cb294e56d4 Co/POTCAR             
   COPYR  = (c) Copyright 02Aug2007 Georg Kresse                                                    
   COPYR  = This file is part of the software VASP. Any use, copying, and all other rights are regul
   COPYR  = If you do not have a valid VASP license, you may not use, copy or distribute this file. 
   VRHFIN =Co: d8 s1                                                                                
   LEXCH  = PE                                                                                      
   EATOM  =   813.3670 eV,   59.7808 Ry                                                             
                                                                                                    
   TITEL  = PAW_PBE Co 02Aug2007                                                                    
   LULTRA =        F    use ultrasoft PP ?                                                          
   IUNSCR =        1    unscreen: 0-lin 1-nonlin 2-no                                               
   RPACOR =    2.000    partial core radius                                                         
   POMASS =   58.933; ZVAL   =    9.000    mass and valenz                                          
   RCORE  =    2.300    outmost cutoff radius                                                       
   RWIGS  =    2.460; RWIGS  =    1.302    wigner-seitz radius (au A)                               
   ENMAX  =  267.968; ENMIN  =  200.976 eV                                                          
   RCLOC  =    1.203    cutoff for local pot                                                        
   LCOR   =        T    correct aug charges                                                         
   LPAW   =        T    paw PP                                                                      
   EAUG   =  477.818                                                                                
   DEXC   =    0.000                                                                                
   RMAX   =    2.360    core radius for proj-oper                                                   
   RAUG   =    1.300    factor for augmentation sphere                                              
   RDEP   =    2.393    radius for radial grids                                                     
   RDEPT  =    1.864    core radius for aug-charge                                                  
                                                                                                    
   Atomic configuration                                                                             
    9 entries                                                                                       
     n  l   j            E        occ.                                                              
     1  0  0.50     -7587.6674   2.0000                                                             
     2  0  0.50      -893.6084   2.0000                                                             
     2  1  1.50      -764.5805   6.0000                                                             
     3  0  0.50       -97.5973   2.0000                                                             
     3  1  1.50       -60.9648   6.0000                                                             
     3  2  2.50        -4.2382   8.0000                                                             
     4  0  0.50        -4.3746   1.0000                                                             
     4  1  1.50        -4.0817   0.0000                                                             
     4  3  2.50        -1.3606   0.0000                                                             
   Description                                                                                      
     l       E           TYP  RCUT    TYP  RCUT                                                     
     2     -4.2382362     23  2.300                                                                 
     2     -5.5988188     23  2.300                                                                 
     0     -4.3745797     23  2.300                                                                 
     0      5.7660125     23  2.300                                                                 
     1     -2.7211652     23  2.300                                                                 
     1     16.9860234     23  2.300                                                                 
  local pseudopotential read in
  partial core-charges read in
  partial kinetic energy density read in
  atomic valenz-charges read in
  non local Contribution for L=           2  read in
    real space projection operators read in
  non local Contribution for L=           2  read in
    real space projection operators read in
  non local Contribution for L=           0  read in
    real space projection operators read in
  non local Contribution for L=           0  read in
    real space projection operators read in
  non local Contribution for L=           1  read in
    real space projection operators read in
  non local Contribution for L=           1  read in
    real space projection operators read in
    PAW grid and wavefunctions read in
 
   number of l-projection  operators is LMAX  =           6
   number of lm-projection operators is LMMAX =          18
 
  PAW_PBE Co 02Aug2007                  :
 energy of atom  1       EATOM= -813.3670
 kinetic energy error for atom=    0.0093 (will be added to EATOM!!)
 
 
 POSCAR: Co
  positions in cartesian coordinates
  No initial velocities read in
 exchange correlation table for  LEXCH =        8
   RHO(1)=    0.500       N(1)  =     2000
   RHO(2)=  100.500       N(2)  =     4000
 


--------------------------------------------------------------------------------------------------------


 ion  position               nearest neighbor table
   1  0.000  0.000  0.000-
   2  0.333  0.667  0.500-
 
  LATTYP: Found a hexagonal cell.
 ALAT       =     2.4700000000
 C/A-ratio  =     3.2753036437
  
  Lattice vectors:
  
 A1 = (   2.4700000000,   0.0000000000,   0.0000000000)
 A2 = (  -1.2350000000,   2.1390827473,   0.0000000000)
 A3 = (   0.0000000000,   0.0000000000,   8.0900000000)


Analysis of symmetry for initial positions (statically):
=====================================================================
 Subroutine PRICEL returns:
 Original cell was already a primitive cell.
 

 Routine SETGRP: Setting up the symmetry group for a 
 hexagonal supercell.


 Subroutine GETGRP returns: Found 24 space group operations
 (whereof 12 operations were pure point group operations)
 out of a pool of 24 trial point group operations.


The static configuration has the point symmetry D_3h.
 The point group associated with its full space group is D_6h.


Analysis of symmetry for dynamics (positions and initial velocities):
=====================================================================
 Subroutine PRICEL returns:
 Original cell was already a primitive cell.
 

 Routine SETGRP: Setting up the symmetry group for a 
 hexagonal supercell.


 Subroutine GETGRP returns: Found 24 space group operations
 (whereof 12 operations were pure point group operations)
 out of a pool of 24 trial point group operations.


The dynamic configuration has the point symmetry D_3h.
 The point group associated with its full space group is D_6h.


Analysis of structural, dynamic, and magnetic symmetry:
=====================================================================
 Subroutine PRICEL returns:
 Original cell was already a primitive cell.
 

 Routine SETGRP: Setting up the symmetry group for a 
 hexagonal supercell.


 Subroutine GETGRP returns: Found 24 space group operations
 (whereof 12 operations were pure point group operations)
 out of a pool of 24 trial point group operations.


The overall configuration has the point symmetry D_3h.
 The point group associated with its full space group is D_6h.


 Subroutine INISYM returns: Found 24 space group operations
 (whereof 12 operations are pure point group operations),
 and found     1 'primitive' translations


----------------------------------------------------------------------------------------

                                     Primitive cell                                     

  volume of cell :      42.7438

  direct lattice vectors                    reciprocal lattice vectors
     2.470000000  0.000000000  0.000000000     0.404858300  0.233745048  0.000000000
    -1.235000000  2.139082747  0.000000000     0.000000000  0.467490097  0.000000000
     0.000000000  0.000000000  8.090000000     0.000000000  0.000000000  0.123609394

  length of vectors
     2.470000000  2.470000000  8.090000000     0.467490097  0.467490097  0.123609394

  position of ions in fractional coordinates (direct lattice)
     0.000000000  0.000000000  0.000000000
     0.333333333  0.666666667  0.500000000

  ion indices of the primitive-cell ions
   primitive index   ion index
                 1           1
                 2           2

----------------------------------------------------------------------------------------

 
 
 KPOINTS: Automatic mesh                          

Automatic generation of k-mesh.
 Grid dimensions read from file:
 generate k-points for:    6    6    4

 Generating k-lattice:

  Cartesian coordinates                     Fractional coordinates (reciprocal lattice)
     0.067476383  0.038957508  0.000000000     0.166666667  0.000000000  0.000000000
     0.000000000  0.077915016  0.000000000     0.000000000  0.166666667  0.000000000
     0.000000000  0.000000000  0.030902349     0.000000000  0.000000000  0.250000000

  Length of vectors
     0.077915016  0.077915016  0.030902349

  Shift w.r.t. Gamma in fractional coordinates (k-lattice)
     0.000000000  0.000000000  0.000000000

 
 Subroutine IBZKPT returns following result:
 ===========================================
 
 Found     21 irreducible k-points:
 
 Following reciprocal coordinates:
            Coordinates               Weight
  0.000000  0.000000  0.000000      1.000000
  0.166667 -0.000000  0.000000      6.000000
  0.333333 -0.000000  0.000000      6.000000
  0.500000 -0.000000  0.000000      3.000000
  0.166667  0.166667  0.000000      6.000000
  0.333333  0.166667  0.000000     12.000000
  0.333333  0.333333  0.000000      2.000000
  0.000000  0.000000  0.250000      2.000000
  0.166667 -0.000000  0.250000     12.000000
  0.333333 -0.000000  0.250000     12.000000
  0.500000 -0.000000  0.250000      6.000000
  0.166667  0.166667  0.250000     12.000000
  0.333333  0.166667  0.250000     24.000000
  0.333333  0.333333  0.250000      4.000000
  0.000000  0.000000  0.500000      1.000000
  0.166667 -0.000000  0.500000      6.000000
  0.333333 -0.000000  0.500000      6.000000
  0.500000 -0.000000  0.500000      3.000000
  0.166667  0.166667  0.500000      6.000000
  0.333333  0.166667  0.500000     12.000000
  0.333333  0.333333  0.500000      2.000000
 
 Following cartesian coordinates:
            Coordinates               Weight
  0.000000  0.000000  0.000000      1.000000
  0.067476  0.038958  0.000000      6.000000
  0.134953  0.077915  0.000000      6.000000
  0.202429  0.116873  0.000000      3.000000
  0.067476  0.116873  0.000000      6.000000
  0.134953  0.155830  0.000000     12.000000
  0.134953  0.233745  0.000000      2.000000
  0.000000  0.000000  0.030902      2.000000
  0.067476  0.038958  0.030902     12.000000
  0.134953  0.077915  0.030902     12.000000
  0.202429  0.116873  0.030902      6.000000
  0.067476  0.116873  0.030902     12.000000
  0.134953  0.155830  0.030902     24.000000
  0.134953  0.233745  0.030902      4.000000
  0.000000  0.000000  0.061805      1.000000
  0.067476  0.038958  0.061805      6.000000
  0.134953  0.077915  0.061805      6.000000
  0.202429  0.116873  0.061805      3.000000
  0.067476  0.116873  0.061805      6.000000
  0.134953  0.155830  0.061805     12.000000
  0.134953  0.233745  0.061805      2.000000
 


--------------------------------------------------------------------------------------------------------




 Dimension of arrays:
   k-points           NKPTS =     21   k-points in BZ     NKDIM =     21   number of bands    NBANDS=     16
   number of dos      NEDOS =    301   number of ions     NIONS =      2
   non local maximal  LDIM  =      6   non local SUM 2l+1 LMDIM =     18
   total plane-waves  NPLWV =  13824
   max r-space proj   IRMAX =      1   max aug-charges    IRDMAX=  12953
   dimension x,y,z NGX =    16 NGY =   16 NGZ =   54
   dimension x,y,z NGXF=    32 NGYF=   32 NGZF=  108
   support grid    NGXF=    32 NGYF=   32 NGZF=  108
   ions per type =               2
   NGX,Y,Z   is equivalent  to a cutoff of  10.77, 10.77, 11.10 a.u.
   NGXF,Y,Z  is equivalent  to a cutoff of  21.54, 21.54, 22.19 a.u.

 SYSTEM =  Co fcc                                  
 POSCAR =  Co                                      

 Startparameter for this run:
   NWRITE =      2    write-flag & timer
   PREC   = accura    normal or accurate (medium, high low for compatibility)
   ISTART =      0    job   : 0-new  1-cont  2-samecut
   ICHARG =      2    charge: 1-file 2-atom 10-const
   ISPIN  =      2    spin polarized calculation?
   LNONCOLLINEAR =      F non collinear calculations
   LSORBIT =      F    spin-orbit coupling
   INIWAV =      1    electr: 0-lowe 1-rand  2-diag
   LASPH  =      F    aspherical Exc in radial PAW
 Electronic Relaxation 1
   ENCUT  =  400.0 eV  29.40 Ry    5.42 a.u.   4.03  4.03 13.19*2*pi/ulx,y,z
   ENINI  =  400.0     initial cutoff
   ENAUG  =  477.8 eV  augmentation charge cutoff
   NELM   =    100;   NELMIN=  2; NELMDL= -5     # of ELM steps 
   EDIFF  = 0.1E-05   stopping-criterion for ELM
   LREAL  =      F    real-space projection
   NLSPLINE    = F    spline interpolate recip. space projectors
   LCOMPAT=      F    compatible to vasp.4.4
   GGA_COMPAT  = T    GGA compatible to vasp.4.4-vasp.4.6
   LMAXPAW     = -100 max onsite density
   LMAXMIX     =    2 max onsite mixed and CHGCAR
   VOSKOWN=      0    Vosko Wilk Nusair interpolation
   ROPT   =    0.00000
 Ionic relaxation
   EDIFFG = -.2E-01   stopping-criterion for IOM
   NSW    =      0    number of steps for IOM
   NBLOCK =      1;   KBLOCK =      1    inner block; outer block 
   IBRION =     -1    ionic relax: 0-MD 1-quasi-New 2-CG
   NFREE  =      0    steps in history (QN), initial steepest desc. (CG)
   ISIF   =      2    stress and relaxation
   IWAVPR =     10    prediction:  0-non 1-charg 2-wave 3-comb
   ISYM   =      1    0-nonsym 1-usesym 2-fastsym
   LCORR  =      T    Harris-Foulkes like correction to forces

   POTIM  = 0.5000    time-step for ionic-motion
   TEIN   =    0.0    initial temperature
   TEBEG  =    0.0;   TEEND  =   0.0 temperature during run
   SMASS  =  -3.00    Nose mass-parameter (am)
   estimated Nose-frequenzy (Omega)   =  0.10E-29 period in steps = 0.13E+47 mass=  -0.139E-27a.u.
   SCALEE = 1.0000    scale energy and forces
   NPACO  =    256;   APACO  = 10.0  distance and # of slots for P.C.
   PSTRESS=    0.0 pullay stress

  Mass of Ions in am
   POMASS =  58.93
  Ionic Valenz
   ZVAL   =   9.00
  Atomic Wigner-Seitz radii
   RWIGS  =  -1.00
  virtual crystal weights 
   VCA    =   1.00
   NELECT =      18.0000    total number of electrons
   NUPDOWN=      -1.0000    fix difference up-down

 DOS related values:
   EMIN   =  10.00;   EMAX   =-10.00  energy-range for DOS
   EFERMI =   0.00
   ISMEAR =     1;   SIGMA  =   0.20  broadening in eV -4-tet -1-fermi 0-gaus

 Electronic relaxation 2 (details)
   IALGO  =     38    algorithm
   LDIAG  =      T    sub-space diagonalisation (order eigenvalues)
   LSUBROT=      F    optimize rotation matrix (better conditioning)
   TURBO    =      0    0=normal 1=particle mesh
   IRESTART =      0    0=no restart 2=restart with 2 vectors
   NREBOOT  =      0    no. of reboots
   NMIN     =      0    reboot dimension
   EREF     =   0.00    reference energy to select bands
   IMIX   =      4    mixing-type and parameters
     AMIX     =   0.40;   BMIX     =  1.00
     AMIX_MAG =   1.60;   BMIX_MAG =  1.00
     AMIN     =   0.10
     WC   =   100.;   INIMIX=   1;  MIXPRE=   1;  MAXMIX= -45

 Intra band minimization:
   WEIMIN = 0.0000     energy-eigenvalue tresh-hold
   EBREAK =  0.16E-07  absolut break condition
   DEPER  =   0.30     relativ break condition  

   TIME   =   0.40     timestep for ELM

  volume/ion in A,a.u.               =      21.37       144.22
  Fermi-wavevector in a.u.,A,eV,Ry     =   1.227085  2.318854 20.486804  1.505738
  Thomas-Fermi vector in A             =   2.362062
 
 Write flags
   LWAVE        =      F    write WAVECAR
   LDOWNSAMPLE  =      F    k-point downsampling of WAVECAR
   LCHARG       =      F    write CHGCAR
   LVTOT        =      F    write LOCPOT, total local potential
   LVHAR        =      F    write LOCPOT, Hartree potential only
   LELF         =      F    write electronic localiz. function (ELF)
   LORBIT       =      0    0 simple, 1 ext, 2 COOP (PROOUT), +10 PAW based schemes


 Dipole corrections
   LMONO  =      F    monopole corrections only (constant potential shift)
   LDIPOL =      F    correct potential (dipole corrections)
   IDIPOL =      0    1-x, 2-y, 3-z, 4-all directions 
   EPSILON=  1.0000000 bulk dielectric constant

 Exchange correlation treatment:
   GGA     =    --    GGA type
   LEXCH   =     8    internal setting for exchange type
   LIBXC   =     F    Libxc                    
   VOSKOWN =     0    Vosko Wilk Nusair interpolation
   LHFCALC =     F    Hartree Fock is set to
   LHFONE  =     F    Hartree Fock one center treatment
   AEXX    =    0.0000 exact exchange contribution

 Linear response parameters
   LEPSILON=     F    determine dielectric tensor
   LRPA    =     F    only Hartree local field effects (RPA)
   LNABLA  =     F    use nabla operator in PAW spheres
   LVEL    =     F    velocity operator in full k-point grid
   CSHIFT  =0.1000    complex shift for real part using Kramers Kronig
   OMEGAMAX=  -1.0    maximum frequency
   DEG_THRESHOLD= 0.2000000E-02 threshold for treating states as degnerate
   RTIME   =   -0.100 relaxation time in fs
  (WPLASMAI=    0.000 imaginary part of plasma frequency in eV, 0.658/RTIME)
   DFIELD  = 0.0000000 0.0000000 0.0000000 field for delta impulse in time
 
  Optional k-point grid parameters
   LKPOINTS_OPT  =     F    use optional k-point grid
   KPOINTS_OPT_MODE=     1    mode for optional k-point grid
 
 Orbital magnetization related:
   ORBITALMAG=     F  switch on orbital magnetization
   LCHIMAG   =     F  perturbation theory with respect to B field
   DQ        =  0.001000  dq finite difference perturbation B field
   LLRAUG    =     F  two centre corrections for induced B field



--------------------------------------------------------------------------------------------------------


 Static calculation
 charge density and potential will be updated during run
 spin polarized calculation
 Variant of blocked Davidson
 Davidson routine will perform the subspace rotation
 perform sub-space diagonalisation
    after iterative eigenvector-optimisation
 modified Broyden-mixing scheme, WC =      100.0
 initial mixing is a Kerker type mixing with AMIX =  0.4000 and BMIX =      1.0000
 Hartree-type preconditioning will be used
 using additional bands            7
 reciprocal scheme for non local part
 use partial core corrections
 calculate Harris-corrections to forces 
   (improved forces if not selfconsistent)
 use gradient corrections 
 use of overlap-Matrix (Vanderbilt PP)
 Methfessel and Paxton  Order N= 1 SIGMA  =   0.20


--------------------------------------------------------------------------------------------------------


  energy-cutoff  :      400.00
  volume of cell :       42.74
      direct lattice vectors                 reciprocal lattice vectors
     2.470000000  0.000000000  0.000000000     0.404858300  0.233745048  0.000000000
    -1.235000000  2.139082747  0.000000000     0.000000000  0.467490097  0.000000000
     0.000000000  0.000000000  8.090000000     0.000000000  0.000000000  0.123609394

  length of vectors
     2.470000000  2.470000000  8.090000000     0.467490097  0.467490097  0.123609394


 
 k-points in units of 2pi/SCALE and weight: Automatic mesh                          
   0.00000000  0.00000000  0.00000000       0.007
   0.06747638  0.03895751  0.00000000       0.042
   0.13495277  0.07791502  0.00000000       0.042
   0.20242915  0.11687252  0.00000000       0.021
   0.06747638  0.11687252  0.00000000       0.042
   0.13495277  0.15583003  0.00000000       0.083
   0.13495277  0.23374505  0.00000000       0.014
   0.00000000  0.00000000  0.03090235       0.014
   0.06747638  0.03895751  0.03090235       0.083
   0.13495277  0.07791502  0.03090235       0.083
   0.20242915  0.11687252  0.03090235       0.042
   0.06747638  0.11687252  0.03090235       0.083
   0.13495277  0.15583003  0.03090235       0.167
   0.13495277  0.23374505  0.03090235       0.028
   0.00000000  0.00000000  0.06180470       0.007
   0.06747638  0.03895751  0.06180470       0.042
   0.13495277  0.07791502  0.06180470       0.042
   0.20242915  0.11687252  0.06180470       0.021
   0.06747638  0.11687252  0.06180470       0.042
   0.13495277  0.15583003  0.06180470       0.083
   0.13495277  0.23374505  0.06180470       0.014
 
 k-points in reciprocal lattice and weights: Automatic mesh                          
   0.00000000  0.00000000  0.00000000       0.007
   0.16666667 -0.00000000  0.00000000       0.042
   0.33333333 -0.00000000  0.00000000       0.042
   0.50000000 -0.00000000  0.00000000       0.021
   0.16666667  0.16666667  0.00000000       0.042
   0.33333333  0.16666667  0.00000000       0.083
   0.33333333  0.33333333  0.00000000       0.014
   0.00000000  0.00000000  0.25000000       0.014
   0.16666667 -0.00000000  0.25000000       0.083
   0.33333333 -0.00000000  0.25000000       0.083
   0.50000000 -0.00000000  0.25000000       0.042
   0.16666667  0.16666667  0.25000000       0.083
   0.33333333  0.16666667  0.25000000       0.167
   0.33333333  0.33333333  0.25000000       0.028
   0.00000000  0.00000000  0.50000000       0.007
   0.16666667 -0.00000000  0.50000000       0.042
   0.33333333 -0.00000000  0.50000000       0.042
   0.50000000 -0.00000000  0.50000000       0.021
   0.16666667  0.16666667  0.50000000       0.042
   0.33333333  0.16666667  0.50000000       0.083
   0.33333333  0.33333333  0.50000000       0.014
 
 position of ions in fractional coordinates (direct lattice) 
   0.00000000  0.00000000  0.00000000
   0.33333333  0.66666667  0.50000000
 
 position of ions in cartesian coordinates  (Angst):
   0.00000000  0.00000000  0.00000000
   0.00000000  1.42605516  4.04500000
 


--------------------------------------------------------------------------------------------------------


 k-point   1 :   0.0000 0.0000 0.0000  plane waves:     741
 k-point   2 :   0.1667-0.0000 0.0000  plane waves:     767
 k-point   3 :   0.3333-0.0000 0.0000  plane waves:     773
 k-point   4 :   0.5000-0.0000 0.0000  plane waves:     766
 k-point   5 :   0.1667 0.1667 0.0000  plane waves:     776
 k-point   6 :   0.3333 0.1667 0.0000  plane waves:     787
 k-point   7 :   0.3333 0.3333 0.0000  plane waves:     780
 k-point   8 :   0.0000 0.0000 0.2500  plane waves:     746
 k-point   9 :   0.1667-0.0000 0.2500  plane waves:     754
 k-point  10 :   0.3333-0.0000 0.2500  plane waves:     780
 k-point  11 :   0.5000-0.0000 0.2500  plane waves:     776
 k-point  12 :   0.1667 0.1667 0.2500  plane waves:     779
 k-point  13 :   0.3333 0.1667 0.2500  plane waves:     783
 k-point  14 :   0.3333 0.3333 0.2500  plane waves:     774
 k-point  15 :   0.0000 0.0000 0.5000  plane waves:     770
 k-point  16 :   0.1667-0.0000 0.5000  plane waves:     758
 k-point  17 :   0.3333-0.0000 0.5000  plane waves:     774
 k-point  18 :   0.5000-0.0000 0.5000  plane waves:     768
 k-point  19 :   0.1667 0.1667 0.5000  plane waves:     782
 k-point  20 :   0.3333 0.1667 0.5000  plane waves:     784
 k-point  21 :   0.3333 0.3333 0.5000  plane waves:     768

 maximum and minimum number of plane-waves per node :       141      117

 maximum number of plane-waves:       787
 maximum index in each direction: 
   IXMAX=    4   IYMAX=    4   IZMAX=   13
   IXMIN=   -4   IYMIN=   -4   IZMIN=  -13


 parallel 3D FFT for wavefunctions:
    minimum data exchange during FFTs selected (reduces bandwidth)
 parallel 3D FFT for charge:
    minimum data exchange during FFTs selected (reduces bandwidth)


 total amount of memory used by VASP MPI-rank0    31824. kBytes
=======================================================================

   base      :      30000. kBytes
   nonl-proj :        391. kBytes
   fftplans  :        292. kBytes
   grid      :        713. kBytes
   one-center:         31. kBytes
   wavefun   :        397. kBytes
 
     INWAV:  cpu time      0.0000: real time      0.0001
 Broyden mixing: mesh for mixing (old mesh)
   NGX =  9   NGY =  9   NGZ = 27
  (NGX  = 32   NGY  = 32   NGZ  =108)
  gives a total of   2187 points

 initial charge density was supplied:
 charge density of overlapping atoms calculated
 number of electron      18.0000000 magnetization       6.0000000
 keeping initial charge density in first step


--------------------------------------------------------------------------------------------------------


 Maximum index for augmentation-charges         1022 (set IRDMAX)


--------------------------------------------------------------------------------------------------------


 First call to EWALD:  gamma=   0.507
 Maximum number of real-space cells 4x 4x 1
 Maximum number of reciprocal cells 2x 2x 6

    FEWALD:  cpu time      0.0015: real time      0.0015


--------------------------------------- Iteration      1(   1)  ---------------------------------------


    POTLOK:  cpu time      0.0090: real time      0.0092
    SETDIJ:  cpu time      0.0054: real time      0.0055
     EDDAV:  cpu time      0.1407: real time      0.1416
       DOS:  cpu time      0.0012: real time      0.0012
    --------------------------------------------
      LOOP:  cpu time      0.1564: real time      0.1574

 eigenvalue-minimisations  :  1352
 total energy-change (2. order) : 0.7691750E+02  (-0.6570183E+03)
 number of electron      18.0000000 magnetization       6.0000000
 augmentation part       18.0000000 magnetization       6.0000000

 Free energy of the ion-electron system (eV)
  ---------------------------------------------------
  alpha Z        PSCENC =        39.63868225
  Ewald energy   TEWEN  =     -1054.56880693
  -Hartree energ DENC   =      -595.60964206
  -exchange      EXHF   =         0.00000000
  -V(xc)+E(xc)   XCENC  =        33.36921587
  PAW double counting   =      1439.98163886    -1545.88690193
  entropy T*S    EENTRO =        -0.00116382
  eigenvalues    EBANDS =       133.27900608
  atomic energy  EATOM  =      1626.71546820
  Solvation  Ediel_sol  =         0.00000000
  ---------------------------------------------------
  free energy    TOTEN  =        76.91749652 eV

  energy without entropy =       76.91866034  energy(sigma->0) =       76.91788446


--------------------------------------------------------------------------------------------------------




--------------------------------------- Iteration      1(   2)  ---------------------------------------


     EDDAV:  cpu time      0.1372: real time      0.1387
       DOS:  cpu time      0.0008: real time      0.0008
    --------------------------------------------
      LOOP:  cpu time      0.1381: real time      0.1395

 eigenvalue-minimisations  :  1360
 total energy-change (2. order) :-0.8757618E+02  (-0.8094921E+02)
 number of electron      18.0000000 magnetization       6.0000000
 augmentation part       18.0000000 magnetization       6.0000000

 Free energy of the ion-electron system (eV)
  ---------------------------------------------------
  alpha Z        PSCENC =        39.63868225
  Ewald energy   TEWEN  =     -1054.56880693
  -Hartree energ DENC   =      -595.60964206
  -exchange      EXHF   =         0.00000000
  -V(xc)+E(xc)   XCENC  =        33.36921587
  PAW double counting   =      1439.98163886    -1545.88690193
  entropy T*S    EENTRO =        -0.00684876
  eigenvalues    EBANDS =        45.70851399
  atomic energy  EATOM  =      1626.71546820
  Solvation  Ediel_sol  =         0.00000000
  ---------------------------------------------------
  free energy    TOTEN  =       -10.65868052 eV

  energy without entropy =      -10.65183175  energy(sigma->0) =      -10.65639759


--------------------------------------------------------------------------------------------------------




--------------------------------------- Iteration      1(   3)  ---------------------------------------


     EDDAV:  cpu time      0.1575: real time      0.1585
       DOS:  cpu time      0.0009: real time      0.0009
    --------------------------------------------
      LOOP:  cpu time      0.1584: real time      0.1594

 eigenvalue-minimisations  :  1640
 total energy-change (2. order) :-0.2066712E+01  (-0.2040026E+01)
 number of electron      18.0000000 magnetization       6.0000000
 augmentation part       18.0000000 magnetization       6.0000000

 Free energy of the ion-electron system (eV)
  ---------------------------------------------------
  alpha Z        PSCENC =        39.63868225
  Ewald energy   TEWEN  =     -1054.56880693
  -Hartree energ DENC   =      -595.60964206
  -exchange      EXHF   =         0.00000000
  -V(xc)+E(xc)   XCENC  =        33.36921587
  PAW double counting   =      1439.98163886    -1545.88690193
  entropy T*S    EENTRO =        -0.00779914
  eigenvalues    EBANDS =        43.64275268
  atomic energy  EATOM  =      1626.71546820
  Solvation  Ediel_sol  =         0.00000000
  ---------------------------------------------------
  free energy    TOTEN  =       -12.72539220 eV

  energy without entropy =      -12.71759306  energy(sigma->0) =      -12.72279249


--------------------------------------------------------------------------------------------------------




--------------------------------------- Iteration      1(   4)  ---------------------------------------


     EDDAV:  cpu time      0.1693: real time      0.1703
       DOS:  cpu time      0.0008: real time      0.0008
    --------------------------------------------
      LOOP:  cpu time      0.1702: real time      0.1712

 eigenvalue-minimisations  :  1840
 total energy-change (2. order) :-0.3389505E-01  (-0.3388631E-01)
 number of electron      18.0000000 magnetization       6.0000000
 augmentation part       18.0000000 magnetization       6.0000000

 Free energy of the ion-electron system (eV)
  ---------------------------------------------------
  alpha Z        PSCENC =        39.63868225
  Ewald energy   TEWEN  =     -1054.56880693
  -Hartree energ DENC   =      -595.60964206
  -exchange      EXHF   =         0.00000000
  -V(xc)+E(xc)   XCENC  =        33.36921587
  PAW double counting   =      1439.98163886    -1545.88690193
  entropy T*S    EENTRO =        -0.00775675
  eigenvalues    EBANDS =        43.60881523
  atomic energy  EATOM  =      1626.71546820
  Solvation  Ediel_sol  =         0.00000000
  ---------------------------------------------------
  free energy    TOTEN  =       -12.75928725 eV

  energy without entropy =      -12.75153050  energy(sigma->0) =      -12.75670167


--------------------------------------------------------------------------------------------------------




--------------------------------------- Iteration      1(   5)  ---------------------------------------


     EDDAV:  cpu time      0.1513: real time      0.1522
       DOS:  cpu time      0.0009: real time      0.0009
    CHARGE:  cpu time      0.0248: real time      0.0248
    MIXING:  cpu time      0.0004: real time      0.0004
    --------------------------------------------
      LOOP:  cpu time      0.1773: real time      0.1783

 eigenvalue-minimisations  :  1608
 total energy-change (2. order) :-0.2374228E-03  (-0.2374173E-03)
 number of electron      17.9999992 magnetization       5.2037276
 augmentation part        9.0474520 magnetization       4.0103456

 Broyden mixing:
  rms(total) = 0.12736E+01    rms(broyden)= 0.12736E+01
  rms(prec ) = 0.17303E+01
  weight for this iteration     100.00

 Free energy of the ion-electron system (eV)
  ---------------------------------------------------
  alpha Z        PSCENC =        39.63868225
  Ewald energy   TEWEN  =     -1054.56880693
  -Hartree energ DENC   =      -595.60964206
  -exchange      EXHF   =         0.00000000
  -V(xc)+E(xc)   XCENC  =        33.36921587
  PAW double counting   =      1439.98163886    -1545.88690193
  entropy T*S    EENTRO =        -0.00775857
  eigenvalues    EBANDS =        43.60857963
  atomic energy  EATOM  =      1626.71546820
  Solvation  Ediel_sol  =         0.00000000
  ---------------------------------------------------
  free energy    TOTEN  =       -12.75952468 eV

  energy without entropy =      -12.75176611  energy(sigma->0) =      -12.75693849


--------------------------------------------------------------------------------------------------------




--------------------------------------- Iteration      1(   6)  ---------------------------------------


    POTLOK:  cpu time      0.0077: real time      0.0079
    SETDIJ:  cpu time      0.0052: real time      0.0052
     EDDAV:  cpu time      0.1425: real time      0.1432
       DOS:  cpu time      0.0009: real time      0.0009
    CHARGE:  cpu time      0.0241: real time      0.0242
    MIXING:  cpu time      0.0004: real time      0.0004
    --------------------------------------------
      LOOP:  cpu time      0.1807: real time      0.1817

 eigenvalue-minimisations  :  1504
 total energy-change (2. order) : 0.8552374E-01  (-0.2293739E+01)
 number of electron      17.9999990 magnetization       4.7932559
 augmentation part       11.3314874 magnetization       3.8742730

 Broyden mixing:
  rms(total) = 0.13160E+01    rms(broyden)= 0.13160E+01
  rms(prec ) = 0.15672E+01
  weight for this iteration     100.00

 eigenvalues of (default mixing * dielectric matrix)
  average eigenvalue GAMMA=   0.4100
  0.4100

 Free energy of the ion-electron system (eV)
  ---------------------------------------------------
  alpha Z        PSCENC =        39.63868225
  Ewald energy   TEWEN  =     -1054.56880693
  -Hartree energ DENC   =      -548.96521127
  -exchange      EXHF   =         0.00000000
  -V(xc)+E(xc)   XCENC  =        30.99242041
  PAW double counting   =      1469.71297178    -1563.84906909
  entropy T*S    EENTRO =         0.00804764
  eigenvalues    EBANDS =       -12.35850393
  atomic energy  EATOM  =      1626.71546820
  Solvation  Ediel_sol  =         0.00000000
  ---------------------------------------------------
  free energy    TOTEN  =       -12.67400093 eV

  energy without entropy =      -12.68204858  energy(sigma->0) =      -12.67668348


--------------------------------------------------------------------------------------------------------




--------------------------------------- Iteration      1(   7)  ---------------------------------------


    POTLOK:  cpu time      0.0074: real time      0.0075
    SETDIJ:  cpu time      0.0048: real time      0.0048
     EDDAV:  cpu time      0.1471: real time      0.1478
       DOS:  cpu time      0.0009: real time      0.0009
    CHARGE:  cpu time      0.0228: real time      0.0229
    MIXING:  cpu time      0.0004: real time      0.0004
    --------------------------------------------
      LOOP:  cpu time      0.1834: real time      0.1844

 eigenvalue-minimisations  :  1568
 total energy-change (2. order) : 0.1483478E+01  (-0.4363755E+00)
 number of electron      17.9999991 magnetization       4.4363792
 augmentation part       10.3496856 magnetization       3.5420833

 Broyden mixing:
  rms(total) = 0.34235E+00    rms(broyden)= 0.34232E+00
  rms(prec ) = 0.38545E+00
  weight for this iteration     100.00

 eigenvalues of (default mixing * dielectric matrix)
  average eigenvalue GAMMA=   0.6425
  0.7932  0.4917

 Free energy of the ion-electron system (eV)
  ---------------------------------------------------
  alpha Z        PSCENC =        39.63868225
  Ewald energy   TEWEN  =     -1054.56880693
  -Hartree energ DENC   =      -568.09522415
  -exchange      EXHF   =         0.00000000
  -V(xc)+E(xc)   XCENC  =        31.44916316
  PAW double counting   =      1528.99504820    -1631.01850679
  entropy T*S    EENTRO =        -0.00809156
  eigenvalues    EBANDS =        15.70174449
  atomic energy  EATOM  =      1626.71546820
  Solvation  Ediel_sol  =         0.00000000
  ---------------------------------------------------
  free energy    TOTEN  =       -11.19052312 eV

  energy without entropy =      -11.18243157  energy(sigma->0) =      -11.18782594


--------------------------------------------------------------------------------------------------------




--------------------------------------- Iteration      1(   8)  ---------------------------------------


    POTLOK:  cpu time      0.0074: real time      0.0075
    SETDIJ:  cpu time      0.0048: real time      0.0048
     EDDAV:  cpu time      0.1559: real time      0.1566
       DOS:  cpu time      0.0009: real time      0.0009
    CHARGE:  cpu time      0.0231: real time      0.0231
    MIXING:  cpu time      0.0005: real time      0.0005
    --------------------------------------------
      LOOP:  cpu time      0.1924: real time      0.1934

 eigenvalue-minimisations  :  1672
 total energy-change (2. order) :-0.2832984E-01  (-0.1767255E-01)
 number of electron      17.9999991 magnetization       4.1312190
 augmentation part       10.2054023 magnetization       3.3506386

 Broyden mixing:
  rms(total) = 0.18793E+00    rms(broyden)= 0.18790E+00
  rms(prec ) = 0.22802E+00
  weight for this iteration     100.00

 eigenvalues of (default mixing * dielectric matrix)
  average eigenvalue GAMMA=   0.8348
  1.3682  0.5680  0.5680

 Free energy of the ion-electron system (eV)
  ---------------------------------------------------
  alpha Z        PSCENC =        39.63868225
  Ewald energy   TEWEN  =     -1054.56880693
  -Hartree energ DENC   =      -570.28937529
  -exchange      EXHF   =         0.00000000
  -V(xc)+E(xc)   XCENC  =        31.57156596
  PAW double counting   =      1565.57520763    -1669.59344791
  entropy T*S    EENTRO =        -0.01106885
  eigenvalues    EBANDS =        19.74292197
  atomic energy  EATOM  =      1626.71546820
  Solvation  Ediel_sol  =         0.00000000
  ---------------------------------------------------
  free energy    TOTEN  =       -11.21885296 eV

  energy without entropy =      -11.20778411  energy(sigma->0) =      -11.21516334


--------------------------------------------------------------------------------------------------------




--------------------------------------- Iteration      1(   9)  ---------------------------------------


    POTLOK:  cpu time      0.0074: real time      0.0075
    SETDIJ:  cpu time      0.0048: real time      0.0048
     EDDAV:  cpu time      0.1838: real time      0.1847
       DOS:  cpu time      0.0009: real time      0.0009
    CHARGE:  cpu time      0.0236: real time      0.0237
    MIXING:  cpu time      0.0005: real time      0.0005
    --------------------------------------------
      LOOP:  cpu time      0.2210: real time      0.2221

 eigenvalue-minimisations  :  1624
 total energy-change (2. order) :-0.2058921E-01  (-0.8344124E-02)
 number of electron      17.9999991 magnetization       4.1163522
 augmentation part       10.2179367 magnetization       3.4249314

 Broyden mixing:
  rms(total) = 0.10548E+00    rms(broyden)= 0.10542E+00
  rms(prec ) = 0.12603E+00
  weight for this iteration     100.00

 eigenvalues of (default mixing * dielectric matrix)
  average eigenvalue GAMMA=   0.9099
  1.5448  0.9109  0.5920  0.5920

 Free energy of the ion-electron system (eV)
  ---------------------------------------------------
  alpha Z        PSCENC =        39.63868225
  Ewald energy   TEWEN  =     -1054.56880693
  -Hartree energ DENC   =      -569.05066816
  -exchange      EXHF   =         0.00000000
  -V(xc)+E(xc)   XCENC  =        31.53695769
  PAW double counting   =      1599.05045987    -1704.15829302
  entropy T*S    EENTRO =        -0.00654024
  eigenvalues    EBANDS =        19.60329818
  atomic energy  EATOM  =      1626.71546820
  Solvation  Ediel_sol  =         0.00000000
  ---------------------------------------------------
  free energy    TOTEN  =       -11.23944217 eV

  energy without entropy =      -11.23290193  energy(sigma->0) =      -11.23726209


--------------------------------------------------------------------------------------------------------




--------------------------------------- Iteration      1(  10)  ---------------------------------------


    POTLOK:  cpu time      0.0077: real time      0.0078
    SETDIJ:  cpu time      0.0050: real time      0.0051
     EDDAV:  cpu time      0.1513: real time      0.1521
       DOS:  cpu time      0.0009: real time      0.0009
    CHARGE:  cpu time      0.0232: real time      0.0232
    MIXING:  cpu time      0.0004: real time      0.0004
    --------------------------------------------
      LOOP:  cpu time      0.1885: real time      0.1895

 eigenvalue-minimisations  :  1616
 total energy-change (2. order) :-0.2400793E-02  (-0.1764765E-02)
 number of electron      17.9999991 magnetization       4.1419826
 augmentation part       10.2504221 magnetization       3.4565291

 Broyden mixing:
  rms(total) = 0.72568E-01    rms(broyden)= 0.72531E-01
  rms(prec ) = 0.85194E-01
  weight for this iteration     100.00

 eigenvalues of (default mixing * dielectric matrix)
  average eigenvalue GAMMA=   0.9922
  1.8582  0.9678  0.9678  0.5836  0.5836

 Free energy of the ion-electron system (eV)
  ---------------------------------------------------
  alpha Z        PSCENC =        39.63868225
  Ewald energy   TEWEN  =     -1054.56880693
  -Hartree energ DENC   =      -567.90799982
  -exchange      EXHF   =         0.00000000
  -V(xc)+E(xc)   XCENC  =        31.49973416
  PAW double counting   =      1605.11173239    -1710.40859137
  entropy T*S    EENTRO =        -0.00278279
  eigenvalues    EBANDS =        18.68072094
  atomic energy  EATOM  =      1626.71546820
  Solvation  Ediel_sol  =         0.00000000
  ---------------------------------------------------
  free energy    TOTEN  =       -11.24184296 eV

  energy without entropy =      -11.23906017  energy(sigma->0) =      -11.24091537


--------------------------------------------------------------------------------------------------------




--------------------------------------- Iteration      1(  11)  ---------------------------------------


    POTLOK:  cpu time      0.0073: real time      0.0075
    SETDIJ:  cpu time      0.0048: real time      0.0048
     EDDAV:  cpu time      0.1537: real time      0.1545
       DOS:  cpu time      0.0009: real time      0.0009
    CHARGE:  cpu time      0.0231: real time      0.0232
    MIXING:  cpu time      0.0009: real time      0.0009
    --------------------------------------------
      LOOP:  cpu time      0.1908: real time      0.1918

 eigenvalue-minimisations  :  1656
 total energy-change (2. order) : 0.3901859E-02  (-0.3167243E-03)
 number of electron      17.9999991 magnetization       4.1278886
 augmentation part       10.2537734 magnetization       3.4402845

 Broyden mixing:
  rms(total) = 0.33886E-01    rms(broyden)= 0.33856E-01
  rms(prec ) = 0.41707E-01
  weight for this iteration     100.00

 eigenvalues of (default mixing * dielectric matrix)
  average eigenvalue GAMMA=   1.0743
  2.2736  1.0934  1.0934  0.5683  0.7086  0.7086

 Free energy of the ion-electron system (eV)
  ---------------------------------------------------
  alpha Z        PSCENC =        39.63868225
  Ewald energy   TEWEN  =     -1054.56880693
  -Hartree energ DENC   =      -567.37618052
  -exchange      EXHF   =         0.00000000
  -V(xc)+E(xc)   XCENC  =        31.48551228
  PAW double counting   =      1607.61025679    -1713.18980305
  entropy T*S    EENTRO =        -0.00549750
  eigenvalues    EBANDS =        18.45242738
  atomic energy  EATOM  =      1626.71546820
  Solvation  Ediel_sol  =         0.00000000
  ---------------------------------------------------
  free energy    TOTEN  =       -11.23794110 eV

  energy without entropy =      -11.23244360  energy(sigma->0) =      -11.23610860


--------------------------------------------------------------------------------------------------------




--------------------------------------- Iteration      1(  12)  ---------------------------------------


    POTLOK:  cpu time      0.0073: real time      0.0075
    SETDIJ:  cpu time      0.0048: real time      0.0048
     EDDAV:  cpu time      0.1488: real time      0.1495
       DOS:  cpu time      0.0009: real time      0.0009
    CHARGE:  cpu time      0.0234: real time      0.0235
    MIXING:  cpu time      0.0005: real time      0.0005
    --------------------------------------------
      LOOP:  cpu time      0.1856: real time      0.1866

 eigenvalue-minimisations  :  1592
 total energy-change (2. order) : 0.5316659E-03  (-0.2532105E-03)
 number of electron      17.9999991 magnetization       4.1453638
 augmentation part       10.2700085 magnetization       3.4591058

 Broyden mixing:
  rms(total) = 0.11578E-01    rms(broyden)= 0.11570E-01
  rms(prec ) = 0.12634E-01
  weight for this iteration     100.00

 eigenvalues of (default mixing * dielectric matrix)
  average eigenvalue GAMMA=   1.0687
  2.3332  1.1706  1.1706  0.5856  0.6139  0.8033  0.8033

 Free energy of the ion-electron system (eV)
  ---------------------------------------------------
  alpha Z        PSCENC =        39.63868225
  Ewald energy   TEWEN  =     -1054.56880693
  -Hartree energ DENC   =      -566.68663253
  -exchange      EXHF   =         0.00000000
  -V(xc)+E(xc)   XCENC  =        31.47047640
  PAW double counting   =      1612.98592369    -1718.82382058
  entropy T*S    EENTRO =        -0.00530038
  eigenvalues    EBANDS =        18.03660045
  atomic energy  EATOM  =      1626.71546820
  Solvation  Ediel_sol  =         0.00000000
  ---------------------------------------------------
  free energy    TOTEN  =       -11.23740944 eV

  energy without entropy =      -11.23210906  energy(sigma->0) =      -11.23564264


--------------------------------------------------------------------------------------------------------




--------------------------------------- Iteration      1(  13)  ---------------------------------------


    POTLOK:  cpu time      0.0073: real time      0.0075
    SETDIJ:  cpu time      0.0048: real time      0.0048
     EDDAV:  cpu time      0.1480: real time      0.1488
       DOS:  cpu time      0.0009: real time      0.0009
    CHARGE:  cpu time      0.0234: real time      0.0235
    MIXING:  cpu time      0.0005: real time      0.0005
    --------------------------------------------
      LOOP:  cpu time      0.1849: real time      0.1860

 eigenvalue-minimisations  :  1576
 total energy-change (2. order) :-0.2933320E-03  (-0.2541726E-04)
 number of electron      17.9999991 magnetization       4.1599557
 augmentation part       10.2721215 magnetization       3.4694036

 Broyden mixing:
  rms(total) = 0.65838E-02    rms(broyden)= 0.65720E-02
  rms(prec ) = 0.72546E-02
  weight for this iteration     100.00

 eigenvalues of (default mixing * dielectric matrix)
  average eigenvalue GAMMA=   1.1093
  2.3384  1.6215  1.0233  1.0233  0.9542  0.5751  0.6843  0.6539

 Free energy of the ion-electron system (eV)
  ---------------------------------------------------
  alpha Z        PSCENC =        39.63868225
  Ewald energy   TEWEN  =     -1054.56880693
  -Hartree energ DENC   =      -566.57809940
  -exchange      EXHF   =         0.00000000
  -V(xc)+E(xc)   XCENC  =        31.45904982
  PAW double counting   =      1613.05603970    -1718.95965357
  entropy T*S    EENTRO =        -0.00496652
  eigenvalues    EBANDS =        18.00458369
  atomic energy  EATOM  =      1626.71546820
  Solvation  Ediel_sol  =         0.00000000
  ---------------------------------------------------
  free energy    TOTEN  =       -11.23770277 eV

  energy without entropy =      -11.23273625  energy(sigma->0) =      -11.23604726


--------------------------------------------------------------------------------------------------------




--------------------------------------- Iteration      1(  14)  ---------------------------------------


    POTLOK:  cpu time      0.0074: real time      0.0075
    SETDIJ:  cpu time      0.0047: real time      0.0048
     EDDAV:  cpu time      0.1528: real time      0.1536
       DOS:  cpu time      0.0009: real time      0.0009
    CHARGE:  cpu time      0.0234: real time      0.0235
    MIXING:  cpu time      0.0004: real time      0.0004
    --------------------------------------------
      LOOP:  cpu time      0.1898: real time      0.1908

 eigenvalue-minimisations  :  1632
 total energy-change (2. order) :-0.1229547E-03  (-0.1884537E-04)
 number of electron      17.9999991 magnetization       4.1603301
 augmentation part       10.2744542 magnetization       3.4649389

 Broyden mixing:
  rms(total) = 0.31166E-02    rms(broyden)= 0.31031E-02
  rms(prec ) = 0.34338E-02
  weight for this iteration     100.00

 eigenvalues of (default mixing * dielectric matrix)
  average eigenvalue GAMMA=   1.1404
  2.2429  2.2429  1.0507  1.0507  0.9082  0.9082  0.5751  0.6424  0.6424

 Free energy of the ion-electron system (eV)
  ---------------------------------------------------
  alpha Z        PSCENC =        39.63868225
  Ewald energy   TEWEN  =     -1054.56880693
  -Hartree energ DENC   =      -566.49609848
  -exchange      EXHF   =         0.00000000
  -V(xc)+E(xc)   XCENC  =        31.45194457
  PAW double counting   =      1612.65601296    -1718.59749527
  entropy T*S    EENTRO =        -0.00477520
  eigenvalues    EBANDS =        17.96724218
  atomic energy  EATOM  =      1626.71546820
  Solvation  Ediel_sol  =         0.00000000
  ---------------------------------------------------
  free energy    TOTEN  =       -11.23782572 eV

  energy without entropy =      -11.23305052  energy(sigma->0) =      -11.23623399


--------------------------------------------------------------------------------------------------------




--------------------------------------- Iteration      1(  15)  ---------------------------------------


    POTLOK:  cpu time      0.0073: real time      0.0075
    SETDIJ:  cpu time      0.0049: real time      0.0050
     EDDAV:  cpu time      0.1450: real time      0.1457
       DOS:  cpu time      0.0009: real time      0.0009
    CHARGE:  cpu time      0.0233: real time      0.0234
    MIXING:  cpu time      0.0005: real time      0.0005
    --------------------------------------------
      LOOP:  cpu time      0.1819: real time      0.1829

 eigenvalue-minimisations  :  1504
 total energy-change (2. order) :-0.6399230E-05  (-0.1683258E-05)
 number of electron      17.9999991 magnetization       4.1570850
 augmentation part       10.2738741 magnetization       3.4613468

 Broyden mixing:
  rms(total) = 0.18342E-02    rms(broyden)= 0.18306E-02
  rms(prec ) = 0.19689E-02
  weight for this iteration     100.00

 eigenvalues of (default mixing * dielectric matrix)
  average eigenvalue GAMMA=   1.2309
  2.8697  2.2574  1.0581  1.0581  1.2233  1.2233  0.7743  0.5729  0.6361  0.6361

 Free energy of the ion-electron system (eV)
  ---------------------------------------------------
  alpha Z        PSCENC =        39.63868225
  Ewald energy   TEWEN  =     -1054.56880693
  -Hartree energ DENC   =      -566.50350033
  -exchange      EXHF   =         0.00000000
  -V(xc)+E(xc)   XCENC  =        31.45053602
  PAW double counting   =      1612.51625995    -1718.46475260
  entropy T*S    EENTRO =        -0.00471530
  eigenvalues    EBANDS =        17.98299662
  atomic energy  EATOM  =      1626.71546820
  Solvation  Ediel_sol  =         0.00000000
  ---------------------------------------------------
  free energy    TOTEN  =       -11.23783212 eV

  energy without entropy =      -11.23311682  energy(sigma->0) =      -11.23626035


--------------------------------------------------------------------------------------------------------




--------------------------------------- Iteration      1(  16)  ---------------------------------------


    POTLOK:  cpu time      0.0073: real time      0.0075
    SETDIJ:  cpu time      0.0048: real time      0.0048
     EDDAV:  cpu time      0.1404: real time      0.1411
       DOS:  cpu time      0.0009: real time      0.0009
    CHARGE:  cpu time      0.0238: real time      0.0238
    MIXING:  cpu time      0.0005: real time      0.0005
    --------------------------------------------
      LOOP:  cpu time      0.1776: real time      0.1786

 eigenvalue-minimisations  :  1464
 total energy-change (2. order) :-0.9833726E-05  (-0.7618258E-06)
 number of electron      17.9999991 magnetization       4.1566303
 augmentation part       10.2739673 magnetization       3.4615426

 Broyden mixing:
  rms(total) = 0.65359E-03    rms(broyden)= 0.64384E-03
  rms(prec ) = 0.73439E-03
  weight for this iteration     100.00

 eigenvalues of (default mixing * dielectric matrix)
  average eigenvalue GAMMA=   1.2532
  3.1686  2.2990  1.3803  1.3803  1.0517  1.0517  0.8116  0.8116  0.5714  0.6296
  0.6296

 Free energy of the ion-electron system (eV)
  ---------------------------------------------------
  alpha Z        PSCENC =        39.63868225
  Ewald energy   TEWEN  =     -1054.56880693
  -Hartree energ DENC   =      -566.50038966
  -exchange      EXHF   =         0.00000000
  -V(xc)+E(xc)   XCENC  =        31.45114396
  PAW double counting   =      1612.57114729    -1718.52014829
  entropy T*S    EENTRO =        -0.00459681
  eigenvalues    EBANDS =        17.97965803
  atomic energy  EATOM  =      1626.71546820
  Solvation  Ediel_sol  =         0.00000000
  ---------------------------------------------------
  free energy    TOTEN  =       -11.23784195 eV

  energy without entropy =      -11.23324514  energy(sigma->0) =      -11.23630968


--------------------------------------------------------------------------------------------------------




--------------------------------------- Iteration      1(  17)  ---------------------------------------


    POTLOK:  cpu time      0.0075: real time      0.0077
    SETDIJ:  cpu time      0.0048: real time      0.0048
     EDDAV:  cpu time      0.1278: real time      0.1285
       DOS:  cpu time      0.0009: real time      0.0009
    --------------------------------------------
      LOOP:  cpu time      0.1410: real time      0.1418

 eigenvalue-minimisations  :  1272
 total energy-change (2. order) :-0.8123666E-06  (-0.9541233E-07)
 number of electron      17.9999991 magnetization       4.1566303
 augmentation part       10.2739673 magnetization       3.4615426

 Free energy of the ion-electron system (eV)
  ---------------------------------------------------
  alpha Z        PSCENC =        39.63868225
  Ewald energy   TEWEN  =     -1054.56880693
  -Hartree energ DENC   =      -566.50902921
  -exchange      EXHF   =         0.00000000
  -V(xc)+E(xc)   XCENC  =        31.45178952
  PAW double counting   =      1612.53947998    -1718.48417053
  entropy T*S    EENTRO =        -0.00456092
  eigenvalues    EBANDS =        17.98330487
  atomic energy  EATOM  =      1626.71546820
  Solvation  Ediel_sol  =         0.00000000
  ---------------------------------------------------
  free energy    TOTEN  =       -11.23784277 eV

  energy without entropy =      -11.23328185  energy(sigma->0) =      -11.23632246


--------------------------------------------------------------------------------------------------------




 average (electrostatic) potential at core
  the test charge radii are     1.0452
  (the norm of the test charge is              1.0000)
       1 -85.5617       2 -85.5617
 
 
 
 E-fermi :   3.0204     XC(G=0):  -9.3947     alpha+bet : -8.9999

 Fermi energy:         3.0203948962

 spin component 1

 k-point     1 :       0.0000    0.0000    0.0000
  band No.  band energies     occupation 
      1      -3.0055      1.00000
      2      -2.5456      1.00000
      3      -0.2934      1.00000
      4       0.7173      1.00000
      5       0.7173      1.00000
      6       0.7182      1.00000
      7       0.7182      1.00000
      8       0.7299      1.00000
      9       1.4234      1.00000
     10       1.4234      1.00000
     11       1.4262      1.00000
     12       1.4262      1.00000
     13       2.1356      1.00000
     14       6.4119     -0.00000
     15      10.8436      0.00000
     16      18.7997      0.00000

 k-point     2 :       0.1667   -0.0000    0.0000
  band No.  band energies     occupation 
      1      -2.0401      1.00000
      2      -1.6495      1.00000
      3      -0.0017      1.00000
      4       0.4786      1.00000
      5       0.4880      1.00000
      6       0.5224      1.00000
      7       0.8023      1.00000
      8       0.9944      1.00000
      9       1.1270      1.00000
     10       1.1279      1.00000
     11       1.3427      1.00000
     12       1.3488      1.00000
     13       3.7271     -0.00000
     14       7.8467     -0.00000
     15      11.4694      0.00000
     16      19.9421      0.00000

 k-point     3 :       0.3333   -0.0000    0.0000
  band No.  band energies     occupation 
      1      -0.9046      1.00000
      2      -0.8555      1.00000
      3      -0.2001      1.00000
      4      -0.0402      1.00000
      5       0.6198      1.00000
      6       0.7844      1.00000
      7       1.1849      1.00000
      8       1.1953      1.00000
      9       1.7697      1.00000
     10       2.0250      1.00000
     11       2.0257      1.00000
     12       2.7017      1.02336
     13       6.6991     -0.00000
     14      11.0725      0.00000
     15      13.0111      0.00000
     16      14.2158      0.00000

 k-point     4 :       0.5000   -0.0000    0.0000
  band No.  band energies     occupation 
      1      -1.0439      1.00000
      2      -1.0408      1.00000
      3      -0.4423      1.00000
      4      -0.3761      1.00000
      5       0.9355      1.00000
      6       1.0301      1.00000
      7       1.1071      1.00000
      8       1.1197      1.00000
      9       2.5239      1.00125
     10       2.5241      1.00126
     11       5.2369     -0.00000
     12       5.5904     -0.00000
     13       9.2186      0.00000
     14      10.0373      0.00000
     15      10.4407      0.00000
     16      11.5769      0.00000

 k-point     5 :       0.1667    0.1667    0.0000
  band No.  band energies     occupation 
      1      -0.5303      1.00000
      2      -0.3939      1.00000
      3       0.0148      1.00000
      4       0.1058      1.00000
      5       0.1098      1.00000
      6       0.2234      1.00000
      7       0.5149      1.00000
      8       1.1286      1.00000
      9       1.1363      1.00000
     10       1.2203      1.00000
     11       2.1870      1.00000
     12       2.5765      1.00369
     13       5.8021     -0.00000
     14      10.1493      0.00000
     15      12.7758      0.00000
     16      18.2681      0.00000

 k-point     6 :       0.3333    0.1667    0.0000
  band No.  band energies     occupation 
      1      -0.4743      1.00000
      2      -0.4678      1.00000
      3      -0.2412      1.00000
      4      -0.1529      1.00000
      5       0.8269      1.00000
      6       0.8394      1.00000
      7       0.8528      1.00000
      8       0.8764      1.00000
      9       1.3601      1.00000
     10       1.5222      1.00000
     11       5.1581     -0.00000
     12       5.9776     -0.00000
     13       9.4004      0.00000
     14      11.3241      0.00000
     15      12.3486      0.00000
     16      13.4042      0.00000

 k-point     7 :       0.3333    0.3333    0.0000
  band No.  band energies     occupation 
      1       0.1745      1.00000
      2       0.2112      1.00000
      3       0.2112      1.00000
      4       0.2502      1.00000
      5       0.4441      1.00000
      6       0.4594      1.00000
      7       0.4594      1.00000
      8       0.4805      1.00000
      9       0.9645      1.00000
     10       0.9645      1.00000
     11       9.6826      0.00000
     12       9.9376      0.00000
     13       9.9376      0.00000
     14      10.5888      0.00000
     15      12.0410      0.00000
     16      12.0410      0.00000

 k-point     8 :       0.0000    0.0000    0.2500
  band No.  band energies     occupation 
      1      -2.9408      1.00000
      2      -2.6148      1.00000
      3      -0.2281      1.00000
      4       0.3880      1.00000
      5       0.7174      1.00000
      6       0.7174      1.00000
      7       0.7180      1.00000
      8       0.7180      1.00000
      9       1.4238      1.00000
     10       1.4238      1.00000
     11       1.4257      1.00000
     12       1.4257      1.00000
     13       2.8061      1.03105
     14       5.5794     -0.00000
     15      11.9447      0.00000
     16      16.8515      0.00000

 k-point     9 :       0.1667   -0.0000    0.2500
  band No.  band energies     occupation 
      1      -1.9823      1.00000
      2      -1.7048      1.00000
      3       0.0492      1.00000
      4       0.4150      1.00000
      5       0.4878      1.00000
      6       0.4896      1.00000
      7       0.8091      1.00000
      8       0.9110      1.00000
      9       1.1272      1.00000
     10       1.1278      1.00000
     11       1.3438      1.00000
     12       1.3480      1.00000
     13       4.2288     -0.00000
     14       6.9130     -0.00000
     15      12.6896      0.00000
     16      17.7618      0.00000

 k-point    10 :       0.3333   -0.0000    0.2500
  band No.  band energies     occupation 
      1      -0.8975      1.00000
      2      -0.8629      1.00000
      3      -0.1828      1.00000
      4      -0.0727      1.00000
      5       0.6598      1.00000
      6       0.7720      1.00000
      7       1.1864      1.00000
      8       1.1938      1.00000
      9       1.8633      1.00000
     10       2.0252      1.00000
     11       2.0256      1.00000
     12       2.5063      1.00084
     13       7.1679     -0.00000
     14       9.9002      0.00000
     15      13.9194      0.00000
     16      14.3959      0.00000

 k-point    11 :       0.5000   -0.0000    0.2500
  band No.  band energies     occupation 
      1      -1.0437      1.00000
      2      -1.0415      1.00000
      3      -0.4339      1.00000
      4      -0.3871      1.00000
      5       0.9523      1.00000
      6       1.0195      1.00000
      7       1.1088      1.00000
      8       1.1177      1.00000
      9       2.5239      1.00125
     10       2.5241      1.00126
     11       5.2793     -0.00000
     12       5.5290     -0.00000
     13       9.2209      0.00000
     14       9.6282      0.00000
     15      11.0724      0.00000
     16      11.7721      0.00000

 k-point    12 :       0.1667    0.1667    0.2500
  band No.  band energies     occupation 
      1      -0.5087      1.00000
      2      -0.4125      1.00000
      3       0.0328      1.00000
      4       0.1063      1.00000
      5       0.1092      1.00000
      6       0.1646      1.00000
      7       0.6389      1.00000
      8       1.1227      1.00000
      9       1.1328      1.00000
     10       1.1352      1.00000
     11       2.2111      1.00000
     12       2.4612      1.00028
     13       6.2844     -0.00000
     14       9.0369      0.00000
     15      14.1635      0.00000
     16      18.3431      0.00000

 k-point    13 :       0.3333    0.1667    0.2500
  band No.  band energies     occupation 
      1      -0.4737      1.00000
      2      -0.4691      1.00000
      3      -0.2297      1.00000
      4      -0.1677      1.00000
      5       0.8283      1.00000
      6       0.8451      1.00000
      7       0.8529      1.00000
      8       0.8760      1.00000
      9       1.3833      1.00000
     10       1.4986      1.00000
     11       5.2414     -0.00000
     12       5.8020     -0.00000
     13       9.8330      0.00000
     14      11.3642      0.00000
     15      12.1043      0.00000
     16      12.6657      0.00000

 k-point    14 :       0.3333    0.3333    0.2500
  band No.  band energies     occupation 
      1       0.1843      1.00000
      2       0.2097      1.00000
      3       0.2097      1.00000
      4       0.2375      1.00000
      5       0.4511      1.00000
      6       0.4606      1.00000
      7       0.4606      1.00000
      8       0.4764      1.00000
      9       0.9652      1.00000
     10       0.9652      1.00000
     11       9.7870      0.00000
     12       9.9628      0.00000
     13       9.9628      0.00000
     14      10.4156      0.00000
     15      11.7921      0.00000
     16      11.7921      0.00000

 k-point    15 :       0.0000    0.0000    0.5000
  band No.  band energies     occupation 
      1      -2.7802      1.00000
      2      -2.7802      1.00000
      3      -0.0112      1.00000
      4      -0.0111      1.00000
      5       0.7176      1.00000
      6       0.7176      1.00000
      7       0.7176      1.00000
      8       0.7176      1.00000
      9       1.4246      1.00000
     10       1.4246      1.00000
     11       1.4246      1.00000
     12       1.4246      1.00000
     13       4.1193     -0.00000
     14       4.1193     -0.00000
     15      14.2108      0.00000
     16      14.2108      0.00000

 k-point    16 :       0.1667   -0.0000    0.5000
  band No.  band energies     occupation 
      1      -1.8424      1.00000
      2      -1.8424      1.00000
      3       0.2046      1.00000
      4       0.2046      1.00000
      5       0.4875      1.00000
      6       0.4875      1.00000
      7       0.8359      1.00000
      8       0.8359      1.00000
      9       1.1275      1.00000
     10       1.1275      1.00000
     11       1.3459      1.00000
     12       1.3459      1.00000
     13       5.4303     -0.00000
     14       5.4303     -0.00000
     15      15.0468      0.00000
     16      15.0468      0.00000

 k-point    17 :       0.3333   -0.0000    0.5000
  band No.  band energies     occupation 
      1      -0.8802      1.00000
      2      -0.8802      1.00000
      3      -0.1347      1.00000
      4      -0.1347      1.00000
      5       0.7290      1.00000
      6       0.7290      1.00000
      7       1.1902      1.00000
      8       1.1902      1.00000
      9       2.0255      1.00000
     10       2.0255      1.00000
     11       2.1382      1.00000
     12       2.1382      1.00000
     13       8.3471     -0.00000
     14       8.3471     -0.00000
     15      14.3840      0.00000
     16      14.3840      0.00000

 k-point    18 :       0.5000   -0.0000    0.5000
  band No.  band energies     occupation 
      1      -1.0427      1.00000
      2      -1.0427      1.00000
      3      -0.4117      1.00000
      4      -0.4117      1.00000
      5       0.9890      1.00000
      6       0.9890      1.00000
      7       1.1133      1.00000
      8       1.1133      1.00000
      9       2.5240      1.00125
     10       2.5240      1.00125
     11       5.3947     -0.00000
     12       5.3947     -0.00000
     13       9.3209      0.00000
     14       9.3209      0.00000
     15      11.7838      0.00000
     16      11.7838      0.00000

 k-point    19 :       0.1667    0.1667    0.5000
  band No.  band energies     occupation 
      1      -0.4590      1.00000
      2      -0.4590      1.00000
      3       0.0846      1.00000
      4       0.0846      1.00000
      5       0.1083      1.00000
      6       0.1083      1.00000
      7       0.8891      1.00000
      8       0.8891      1.00000
      9       1.1325      1.00000
     10       1.1325      1.00000
     11       2.2973      1.00000
     12       2.2973      1.00000
     13       7.4816     -0.00000
     14       7.4816     -0.00000
     15      16.5240      0.00000
     16      16.5240      0.00000

 k-point    20 :       0.3333    0.1667    0.5000
  band No.  band energies     occupation 
      1      -0.4718      1.00000
      2      -0.4718      1.00000
      3      -0.2004      1.00000
      4      -0.2004      1.00000
      5       0.8360      1.00000
      6       0.8360      1.00000
      7       0.8683      1.00000
      8       0.8683      1.00000
      9       1.4408      1.00000
     10       1.4408      1.00000
     11       5.4803     -0.00000
     12       5.4803     -0.00000
     13      10.8336      0.00000
     14      10.8336      0.00000
     15      11.9626      0.00000
     16      11.9626      0.00000

 k-point    21 :       0.3333    0.3333    0.5000
  band No.  band energies     occupation 
      1       0.2083      1.00000
      2       0.2083      1.00000
      3       0.2095      1.00000
      4       0.2095      1.00000
      5       0.4618      1.00000
      6       0.4618      1.00000
      7       0.4651      1.00000
      8       0.4651      1.00000
      9       0.9659      1.00000
     10       0.9659      1.00000
     11       9.9904      0.00000
     12       9.9904      0.00000
     13      10.0694      0.00000
     14      10.0694      0.00000
     15      11.6070      0.00000
     16      11.6070      0.00000
 Fermi energy:         3.0203948962

 spin component 2

 k-point     1 :       0.0000    0.0000    0.0000
  band No.  band energies     occupation 
      1      -2.7754      1.00000
      2      -2.1318      1.00000
      3       1.4943      1.00000
      4       2.1813      1.00000
      5       2.5682      1.00315
      6       2.5682      1.00315
      7       2.5694      1.00322
      8       2.5694      1.00322
      9       2.7033      1.02374
     10       3.8479     -0.00000
     11       3.8479     -0.00000
     12       3.8518     -0.00000
     13       3.8518     -0.00000
     14       6.7002     -0.00000
     15      11.1978      0.00000
     16      18.7857      0.00000

 k-point     2 :       0.1667   -0.0000    0.0000
  band No.  band energies     occupation 
      1      -1.7815      1.00000
      2      -1.1439      1.00000
      3       1.8486      1.00000
      4       1.9869      1.00000
      5       2.2495      1.00000
      6       2.2663      1.00000
      7       2.9145      0.88579
      8       2.9473      0.78772
      9       3.0255      0.47830
     10       3.0268      0.47295
     11       3.7516     -0.00000
     12       3.7602     -0.00000
     13       4.6738     -0.00000
     14       8.3929     -0.00000
     15      11.7379      0.00000
     16      19.9761      0.00000

 k-point     3 :       0.3333   -0.0000    0.0000
  band No.  band energies     occupation 
      1       0.1790      1.00000
      2       0.4046      1.00000
      3       1.6255      1.00000
      4       1.9698      1.00000
      5       2.3893      1.00004
      6       2.7639      1.03498
      7       2.8443      1.00786
      8       3.5377     -0.00078
      9       3.5638     -0.00042
     10       3.5788     -0.00029
     11       4.0432     -0.00000
     12       4.0442     -0.00000
     13       7.1698     -0.00000
     14      11.6868      0.00000
     15      13.1941      0.00000
     16      14.7124      0.00000

 k-point     4 :       0.5000   -0.0000    0.0000
  band No.  band energies     occupation 
      1       0.3518      1.00000
      2       0.3665      1.00000
      3       1.4839      1.00000
      4       1.5968      1.00000
      5       3.1885      0.00033
      6       3.3297     -0.02555
      7       3.4715     -0.00322
      8       3.4896     -0.00224
      9       4.6203     -0.00000
     10       4.6206     -0.00000
     11       5.2658     -0.00000
     12       5.6440     -0.00000
     13      10.0952      0.00000
     14      10.7394      0.00000
     15      10.9644      0.00000
     16      11.8501      0.00000

 k-point     5 :       0.1667    0.1667    0.0000
  band No.  band energies     occupation 
      1      -0.0345      1.00000
      2       0.4923      1.00000
      3       1.7643      1.00000
      4       1.7706      1.00000
      5       1.7769      1.00000
      6       2.2667      1.00000
      7       2.4438      1.00018
      8       3.2285     -0.02883
      9       3.4877     -0.00233
     10       3.4995     -0.00182
     11       4.0072     -0.00000
     12       4.1416     -0.00000
     13       6.3896     -0.00000
     14      10.7846      0.00000
     15      12.9134      0.00000
     16      18.5969      0.00000

 k-point     6 :       0.3333    0.1667    0.0000
  band No.  band energies     occupation 
      1       0.9481      1.00000
      2       0.9831      1.00000
      3       1.7024      1.00000
      4       1.8694      1.00000
      5       2.6590      1.01417
      6       2.7298      1.02969
      7       3.1244      0.11908
      8       3.1296      0.10566
      9       3.1435      0.07310
     10       3.4537     -0.00450
     11       6.1092     -0.00000
     12       6.7840     -0.00000
     13       9.7603      0.00000
     14      11.9471      0.00000
     15      12.9933      0.00000
     16      13.9725      0.00000

 k-point     7 :       0.3333    0.3333    0.0000
  band No.  band energies     occupation 
      1       1.9093      1.00000
      2       1.9403      1.00000
      3       1.9403      1.00000
      4       1.9781      1.00000
      5       2.2668      1.00000
      6       2.3287      1.00001
      7       2.3287      1.00001
      8       2.3955      1.00005
      9       3.3211     -0.02749
     10       3.3211     -0.02749
     11      10.2106      0.00000
     12      10.5086      0.00000
     13      10.5086      0.00000
     14      11.2051      0.00000
     15      12.7979      0.00000
     16      12.7979      0.00000

 k-point     8 :       0.0000    0.0000    0.2500
  band No.  band energies     occupation 
      1      -2.6944      1.00000
      2      -2.2423      1.00000
      3       1.5241      1.00000
      4       1.8699      1.00000
      5       2.5683      1.00316
      6       2.5683      1.00316
      7       2.5692      1.00321
      8       2.5692      1.00321
      9       3.3765     -0.01519
     10       3.8485     -0.00000
     11       3.8485     -0.00000
     12       3.8512     -0.00000
     13       3.8512     -0.00000
     14       5.9319     -0.00000
     15      12.2457      0.00000
     16      16.9879      0.00000

 k-point     9 :       0.1667   -0.0000    0.2500
  band No.  band energies     occupation 
      1      -1.7015      1.00000
      2      -1.2536      1.00000
      3       1.8579      1.00000
      4       1.9472      1.00000
      5       2.2545      1.00000
      6       2.2651      1.00000
      7       2.9285      0.84712
      8       2.9477      0.78639
      9       3.0258      0.47724
     10       3.0267      0.47322
     11       3.7530     -0.00000
     12       3.7590     -0.00000
     13       5.0654     -0.00000
     14       7.4828     -0.00000
     15      12.9559      0.00000
     16      17.9373      0.00000

 k-point    10 :       0.3333   -0.0000    0.2500
  band No.  band energies     occupation 
      1       0.2110      1.00000
      2       0.3704      1.00000
      3       1.6584      1.00000
      4       1.8800      1.00000
      5       2.5411      1.00182
      6       2.7656      1.03511
      7       2.8518      1.00025
      8       3.3439     -0.02226
      9       3.5659     -0.00039
     10       3.5766     -0.00030
     11       4.0434     -0.00000
     12       4.0441     -0.00000
     13       7.6367     -0.00000
     14      10.3842      0.00000
     15      14.3853      0.00000
     16      14.8740      0.00000

 k-point    11 :       0.5000   -0.0000    0.2500
  band No.  band energies     occupation 
      1       0.3536      1.00000
      2       0.3640      1.00000
      3       1.4980      1.00000
      4       1.5776      1.00000
      5       3.2182     -0.02395
      6       3.3204     -0.02764
      7       3.4740     -0.00307
      8       3.4868     -0.00237
      9       4.6203     -0.00000
     10       4.6205     -0.00000
     11       5.3002     -0.00000
     12       5.5690     -0.00000
     13      10.0863      0.00000
     14      10.3731      0.00000
     15      11.5520      0.00000
     16      12.0530      0.00000

 k-point    12 :       0.1667    0.1667    0.2500
  band No.  band energies     occupation 
      1       0.0323      1.00000
      2       0.4017      1.00000
      3       1.7651      1.00000
      4       1.7692      1.00000
      5       1.8348      1.00000
      6       2.1370      1.00000
      7       2.6033      1.00600
      8       3.1104      0.15853
      9       3.4895     -0.00225
     10       3.4978     -0.00189
     11       4.0131     -0.00000
     12       4.0917     -0.00000
     13       6.8612     -0.00000
     14       9.5847      0.00000
     15      14.3997      0.00000
     16      18.6978      0.00000

 k-point    13 :       0.3333    0.1667    0.2500
  band No.  band energies     occupation 
      1       0.9528      1.00000
      2       0.9776      1.00000
      3       1.7225      1.00000
      4       1.8387      1.00000
      5       2.6798      1.01841
      6       2.7268      1.02905
      7       3.1200      0.13097
      8       3.1385      0.08435
      9       3.1817      0.00836
     10       3.4072     -0.00983
     11       6.1691     -0.00000
     12       6.6238     -0.00000
     13      10.2030      0.00000
     14      11.9530      0.00000
     15      12.6911      0.00000
     16      13.2189      0.00000

 k-point    14 :       0.3333    0.3333    0.2500
  band No.  band energies     occupation 
      1       1.9173      1.00000
      2       1.9413      1.00000
      3       1.9413      1.00000
      4       1.9649      1.00000
      5       2.2887      1.00000
      6       2.3261      1.00001
      7       2.3261      1.00001
      8       2.3787      1.00003
      9       3.3237     -0.02691
     10       3.3237     -0.02691
     11      10.3216      0.00000
     12      10.5263      0.00000
     13      10.5263      0.00000
     14      11.0069      0.00000
     15      12.4920      0.00000
     16      12.4920      0.00000

 k-point    15 :       0.0000    0.0000    0.5000
  band No.  band energies     occupation 
      1      -2.4827      1.00000
      2      -2.4827      1.00000
      3       1.6309      1.00000
      4       1.6309      1.00000
      5       2.5686      1.00317
      6       2.5686      1.00317
      7       2.5686      1.00317
      8       2.5686      1.00317
      9       3.8497     -0.00000
     10       3.8497     -0.00000
     11       3.8497     -0.00000
     12       3.8497     -0.00000
     13       4.5788     -0.00000
     14       4.5788     -0.00000
     15      14.4367      0.00000
     16      14.4367      0.00000

 k-point    16 :       0.1667   -0.0000    0.5000
  band No.  band energies     occupation 
      1      -1.4921      1.00000
      2      -1.4921      1.00000
      3       1.8897      1.00000
      4       1.8897      1.00000
      5       2.2611      1.00000
      6       2.2611      1.00000
      7       2.9435      0.80023
      8       2.9435      0.80022
      9       3.0262      0.47531
     10       3.0262      0.47529
     11       3.7560     -0.00000
     12       3.7560     -0.00000
     13       6.1029     -0.00000
     14       6.1029     -0.00000
     15      15.2790      0.00000
     16      15.2790      0.00000

 k-point    17 :       0.3333   -0.0000    0.5000
  band No.  band energies     occupation 
      1       0.2897      1.00000
      2       0.2897      1.00000
      3       1.7499      1.00000
      4       1.7499      1.00000
      5       2.7412      1.03191
      6       2.7412      1.03191
      7       2.9895      0.62889
      8       2.9895      0.62888
      9       3.5713     -0.00034
     10       3.5713     -0.00034
     11       4.0438     -0.00000
     12       4.0438     -0.00000
     13       8.8110      0.00000
     14       8.8110      0.00000
     15      14.9398      0.00000
     16      14.9398      0.00000

 k-point    18 :       0.5000   -0.0000    0.5000
  band No.  band energies     occupation 
      1       0.3585      1.00000
      2       0.3585      1.00000
      3       1.5354      1.00000
      4       1.5354      1.00000
      5       3.2795     -0.03476
      6       3.2795     -0.03476
      7       3.4804     -0.00270
      8       3.4804     -0.00270
      9       4.6204     -0.00000
     10       4.6204     -0.00000
     11       5.4145     -0.00000
     12       5.4145     -0.00000
     13      10.1447      0.00000
     14      10.1447      0.00000
     15      12.1461      0.00000
     16      12.1461      0.00000

 k-point    19 :       0.1667    0.1667    0.5000
  band No.  band energies     occupation 
      1       0.2056      1.00000
      2       0.2056      1.00000
      3       1.7672      1.00000
      4       1.7672      1.00000
      5       1.9702      1.00000
      6       1.9702      1.00000
      7       2.8570      0.99425
      8       2.8570      0.99425
      9       3.4935     -0.00207
     10       3.4935     -0.00207
     11       4.0364     -0.00000
     12       4.0364     -0.00000
     13       8.0315     -0.00000
     14       8.0315     -0.00000
     15      16.8085      0.00000
     16      16.8085      0.00000

 k-point    20 :       0.3333    0.1667    0.5000
  band No.  band energies     occupation 
      1       0.9647      1.00000
      2       0.9647      1.00000
      3       1.7755      1.00000
      4       1.7755      1.00000
      5       2.7114      1.02561
      6       2.7114      1.02561
      7       3.1286      0.10810
      8       3.1286      0.10810
      9       3.2935     -0.03296
     10       3.2935     -0.03296
     11       6.3523     -0.00000
     12       6.3523     -0.00000
     13      11.2364      0.00000
     14      11.2364      0.00000
     15      12.5878      0.00000
     16      12.5878      0.00000

 k-point    21 :       0.3333    0.3333    0.5000
  band No.  band energies     occupation 
      1       1.9386      1.00000
      2       1.9386      1.00000
      3       1.9424      1.00000
      4       1.9424      1.00000
      5       2.3234      1.00000
      6       2.3234      1.00000
      7       2.3361      1.00001
      8       2.3361      1.00001
      9       3.3262     -0.02633
     10       3.3262     -0.02633
     11      10.5453      0.00000
     12      10.5453      0.00000
     13      10.6251      0.00000
     14      10.6251      0.00000
     15      12.2925      0.00000
     16      12.2925      0.00000


--------------------------------------------------------------------------------------------------------


 soft charge-density along one line, spin component           1
         0         1         2         3         4         5         6         7         8         9
 total charge-density along one line
 
 soft charge-density along one line, spin component           2
         0         1         2         3         4         5         6         7         8         9
 total charge-density along one line
 
 pseudopotential strength for first ion, spin component:           1
 -5.510   0.000   0.000  -0.000   0.000  -5.966   0.000   0.000
  0.000  -5.815   0.000  -0.000   0.000   0.000  -6.261   0.000
  0.000   0.000  -5.866   0.000  -0.000   0.000   0.000  -6.310
 -0.000  -0.000   0.000  -5.815  -0.000  -0.000  -0.000   0.000
  0.000   0.000  -0.000  -0.000  -5.510   0.000   0.000  -0.000
 -5.966   0.000   0.000  -0.000   0.000  -6.369   0.000   0.000
  0.000  -6.261   0.000  -0.000   0.000   0.000  -6.654   0.000
  0.000   0.000  -6.310   0.000  -0.000   0.000   0.000  -6.701
 -0.000  -0.000   0.000  -6.261  -0.000  -0.000  -0.000   0.000
  0.000   0.000  -0.000  -0.000  -5.966   0.000   0.000  -0.000
  0.000   0.000   0.040   0.000  -0.000   0.000   0.000   0.040
  0.000   0.000   0.071   0.000  -0.000   0.000   0.000   0.070
 -0.000  -0.000  -0.000   0.000  -0.000  -0.000  -0.000  -0.000
  0.000   0.000  -0.000  -0.000   0.000   0.000   0.000  -0.000
 -0.000   0.000   0.000   0.000  -0.000  -0.000   0.000   0.000
 -0.000  -0.000  -0.000   0.000  -0.000  -0.000  -0.000  -0.000
  0.000   0.000  -0.000  -0.000   0.000   0.000   0.000  -0.000
 -0.000   0.000   0.000   0.000  -0.000  -0.000   0.000   0.000
 pseudopotential strength for first ion, spin component:           2
 -4.036  -0.000   0.000   0.000   0.000  -4.556  -0.000   0.000
 -0.000  -4.099  -0.000  -0.000  -0.000  -0.000  -4.616  -0.000
  0.000  -0.000  -4.165  -0.000  -0.000   0.000  -0.000  -4.680
  0.000  -0.000  -0.000  -4.099   0.000   0.000  -0.000  -0.000
  0.000  -0.000  -0.000   0.000  -4.036   0.000  -0.000  -0.000
 -4.556  -0.000   0.000   0.000   0.000  -5.020  -0.000   0.000
 -0.000  -4.616  -0.000  -0.000  -0.000  -0.000  -5.077  -0.000
  0.000  -0.000  -4.680  -0.000  -0.000   0.000  -0.000  -5.139
  0.000  -0.000  -0.000  -4.616   0.000   0.000  -0.000  -0.000
  0.000  -0.000  -0.000   0.000  -4.556   0.000  -0.000  -0.000
  0.000  -0.000   0.010  -0.000  -0.000   0.000  -0.000   0.009
  0.000  -0.000   0.017  -0.000  -0.000   0.000  -0.000   0.015
  0.000  -0.000   0.000   0.000   0.000   0.000  -0.000   0.000
  0.000  -0.000  -0.000   0.000   0.000   0.000  -0.000  -0.000
  0.000   0.000  -0.000   0.000   0.000   0.000   0.000  -0.000
  0.000  -0.000   0.000   0.000   0.000   0.000  -0.000   0.000
  0.000  -0.000  -0.000   0.000   0.000   0.000  -0.000  -0.000
  0.000   0.000  -0.000   0.000   0.000   0.000   0.000  -0.000
 total augmentation occupancy for first ion, spin component:           1
  2.661  -0.000   0.000  -0.000   0.000  -1.168  -0.000  -0.000  -0.000  -0.000   0.000   0.000   0.000   0.000   0.000  -0.000
  0.000   2.721   0.000  -0.000  -0.000   0.000  -0.940  -0.000   0.000   0.000  -0.000  -0.000   0.000   0.000  -0.000  -0.000
  0.000   0.000   3.131   0.000  -0.000  -0.000  -0.000  -1.277   0.000   0.000   0.574   0.085   0.000   0.000   0.000  -0.000
  0.000  -0.000  -0.000   2.721   0.000  -0.000   0.000   0.000  -0.940   0.000   0.000   0.000   0.000   0.000   0.000   0.000
  0.000   0.000  -0.000  -0.000   2.661  -0.000   0.000   0.000   0.000  -1.168  -0.000  -0.000   0.000  -0.000  -0.000  -0.000
 -1.168   0.000  -0.000   0.000  -0.000   1.291   0.000   0.000   0.000   0.000  -0.000   0.000  -0.000   0.000  -0.000   0.000
 -0.000  -0.940   0.000   0.000  -0.000  -0.000   0.627  -0.000  -0.000   0.000   0.000  -0.000  -0.000   0.000   0.000   0.000
 -0.000  -0.000  -1.277   0.000   0.000   0.000  -0.000   0.907   0.000  -0.000  -0.858   0.016   0.000   0.000  -0.000   0.000
  0.000   0.000  -0.000  -0.940   0.000  -0.000  -0.000   0.000   0.627   0.000   0.000   0.000   0.000   0.000   0.000   0.000
 -0.000  -0.000   0.000   0.000  -1.168   0.000  -0.000  -0.000   0.000   1.291   0.000  -0.000  -0.000   0.000  -0.000   0.000
  0.000   0.000   0.574   0.000  -0.000  -0.000  -0.000  -0.858   0.000   0.000   1.745  -0.088   0.000   0.000   0.000  -0.000
  0.000  -0.000   0.085   0.000  -0.000   0.000   0.000   0.016   0.000  -0.000  -0.088   0.021   0.000   0.000   0.000   0.000
  0.000  -0.000   0.000   0.000   0.000  -0.000   0.000   0.000  -0.000  -0.000   0.000  -0.000   0.249  -0.000   0.000  -0.018
  0.000   0.000   0.000   0.000  -0.000  -0.000  -0.000   0.000  -0.000   0.000   0.000   0.000  -0.000   0.061  -0.000   0.000
  0.000  -0.000   0.000  -0.000  -0.000  -0.000   0.000  -0.000   0.000  -0.000   0.000   0.000  -0.000   0.000   0.249  -0.000
 -0.000   0.000   0.000   0.000  -0.000   0.000   0.000  -0.000   0.000   0.000   0.000   0.000  -0.018   0.000   0.000   0.001
 -0.000   0.000   0.000  -0.000   0.000  -0.000   0.000   0.000   0.000   0.000   0.000   0.000  -0.000  -0.004   0.000  -0.000
 -0.000   0.000  -0.000   0.000   0.000   0.000  -0.000   0.000  -0.000   0.000  -0.000  -0.000   0.000   0.000  -0.018   0.000
 total augmentation occupancy for first ion, spin component:           2
  1.969   0.000   0.000   0.000   0.000  -0.936  -0.000  -0.000  -0.000  -0.000  -0.000   0.000  -0.000  -0.000  -0.000   0.000
  0.000   2.317  -0.000  -0.000  -0.000  -0.000  -1.059   0.000   0.000  -0.000   0.000  -0.000   0.000   0.000  -0.000  -0.000
  0.000  -0.000   2.098   0.000  -0.000   0.000  -0.000  -0.917   0.000   0.000   0.015   0.141   0.000   0.000   0.000  -0.000
 -0.000  -0.000   0.000   2.317   0.000   0.000   0.000  -0.000  -1.059  -0.000   0.000   0.000   0.000  -0.000   0.000   0.000
  0.000   0.000  -0.000   0.000   1.969  -0.000  -0.000   0.000  -0.000  -0.936   0.000  -0.000  -0.000   0.000   0.000   0.000
 -0.936  -0.000   0.000  -0.000  -0.000   0.233  -0.000  -0.000   0.000   0.000   0.000  -0.000   0.000  -0.000   0.000  -0.000
  0.000  -1.059   0.000   0.000   0.000  -0.000   0.353   0.000  -0.000  -0.000   0.000  -0.000   0.000  -0.000  -0.000   0.000
  0.000   0.000  -0.917   0.000   0.000   0.000   0.000   0.281   0.000  -0.000   0.095  -0.080   0.000   0.000   0.000  -0.000
 -0.000   0.000   0.000  -1.059   0.000  -0.000  -0.000   0.000   0.353   0.000  -0.000   0.000   0.000   0.000  -0.000  -0.000
 -0.000  -0.000   0.000   0.000  -0.936  -0.000  -0.000   0.000   0.000   0.233  -0.000   0.000   0.000  -0.000  -0.000  -0.000
 -0.000   0.000   0.015   0.000   0.000   0.000   0.000   0.095   0.000  -0.000  -0.190   0.081  -0.000   0.000   0.000   0.000
  0.000  -0.000   0.141   0.000  -0.000  -0.000   0.000  -0.080   0.000   0.000   0.081   0.002   0.000   0.000   0.000   0.000
 -0.000   0.000  -0.000   0.000  -0.000   0.000  -0.000   0.000   0.000   0.000   0.000   0.000  -0.025  -0.000   0.000   0.003
 -0.000  -0.000   0.000   0.000  -0.000   0.000  -0.000   0.000   0.000  -0.000   0.000   0.000  -0.000  -0.017   0.000  -0.000
 -0.000   0.000   0.000   0.000   0.000   0.000   0.000   0.000  -0.000  -0.000  -0.000   0.000   0.000  -0.000  -0.025   0.000
  0.000  -0.000   0.000   0.000   0.000  -0.000   0.000  -0.000   0.000  -0.000  -0.000  -0.000   0.003   0.000   0.000  -0.000
  0.000   0.000   0.000   0.000   0.000   0.000   0.000   0.000   0.000   0.000   0.000   0.000   0.000   0.001  -0.000  -0.000
  0.000   0.000   0.000   0.000  -0.000  -0.000  -0.000   0.000   0.000  -0.000   0.000   0.000   0.000   0.000   0.003   0.000


------------------------ aborting loop because EDIFF is reached ----------------------------------------


    CHARGE:  cpu time      0.0233: real time      0.0234
    FORLOC:  cpu time      0.0003: real time      0.0003
    FORNL :  cpu time      0.0105: real time      0.0105
    STRESS:  cpu time      0.0288: real time      0.0289
    FORCOR:  cpu time      0.0070: real time      0.0071
    FORHAR:  cpu time      0.0007: real time      0.0007
    MIXING:  cpu time      0.0004: real time      0.0004
    OFIELD:  cpu time      0.0000: real time      0.0000

  FORCE on cell =-STRESS in cart. coord.  units (eV):
  Direction    XX          YY          ZZ          XY          YZ          ZX
  --------------------------------------------------------------------------------------
  Alpha Z    39.63868    39.63868    39.63868
  Ewald     -59.61202   -59.61202  -935.34508    -0.00000     0.00000     0.00000
  Hartree   385.12096   385.12096  -203.72852    -0.00000    -0.00000    -0.00000
  E(xc)     -91.03634   -91.03634   -91.11830     0.00000    -0.00000    -0.00000
  Local    -727.54791  -727.54803   748.17666    -0.00010    -0.00000     0.00000
  n-local    -8.57522    -8.62909   -14.68669    -9.22472    -0.00408    -0.00827
  augment   314.09900   314.09912   307.92623     0.00011    -0.00000    -0.00000
  Kinetic   148.94158   141.06973   147.78780    10.14791     0.00823     0.05398
  Fock        0.00000     0.00000     0.00000     0.00000     0.00000     0.00000
  -------------------------------------------------------------------------------------
  Total      -2.93411    -2.93411    -1.34922     0.00000    -0.00000     0.00000
  in kB    -109.97998  -109.97998   -50.57314     0.00000    -0.00000     0.00000
  external pressure =      -90.18 kB  Pullay stress =        0.00 kB


 VOLUME and BASIS-vectors are now :
 -----------------------------------------------------------------------------
  energy-cutoff  :      400.00
  volume of cell :       42.74
      direct lattice vectors                 reciprocal lattice vectors
     2.470000000  0.000000000  0.000000000     0.404858300  0.233745048  0.000000000
    -1.235000000  2.139082747  0.000000000     0.000000000  0.467490097  0.000000000
     0.000000000  0.000000000  8.090000000     0.000000000  0.000000000  0.123609394

  length of vectors
     2.470000000  2.470000000  8.090000000     0.467490097  0.467490097  0.123609394


 FORCES acting on ions
    electron-ion (+dipol)            ewald-force                    non-local-force                 convergence-correction
 -----------------------------------------------------------------------------------------------
   -.480E-05 0.277E-05 0.154E-13   -.208E-13 0.254E-14 -.503E-13   0.542E-18 0.217E-18 0.000E+00   0.619E-10 -.357E-10 -.992E-13
   -.382E-05 0.220E-05 -.724E-12   -.268E-13 0.108E-13 0.503E-13   -.325E-18 -.217E-18 0.000E+00   -.845E-10 0.488E-10 0.137E-12
 -----------------------------------------------------------------------------------------------
   -.862E-05 0.498E-05 -.709E-12   -.476E-13 0.133E-13 0.000E+00   0.217E-18 0.000E+00 0.000E+00   -.225E-10 0.130E-10 0.378E-13
 
 
 POSITION                                       TOTAL-FORCE (eV/Angst)
 -----------------------------------------------------------------------------------
      0.00000      0.00000      0.00000        -0.000000      0.000000      0.000000
      0.00000      1.42606      4.04500         0.000000      0.000000      0.000000
 -----------------------------------------------------------------------------------
    total drift:                               -0.000009      0.000005     -0.000000


--------------------------------------------------------------------------------------------------------



  FREE ENERGIE OF THE ION-ELECTRON SYSTEM (eV)
  ---------------------------------------------------
  free  energy   TOTEN  =       -11.23784277 eV

  energy  without entropy=      -11.23328185  energy(sigma->0) =      -11.23632246
 


--------------------------------------------------------------------------------------------------------


    POTLOK:  cpu time      0.0125: real time      0.0126


--------------------------------------------------------------------------------------------------------


     LOOP+:  cpu time      3.1096: real time      3.1320
    4ORBIT:  cpu time      0.0000: real time      0.0000

 total amount of memory used by VASP MPI-rank0    31824. kBytes
=======================================================================

   base      :      30000. kBytes
   nonl-proj :        391. kBytes
   fftplans  :        292. kBytes
   grid      :        713. kBytes
   one-center:         31. kBytes
   wavefun   :        397. kBytes
 
  
  
 General timing and accounting informations for this job:
 ========================================================
  
                  Total CPU time used (sec):        3.825
                            User time (sec):        3.354
                          System time (sec):        0.471
                         Elapsed time (sec):        5.182
  
                   Maximum memory used (kb):      223152.
                   Average memory used (kb):          N/A
  
                          Minor page faults:        19616
                          Major page faults:           64
                 Voluntary context switches:         2153
