   2   2   1   0
  0.1147457E+02  0.2542121E-09  0.2542121E-09  0.4100562E-09  0.5000000E-15
  1.000000000000000E-004
  CAR 
 Co-hcc                                  
     48.56137184     -1.37738722  301      9.44850461      1.00000000
     -1.377  0.0000E+00  0.0000E+00  0.0000E+00  0.0000E+00
     -1.211  0.0000E+00  0.0000E+00  0.0000E+00  0.0000E+00
     -1.044  0.0000E+00  0.0000E+00  0.0000E+00  0.0000E+00
     -0.878  0.0000E+00  0.0000E+00  0.0000E+00  0.0000E+00
     -0.712  0.0000E+00  0.0000E+00  0.0000E+00  0.0000E+00
     -0.545  0.0000E+00  0.0000E+00  0.0000E+00  0.0000E+00
     -0.379  0.0000E+00  0.0000E+00  0.0000E+00  0.0000E+00
     -0.212  0.0000E+00  0.0000E+00  0.0000E+00  0.0000E+00
     -0.046  0.0000E+00  0.0000E+00  0.0000E+00  0.0000E+00
      0.121  0.0000E+00  0.0000E+00  0.0000E+00  0.0000E+00
      0.287  0.0000E+00  0.0000E+00  0.0000E+00  0.0000E+00
      0.454  0.0000E+00  0.0000E+00  0.0000E+00  0.0000E+00
      0.620  0.1042E-18  0.3416E-18  0.1735E-19  0.5686E-19
      0.787  0.4288E-07  0.7128E-07  0.7138E-08  0.1187E-07
      0.953  0.4934E-04  0.5031E-04  0.8221E-05  0.8386E-05
      1.120  0.2229E-03  0.2383E-03  0.4533E-04  0.4805E-04
      1.286  0.5521E-03  0.5616E-03  0.1372E-03  0.1415E-03
      1.452  0.2829E-03  0.2580E-03  0.1843E-03  0.1845E-03
      1.619  0.3550E-03  0.3565E-03  0.2434E-03  0.2438E-03
      1.785  0.1340E-02  0.1330E-02  0.4665E-03  0.4651E-03
      1.952  0.6287E-03  0.6044E-03  0.5712E-03  0.5658E-03
      2.118  0.3797E-03  0.3796E-03  0.6344E-03  0.6289E-03
      2.285  0.6322E-03  0.6562E-03  0.7396E-03  0.7382E-03
      2.451  0.1542E-02  0.1354E-02  0.9962E-03  0.9635E-03
      2.618  0.1453E-02  0.1458E-02  0.1238E-02  0.1206E-02
      2.784  0.2665E-03  0.3426E-03  0.1282E-02  0.1263E-02
      2.951  0.1781E-02  0.1119E-02  0.1579E-02  0.1449E-02
      3.117  0.1613E-02  0.2312E-02  0.1848E-02  0.1834E-02
      3.284  0.6983E-03  0.1271E-03  0.1964E-02  0.1855E-02
      3.450  0.8669E-03  0.1285E-02  0.2108E-02  0.2069E-02
      3.616  0.2901E-02  0.1350E-02  0.2591E-02  0.2294E-02
      3.783  0.1908E-02  0.2905E-02  0.2909E-02  0.2778E-02
      3.949  0.2806E-02  0.1482E-02  0.3376E-02  0.3024E-02
      4.116  0.1501E-02  0.1824E-02  0.3626E-02  0.3328E-02
      4.282  0.2663E-02  0.1187E-02  0.4069E-02  0.3526E-02
      4.449  0.2855E-02  0.1674E-02  0.4544E-02  0.3804E-02
      4.615  0.8118E-02  0.2419E-02  0.5896E-02  0.4207E-02
      4.782  0.1040E-01  0.2834E-02  0.7627E-02  0.4679E-02
      4.948  0.9041E-02  0.2569E-02  0.9132E-02  0.5106E-02
      5.115  0.1656E-01  0.2866E-02  0.1189E-01  0.5584E-02
      5.281  0.1282E-01  0.3831E-02  0.1402E-01  0.6221E-02
      5.448  0.2349E-01  0.5241E-02  0.1793E-01  0.7094E-02
      5.614  0.1616E-01  0.2683E-02  0.2062E-01  0.7540E-02
      5.781  0.1775E-01  0.7804E-02  0.2358E-01  0.8839E-02
      5.947  0.1843E-01  0.1071E-01  0.2664E-01  0.1062E-01
      6.113  0.2258E-01  0.7540E-02  0.3040E-01  0.1188E-01
      6.280  0.2371E-01  0.8151E-02  0.3435E-01  0.1323E-01
      6.446  0.1918E-01  0.1135E-01  0.3754E-01  0.1512E-01
      6.613  0.1237E-01  0.1412E-01  0.3960E-01  0.1747E-01
      6.779  0.3082E-01  0.1405E-01  0.4473E-01  0.1981E-01
      6.946  0.3144E-01  0.1335E-01  0.4997E-01  0.2204E-01
      7.112  0.3165E-01  0.1428E-01  0.5524E-01  0.2441E-01
      7.279  0.3246E-01  0.1500E-01  0.6064E-01  0.2691E-01
      7.445  0.3230E-01  0.2006E-01  0.6602E-01  0.3025E-01
      7.612  0.2657E-01  0.2290E-01  0.7044E-01  0.3406E-01
      7.778  0.1866E-01  0.1609E-01  0.7354E-01  0.3674E-01
      7.945  0.2499E-01  0.9875E-02  0.7770E-01  0.3838E-01
      8.111  0.1468E-01  0.8657E-02  0.8015E-01  0.3982E-01
      8.277  0.2206E-01  0.2181E-01  0.8382E-01  0.4345E-01
      8.444  0.2891E-01  0.2470E-01  0.8863E-01  0.4757E-01
      8.610  0.3996E-01  0.2844E-01  0.9528E-01  0.5230E-01
      8.777  0.4879E-01  0.2664E-01  0.1034E+00  0.5673E-01
      8.943  0.6542E-02  0.3198E-01  0.1045E+00  0.6206E-01
      9.110  0.1637E-02  0.2896E-01  0.1048E+00  0.6688E-01
      9.276  0.7353E-02  0.1735E-01  0.1060E+00  0.6977E-01
      9.443  0.4767E-02  0.1996E-01  0.1068E+00  0.7309E-01
      9.609  0.2842E-02  0.1195E-01  0.1073E+00  0.7508E-01
      9.776  0.1078E-02  0.2053E-01  0.1074E+00  0.7850E-01
      9.942  0.1006E-02  0.1129E-01  0.1076E+00  0.8038E-01
     10.109  0.1187E-02  0.1616E-01  0.1078E+00  0.8307E-01
     10.275  0.3263E-02  0.2565E-01  0.1083E+00  0.8734E-01
     10.441  0.7464E-02  0.2700E-01  0.1096E+00  0.9183E-01
     10.608  0.4031E-02  0.4201E-01  0.1103E+00  0.9882E-01
     10.774  0.2165E-02  0.3533E-01  0.1106E+00  0.1047E+00
     10.941  0.1789E-02  0.9811E-02  0.1109E+00  0.1063E+00
     11.107  0.1552E-02  0.4455E-02  0.1112E+00  0.1071E+00
     11.274  0.2702E-02  0.3523E-02  0.1116E+00  0.1077E+00
     11.440  0.1738E-02  0.3262E-02  0.1119E+00  0.1082E+00
     11.607  0.2785E-02  0.4401E-02  0.1124E+00  0.1089E+00
     11.773  0.2979E-02  0.4336E-02  0.1129E+00  0.1097E+00
     11.940  0.1195E-02  0.5029E-02  0.1131E+00  0.1105E+00
     12.106  0.4705E-02  0.3840E-02  0.1139E+00  0.1111E+00
     12.273  0.1010E-02  0.3093E-02  0.1140E+00  0.1117E+00
     12.439  0.1532E-02  0.2608E-02  0.1143E+00  0.1121E+00
     12.605  0.2511E-02  0.1323E-02  0.1147E+00  0.1123E+00
     12.772  0.4216E-02  0.4590E-02  0.1154E+00  0.1131E+00
     12.938  0.3011E-02  0.1445E-02  0.1159E+00  0.1133E+00
     13.105  0.2241E-02  0.3360E-02  0.1163E+00  0.1139E+00
     13.271  0.2122E-02  0.1476E-02  0.1166E+00  0.1141E+00
     13.438  0.2341E-02  0.3454E-02  0.1170E+00  0.1147E+00
     13.604  0.3851E-03  0.4368E-02  0.1171E+00  0.1154E+00
     13.771  0.1616E-02  0.2877E-02  0.1173E+00  0.1159E+00
     13.937  0.1392E-02  0.1163E-02  0.1176E+00  0.1161E+00
     14.104  0.1173E-02  0.2605E-02  0.1178E+00  0.1165E+00
     14.270  0.1038E-02  0.3194E-02  0.1179E+00  0.1171E+00
     14.437  0.3325E-02  0.1486E-02  0.1185E+00  0.1173E+00
     14.603  0.4036E-02  0.1373E-02  0.1192E+00  0.1175E+00
     14.769  0.1674E-02  0.1466E-02  0.1195E+00  0.1178E+00
     14.936  0.1269E-02  0.7574E-03  0.1197E+00  0.1179E+00
     15.102  0.3537E-04  0.1974E-02  0.1197E+00  0.1182E+00
     15.269  0.1159E-05  0.4974E-02  0.1197E+00  0.1191E+00
     15.435  0.4854E-03  0.2227E-02  0.1198E+00  0.1194E+00
     15.602  0.1550E-02  0.1158E-02  0.1200E+00  0.1196E+00
     15.768  0.9593E-03  0.2824E-03  0.1202E+00  0.1197E+00
     15.935  0.6719E-03  0.4294E-09  0.1203E+00  0.1197E+00
     16.101  0.3488E-03  0.7145E-04  0.1203E+00  0.1197E+00
     16.268  0.1327E-02  0.1426E-02  0.1206E+00  0.1199E+00
     16.434  0.2845E-02  0.5025E-03  0.1210E+00  0.1200E+00
     16.601  0.2545E-02  0.8489E-03  0.1215E+00  0.1201E+00
     16.767  0.9387E-02  0.1158E-02  0.1230E+00  0.1203E+00
     16.933  0.3306E-02  0.1021E-02  0.1236E+00  0.1205E+00
     17.100  0.2170E-02  0.6446E-03  0.1239E+00  0.1206E+00
     17.266  0.4506E-02  0.3525E-02  0.1247E+00  0.1212E+00
     17.433  0.3235E-02  0.7213E-02  0.1252E+00  0.1224E+00
     17.599  0.3733E-02  0.5340E-02  0.1258E+00  0.1233E+00
     17.766  0.1754E-02  0.3056E-02  0.1261E+00  0.1238E+00
     17.932  0.4459E-02  0.4846E-02  0.1269E+00  0.1246E+00
     18.099  0.2545E-02  0.3100E-02  0.1273E+00  0.1251E+00
     18.265  0.2641E-02  0.4664E-02  0.1277E+00  0.1259E+00
     18.432  0.3576E-02  0.2793E-02  0.1283E+00  0.1264E+00
     18.598  0.2979E-02  0.3084E-02  0.1288E+00  0.1269E+00
     18.765  0.2097E-02  0.3881E-02  0.1292E+00  0.1275E+00
     18.931  0.5760E-02  0.2868E-02  0.1301E+00  0.1280E+00
     19.098  0.4637E-02  0.3393E-02  0.1309E+00  0.1286E+00
     19.264  0.1428E-02  0.3282E-02  0.1311E+00  0.1291E+00
     19.430  0.6737E-02  0.2692E-02  0.1323E+00  0.1296E+00
     19.597  0.1661E-02  0.5563E-02  0.1325E+00  0.1305E+00
     19.763  0.4292E-02  0.5021E-02  0.1333E+00  0.1313E+00
     19.930  0.5662E-02  0.5223E-02  0.1342E+00  0.1322E+00
     20.096  0.3248E-02  0.2155E-02  0.1347E+00  0.1325E+00
     20.263  0.2955E-02  0.3912E-02  0.1352E+00  0.1332E+00
     20.429  0.2008E-02  0.6401E-02  0.1356E+00  0.1343E+00
     20.596  0.3164E-02  0.2912E-02  0.1361E+00  0.1348E+00
     20.762  0.6412E-02  0.3655E-02  0.1372E+00  0.1354E+00
     20.929  0.2182E-02  0.2653E-02  0.1375E+00  0.1358E+00
     21.095  0.3514E-02  0.3167E-02  0.1381E+00  0.1363E+00
     21.262  0.1279E-02  0.6161E-02  0.1383E+00  0.1374E+00
     21.428  0.2982E-02  0.1108E-02  0.1388E+00  0.1375E+00
     21.594  0.3362E-02  0.3931E-02  0.1394E+00  0.1382E+00
     21.761  0.1502E-02  0.1323E-02  0.1396E+00  0.1384E+00
     21.927  0.2026E-02  0.3458E-02  0.1400E+00  0.1390E+00
     22.094  0.4309E-02  0.2856E-02  0.1407E+00  0.1395E+00
     22.260  0.5066E-02  0.1439E-02  0.1415E+00  0.1397E+00
     22.427  0.2896E-02  0.2998E-02  0.1420E+00  0.1402E+00
     22.593  0.9277E-03  0.6177E-02  0.1422E+00  0.1412E+00
     22.760  0.2343E-02  0.2455E-02  0.1426E+00  0.1416E+00
     22.926  0.6960E-02  0.2563E-02  0.1437E+00  0.1421E+00
     23.093  0.4060E-02  0.1458E-02  0.1444E+00  0.1423E+00
     23.259  0.7241E-03  0.5138E-02  0.1445E+00  0.1432E+00
     23.426  0.4514E-02  0.5919E-02  0.1453E+00  0.1441E+00
     23.592  0.3772E-02  0.1666E-02  0.1459E+00  0.1444E+00
     23.758  0.3002E-02  0.2702E-02  0.1464E+00  0.1449E+00
     23.925  0.5443E-02  0.4487E-02  0.1473E+00  0.1456E+00
     24.091  0.4421E-02  0.3948E-02  0.1480E+00  0.1463E+00
     24.258  0.3989E-02  0.5497E-02  0.1487E+00  0.1472E+00
     24.424  0.7569E-02  0.4310E-02  0.1500E+00  0.1479E+00
     24.591  0.4131E-02  0.4112E-02  0.1506E+00  0.1486E+00
     24.757  0.3323E-02  0.7125E-02  0.1512E+00  0.1498E+00
     24.924  0.1799E-02  0.4656E-02  0.1515E+00  0.1506E+00
     25.090  0.4728E-02  0.2903E-02  0.1523E+00  0.1510E+00
     25.257  0.5060E-02  0.3020E-02  0.1531E+00  0.1515E+00
     25.423  0.1906E-02  0.5240E-02  0.1534E+00  0.1524E+00
     25.590  0.5484E-02  0.5230E-02  0.1544E+00  0.1533E+00
     25.756  0.7419E-02  0.9081E-03  0.1556E+00  0.1534E+00
     25.922  0.3344E-02  0.6253E-02  0.1561E+00  0.1545E+00
     26.089  0.3380E-02  0.6864E-02  0.1567E+00  0.1556E+00
     26.255  0.4704E-02  0.3969E-02  0.1575E+00  0.1563E+00
     26.422  0.5303E-02  0.2802E-02  0.1584E+00  0.1567E+00
     26.588  0.1996E-02  0.6387E-02  0.1587E+00  0.1578E+00
     26.755  0.4699E-02  0.4209E-02  0.1595E+00  0.1585E+00
     26.921  0.3510E-02  0.4041E-02  0.1601E+00  0.1592E+00
     27.088  0.3450E-02  0.2595E-02  0.1606E+00  0.1596E+00
     27.254  0.4427E-02  0.4220E-02  0.1614E+00  0.1603E+00
     27.421  0.3725E-02  0.3444E-02  0.1620E+00  0.1609E+00
     27.587  0.5311E-02  0.3853E-02  0.1629E+00  0.1615E+00
     27.754  0.3670E-02  0.5922E-02  0.1635E+00  0.1625E+00
     27.920  0.4099E-02  0.4522E-02  0.1642E+00  0.1633E+00
     28.086  0.7840E-02  0.4237E-02  0.1655E+00  0.1640E+00
     28.253  0.2399E-02  0.5036E-02  0.1659E+00  0.1648E+00
     28.419  0.3435E-02  0.5906E-02  0.1665E+00  0.1658E+00
     28.586  0.4809E-02  0.2665E-02  0.1673E+00  0.1662E+00
     28.752  0.4678E-02  0.4569E-02  0.1680E+00  0.1670E+00
     28.919  0.2211E-02  0.4350E-02  0.1684E+00  0.1677E+00
     29.085  0.5573E-02  0.4038E-02  0.1693E+00  0.1684E+00
     29.252  0.3415E-02  0.5835E-02  0.1699E+00  0.1694E+00
     29.418  0.5395E-02  0.2963E-02  0.1708E+00  0.1699E+00
     29.585  0.2533E-02  0.2886E-02  0.1712E+00  0.1703E+00
     29.751  0.3052E-02  0.5441E-02  0.1717E+00  0.1713E+00
     29.918  0.1688E-02  0.2644E-02  0.1720E+00  0.1717E+00
     30.084  0.7083E-02  0.2593E-02  0.1732E+00  0.1721E+00
     30.250  0.5816E-02  0.4998E-02  0.1742E+00  0.1730E+00
     30.417  0.5547E-02  0.6662E-02  0.1751E+00  0.1741E+00
     30.583  0.4696E-02  0.6006E-02  0.1759E+00  0.1751E+00
     30.750  0.3269E-02  0.3822E-02  0.1764E+00  0.1757E+00
     30.916  0.4163E-02  0.2179E-02  0.1771E+00  0.1761E+00
     31.083  0.4617E-02  0.5901E-02  0.1779E+00  0.1770E+00
     31.249  0.5732E-02  0.4675E-02  0.1788E+00  0.1778E+00
     31.416  0.5373E-02  0.6095E-02  0.1797E+00  0.1788E+00
     31.582  0.4241E-02  0.4931E-02  0.1804E+00  0.1797E+00
     31.749  0.1982E-02  0.4578E-02  0.1808E+00  0.1804E+00
     31.915  0.1471E-02  0.1539E-02  0.1810E+00  0.1807E+00
     32.082  0.2439E-02  0.1211E-02  0.1814E+00  0.1809E+00
     32.248  0.5986E-02  0.4809E-02  0.1824E+00  0.1817E+00
     32.415  0.6912E-02  0.4284E-02  0.1836E+00  0.1824E+00
     32.581  0.5995E-02  0.4252E-02  0.1845E+00  0.1831E+00
     32.747  0.8374E-02  0.5125E-02  0.1859E+00  0.1840E+00
     32.914  0.5445E-02  0.8456E-02  0.1868E+00  0.1854E+00
     33.080  0.4092E-02  0.9618E-02  0.1875E+00  0.1870E+00
     33.247  0.4990E-02  0.3938E-02  0.1884E+00  0.1876E+00
     33.413  0.5068E-02  0.3657E-02  0.1892E+00  0.1882E+00
     33.580  0.4866E-02  0.4524E-02  0.1900E+00  0.1890E+00
     33.746  0.3390E-02  0.5672E-02  0.1906E+00  0.1899E+00
     33.913  0.3208E-02  0.5069E-02  0.1911E+00  0.1908E+00
     34.079  0.2982E-02  0.2621E-02  0.1916E+00  0.1912E+00
     34.246  0.1444E-02  0.3451E-02  0.1918E+00  0.1918E+00
     34.412  0.6117E-02  0.1115E-02  0.1929E+00  0.1920E+00
     34.579  0.3828E-02  0.4736E-02  0.1935E+00  0.1928E+00
     34.745  0.2619E-02  0.4106E-02  0.1939E+00  0.1934E+00
     34.911  0.3633E-02  0.2032E-02  0.1945E+00  0.1938E+00
     35.078  0.6657E-02  0.4458E-02  0.1957E+00  0.1945E+00
     35.244  0.7002E-02  0.5650E-02  0.1968E+00  0.1955E+00
     35.411  0.4818E-02  0.5807E-02  0.1976E+00  0.1964E+00
     35.577  0.2242E-02  0.6070E-02  0.1980E+00  0.1974E+00
     35.744  0.3732E-02  0.2666E-02  0.1986E+00  0.1979E+00
     35.910  0.4295E-02  0.1843E-02  0.1993E+00  0.1982E+00
     36.077  0.5854E-02  0.7802E-02  0.2003E+00  0.1995E+00
     36.243  0.4961E-02  0.3867E-02  0.2011E+00  0.2001E+00
     36.410  0.3599E-02  0.5180E-02  0.2017E+00  0.2010E+00
     36.576  0.2939E-02  0.4326E-02  0.2022E+00  0.2017E+00
     36.743  0.6114E-02  0.2331E-02  0.2032E+00  0.2021E+00
     36.909  0.8180E-02  0.4202E-02  0.2046E+00  0.2028E+00
     37.075  0.2800E-02  0.8901E-02  0.2051E+00  0.2043E+00
     37.242  0.3818E-02  0.4985E-02  0.2057E+00  0.2051E+00
     37.408  0.2728E-02  0.3180E-02  0.2062E+00  0.2056E+00
     37.575  0.3810E-02  0.3490E-02  0.2068E+00  0.2062E+00
     37.741  0.2988E-02  0.3936E-02  0.2073E+00  0.2069E+00
     37.908  0.5320E-02  0.4013E-02  0.2082E+00  0.2075E+00
     38.074  0.5988E-02  0.1725E-02  0.2092E+00  0.2078E+00
     38.241  0.5262E-02  0.6312E-02  0.2100E+00  0.2089E+00
     38.407  0.6060E-02  0.6484E-02  0.2111E+00  0.2100E+00
     38.574  0.5781E-02  0.5868E-02  0.2120E+00  0.2109E+00
     38.740  0.5107E-02  0.5999E-02  0.2129E+00  0.2119E+00
     38.907  0.7118E-02  0.6489E-02  0.2141E+00  0.2130E+00
     39.073  0.2048E-02  0.5578E-02  0.2144E+00  0.2139E+00
     39.239  0.3757E-02  0.2823E-02  0.2150E+00  0.2144E+00
     39.406  0.5354E-02  0.3895E-02  0.2159E+00  0.2151E+00
     39.572  0.6224E-02  0.6029E-02  0.2169E+00  0.2161E+00
     39.739  0.3199E-02  0.4758E-02  0.2175E+00  0.2169E+00
     39.905  0.2034E-02  0.3860E-02  0.2178E+00  0.2175E+00
     40.072  0.1249E-02  0.2654E-02  0.2180E+00  0.2179E+00
     40.238  0.4593E-02  0.1011E-02  0.2188E+00  0.2181E+00
     40.405  0.6674E-02  0.4611E-02  0.2199E+00  0.2189E+00
     40.571  0.6688E-02  0.4843E-02  0.2210E+00  0.2197E+00
     40.738  0.8962E-02  0.5963E-02  0.2225E+00  0.2207E+00
     40.904  0.4749E-02  0.5866E-02  0.2233E+00  0.2217E+00
     41.071  0.4556E-02  0.8569E-02  0.2241E+00  0.2231E+00
     41.237  0.6231E-02  0.7038E-02  0.2251E+00  0.2243E+00
     41.403  0.4811E-02  0.3626E-02  0.2259E+00  0.2249E+00
     41.570  0.3482E-02  0.4503E-02  0.2265E+00  0.2256E+00
     41.736  0.4663E-02  0.4668E-02  0.2272E+00  0.2264E+00
     41.903  0.3223E-02  0.5546E-02  0.2278E+00  0.2273E+00
     42.069  0.5787E-02  0.3724E-02  0.2287E+00  0.2279E+00
     42.236  0.7111E-02  0.5311E-02  0.2299E+00  0.2288E+00
     42.402  0.4890E-02  0.5538E-02  0.2307E+00  0.2297E+00
     42.569  0.2737E-02  0.7261E-02  0.2312E+00  0.2309E+00
     42.735  0.3958E-02  0.8026E-03  0.2319E+00  0.2311E+00
     42.902  0.4271E-02  0.6460E-03  0.2326E+00  0.2312E+00
     43.068  0.3054E-02  0.7293E-02  0.2331E+00  0.2324E+00
     43.235  0.5190E-02  0.4609E-02  0.2339E+00  0.2332E+00
     43.401  0.1755E-02  0.2460E-02  0.2342E+00  0.2336E+00
     43.567  0.1179E-02  0.3857E-02  0.2344E+00  0.2342E+00
     43.734  0.3914E-02  0.3069E-02  0.2351E+00  0.2347E+00
     43.900  0.1241E-02  0.1105E-02  0.2353E+00  0.2349E+00
     44.067  0.4990E-02  0.1358E-02  0.2361E+00  0.2351E+00
     44.233  0.3969E-02  0.3238E-02  0.2368E+00  0.2357E+00
     44.400  0.5817E-02  0.5393E-02  0.2377E+00  0.2366E+00
     44.566  0.2894E-02  0.6093E-02  0.2382E+00  0.2376E+00
     44.733  0.2734E-02  0.1307E-02  0.2387E+00  0.2378E+00
     44.899  0.2060E-02  0.3214E-02  0.2390E+00  0.2383E+00
     45.066  0.1413E-02  0.2262E-02  0.2393E+00  0.2387E+00
     45.232  0.8118E-03  0.1650E-02  0.2394E+00  0.2390E+00
     45.399  0.1761E-02  0.1325E-02  0.2397E+00  0.2392E+00
     45.565  0.3199E-03  0.1367E-02  0.2397E+00  0.2394E+00
     45.732  0.4800E-03  0.1663E-02  0.2398E+00  0.2397E+00
     45.898  0.1466E-03  0.4776E-03  0.2398E+00  0.2398E+00
     46.064  0.4876E-03  0.3354E-03  0.2399E+00  0.2398E+00
     46.231  0.4165E-03  0.3179E-03  0.2400E+00  0.2399E+00
     46.397  0.6585E-06  0.5977E-03  0.2400E+00  0.2400E+00
     46.564  0.0000E+00  0.8554E-06  0.2400E+00  0.2400E+00
     46.730  0.0000E+00  0.0000E+00  0.2400E+00  0.2400E+00
     46.897  0.0000E+00  0.0000E+00  0.2400E+00  0.2400E+00
     47.063  0.0000E+00  0.0000E+00  0.2400E+00  0.2400E+00
     47.230  0.0000E+00  0.0000E+00  0.2400E+00  0.2400E+00
     47.396  0.0000E+00  0.0000E+00  0.2400E+00  0.2400E+00
     47.563  0.0000E+00  0.0000E+00  0.2400E+00  0.2400E+00
     47.729  0.0000E+00  0.0000E+00  0.2400E+00  0.2400E+00
     47.896  0.0000E+00  0.0000E+00  0.2400E+00  0.2400E+00
     48.062  0.0000E+00  0.0000E+00  0.2400E+00  0.2400E+00
     48.228  0.0000E+00  0.0000E+00  0.2400E+00  0.2400E+00
     48.395  0.0000E+00  0.0000E+00  0.2400E+00  0.2400E+00
     48.561  0.0000E+00  0.0000E+00  0.2400E+00  0.2400E+00
     48.56137184     -1.37738722  301      9.44850461      1.00000000
     -1.377  0.0000E+00  0.0000E+00  0.0000E+00  0.0000E+00  0.0000E+00  0.0000E+00  0.0000E+00  0.0000E+00  0.0000E+00  0.0000E+00  0.0000E+00  0.0000E+00  0.0000E+00  0.0000E+00  0.0000E+00  0.0000E+00  0.0000E+00  0.0000E+00
     -1.211  0.0000E+00  0.0000E+00  0.0000E+00  0.0000E+00  0.0000E+00  0.0000E+00  0.0000E+00  0.0000E+00  0.0000E+00  0.0000E+00  0.0000E+00  0.0000E+00  0.0000E+00  0.0000E+00  0.0000E+00  0.0000E+00  0.0000E+00  0.0000E+00
     -1.044  0.0000E+00  0.0000E+00  0.0000E+00  0.0000E+00  0.0000E+00  0.0000E+00  0.0000E+00  0.0000E+00  0.0000E+00  0.0000E+00  0.0000E+00  0.0000E+00  0.0000E+00  0.0000E+00  0.0000E+00  0.0000E+00  0.0000E+00  0.0000E+00
     -0.878  0.0000E+00  0.0000E+00  0.0000E+00  0.0000E+00  0.0000E+00  0.0000E+00  0.0000E+00  0.0000E+00  0.0000E+00  0.0000E+00  0.0000E+00  0.0000E+00  0.0000E+00  0.0000E+00  0.0000E+00  0.0000E+00  0.0000E+00  0.0000E+00
     -0.712  0.0000E+00  0.0000E+00  0.0000E+00  0.0000E+00  0.0000E+00  0.0000E+00  0.0000E+00  0.0000E+00  0.0000E+00  0.0000E+00  0.0000E+00  0.0000E+00  0.0000E+00  0.0000E+00  0.0000E+00  0.0000E+00  0.0000E+00  0.0000E+00
     -0.545  0.0000E+00  0.0000E+00  0.0000E+00  0.0000E+00  0.0000E+00  0.0000E+00  0.0000E+00  0.0000E+00  0.0000E+00  0.0000E+00  0.0000E+00  0.0000E+00  0.0000E+00  0.0000E+00  0.0000E+00  0.0000E+00  0.0000E+00  0.0000E+00
     -0.379  0.0000E+00  0.0000E+00  0.0000E+00  0.0000E+00  0.0000E+00  0.0000E+00  0.0000E+00  0.0000E+00  0.0000E+00  0.0000E+00  0.0000E+00  0.0000E+00  0.0000E+00  0.0000E+00  0.0000E+00  0.0000E+00  0.0000E+00  0.0000E+00
     -0.212  0.0000E+00  0.0000E+00  0.0000E+00  0.0000E+00  0.0000E+00  0.0000E+00  0.0000E+00  0.0000E+00  0.0000E+00  0.0000E+00  0.0000E+00  0.0000E+00  0.0000E+00  0.0000E+00  0.0000E+00  0.0000E+00  0.0000E+00  0.0000E+00
     -0.046  0.0000E+00  0.0000E+00  0.0000E+00  0.0000E+00  0.0000E+00  0.0000E+00  0.0000E+00  0.0000E+00  0.0000E+00  0.0000E+00  0.0000E+00  0.0000E+00  0.0000E+00  0.0000E+00  0.0000E+00  0.0000E+00  0.0000E+00  0.0000E+00
      0.121  0.0000E+00  0.0000E+00  0.0000E+00  0.0000E+00  0.0000E+00  0.0000E+00  0.0000E+00  0.0000E+00  0.0000E+00  0.0000E+00  0.0000E+00  0.0000E+00  0.0000E+00  0.0000E+00  0.0000E+00  0.0000E+00  0.0000E+00  0.0000E+00
      0.287  0.0000E+00  0.0000E+00  0.0000E+00  0.0000E+00  0.0000E+00  0.0000E+00  0.0000E+00  0.0000E+00  0.0000E+00  0.0000E+00  0.0000E+00  0.0000E+00  0.0000E+00  0.0000E+00  0.0000E+00  0.0000E+00  0.0000E+00  0.0000E+00
      0.454  0.0000E+00  0.0000E+00  0.0000E+00  0.0000E+00  0.0000E+00  0.0000E+00  0.0000E+00  0.0000E+00  0.0000E+00  0.0000E+00  0.0000E+00  0.0000E+00  0.0000E+00  0.0000E+00  0.0000E+00  0.0000E+00  0.0000E+00  0.0000E+00
      0.620  0.3544E-17  0.1158E-16  0.1935E-33  0.1075E-31  0.1477E-32  0.1013E-29  0.1935E-33  0.1075E-31  0.8834E-32  0.6111E-30  0.1911E-35  0.5893E-34  0.2579E-22  0.1369E-21  0.1911E-35  0.5893E-34  0.8834E-32  0.6111E-30
      0.787  0.1458E-05  0.2417E-05  0.7961E-22  0.2243E-20  0.2627E-17  0.7597E-17  0.7961E-22  0.2243E-20  0.3635E-20  0.1275E-18  0.7862E-24  0.1230E-22  0.1061E-10  0.2857E-10  0.7862E-24  0.1230E-22  0.3635E-20  0.1275E-18
      0.953  0.1678E-02  0.1706E-02  0.3032E-10  0.5915E-10  0.1620E-06  0.2447E-06  0.3032E-10  0.5915E-10  0.5697E-12  0.7917E-12  0.9025E-21  0.9643E-20  0.1392E-07  0.2150E-07  0.9025E-21  0.9643E-20  0.5697E-12  0.7917E-12
      1.120  0.7444E-02  0.7930E-02  0.4401E-04  0.5002E-04  0.4956E-04  0.5009E-04  0.4401E-04  0.5002E-04  0.8268E-06  0.6695E-06  0.2849E-10  0.3395E-10  0.1406E-05  0.1138E-05  0.2849E-10  0.3395E-10  0.8268E-06  0.6695E-06
      1.286  0.1819E-01  0.1844E-01  0.2033E-03  0.2079E-03  0.1725E-03  0.1857E-03  0.2033E-03  0.2079E-03  0.3893E-05  0.2821E-05  0.5701E-05  0.4430E-05  0.1425E-05  0.1113E-05  0.5701E-05  0.4430E-05  0.3893E-05  0.2821E-05
      1.452  0.9265E-02  0.8421E-02  0.9983E-04  0.9070E-04  0.1535E-03  0.1437E-03  0.9983E-04  0.9070E-04  0.1933E-05  0.1240E-05  0.4345E-05  0.2847E-05  0.1614E-05  0.1134E-05  0.4345E-05  0.2847E-05  0.1933E-05  0.1240E-05
      1.619  0.1130E-01  0.1132E-01  0.2821E-03  0.2869E-03  0.1757E-03  0.1756E-03  0.2821E-03  0.2869E-03  0.1607E-04  0.1143E-04  0.1334E-06  0.8983E-07  0.2592E-04  0.1814E-04  0.1334E-06  0.8983E-07  0.1607E-04  0.1143E-04
      1.785  0.4192E-01  0.4147E-01  0.1031E-02  0.1027E-02  0.1400E-02  0.1412E-02  0.1031E-02  0.1027E-02  0.5705E-04  0.3873E-04  0.7270E-04  0.5102E-04  0.7345E-04  0.4878E-04  0.7270E-04  0.5102E-04  0.5705E-04  0.3873E-04
      1.952  0.1932E-01  0.1855E-01  0.8437E-03  0.8193E-03  0.2127E-03  0.2016E-03  0.8437E-03  0.8193E-03  0.7757E-04  0.4966E-04  0.3118E-04  0.1950E-04  0.4028E-04  0.2808E-04  0.3118E-04  0.1950E-04  0.7757E-04  0.4966E-04
      2.118  0.1149E-01  0.1149E-01  0.4853E-03  0.5042E-03  0.3224E-03  0.2802E-03  0.4853E-03  0.5042E-03  0.4357E-04  0.3036E-04  0.4600E-04  0.2796E-04  0.1637E-04  0.1175E-04  0.4600E-04  0.2796E-04  0.4357E-04  0.3036E-04
      2.285  0.1876E-01  0.1947E-01  0.5494E-03  0.5794E-03  0.1348E-02  0.1416E-02  0.5494E-03  0.5794E-03  0.3842E-04  0.2643E-04  0.1226E-03  0.8640E-04  0.9682E-04  0.6034E-04  0.1226E-03  0.8640E-04  0.3842E-04  0.2643E-04
      2.451  0.4437E-01  0.3902E-01  0.1877E-02  0.1618E-02  0.3187E-02  0.2974E-02  0.1877E-02  0.1618E-02  0.2481E-03  0.1306E-03  0.2879E-03  0.1853E-03  0.5071E-03  0.2631E-03  0.2879E-03  0.1853E-03  0.2481E-03  0.1306E-03
      2.618  0.4101E-01  0.4137E-01  0.3152E-02  0.3092E-02  0.7741E-03  0.1019E-02  0.3152E-02  0.3092E-02  0.5581E-03  0.3440E-03  0.2065E-03  0.1193E-03  0.3754E-03  0.2745E-03  0.2065E-03  0.1193E-03  0.5581E-03  0.3440E-03
      2.784  0.7337E-02  0.9628E-02  0.4748E-03  0.7646E-03  0.4669E-03  0.2320E-03  0.4748E-03  0.7646E-03  0.8814E-04  0.8650E-04  0.8181E-04  0.4282E-04  0.9150E-04  0.5326E-04  0.8181E-04  0.4282E-04  0.8814E-04  0.8650E-04
      2.951  0.4744E-01  0.3032E-01  0.3511E-02  0.1979E-02  0.3187E-02  0.2586E-02  0.3511E-02  0.1979E-02  0.8877E-03  0.2720E-03  0.8442E-03  0.2915E-03  0.5436E-03  0.2824E-03  0.8442E-03  0.2915E-03  0.8877E-03  0.2720E-03
      3.117  0.4229E-01  0.6142E-01  0.2860E-02  0.4818E-02  0.3837E-02  0.4598E-02  0.2860E-02  0.4818E-02  0.6809E-03  0.6956E-03  0.9999E-03  0.8862E-03  0.7068E-03  0.3703E-03  0.9999E-03  0.8862E-03  0.6809E-03  0.6956E-03
      3.284  0.1719E-01  0.3295E-02  0.7604E-03  0.4261E-04  0.2857E-02  0.7240E-03  0.7604E-03  0.4261E-04  0.2800E-03  0.4500E-05  0.3998E-03  0.1710E-04  0.1576E-02  0.2273E-03  0.3998E-03  0.1710E-04  0.2800E-03  0.4500E-05
      3.450  0.2120E-01  0.3233E-01  0.2016E-02  0.2114E-02  0.1656E-02  0.4582E-02  0.2016E-02  0.2114E-02  0.7616E-03  0.4390E-03  0.4856E-03  0.5068E-03  0.1024E-02  0.1251E-02  0.4856E-03  0.5068E-03  0.7616E-03  0.4390E-03
      3.616  0.6773E-01  0.3283E-01  0.7621E-02  0.4105E-02  0.5346E-02  0.2023E-02  0.7621E-02  0.4105E-02  0.3222E-02  0.8617E-03  0.2694E-02  0.6487E-03  0.2053E-02  0.5085E-03  0.2694E-02  0.6487E-03  0.3222E-02  0.8617E-03
      3.783  0.4289E-01  0.6929E-01  0.4624E-02  0.7920E-02  0.4333E-02  0.6517E-02  0.4624E-02  0.7920E-02  0.2514E-02  0.2063E-02  0.1784E-02  0.1436E-02  0.2734E-02  0.1914E-02  0.1784E-02  0.1436E-02  0.2514E-02  0.2063E-02
      3.949  0.5834E-01  0.3397E-01  0.6628E-02  0.3633E-02  0.6399E-02  0.4737E-02  0.6628E-02  0.3633E-02  0.4581E-02  0.9215E-03  0.5214E-02  0.1281E-02  0.3588E-02  0.1049E-02  0.5214E-02  0.1281E-02  0.4581E-02  0.9215E-03
      4.116  0.2857E-01  0.4029E-01  0.3048E-02  0.5430E-02  0.3193E-02  0.3880E-02  0.3048E-02  0.5430E-02  0.3806E-02  0.1881E-02  0.1132E-02  0.2084E-02  0.7986E-02  0.8042E-03  0.1132E-02  0.2084E-02  0.3806E-02  0.1881E-02
      4.282  0.4692E-01  0.2541E-01  0.5178E-02  0.3987E-02  0.8359E-02  0.1408E-02  0.5178E-02  0.3987E-02  0.5426E-02  0.2176E-02  0.9460E-02  0.5483E-03  0.3096E-02  0.1746E-02  0.9460E-02  0.5483E-03  0.5426E-02  0.2176E-02
      4.449  0.4567E-01  0.3427E-01  0.4919E-02  0.2536E-02  0.8685E-02  0.9426E-02  0.4919E-02  0.2536E-02  0.6560E-02  0.7308E-03  0.1038E-01  0.2141E-02  0.9769E-02  0.4494E-02  0.1038E-01  0.2141E-02  0.6560E-02  0.7308E-03
      4.615  0.1048E+00  0.4691E-01  0.1609E-01  0.6815E-02  0.7514E-02  0.6992E-02  0.1609E-01  0.6815E-02  0.4017E-01  0.3476E-02  0.2635E-01  0.5317E-02  0.4426E-01  0.8489E-03  0.2635E-01  0.5317E-02  0.4017E-01  0.3476E-02
      4.782  0.8723E-01  0.5372E-01  0.9621E-02  0.8704E-02  0.8949E-02  0.8790E-02  0.9621E-02  0.8704E-02  0.5848E-01  0.4068E-02  0.7528E-01  0.3497E-02  0.5013E-01  0.5868E-02  0.7528E-01  0.3497E-02  0.5848E-01  0.4068E-02
      4.948  0.6770E-01  0.4551E-01  0.8000E-02  0.8213E-02  0.1160E-01  0.5836E-02  0.8000E-02  0.8213E-02  0.5109E-01  0.6404E-02  0.6494E-01  0.3241E-02  0.5120E-01  0.6036E-02  0.6494E-01  0.3241E-02  0.5109E-01  0.6404E-02
      5.115  0.8364E-01  0.4785E-01  0.1241E-01  0.1045E-01  0.1423E-01  0.2946E-02  0.1241E-01  0.1045E-01  0.1298E+00  0.8683E-02  0.1071E+00  0.4999E-02  0.1153E+00  0.6053E-02  0.1071E+00  0.4999E-02  0.1298E+00  0.8683E-02
      5.281  0.5093E-01  0.5787E-01  0.1111E-01  0.8280E-02  0.1273E-01  0.1381E-01  0.1111E-01  0.8280E-02  0.1148E+00  0.8199E-02  0.8267E-01  0.1218E-01  0.7338E-01  0.1316E-01  0.8267E-01  0.1218E-01  0.1148E+00  0.8199E-02
      5.448  0.5655E-01  0.7021E-01  0.1704E-01  0.1204E-01  0.1684E-01  0.1263E-01  0.1704E-01  0.1204E-01  0.1511E+00  0.1971E-01  0.2068E+00  0.2137E-01  0.2115E+00  0.9829E-02  0.2068E+00  0.2137E-01  0.1511E+00  0.1971E-01
      5.614  0.2671E-01  0.3193E-01  0.1346E-01  0.3091E-02  0.1844E-01  0.9027E-02  0.1346E-01  0.3091E-02  0.9947E-01  0.6860E-02  0.1730E+00  0.9955E-02  0.9721E-01  0.2398E-01  0.1730E+00  0.9955E-02  0.9947E-01  0.6860E-02
      5.781  0.2382E-01  0.7117E-01  0.1924E-01  0.1019E-01  0.1456E-01  0.7141E-02  0.1924E-01  0.1019E-01  0.1232E+00  0.4561E-01  0.1375E+00  0.4236E-01  0.1957E+00  0.4352E-01  0.1375E+00  0.4236E-01  0.1232E+00  0.4561E-01
      5.947  0.1153E-01  0.1029E+00  0.1579E-01  0.2266E-01  0.1413E-01  0.1775E-01  0.1579E-01  0.2266E-01  0.1530E+00  0.5431E-01  0.1290E+00  0.5702E-01  0.2136E+00  0.3601E-01  0.1290E+00  0.5702E-01  0.1530E+00  0.5431E-01
      6.113  0.1057E-01  0.5504E-01  0.2338E-01  0.9616E-02  0.1524E-01  0.1343E-01  0.2338E-01  0.9616E-02  0.2394E+00  0.3425E-01  0.1281E+00  0.4690E-01  0.2172E+00  0.5791E-01  0.1281E+00  0.4690E-01  0.2394E+00  0.3425E-01
      6.280  0.1161E-01  0.4572E-01  0.2313E-01  0.9903E-02  0.1663E-01  0.1149E-01  0.2313E-01  0.9903E-02  0.2454E+00  0.5457E-01  0.1455E+00  0.6006E-01  0.2263E+00  0.3051E-01  0.1455E+00  0.6006E-01  0.2454E+00  0.5457E-01
      6.446  0.1091E-01  0.4361E-01  0.2066E-01  0.1183E-01  0.1657E-01  0.1796E-01  0.2066E-01  0.1183E-01  0.2135E+00  0.9280E-01  0.1070E+00  0.6667E-01  0.1648E+00  0.7222E-01  0.1070E+00  0.6667E-01  0.2135E+00  0.9280E-01
      6.613  0.4298E-02  0.4422E-01  0.8027E-02  0.1754E-01  0.1045E-01  0.1721E-01  0.8027E-02  0.1754E-01  0.1291E+00  0.9154E-01  0.7170E-01  0.1116E+00  0.1417E+00  0.9704E-01  0.7170E-01  0.1116E+00  0.1291E+00  0.9154E-01
      6.779  0.9503E-02  0.1774E-01  0.1810E-01  0.1184E-01  0.2004E-01  0.1834E-01  0.1810E-01  0.1184E-01  0.1827E+00  0.7052E-01  0.3146E+00  0.1658E+00  0.3824E+00  0.7360E-01  0.3146E+00  0.1658E+00  0.1827E+00  0.7052E-01
      6.946  0.1266E-01  0.1295E-01  0.1900E-01  0.1842E-01  0.2195E-01  0.1591E-01  0.1900E-01  0.1842E-01  0.2362E+00  0.8362E-01  0.3235E+00  0.1233E+00  0.2836E+00  0.9800E-01  0.3235E+00  0.1233E+00  0.2362E+00  0.8362E-01