    2    2  100    2
  0.1147457E+02  0.2542121E-09  0.2542121E-09  0.4100562E-09  0.5000000E-15
  1.000000000000000E-004
  CAR 
 Co-hcc                                  
     18     95     24
 
  0.0000000E+00  0.0000000E+00  0.0000000E+00  0.8680556E-03
      1          0.897921        0.892556   1.000000   1.000000
      2          4.589643        5.583662   1.000000   1.000000
      3          6.925922        8.628587   1.000000   1.000000
      4          6.936169        8.647435   1.000000   1.000000
      5          6.936169        8.647435   1.000000   1.000000
      6          7.220665        8.985858   1.000000   1.000000
      7          7.220666        8.985858   1.000000   1.000000
      8          7.528109        9.354937   1.000000   0.995933
      9          7.528109        9.354938   1.000000   0.995933
     10          8.543196        9.392708   1.000000   0.942736
     11          8.543196       10.488205   1.000000   0.000000
     12          9.470087       10.488206   0.270783   0.000000
     13         15.369380       16.409411   0.000000   0.000000
     14         30.948075       30.655778   0.000000   0.000000
     15         32.943797       33.301315   0.000000   0.000000
     16         32.943799       33.301317   0.000000   0.000000
     17         33.892684       33.731012   0.000000   0.000000
     18         34.358548       34.148438   0.000000   0.000000
     19         34.358551       34.656398   0.000000   0.000000
     20         34.387161       34.656400   0.000000   0.000000
     21         39.107021       39.027843   0.000000   0.000000
     22         39.107021       39.027844   0.000000   0.000000
     23         39.697741       39.934681   0.000000   0.000000
     24         40.447165       40.101573   0.000000   0.000000
 
  0.8333333E-01  0.1387779E-16  0.0000000E+00  0.5208333E-02
      1          1.130513        1.125946   1.000000   1.000000
      2          4.725061        5.740464   1.000000   1.000000
      3          6.724746        8.387862   1.000000   1.000000
      4          7.039536        8.746087   1.000000   1.000000
      5          7.103880        8.762283   1.000000   1.000000
      6          7.180588        8.835899   1.000000   1.000000
      7          7.312059        8.929269   1.000000   1.000000
      8          7.398685        9.087407   1.000000   1.000000
      9          7.464262        9.279345   1.000000   0.999999
     10          7.889241        9.303401   1.000000   0.999980
     11          8.570366       10.520938   1.000000   0.000000
     12         10.418875       11.336891   0.000000   0.000000
     13         15.416213       16.431886   0.000000   0.000000
     14         28.881966       29.006055   0.000000   0.000000
     15         30.941402       31.223332   0.000000   0.000000
     16         31.186691       31.273022   0.000000   0.000000
     17         34.396537       34.166522   0.000000   0.000000
     18         34.669486       34.596875   0.000000   0.000000
     19         36.040801       35.910757   0.000000   0.000000
     20         36.603689       36.904977   0.000000   0.000000
     21         37.356804       37.599170   0.000000   0.000000
     22         38.535816       38.541733   0.000000   0.000000
     23         39.267654       39.535695   0.000000   0.000000
     24         39.383165       39.692688   0.000000   0.000000
 
  0.1666667E+00  0.1387779E-16  0.0000000E+00  0.5208333E-02
      1          1.804679        1.806814   1.000000   1.000000
      2          5.059571        6.144231   1.000000   1.000000
      3          6.478523        7.943208   1.000000   1.000000
      4          6.779418        8.063326   1.000000   1.000000
      5          7.026570        8.724062   1.000000   1.000000
      6          7.305982        9.087708   1.000000   1.000000
      7          7.330743        9.093222   1.000000   1.000000
      8          7.381796        9.140099   1.000000   1.000000
      9          7.516983        9.157026   1.000000   1.000000
     10          7.567406        9.371731   1.000000   0.985053
     11          8.628475       10.590088   1.000000   0.000000
     12         11.914478       12.747039   0.000000   0.000000
     13         15.578310       16.517916   0.000000   0.000000
     14         25.078466       25.413224   0.000000   0.000000
     15         28.649541       28.957609   0.000000   0.000000
     16         30.286566       30.362721   0.000000   0.000000
     17         32.169761       32.174450   0.000000   0.000000
     18         34.497765       34.252223   0.000000   0.000000
     19         34.877264       35.096462   0.000000   0.000000
     20         36.977643       37.203343   0.000000   0.000000
     21         37.664961       37.765681   0.000000   0.000000
     22         38.109853       38.384976   0.000000   0.000000
     23         38.657858       38.968697   0.000000   0.000000
     24         39.921999       40.438143   0.000000   0.000000
 
  0.2500000E+00 -0.1387779E-16  0.0000000E+00  0.5208333E-02
      1          2.829284        2.867368   1.000000   1.000000
      2          5.327744        6.545759   1.000000   1.000000
      3          6.115633        7.310912   1.000000   1.000000
      4          6.333802        7.774576   1.000000   1.000000
      5          6.946126        8.582904   1.000000   1.000000
      6          7.115249        8.870595   1.000000   1.000000
      7          7.332417        8.959969   1.000000   1.000000
      8          7.752125        9.544602   1.000000   0.003283
      9          7.771946        9.564615   1.000000   0.000512
     10          7.933828        9.781631   1.000000   0.000000
     11          8.683885       10.655031   1.000000   0.000000
     12         13.625971       14.371685   0.000000   0.000000
     13         15.892079       16.698064   0.000000   0.000000
     14         21.445279       21.914905   0.000000   0.000000
     15         26.666887       26.935484   0.000000   0.000000
     16         28.868364       28.999596   0.000000   0.000000
     17         29.072066       29.281099   0.000000   0.000000
     18         32.437270       32.920779   0.000000   0.000000
     19         33.457688       33.272152   0.000000   0.000000
     20         36.612933       37.021497   0.000000   0.000000
     21         36.966016       37.136453   0.000000   0.000000
     22         37.728317       37.790466   0.000000   0.000000
     23         38.738094       38.928265   0.000000   0.000000
     24         41.608359       41.860062   0.000000   0.000000
 
  0.3333333E+00  0.0000000E+00  0.0000000E+00  0.5208333E-02
      1          3.955931        4.150099   1.000000   1.000000
      2          5.268234        6.591564   1.000000   1.000000
      3          5.630472        6.868904   1.000000   1.000000
      4          6.446749        7.660103   1.000000   1.000000
      5          6.943041        8.670448   1.000000   1.000000
      6          7.061341        8.670650   1.000000   1.000000
      7          7.173139        8.765391   1.000000   1.000000
      8          8.198833       10.079874   1.000000   0.000000
      9          8.330425       10.142580   1.000000   0.000000
     10          8.402443       10.228161   1.000000   0.000000
     11          8.722153       10.699250   1.000000   0.000000
     12         15.506430       16.153810   0.000000   0.000000
     13         16.034347       16.672425   0.000000   0.000000
     14         18.618525       19.232731   0.000000   0.000000
     15         25.101066       25.315826   0.000000   0.000000
     16         25.851799       26.114911   0.000000   0.000000
     17         26.762136       27.138131   0.000000   0.000000
     18         31.048512       31.495779   0.000000   0.000000
     19         32.345123       32.172331   0.000000   0.000000
     20         34.905173       35.275683   0.000000   0.000000
     21         36.486122       36.706540   0.000000   0.000000
     22         38.418079       38.576933   0.000000   0.000000
     23         40.483089       40.651093   0.000000   0.000000
     24         42.751849       42.972796   0.000000   0.000000
 
  0.4166667E+00  0.8326673E-16  0.0000000E+00  0.5208333E-02
      1          4.701279        5.313483   1.000000   1.000000
      2          5.096516        6.400448   1.000000   1.000000
      3          5.340251        6.610608   1.000000   1.000000
      4          6.798668        7.675407   1.000000   1.000000
      5          6.825321        8.534435   1.000000   1.000000
      6          7.061222        8.624246   1.000000   1.000000
      7          7.247202        8.877071   1.000000   1.000000
      8          8.531206       10.467198   1.000000   0.000000
      9          8.657718       10.604544   1.000000   0.000000
     10          8.742728       10.722732   1.000000   0.000000
     11          9.461019       11.013321   0.361687   0.000000
     12         14.212209       14.986673   0.000000   0.000000
     13         17.463473       17.990172   0.000000   0.000000
     14         18.573989       19.083301   0.000000   0.000000
     15         23.223803       23.630967   0.000000   0.000000
     16         24.076496       24.238620   0.000000   0.000000
     17         24.144806       24.629382   0.000000   0.000000
     18         30.598554       31.042311   0.000000   0.000000
     19         31.600459       31.419117   0.000000   0.000000
     20         33.804282       34.137142   0.000000   0.000000
     21         36.210052       36.460969   0.000000   0.000000
     22         38.841290       39.075447   0.000000   0.000000
     23         42.817011       42.991501   0.000000   0.000000
     24         43.382057       43.561397   0.000000   0.000000
 
  0.5000000E+00 -0.2775558E-16  0.0000000E+00  0.2604167E-02
      1          4.952208        5.850845   1.000000   1.000000
      2          4.964953        6.231030   1.000000   1.000000
      3          5.243838        6.525861   1.000000   1.000000
      4          6.783629        7.742311   1.000000   1.000000
      5          7.020915        8.486268   1.000000   1.000000
      6          7.035665        8.572851   1.000000   1.000000
      7          7.316386        8.959042   1.000000   1.000000
      8          8.651250       10.606041   1.000000   0.000000
      9          8.749015       10.729849   1.000000   0.000000
     10          8.789655       10.760639   1.000000   0.000000
     11         10.609641       11.872541   0.000000   0.000000
     12         12.488414       13.507810   0.000000   0.000000
     13         18.748200       19.153155   0.000000   0.000000
     14         19.325372       19.704159   0.000000   0.000000
     15         21.717699       22.255023   0.000000   0.000000
     16         22.721347       23.293614   0.000000   0.000000
     17         23.716619       23.855676   0.000000   0.000000
     18         30.486811       30.935338   0.000000   0.000000
     19         31.343279       31.156962   0.000000   0.000000
     20         33.422948       33.740565   0.000000   0.000000
     21         36.120242       36.381443   0.000000   0.000000
     22         38.998082       39.261625   0.000000   0.000000
     23         43.548788       43.671238   0.000000   0.000000
     24         45.305956       45.345128   0.000000   0.000000
 
  0.8333333E-01  0.8333333E-01  0.0000000E+00  0.5208333E-02
      1          1.584670        1.583507   1.000000   1.000000
      2          4.965369        6.024666   1.000000   1.000000
      3          6.530199        8.143604   1.000000   1.000000
      4          7.003382        8.152873   1.000000   1.000000
      5          7.086324        8.800821   1.000000   1.000000
      6          7.247065        8.996166   1.000000   1.000000
      7          7.250332        8.996984   1.000000   1.000000
      8          7.282988        9.057973   1.000000   1.000000
      9          7.513852        9.291714   1.000000   0.999995
     10          7.625062        9.307460   1.000000   0.999967
     11          8.604445       10.561322   1.000000   0.000000
     12         11.491648       12.348275   0.000000   0.000000
     13         15.522397       16.487948   0.000000   0.000000
     14         26.839142       27.062927   0.000000   0.000000
     15         27.409897       27.753839   0.000000   0.000000
     16         32.668171       32.709372   0.000000   0.000000
     17         33.710329       33.588973   0.000000   0.000000
     18         33.886061       33.776425   0.000000   0.000000
     19         33.910342       33.952318   0.000000   0.000000
     20         36.827998       36.995085   0.000000   0.000000
     21         37.427429       37.890032   0.000000   0.000000
     22         37.947134       38.448876   0.000000   0.000000
     23         40.356881       40.462656   0.000000   0.000000
     24         40.758837       40.886137   0.000000   0.000000
 
  0.1666667E+00  0.8333333E-01  0.0000000E+00  0.1041667E-01
      1          2.441893        2.458262   1.000000   1.000000
      2          5.307528        6.459653   1.000000   1.000000
      3          6.286334        7.533672   1.000000   1.000000
      4          6.361481        7.809504   1.000000   1.000000
      5          6.980503        8.642125   1.000000   1.000000
      6          7.082419        8.808814   1.000000   1.000000
      7          7.477630        9.162844   1.000000   1.000000
      8          7.478226        9.252993   1.000000   1.000000
      9          7.634509        9.422544   1.000000   0.768611
     10          7.891933        9.711774   1.000000   0.000000
     11          8.646608       10.610892   1.000000   0.000000
     12         13.005741       13.787183   0.000000   0.000000
     13         15.779158       16.640648   0.000000   0.000000
     14         23.307449       23.698927   0.000000   0.000000
     15         25.451459       25.781348   0.000000   0.000000
     16         30.559007       30.591471   0.000000   0.000000
     17         31.425294       31.582684   0.000000   0.000000
     18         32.552641       32.557825   0.000000   0.000000
     19         33.899584       34.098694   0.000000   0.000000
     20         35.007212       35.456632   0.000000   0.000000
     21         37.152371       37.170164   0.000000   0.000000
     22         38.609271       39.044499   0.000000   0.000000
     23         40.309106       40.474450   0.000000   0.000000
     24         40.756326       40.956526   0.000000   0.000000
 
  0.2500000E+00  0.8333333E-01  0.0000000E+00  0.1041667E-01
      1          3.552479        3.646810   1.000000   1.000000
      2          5.420563        6.710516   1.000000   1.000000
      3          5.829737        7.051476   1.000000   1.000000
      4          6.229755        7.584326   1.000000   1.000000
      5          6.913205        8.599891   1.000000   1.000000
      6          6.994716        8.609074   1.000000   1.000000
      7          7.301121        8.956249   1.000000   1.000000
      8          7.842532        9.646572   1.000000   0.000000
      9          8.088332        9.937885   1.000000   0.000000
     10          8.409196       10.233316   1.000000   0.000000
     11          8.682320       10.652488   1.000000   0.000000
     12         14.766197       15.461275   0.000000   0.000000
     13         16.178123       16.881867   0.000000   0.000000
     14         19.920688       20.449294   0.000000   0.000000
     15         23.974104       24.291373   0.000000   0.000000
     16         27.434602       27.617343   0.000000   0.000000
     17         28.685313       29.013548   0.000000   0.000000
     18         31.329656       31.335235   0.000000   0.000000
     19         33.086626       33.428773   0.000000   0.000000
     20         33.519027       33.881667   0.000000   0.000000
     21         37.813947       37.807324   0.000000   0.000000
     22         40.144242       40.334333   0.000000   0.000000
     23         40.382193       40.590819   0.000000   0.000000
     24         41.413943       41.675893   0.000000   0.000000
 
  0.3333333E+00  0.8333333E-01  0.0000000E+00  0.1041667E-01
      1          4.535814        4.913403   1.000000   1.000000
      2          5.262433        6.589776   1.000000   1.000000
      3          5.469362        6.734084   1.000000   1.000000
      4          6.455184        7.549280   1.000000   1.000000
      5          6.802661        8.470398   1.000000   1.000000
      6          7.128215        8.738626   1.000000   1.000000
      7          7.171579        8.793666   1.000000   1.000000
      8          8.296760       10.153204   1.000000   0.000000
      9          8.474487       10.382757   1.000000   0.000000
     10          8.704630       10.678108   1.000000   0.000000
     11          9.162948       10.868681   1.000000   0.000000
     12         15.539067       16.186536   0.000000   0.000000
     13         16.692358       17.284804   0.000000   0.000000
     14         18.323383       18.906539   0.000000   0.000000
     15         22.839177       23.124406   0.000000   0.000000
     16         24.601524       24.927001   0.000000   0.000000
     17         25.735456       26.154749   0.000000   0.000000
     18         30.454312       30.440976   0.000000   0.000000
     19         32.459788       32.795771   0.000000   0.000000
     20         32.507155       32.878835   0.000000   0.000000
     21         37.816048       37.875778   0.000000   0.000000
     22         40.486074       40.693667   0.000000   0.000000
     23         41.971424       42.158313   0.000000   0.000000
     24         43.110687       43.319080   0.000000   0.000000
 
  0.4166667E+00  0.8333333E-01  0.0000000E+00  0.1041667E-01
      1          4.975351        5.811694   1.000000   1.000000
      2          5.111838        6.383645   1.000000   1.000000
      3          5.289154        6.578530   1.000000   1.000000
      4          6.757672        7.612644   1.000000   1.000000
      5          6.805948        8.436233   1.000000   1.000000
      6          7.014368        8.576850   1.000000   1.000000
      7          7.313309        8.960058   1.000000   1.000000
      8          8.617837       10.552888   1.000000   0.000000
      9          8.682579       10.626006   1.000000   0.000000
     10          8.714561       10.689355   1.000000   0.000000
     11         10.420624       11.759508   0.000000   0.000000
     12         13.247257       14.159537   0.000000   0.000000
     13         18.548308       19.008556   0.000000   0.000000
     14         19.214399       19.635436   0.000000   0.000000
     15         22.089256       22.387842   0.000000   0.000000
     16         22.297353       22.775311   0.000000   0.000000
     17         23.510224       23.974972   0.000000   0.000000
     18         30.001326       29.974658   0.000000   0.000000
     19         31.896192       32.224333   0.000000   0.000000
     20         32.221173       32.596816   0.000000   0.000000
     21         37.683472       37.779911   0.000000   0.000000
     22         40.679827       40.928006   0.000000   0.000000
     23         43.578386       43.713798   0.000000   0.000000
     24         44.364278       44.522678   0.000000   0.000000
 
  0.1666667E+00  0.1666667E+00  0.0000000E+00  0.5208333E-02
      1          3.409426        3.472608   1.000000   1.000000
      2          5.583449        6.818036   1.000000   1.000000
      3          5.934862        7.146723   1.000000   1.000000
      4          6.022016        7.469865   1.000000   1.000000
      5          6.850953        8.529017   1.000000   1.000000
      6          6.991486        8.614326   1.000000   1.000000
      7          7.384066        9.058501   1.000000   1.000000
      8          7.629687        9.429489   1.000000   0.704657
      9          8.078643        9.915544   1.000000   0.000000
     10          8.428502       10.244977   1.000000   0.000000
     11          8.648169       10.612390   1.000000   0.000000
     12         14.515316       15.230950   0.000000   0.000000
     13         16.198576       16.933761   0.000000   0.000000
     14         21.657922       22.075867   0.000000   0.000000
     15         22.007742       22.434041   0.000000   0.000000
     16         29.028369       29.017401   0.000000   0.000000
     17         29.639437       29.891585   0.000000   0.000000
     18         30.639791       30.965309   0.000000   0.000000
     19         31.344895       31.653562   0.000000   0.000000
     20         35.928543       36.180616   0.000000   0.000000
     21         38.206041       38.145893   0.000000   0.000000
     22         38.309573       38.732099   0.000000   0.000000
     23         41.878831       42.091556   0.000000   0.000000
     24         43.105093       43.257002   0.000000   0.000000
 
  0.2500000E+00  0.1666667E+00  0.0000000E+00  0.1041667E-01
      1          4.471628        4.695026   1.000000   1.000000
      2          5.572249        6.862699   1.000000   1.000000
      3          5.598484        6.894234   1.000000   1.000000
      4          6.003836        7.290876   1.000000   1.000000
      5          6.711465        8.348432   1.000000   1.000000
      6          7.124926        8.741960   1.000000   1.000000
      7          7.211436        8.849055   1.000000   1.000000
      8          7.908300        9.739021   1.000000   0.000000
      9          8.476830       10.374170   1.000000   0.000000
     10          8.646171       10.609952   1.000000   0.000000
     11          9.177419       10.906670   1.000000   0.000000
     12         16.303319       16.938781   0.000000   0.000000
     13         16.629764       17.217245   0.000000   0.000000
     14         18.840583       19.392206   0.000000   0.000000
     15         20.682697       21.094780   0.000000   0.000000
     16         26.338689       26.560978   0.000000   0.000000
     17         27.644432       28.033848   0.000000   0.000000
     18         28.367803       28.528194   0.000000   0.000000
     19         30.064414       30.417525   0.000000   0.000000
     20         36.064213       36.343037   0.000000   0.000000
     21         39.544104       39.452968   0.000000   0.000000
     22         40.680311       40.993882   0.000000   0.000000
     23         42.497539       42.675797   0.000000   0.000000
     24         43.043070       43.204225   0.000000   0.000000
 
  0.3333333E+00  0.1666667E+00  0.0000000E+00  0.1041667E-01
      1          5.139569        5.784617   1.000000   1.000000
      2          5.390043        6.694880   1.000000   1.000000
      3          5.390698        6.696986   1.000000   1.000000
      4          6.301044        7.330521   1.000000   1.000000
      5          6.672888        8.295110   1.000000   1.000000
      6          7.025136        8.614688   1.000000   1.000000
      7          7.309010        8.959065   1.000000   1.000000
      8          8.275951       10.148524   1.000000   0.000000
      9          8.643762       10.606897   1.000000   0.000000
     10          8.673704       10.610096   1.000000   0.000000
     11         10.316311       11.761559   0.000000   0.000000
     12         14.878525       15.597454   0.000000   0.000000
     13         18.253558       18.788981   0.000000   0.000000
     14         18.823915       19.309939   0.000000   0.000000
     15         19.951193       20.335859   0.000000   0.000000
     16         23.698195       24.076203   0.000000   0.000000
     17         24.811851       25.255927   0.000000   0.000000
     18         27.753220       27.889369   0.000000   0.000000
     19         29.333632       29.685752   0.000000   0.000000
     20         35.723384       36.023601   0.000000   0.000000
     21         40.311299       40.231743   0.000000   0.000000
     22         42.846007       42.998281   0.000000   0.000000
     23         43.990073       44.231979   0.000000   0.000000
     24         44.069439       44.233754   0.000000   0.000000
 
  0.4166667E+00  0.1666667E+00  0.0000000E+00  0.5208333E-02
      1          5.299812        6.246161   1.000000   1.000000
      2          5.303590        6.570812   1.000000   1.000000
      3          5.320954        6.643205   1.000000   1.000000
      4          6.510024        7.383947   1.000000   1.000000
      5          6.687406        8.328396   1.000000   1.000000
      6          6.928721        8.475612   1.000000   1.000000
      7          7.387140        9.055689   1.000000   1.000000
      8          8.523524       10.434506   1.000000   0.000000
      9          8.642572       10.593331   1.000000   0.000000
     10          8.654064       10.605365   1.000000   0.000000
     11         11.591009       12.653548   0.000000   0.000000
     12         13.026765       14.032050   0.000000   0.000000
     13         19.351829       19.747230   0.000000   0.000000
     14         19.643722       20.071234   0.000000   0.000000
     15         20.002537       20.375764   0.000000   0.000000
     16         22.077535       22.578448   0.000000   0.000000
     17         23.327975       23.826360   0.000000   0.000000
     18         27.549625       27.680871   0.000000   0.000000
     19         29.076603       29.424697   0.000000   0.000000
     20         35.591009       35.896561   0.000000   0.000000
     21         40.444209       40.385627   0.000000   0.000000
     22         43.643814       43.859029   0.000000   0.000000
     23         43.760769       43.871887   0.000000   0.000000
     24         45.903161       45.789478   0.000000   0.000000
 
  0.2500000E+00  0.2500000E+00  0.0000000E+00  0.5208333E-02
      1          5.260446        5.783717   1.000000   1.000000
      2          5.448946        6.765202   1.000000   1.000000
      3          5.752218        7.017158   1.000000   1.000000
      4          5.812155        7.026875   1.000000   1.000000
      5          6.616078        8.212746   1.000000   1.000000
      6          7.038569        8.637521   1.000000   1.000000
      7          7.314680        8.962736   1.000000   1.000000
      8          8.070308        9.929226   1.000000   0.000000
      9          8.607218       10.564720   1.000000   0.000000
     10          8.679438       10.614288   1.000000   0.000000
     11         10.312725       11.792688   0.000000   0.000000
     12         16.628416       17.159560   0.000000   0.000000
     13         17.321618       17.900119   0.000000   0.000000
     14         18.136699       18.701079   0.000000   0.000000
     15         19.337368       19.807976   0.000000   0.000000
     16         25.424061       25.797131   0.000000   0.000000
     17         25.730634       25.888552   0.000000   0.000000
     18         26.437112       26.852812   0.000000   0.000000
     19         27.272063       27.640580   0.000000   0.000000
     20         39.066580       39.258119   0.000000   0.000000
     21         40.719416       41.087168   0.000000   0.000000
     22         41.484910       41.373404   0.000000   0.000000
     23         43.732632       43.910338   0.000000   0.000000
     24         45.637993       45.628209   0.000000   0.000000
 
  0.3333333E+00  0.2500000E+00  0.0000000E+00  0.1041667E-01
      1          5.378150        6.492274   1.000000   1.000000
      2          5.533778        6.732367   1.000000   1.000000
      3          5.632053        6.863952   1.000000   1.000000
      4          6.102583        7.106096   1.000000   1.000000
      5          6.634081        8.215349   1.000000   1.000000
      6          6.859509        8.418566   1.000000   1.000000
      7          7.466884        9.146730   1.000000   1.000000
      8          8.318181       10.207043   1.000000   0.000000
      9          8.584257       10.538047   1.000000   0.000000
     10          8.629940       10.562900   1.000000   0.000000
     11         11.940598       13.029614   0.000000   0.000000
     12         14.411218       15.185593   0.000000   0.000000
     13         16.696983       17.246147   0.000000   0.000000
     14         20.101543       20.577247   0.000000   0.000000
     15         20.433096       20.826483   0.000000   0.000000
     16         23.067474       23.485365   0.000000   0.000000
     17         24.282114       24.731027   0.000000   0.000000
     18         25.267694       25.507661   0.000000   0.000000
     19         26.508413       26.888337   0.000000   0.000000
     20         39.445420       39.683543   0.000000   0.000000
     21         43.051910       42.917509   0.000000   0.000000
     22         43.245700       43.445729   0.000000   0.000000
     23         45.097065       45.464388   0.000000   0.000000
     24         46.064636       46.061288   0.000000   0.000000
 
  0.3333333E+00  0.3333333E+00  0.0000000E+00  0.1736111E-02
      1          5.383277        6.761358   1.000000   1.000000
      2          5.716182        6.836290   1.000000   1.000000
      3          5.716183        6.836291   1.000000   1.000000
      4          5.997737        7.051970   1.000000   1.000000
      5          6.705171        8.258608   1.000000   1.000000
      6          6.705171        8.258608   1.000000   1.000000
      7          7.555917        9.246364   1.000000   1.000000
      8          8.449360       10.358849   1.000000   0.000000
      9          8.449360       10.358850   1.000000   0.000000
     10          8.560480       10.510619   1.000000   0.000000
     11         13.685398       14.469537   0.000000   0.000000
     12         14.387679       15.162588   0.000000   0.000000
     13         14.387681       15.162590   0.000000   0.000000
     14         21.314732       21.676612   0.000000   0.000000
     15         22.016188       22.447159   0.000000   0.000000