 vasp.6.3.2 27Jun22 (build Aug 12 2022 00:53:59) complex                        
  
 executed on               tv2STD date 2024.12.03  01:29:27
 running   24 mpi-ranks, with    1 threads/rank
 distrk:  each k-point on   24 cores,    1 groups
 distr:  one band on NCORE=   1 cores,   24 groups


--------------------------------------------------------------------------------------------------------


 INCAR:
   SYSTEM = Co-hcc
   NWRITE = 2    write-flag
   ISTART = 0    job   : 0-new, 1-cont, 2-samecut
   ICHARG = 2    charge: 0-wave, 1-file, 2-atom, >10-const
   INIWAV = 1    electr: 0-lowe 1-rand  2-diag
   ENCUT = 425.0     energy cutoff in eV
   PREC = Accurate      normal | accurate
   ADDGRID = .FALSE.  (use fine grid)
   NELM = 100     number of ELM steps
   EDIFF = 1E-06    energy stopping-criterion for ELM
   LREAL = .FALSE.      real-space projection (.FALSE., .TRUE., On, Auto)
   ALGO = Normal     Normal, Fast, Very_Fast
   LWAVE = .FALSE.
   LCHARG = .FALSE.
   NSW = 100       max number of geometry steps
   IBRION = 2     ionic relax: 0-MD, 1-quasi-Newton, 2-CG, 3-Damped MD
   EDIFFG = -0.02  force (eV/A) stopping-criterion for geometry steps
   ISIF = 2     (1:force\=y stress\=trace only ions\=y shape\=n volume\=n)
   ISYM = 1     (1-use symmetry, 0-no symmetry)
   ISMEAR = 0     (-1-Fermi, 1-Methfessel/Paxton)
   SIGMA = 0.05   broadening in eV
   LORBIT = 11
   ISPIN = 2
   MAGMOM = 2*3

 POTCAR:    PAW_PBE Co 02Aug2007                  
 POTCAR:    PAW_PBE Co 02Aug2007                  
   SHA256 =  0e690c60710354995174544f52f9f2c30879afabeffe3b3fbd4001cb294e56d4 Co/POTCAR             
   COPYR  = (c) Copyright 02Aug2007 Georg Kresse                                                    
   COPYR  = This file is part of the software VASP. Any use, copying, and all other rights are regul
   COPYR  = If you do not have a valid VASP license, you may not use, copy or distribute this file. 
   VRHFIN =Co: d8 s1                                                                                
   LEXCH  = PE                                                                                      
   EATOM  =   813.3670 eV,   59.7808 Ry                                                             
                                                                                                    
   TITEL  = PAW_PBE Co 02Aug2007                                                                    
   LULTRA =        F    use ultrasoft PP ?                                                          
   IUNSCR =        1    unscreen: 0-lin 1-nonlin 2-no                                               
   RPACOR =    2.000    partial core radius                                                         
   POMASS =   58.933; ZVAL   =    9.000    mass and valenz                                          
   RCORE  =    2.300    outmost cutoff radius                                                       
   RWIGS  =    2.460; RWIGS  =    1.302    wigner-seitz radius (au A)                               
   ENMAX  =  267.968; ENMIN  =  200.976 eV                                                          
   RCLOC  =    1.203    cutoff for local pot                                                        
   LCOR   =        T    correct aug charges                                                         
   LPAW   =        T    paw PP                                                                      
   EAUG   =  477.818                                                                                
   DEXC   =    0.000                                                                                
   RMAX   =    2.360    core radius for proj-oper                                                   
   RAUG   =    1.300    factor for augmentation sphere                                              
   RDEP   =    2.393    radius for radial grids                                                     
   RDEPT  =    1.864    core radius for aug-charge                                                  
                                                                                                    
   Atomic configuration                                                                             
    9 entries                                                                                       
     n  l   j            E        occ.                                                              
     1  0  0.50     -7587.6674   2.0000                                                             
     2  0  0.50      -893.6084   2.0000                                                             
     2  1  1.50      -764.5805   6.0000                                                             
     3  0  0.50       -97.5973   2.0000                                                             
     3  1  1.50       -60.9648   6.0000                                                             
     3  2  2.50        -4.2382   8.0000                                                             
     4  0  0.50        -4.3746   1.0000                                                             
     4  1  1.50        -4.0817   0.0000                                                             
     4  3  2.50        -1.3606   0.0000                                                             
   Description                                                                                      
     l       E           TYP  RCUT    TYP  RCUT                                                     
     2     -4.2382362     23  2.300                                                                 
     2     -5.5988188     23  2.300                                                                 
     0     -4.3745797     23  2.300                                                                 
     0      5.7660125     23  2.300                                                                 
     1     -2.7211652     23  2.300                                                                 
     1     16.9860234     23  2.300                                                                 
  local pseudopotential read in
  partial core-charges read in
  partial kinetic energy density read in
  atomic valenz-charges read in
  non local Contribution for L=           2  read in
    real space projection operators read in
  non local Contribution for L=           2  read in
    real space projection operators read in
  non local Contribution for L=           0  read in
    real space projection operators read in
  non local Contribution for L=           0  read in
    real space projection operators read in
  non local Contribution for L=           1  read in
    real space projection operators read in
  non local Contribution for L=           1  read in
    real space projection operators read in
    PAW grid and wavefunctions read in
 
   number of l-projection  operators is LMAX  =           6
   number of lm-projection operators is LMMAX =          18
 
  PAW_PBE Co 02Aug2007                  :
 energy of atom  1       EATOM= -813.3670
 kinetic energy error for atom=    0.0054 (will be added to EATOM!!)
 
 
 POSCAR: Co
  positions in cartesian coordinates
  No initial velocities read in
 exchange correlation table for  LEXCH =        8
   RHO(1)=    0.500       N(1)  =     2000
   RHO(2)=  100.500       N(2)  =     4000
 


--------------------------------------------------------------------------------------------------------


 ion  position               nearest neighbor table
   1  0.333  0.667  0.250-   2 2.52   2 2.52   2 2.52   2 2.52   2 2.52   2 2.52
   2  0.667  0.333  0.750-   1 2.52   1 2.52   1 2.52   1 2.52   1 2.52   1 2.52
 
  LATTYP: Found a hexagonal cell.
 ALAT       =     2.5421211221
 C/A-ratio  =     1.6130472937
  
  Lattice vectors:
  
 A1 = (   1.2710605610,  -2.2015414712,   0.0000000000)
 A2 = (   1.2710605610,   2.2015414712,   0.0000000000)
 A3 = (   0.0000000000,   0.0000000000,   4.1005615963)


Analysis of symmetry for initial positions (statically):
=====================================================================
 Subroutine PRICEL returns:
 Original cell was already a primitive cell.
 

 Routine SETGRP: Setting up the symmetry group for a 
 hexagonal supercell.


 Subroutine GETGRP returns: Found 24 space group operations
 (whereof 12 operations were pure point group operations)
 out of a pool of 24 trial point group operations.


The static configuration has the point symmetry D_3d.
 The point group associated with its full space group is D_6h.


Analysis of symmetry for dynamics (positions and initial velocities):
=====================================================================
 Subroutine PRICEL returns:
 Original cell was already a primitive cell.
 

 Routine SETGRP: Setting up the symmetry group for a 
 hexagonal supercell.


 Subroutine GETGRP returns: Found 24 space group operations
 (whereof 12 operations were pure point group operations)
 out of a pool of 24 trial point group operations.


The dynamic configuration has the point symmetry D_3d.
 The point group associated with its full space group is D_6h.


Analysis of structural, dynamic, and magnetic symmetry:
=====================================================================
 Subroutine PRICEL returns:
 Original cell was already a primitive cell.
 

 Routine SETGRP: Setting up the symmetry group for a 
 hexagonal supercell.


 Subroutine GETGRP returns: Found 24 space group operations
 (whereof 12 operations were pure point group operations)
 out of a pool of 24 trial point group operations.


The overall configuration has the point symmetry D_3d.
 The point group associated with its full space group is D_6h.


 Subroutine INISYM returns: Found 24 space group operations
 (whereof 12 operations are pure point group operations),
 and found     1 'primitive' translations


----------------------------------------------------------------------------------------

                                     Primitive cell                                     

  volume of cell :      22.9491

  direct lattice vectors                    reciprocal lattice vectors
     1.271060561 -2.201541471  0.000000000     0.393372287 -0.227113596  0.000000000
     1.271060561  2.201541471  0.000000000     0.393372287  0.227113596  0.000000000
     0.000000000  0.000000000  4.100561596     0.000000000  0.000000000  0.243869035

  length of vectors
     2.542121122  2.542121122  4.100561596     0.454227192  0.454227192  0.243869035

  position of ions in fractional coordinates (direct lattice)
     0.333333333  0.666666667  0.250000000
     0.666666667  0.333333333  0.750000000

  ion indices of the primitive-cell ions
   primitive index   ion index
                 1           1
                 2           2

----------------------------------------------------------------------------------------

 
 
 KPOINTS: Automatic mesh                          

Automatic generation of k-mesh.
 Grid dimensions read from file:
 generate k-points for:   12   12    8

 Generating k-lattice:

  Cartesian coordinates                     Fractional coordinates (reciprocal lattice)
     0.032781024 -0.018926133  0.000000000     0.083333333  0.000000000  0.000000000
     0.032781024  0.018926133  0.000000000     0.000000000  0.083333333  0.000000000
     0.000000000  0.000000000  0.030483629     0.000000000  0.000000000  0.125000000

  Length of vectors
     0.037852266  0.037852266  0.030483629

  Shift w.r.t. Gamma in fractional coordinates (k-lattice)
     0.000000000  0.000000000  0.000000000

 
 Subroutine IBZKPT returns following result:
 ===========================================
 
 Found     95 irreducible k-points:
 
 Following reciprocal coordinates:
            Coordinates               Weight
  0.000000  0.000000  0.000000      1.000000
  0.083333  0.000000  0.000000      6.000000
  0.166667  0.000000  0.000000      6.000000
  0.250000 -0.000000  0.000000      6.000000
  0.333333  0.000000  0.000000      6.000000
  0.416667  0.000000  0.000000      6.000000
  0.500000 -0.000000  0.000000      3.000000
  0.083333  0.083333  0.000000      6.000000
  0.166667  0.083333  0.000000     12.000000
  0.250000  0.083333  0.000000     12.000000
  0.333333  0.083333  0.000000     12.000000
  0.416667  0.083333  0.000000     12.000000
  0.166667  0.166667  0.000000      6.000000
  0.250000  0.166667  0.000000     12.000000
  0.333333  0.166667  0.000000     12.000000
  0.416667  0.166667  0.000000      6.000000
  0.250000  0.250000  0.000000      6.000000
  0.333333  0.250000  0.000000     12.000000
  0.333333  0.333333  0.000000      2.000000
  0.000000  0.000000  0.125000      2.000000
  0.083333  0.000000  0.125000     12.000000
  0.166667  0.000000  0.125000     12.000000
  0.250000 -0.000000  0.125000     12.000000
  0.333333  0.000000  0.125000     12.000000
  0.416667  0.000000  0.125000     12.000000
  0.500000 -0.000000  0.125000      6.000000
  0.083333  0.083333  0.125000     12.000000
  0.166667  0.083333  0.125000     24.000000
  0.250000  0.083333  0.125000     24.000000
  0.333333  0.083333  0.125000     24.000000
  0.416667  0.083333  0.125000     24.000000
  0.166667  0.166667  0.125000     12.000000
  0.250000  0.166667  0.125000     24.000000
  0.333333  0.166667  0.125000     24.000000
  0.416667  0.166667  0.125000     12.000000
  0.250000  0.250000  0.125000     12.000000
  0.333333  0.250000  0.125000     24.000000
  0.333333  0.333333  0.125000      4.000000
  0.000000  0.000000  0.250000      2.000000
  0.083333  0.000000  0.250000     12.000000
  0.166667  0.000000  0.250000     12.000000
  0.250000 -0.000000  0.250000     12.000000
  0.333333  0.000000  0.250000     12.000000
  0.416667  0.000000  0.250000     12.000000
  0.500000 -0.000000  0.250000      6.000000
  0.083333  0.083333  0.250000     12.000000
  0.166667  0.083333  0.250000     24.000000
  0.250000  0.083333  0.250000     24.000000
  0.333333  0.083333  0.250000     24.000000
  0.416667  0.083333  0.250000     24.000000
  0.166667  0.166667  0.250000     12.000000
  0.250000  0.166667  0.250000     24.000000
  0.333333  0.166667  0.250000     24.000000
  0.416667  0.166667  0.250000     12.000000
  0.250000  0.250000  0.250000     12.000000
  0.333333  0.250000  0.250000     24.000000
  0.333333  0.333333  0.250000      4.000000
  0.000000  0.000000  0.375000      2.000000
  0.083333  0.000000  0.375000     12.000000
  0.166667  0.000000  0.375000     12.000000
  0.250000 -0.000000  0.375000     12.000000
  0.333333  0.000000  0.375000     12.000000
  0.416667  0.000000  0.375000     12.000000
  0.500000 -0.000000  0.375000      6.000000
  0.083333  0.083333  0.375000     12.000000
  0.166667  0.083333  0.375000     24.000000
  0.250000  0.083333  0.375000     24.000000
  0.333333  0.083333  0.375000     24.000000
  0.416667  0.083333  0.375000     24.000000
  0.166667  0.166667  0.375000     12.000000
  0.250000  0.166667  0.375000     24.000000
  0.333333  0.166667  0.375000     24.000000
  0.416667  0.166667  0.375000     12.000000
  0.250000  0.250000  0.375000     12.000000
  0.333333  0.250000  0.375000     24.000000
  0.333333  0.333333  0.375000      4.000000
  0.000000  0.000000  0.500000      1.000000
  0.083333  0.000000  0.500000      6.000000
  0.166667  0.000000  0.500000      6.000000
  0.250000 -0.000000  0.500000      6.000000
  0.333333  0.000000  0.500000      6.000000
  0.416667  0.000000  0.500000      6.000000
  0.500000 -0.000000  0.500000      3.000000
  0.083333  0.083333  0.500000      6.000000
  0.166667  0.083333  0.500000     12.000000
  0.250000  0.083333  0.500000     12.000000
  0.333333  0.083333  0.500000     12.000000
  0.416667  0.083333  0.500000     12.000000
  0.166667  0.166667  0.500000      6.000000
  0.250000  0.166667  0.500000     12.000000
  0.333333  0.166667  0.500000     12.000000
  0.416667  0.166667  0.500000      6.000000
  0.250000  0.250000  0.500000      6.000000
  0.333333  0.250000  0.500000     12.000000
  0.333333  0.333333  0.500000      2.000000
 
 Following cartesian coordinates:
            Coordinates               Weight
  0.000000  0.000000  0.000000      1.000000
  0.032781 -0.018926  0.000000      6.000000
  0.065562 -0.037852  0.000000      6.000000
  0.098343 -0.056778  0.000000      6.000000
  0.131124 -0.075705  0.000000      6.000000
  0.163905 -0.094631  0.000000      6.000000
  0.196686 -0.113557  0.000000      3.000000
  0.065562  0.000000  0.000000      6.000000
  0.098343 -0.018926  0.000000     12.000000
  0.131124 -0.037852  0.000000     12.000000
  0.163905 -0.056778  0.000000     12.000000
  0.196686 -0.075705  0.000000     12.000000
  0.131124  0.000000  0.000000      6.000000
  0.163905 -0.018926  0.000000     12.000000
  0.196686 -0.037852  0.000000     12.000000
  0.229467 -0.056778  0.000000      6.000000
  0.196686  0.000000  0.000000      6.000000
  0.229467 -0.018926  0.000000     12.000000
  0.262248  0.000000  0.000000      2.000000
  0.000000  0.000000  0.030484      2.000000
  0.032781 -0.018926  0.030484     12.000000
  0.065562 -0.037852  0.030484     12.000000
  0.098343 -0.056778  0.030484     12.000000
  0.131124 -0.075705  0.030484     12.000000
  0.163905 -0.094631  0.030484     12.000000
  0.196686 -0.113557  0.030484      6.000000
  0.065562  0.000000  0.030484     12.000000
  0.098343 -0.018926  0.030484     24.000000
  0.131124 -0.037852  0.030484     24.000000
  0.163905 -0.056778  0.030484     24.000000
  0.196686 -0.075705  0.030484     24.000000
  0.131124  0.000000  0.030484     12.000000
  0.163905 -0.018926  0.030484     24.000000
  0.196686 -0.037852  0.030484     24.000000
  0.229467 -0.056778  0.030484     12.000000
  0.196686  0.000000  0.030484     12.000000
  0.229467 -0.018926  0.030484     24.000000
  0.262248  0.000000  0.030484      4.000000
  0.000000  0.000000  0.060967      2.000000
  0.032781 -0.018926  0.060967     12.000000
  0.065562 -0.037852  0.060967     12.000000
  0.098343 -0.056778  0.060967     12.000000
  0.131124 -0.075705  0.060967     12.000000
  0.163905 -0.094631  0.060967     12.000000
  0.196686 -0.113557  0.060967      6.000000
  0.065562  0.000000  0.060967     12.000000
  0.098343 -0.018926  0.060967     24.000000
  0.131124 -0.037852  0.060967     24.000000
  0.163905 -0.056778  0.060967     24.000000
  0.196686 -0.075705  0.060967     24.000000
  0.131124  0.000000  0.060967     12.000000
  0.163905 -0.018926  0.060967     24.000000
  0.196686 -0.037852  0.060967     24.000000
  0.229467 -0.056778  0.060967     12.000000
  0.196686  0.000000  0.060967     12.000000
  0.229467 -0.018926  0.060967     24.000000
  0.262248  0.000000  0.060967      4.000000
  0.000000  0.000000  0.091451      2.000000
  0.032781 -0.018926  0.091451     12.000000
  0.065562 -0.037852  0.091451     12.000000
  0.098343 -0.056778  0.091451     12.000000
  0.131124 -0.075705  0.091451     12.000000
  0.163905 -0.094631  0.091451     12.000000
  0.196686 -0.113557  0.091451      6.000000
  0.065562  0.000000  0.091451     12.000000
  0.098343 -0.018926  0.091451     24.000000
  0.131124 -0.037852  0.091451     24.000000
  0.163905 -0.056778  0.091451     24.000000
  0.196686 -0.075705  0.091451     24.000000
  0.131124  0.000000  0.091451     12.000000
  0.163905 -0.018926  0.091451     24.000000
  0.196686 -0.037852  0.091451     24.000000
  0.229467 -0.056778  0.091451     12.000000
  0.196686  0.000000  0.091451     12.000000
  0.229467 -0.018926  0.091451     24.000000
  0.262248  0.000000  0.091451      4.000000
  0.000000  0.000000  0.121935      1.000000
  0.032781 -0.018926  0.121935      6.000000
  0.065562 -0.037852  0.121935      6.000000
  0.098343 -0.056778  0.121935      6.000000
  0.131124 -0.075705  0.121935      6.000000
  0.163905 -0.094631  0.121935      6.000000
  0.196686 -0.113557  0.121935      3.000000
  0.065562  0.000000  0.121935      6.000000
  0.098343 -0.018926  0.121935     12.000000
  0.131124 -0.037852  0.121935     12.000000
  0.163905 -0.056778  0.121935     12.000000
  0.196686 -0.075705  0.121935     12.000000
  0.131124  0.000000  0.121935      6.000000
  0.163905 -0.018926  0.121935     12.000000
  0.196686 -0.037852  0.121935     12.000000
  0.229467 -0.056778  0.121935      6.000000
  0.196686  0.000000  0.121935      6.000000
  0.229467 -0.018926  0.121935     12.000000
  0.262248  0.000000  0.121935      2.000000
 


--------------------------------------------------------------------------------------------------------




 Dimension of arrays:
   k-points           NKPTS =     95   k-points in BZ     NKDIM =     95   number of bands    NBANDS=     24
   number of dos      NEDOS =    301   number of ions     NIONS =      2
   non local maximal  LDIM  =      6   non local SUM 2l+1 LMDIM =     18
   total plane-waves  NPLWV =   9072
   max r-space proj   IRMAX =      1   max aug-charges    IRDMAX=  15788
   dimension x,y,z NGX =    18 NGY =   18 NGZ =   28
   dimension x,y,z NGXF=    36 NGYF=   36 NGZF=   56
   support grid    NGXF=    36 NGYF=   36 NGZF=   56
   ions per type =               2
   NGX,Y,Z   is equivalent  to a cutoff of  11.77, 11.77, 11.35 a.u.
   NGXF,Y,Z  is equivalent  to a cutoff of  23.54, 23.54, 22.70 a.u.

 SYSTEM =  Co-hcc                                  
 POSCAR =  Co                                      

 Startparameter for this run:
   NWRITE =      2    write-flag & timer
   PREC   = accura    normal or accurate (medium, high low for compatibility)
   ISTART =      0    job   : 0-new  1-cont  2-samecut
   ICHARG =      2    charge: 1-file 2-atom 10-const
   ISPIN  =      2    spin polarized calculation?
   LNONCOLLINEAR =      F non collinear calculations
   LSORBIT =      F    spin-orbit coupling
   INIWAV =      1    electr: 0-lowe 1-rand  2-diag
   LASPH  =      F    aspherical Exc in radial PAW
 Electronic Relaxation 1
   ENCUT  =  425.0 eV  31.24 Ry    5.59 a.u.   4.27  4.27  6.89*2*pi/ulx,y,z
   ENINI  =  425.0     initial cutoff
   ENAUG  =  477.8 eV  augmentation charge cutoff
   NELM   =    100;   NELMIN=  2; NELMDL= -5     # of ELM steps 
   EDIFF  = 0.1E-05   stopping-criterion for ELM
   LREAL  =      F    real-space projection
   NLSPLINE    = F    spline interpolate recip. space projectors
   LCOMPAT=      F    compatible to vasp.4.4
   GGA_COMPAT  = T    GGA compatible to vasp.4.4-vasp.4.6
   LMAXPAW     = -100 max onsite density
   LMAXMIX     =    2 max onsite mixed and CHGCAR
   VOSKOWN=      0    Vosko Wilk Nusair interpolation
   ROPT   =    0.00000
 Ionic relaxation
   EDIFFG = -.2E-01   stopping-criterion for IOM
   NSW    =    100    number of steps for IOM
   NBLOCK =      1;   KBLOCK =    100    inner block; outer block 
   IBRION =      2    ionic relax: 0-MD 1-quasi-New 2-CG
   NFREE  =      1    steps in history (QN), initial steepest desc. (CG)
   ISIF   =      2    stress and relaxation
   IWAVPR =     11    prediction:  0-non 1-charg 2-wave 3-comb
   ISYM   =      1    0-nonsym 1-usesym 2-fastsym
   LCORR  =      T    Harris-Foulkes like correction to forces

   POTIM  = 0.5000    time-step for ionic-motion
   TEIN   =    0.0    initial temperature
   TEBEG  =    0.0;   TEEND  =   0.0 temperature during run
   SMASS  =  -3.00    Nose mass-parameter (am)
   estimated Nose-frequenzy (Omega)   =  0.10E-29 period in steps = 0.13E+47 mass=  -0.148E-27a.u.
   SCALEE = 1.0000    scale energy and forces
   NPACO  =    256;   APACO  = 10.0  distance and # of slots for P.C.
   PSTRESS=    0.0 pullay stress

  Mass of Ions in am
   POMASS =  58.93
  Ionic Valenz
   ZVAL   =   9.00
  Atomic Wigner-Seitz radii
   RWIGS  =  -1.00
  virtual crystal weights 
   VCA    =   1.00
   NELECT =      18.0000    total number of electrons
   NUPDOWN=      -1.0000    fix difference up-down

 DOS related values:
   EMIN   =  10.00;   EMAX   =-10.00  energy-range for DOS
   EFERMI =   0.00
   ISMEAR =     0;   SIGMA  =   0.05  broadening in eV -4-tet -1-fermi 0-gaus

 Electronic relaxation 2 (details)
   IALGO  =     38    algorithm
   LDIAG  =      T    sub-space diagonalisation (order eigenvalues)
   LSUBROT=      F    optimize rotation matrix (better conditioning)
   TURBO    =      0    0=normal 1=particle mesh
   IRESTART =      0    0=no restart 2=restart with 2 vectors
   NREBOOT  =      0    no. of reboots
   NMIN     =      0    reboot dimension
   EREF     =   0.00    reference energy to select bands
   IMIX   =      4    mixing-type and parameters
     AMIX     =   0.40;   BMIX     =  1.00
     AMIX_MAG =   1.60;   BMIX_MAG =  1.00
     AMIN     =   0.10
     WC   =   100.;   INIMIX=   1;  MIXPRE=   1;  MAXMIX= -45

 Intra band minimization:
   WEIMIN = 0.0010     energy-eigenvalue tresh-hold
   EBREAK =  0.10E-07  absolut break condition
   DEPER  =   0.30     relativ break condition  

   TIME   =   0.40     timestep for ELM

  volume/ion in A,a.u.               =      11.47        77.43
  Fermi-wavevector in a.u.,A,eV,Ry     =   1.509768  2.853048 31.013107  2.279399
  Thomas-Fermi vector in A             =   2.620046
 
 Write flags
   LWAVE        =      F    write WAVECAR
   LDOWNSAMPLE  =      F    k-point downsampling of WAVECAR
   LCHARG       =      F    write CHGCAR
   LVTOT        =      F    write LOCPOT, total local potential
   LVHAR        =      F    write LOCPOT, Hartree potential only
   LELF         =      F    write electronic localiz. function (ELF)
   LORBIT       =     11    0 simple, 1 ext, 2 COOP (PROOUT), +10 PAW based schemes


 Dipole corrections
   LMONO  =      F    monopole corrections only (constant potential shift)
   LDIPOL =      F    correct potential (dipole corrections)
   IDIPOL =      0    1-x, 2-y, 3-z, 4-all directions 
   EPSILON=  1.0000000 bulk dielectric constant

 Exchange correlation treatment:
   GGA     =    --    GGA type
   LEXCH   =     8    internal setting for exchange type
   LIBXC   =     F    Libxc                    
   VOSKOWN =     0    Vosko Wilk Nusair interpolation
   LHFCALC =     F    Hartree Fock is set to
   LHFONE  =     F    Hartree Fock one center treatment
   AEXX    =    0.0000 exact exchange contribution

 Linear response parameters
   LEPSILON=     F    determine dielectric tensor
   LRPA    =     F    only Hartree local field effects (RPA)
   LNABLA  =     F    use nabla operator in PAW spheres
   LVEL    =     F    velocity operator in full k-point grid
   CSHIFT  =0.1000    complex shift for real part using Kramers Kronig
   OMEGAMAX=  -1.0    maximum frequency
   DEG_THRESHOLD= 0.2000000E-02 threshold for treating states as degnerate
   RTIME   =   -0.100 relaxation time in fs
  (WPLASMAI=    0.000 imaginary part of plasma frequency in eV, 0.658/RTIME)
   DFIELD  = 0.0000000 0.0000000 0.0000000 field for delta impulse in time
 
  Optional k-point grid parameters
   LKPOINTS_OPT  =     F    use optional k-point grid
   KPOINTS_OPT_MODE=     1    mode for optional k-point grid
 
 Orbital magnetization related:
   ORBITALMAG=     F  switch on orbital magnetization
   LCHIMAG   =     F  perturbation theory with respect to B field
   DQ        =  0.001000  dq finite difference perturbation B field
   LLRAUG    =     F  two centre corrections for induced B field



--------------------------------------------------------------------------------------------------------


 conjugate gradient relaxation of ions
 charge density and potential will be updated during run
 spin polarized calculation
 Variant of blocked Davidson
 Davidson routine will perform the subspace rotation
 perform sub-space diagonalisation
    after iterative eigenvector-optimisation
 modified Broyden-mixing scheme, WC =      100.0
 initial mixing is a Kerker type mixing with AMIX =  0.4000 and BMIX =      1.0000
 Hartree-type preconditioning will be used
 using additional bands           15
 reciprocal scheme for non local part
 use partial core corrections
 calculate Harris-corrections to forces 
   (improved forces if not selfconsistent)
 use gradient corrections 
 use of overlap-Matrix (Vanderbilt PP)
 Gauss-broadening in eV      SIGMA  =   0.05


--------------------------------------------------------------------------------------------------------


  energy-cutoff  :      425.00
  volume of cell :       22.95
      direct lattice vectors                 reciprocal lattice vectors
     1.271060561 -2.201541471  0.000000000     0.393372287 -0.227113596  0.000000000
     1.271060561  2.201541471  0.000000000     0.393372287  0.227113596  0.000000000
     0.000000000  0.000000000  4.100561596     0.000000000  0.000000000  0.243869035

  length of vectors
     2.542121122  2.542121122  4.100561596     0.454227192  0.454227192  0.243869035


 
 k-points in units of 2pi/SCALE and weight: Automatic mesh                          
   0.00000000  0.00000000  0.00000000       0.001
   0.03278102 -0.01892613  0.00000000       0.005
   0.06556205 -0.03785227  0.00000000       0.005
   0.09834307 -0.05677840  0.00000000       0.005
   0.13112410 -0.07570453  0.00000000       0.005
   0.16390512 -0.09463066  0.00000000       0.005
   0.19668614 -0.11355680  0.00000000       0.003
   0.06556205  0.00000000  0.00000000       0.005
   0.09834307 -0.01892613  0.00000000       0.010
   0.13112410 -0.03785227  0.00000000       0.010
   0.16390512 -0.05677840  0.00000000       0.010
   0.19668614 -0.07570453  0.00000000       0.010
   0.13112410  0.00000000  0.00000000       0.005
   0.16390512 -0.01892613  0.00000000       0.010
   0.19668614 -0.03785227  0.00000000       0.010
   0.22946717 -0.05677840  0.00000000       0.005
   0.19668614  0.00000000  0.00000000       0.005
   0.22946717 -0.01892613  0.00000000       0.010
   0.26224819  0.00000000  0.00000000       0.002
   0.00000000  0.00000000  0.03048363       0.002
   0.03278102 -0.01892613  0.03048363       0.010
   0.06556205 -0.03785227  0.03048363       0.010
   0.09834307 -0.05677840  0.03048363       0.010
   0.13112410 -0.07570453  0.03048363       0.010
   0.16390512 -0.09463066  0.03048363       0.010
   0.19668614 -0.11355680  0.03048363       0.005
   0.06556205  0.00000000  0.03048363       0.010
   0.09834307 -0.01892613  0.03048363       0.021
   0.13112410 -0.03785227  0.03048363       0.021
   0.16390512 -0.05677840  0.03048363       0.021
   0.19668614 -0.07570453  0.03048363       0.021
   0.13112410  0.00000000  0.03048363       0.010
   0.16390512 -0.01892613  0.03048363       0.021
   0.19668614 -0.03785227  0.03048363       0.021
   0.22946717 -0.05677840  0.03048363       0.010
   0.19668614  0.00000000  0.03048363       0.010
   0.22946717 -0.01892613  0.03048363       0.021
   0.26224819  0.00000000  0.03048363       0.003
   0.00000000  0.00000000  0.06096726       0.002
   0.03278102 -0.01892613  0.06096726       0.010
   0.06556205 -0.03785227  0.06096726       0.010
   0.09834307 -0.05677840  0.06096726       0.010
   0.13112410 -0.07570453  0.06096726       0.010
   0.16390512 -0.09463066  0.06096726       0.010
   0.19668614 -0.11355680  0.06096726       0.005
   0.06556205  0.00000000  0.06096726       0.010
   0.09834307 -0.01892613  0.06096726       0.021
   0.13112410 -0.03785227  0.06096726       0.021
   0.16390512 -0.05677840  0.06096726       0.021
   0.19668614 -0.07570453  0.06096726       0.021
   0.13112410  0.00000000  0.06096726       0.010
   0.16390512 -0.01892613  0.06096726       0.021
   0.19668614 -0.03785227  0.06096726       0.021
   0.22946717 -0.05677840  0.06096726       0.010
   0.19668614  0.00000000  0.06096726       0.010
   0.22946717 -0.01892613  0.06096726       0.021
   0.26224819  0.00000000  0.06096726       0.003
   0.00000000  0.00000000  0.09145089       0.002
   0.03278102 -0.01892613  0.09145089       0.010
   0.06556205 -0.03785227  0.09145089       0.010
   0.09834307 -0.05677840  0.09145089       0.010
   0.13112410 -0.07570453  0.09145089       0.010
   0.16390512 -0.09463066  0.09145089       0.010
   0.19668614 -0.11355680  0.09145089       0.005
   0.06556205  0.00000000  0.09145089       0.010
   0.09834307 -0.01892613  0.09145089       0.021
   0.13112410 -0.03785227  0.09145089       0.021
   0.16390512 -0.05677840  0.09145089       0.021
   0.19668614 -0.07570453  0.09145089       0.021
   0.13112410  0.00000000  0.09145089       0.010
   0.16390512 -0.01892613  0.09145089       0.021
   0.19668614 -0.03785227  0.09145089       0.021
   0.22946717 -0.05677840  0.09145089       0.010
   0.19668614  0.00000000  0.09145089       0.010
   0.22946717 -0.01892613  0.09145089       0.021
   0.26224819  0.00000000  0.09145089       0.003
   0.00000000  0.00000000  0.12193452       0.001
   0.03278102 -0.01892613  0.12193452       0.005
   0.06556205 -0.03785227  0.12193452       0.005
   0.09834307 -0.05677840  0.12193452       0.005
   0.13112410 -0.07570453  0.12193452       0.005
   0.16390512 -0.09463066  0.12193452       0.005
   0.19668614 -0.11355680  0.12193452       0.003
   0.06556205  0.00000000  0.12193452       0.005
   0.09834307 -0.01892613  0.12193452       0.010
   0.13112410 -0.03785227  0.12193452       0.010
   0.16390512 -0.05677840  0.12193452       0.010
   0.19668614 -0.07570453  0.12193452       0.010
   0.13112410  0.00000000  0.12193452       0.005
   0.16390512 -0.01892613  0.12193452       0.010
   0.19668614 -0.03785227  0.12193452       0.010
   0.22946717 -0.05677840  0.12193452       0.005
   0.19668614  0.00000000  0.12193452       0.005
   0.22946717 -0.01892613  0.12193452       0.010
   0.26224819  0.00000000  0.12193452       0.002
 
 k-points in reciprocal lattice and weights: Automatic mesh                          
   0.00000000  0.00000000  0.00000000       0.001
   0.08333333  0.00000000  0.00000000       0.005
   0.16666667  0.00000000  0.00000000       0.005
   0.25000000 -0.00000000  0.00000000       0.005
   0.33333333  0.00000000  0.00000000       0.005
   0.41666667  0.00000000  0.00000000       0.005
   0.50000000 -0.00000000  0.00000000       0.003
   0.08333333  0.08333333  0.00000000       0.005
   0.16666667  0.08333333  0.00000000       0.010
   0.25000000  0.08333333  0.00000000       0.010
   0.33333333  0.08333333  0.00000000       0.010
   0.41666667  0.08333333  0.00000000       0.010
   0.16666667  0.16666667  0.00000000       0.005
   0.25000000  0.16666667  0.00000000       0.010
   0.33333333  0.16666667  0.00000000       0.010
   0.41666667  0.16666667  0.00000000       0.005
   0.25000000  0.25000000  0.00000000       0.005
   0.33333333  0.25000000  0.00000000       0.010
   0.33333333  0.33333333  0.00000000       0.002
   0.00000000  0.00000000  0.12500000       0.002
   0.08333333  0.00000000  0.12500000       0.010
   0.16666667  0.00000000  0.12500000       0.010
   0.25000000 -0.00000000  0.12500000       0.010
   0.33333333  0.00000000  0.12500000       0.010
   0.41666667  0.00000000  0.12500000       0.010
   0.50000000 -0.00000000  0.12500000       0.005
   0.08333333  0.08333333  0.12500000       0.010
   0.16666667  0.08333333  0.12500000       0.021
   0.25000000  0.08333333  0.12500000       0.021
   0.33333333  0.08333333  0.12500000       0.021
   0.41666667  0.08333333  0.12500000       0.021
   0.16666667  0.16666667  0.12500000       0.010
   0.25000000  0.16666667  0.12500000       0.021
   0.33333333  0.16666667  0.12500000       0.021
   0.41666667  0.16666667  0.12500000       0.010
   0.25000000  0.25000000  0.12500000       0.010
   0.33333333  0.25000000  0.12500000       0.021
   0.33333333  0.33333333  0.12500000       0.003
   0.00000000  0.00000000  0.25000000       0.002
   0.08333333  0.00000000  0.25000000       0.010
   0.16666667  0.00000000  0.25000000       0.010
   0.25000000 -0.00000000  0.25000000       0.010
   0.33333333  0.00000000  0.25000000       0.010
   0.41666667  0.00000000  0.25000000       0.010
   0.50000000 -0.00000000  0.25000000       0.005
   0.08333333  0.08333333  0.25000000       0.010
   0.16666667  0.08333333  0.25000000       0.021
   0.25000000  0.08333333  0.25000000       0.021
   0.33333333  0.08333333  0.25000000       0.021
   0.41666667  0.08333333  0.25000000       0.021
   0.16666667  0.16666667  0.25000000       0.010
   0.25000000  0.16666667  0.25000000       0.021
   0.33333333  0.16666667  0.25000000       0.021
   0.41666667  0.16666667  0.25000000       0.010
   0.25000000  0.25000000  0.25000000       0.010
   0.33333333  0.25000000  0.25000000       0.021
   0.33333333  0.33333333  0.25000000       0.003
   0.00000000  0.00000000  0.37500000       0.002
   0.08333333  0.00000000  0.37500000       0.010
   0.16666667  0.00000000  0.37500000       0.010
   0.25000000 -0.00000000  0.37500000       0.010
   0.33333333  0.00000000  0.37500000       0.010
   0.41666667  0.00000000  0.37500000       0.010
   0.50000000 -0.00000000  0.37500000       0.005
   0.08333333  0.08333333  0.37500000       0.010
   0.16666667  0.08333333  0.37500000       0.021
   0.25000000  0.08333333  0.37500000       0.021
   0.33333333  0.08333333  0.37500000       0.021
   0.41666667  0.08333333  0.37500000       0.021
   0.16666667  0.16666667  0.37500000       0.010
   0.25000000  0.16666667  0.37500000       0.021
   0.33333333  0.16666667  0.37500000       0.021
   0.41666667  0.16666667  0.37500000       0.010
   0.25000000  0.25000000  0.37500000       0.010
   0.33333333  0.25000000  0.37500000       0.021
   0.33333333  0.33333333  0.37500000       0.003
   0.00000000  0.00000000  0.50000000       0.001
   0.08333333  0.00000000  0.50000000       0.005
   0.16666667  0.00000000  0.50000000       0.005
   0.25000000 -0.00000000  0.50000000       0.005
   0.33333333  0.00000000  0.50000000       0.005
   0.41666667  0.00000000  0.50000000       0.005
   0.50000000 -0.00000000  0.50000000       0.003
   0.08333333  0.08333333  0.50000000       0.005
   0.16666667  0.08333333  0.50000000       0.010
   0.25000000  0.08333333  0.50000000       0.010
   0.33333333  0.08333333  0.50000000       0.010
   0.41666667  0.08333333  0.50000000       0.010
   0.16666667  0.16666667  0.50000000       0.005
   0.25000000  0.16666667  0.50000000       0.010
   0.33333333  0.16666667  0.50000000       0.010
   0.41666667  0.16666667  0.50000000       0.005
   0.25000000  0.25000000  0.50000000       0.005
   0.33333333  0.25000000  0.50000000       0.010
   0.33333333  0.33333333  0.50000000       0.002
 
 position of ions in fractional coordinates (direct lattice) 
   0.33333333  0.66666667  0.25000000
   0.66666667  0.33333333  0.75000000
 
 position of ions in cartesian coordinates  (Angst):
   1.27106056  0.73384716  1.02514040
   1.27106056 -0.73384716  3.07542120
 


--------------------------------------------------------------------------------------------------------


 k-point   1 :   0.0000 0.0000 0.0000  plane waves:     463
 k-point   2 :   0.0833 0.0000 0.0000  plane waves:     453
 k-point   3 :   0.1667 0.0000 0.0000  plane waves:     457
 k-point   4 :   0.2500-0.0000 0.0000  plane waves:     451
 k-point   5 :   0.3333 0.0000 0.0000  plane waves:     454
 k-point   6 :   0.4167 0.0000 0.0000  plane waves:     456
 k-point   7 :   0.5000-0.0000 0.0000  plane waves:     460
 k-point   8 :   0.0833 0.0833 0.0000  plane waves:     457
 k-point   9 :   0.1667 0.0833 0.0000  plane waves:     456
 k-point  10 :   0.2500 0.0833 0.0000  plane waves:     455
 k-point  11 :   0.3333 0.0833 0.0000  plane waves:     457
 k-point  12 :   0.4167 0.0833 0.0000  plane waves:     453
 k-point  13 :   0.1667 0.1667 0.0000  plane waves:     454
 k-point  14 :   0.2500 0.1667 0.0000  plane waves:     456
 k-point  15 :   0.3333 0.1667 0.0000  plane waves:     454
 k-point  16 :   0.4167 0.1667 0.0000  plane waves:     460
 k-point  17 :   0.2500 0.2500 0.0000  plane waves:     458
 k-point  18 :   0.3333 0.2500 0.0000  plane waves:     454
 k-point  19 :   0.3333 0.3333 0.0000  plane waves:     462
 k-point  20 :   0.0000 0.0000 0.1250  plane waves:     452
 k-point  21 :   0.0833 0.0000 0.1250  plane waves:     457
 k-point  22 :   0.1667 0.0000 0.1250  plane waves:     453
 k-point  23 :   0.2500-0.0000 0.1250  plane waves:     455
 k-point  24 :   0.3333 0.0000 0.1250  plane waves:     456
 k-point  25 :   0.4167 0.0000 0.1250  plane waves:     457
 k-point  26 :   0.5000-0.0000 0.1250  plane waves:     460
 k-point  27 :   0.0833 0.0833 0.1250  plane waves:     456
 k-point  28 :   0.1667 0.0833 0.1250  plane waves:     454
 k-point  29 :   0.2500 0.0833 0.1250  plane waves:     454
 k-point  30 :   0.3333 0.0833 0.1250  plane waves:     454
 k-point  31 :   0.4167 0.0833 0.1250  plane waves:     453
 k-point  32 :   0.1667 0.1667 0.1250  plane waves:     456
 k-point  33 :   0.2500 0.1667 0.1250  plane waves:     455
 k-point  34 :   0.3333 0.1667 0.1250  plane waves:     458
 k-point  35 :   0.4167 0.1667 0.1250  plane waves:     460
 k-point  36 :   0.2500 0.2500 0.1250  plane waves:     455
 k-point  37 :   0.3333 0.2500 0.1250  plane waves:     457
 k-point  38 :   0.3333 0.3333 0.1250  plane waves:     462
 k-point  39 :   0.0000 0.0000 0.2500  plane waves:     470
 k-point  40 :   0.0833 0.0000 0.2500  plane waves:     461
 k-point  41 :   0.1667 0.0000 0.2500  plane waves:     455
 k-point  42 :   0.2500-0.0000 0.2500  plane waves:     455
 k-point  43 :   0.3333 0.0000 0.2500  plane waves:     456
 k-point  44 :   0.4167 0.0000 0.2500  plane waves:     455
 k-point  45 :   0.5000-0.0000 0.2500  plane waves:     452
 k-point  46 :   0.0833 0.0833 0.2500  plane waves:     453
 k-point  47 :   0.1667 0.0833 0.2500  plane waves:     453
 k-point  48 :   0.2500 0.0833 0.2500  plane waves:     456
 k-point  49 :   0.3333 0.0833 0.2500  plane waves:     459
 k-point  50 :   0.4167 0.0833 0.2500  plane waves:     459
 k-point  51 :   0.1667 0.1667 0.2500  plane waves:     454
 k-point  52 :   0.2500 0.1667 0.2500  plane waves:     460
 k-point  53 :   0.3333 0.1667 0.2500  plane waves:     459
 k-point  54 :   0.4167 0.1667 0.2500  plane waves:     454
 k-point  55 :   0.2500 0.2500 0.2500  plane waves:     456
 k-point  56 :   0.3333 0.2500 0.2500  plane waves:     456
 k-point  57 :   0.3333 0.3333 0.2500  plane waves:     459
 k-point  58 :   0.0000 0.0000 0.3750  plane waves:     476
 k-point  59 :   0.0833 0.0000 0.3750  plane waves:     471
 k-point  60 :   0.1667 0.0000 0.3750  plane waves:     460
 k-point  61 :   0.2500-0.0000 0.3750  plane waves:     459
 k-point  62 :   0.3333 0.0000 0.3750  plane waves:     451
 k-point  63 :   0.4167 0.0000 0.3750  plane waves:     456
 k-point  64 :   0.5000-0.0000 0.3750  plane waves:     456
 k-point  65 :   0.0833 0.0833 0.3750  plane waves:     465
 k-point  66 :   0.1667 0.0833 0.3750  plane waves:     457
 k-point  67 :   0.2500 0.0833 0.3750  plane waves:     454
 k-point  68 :   0.3333 0.0833 0.3750  plane waves:     459
 k-point  69 :   0.4167 0.0833 0.3750  plane waves:     460
 k-point  70 :   0.1667 0.1667 0.3750  plane waves:     453
 k-point  71 :   0.2500 0.1667 0.3750  plane waves:     456
 k-point  72 :   0.3333 0.1667 0.3750  plane waves:     460
 k-point  73 :   0.4167 0.1667 0.3750  plane waves:     458
 k-point  74 :   0.2500 0.2500 0.3750  plane waves:     452
 k-point  75 :   0.3333 0.2500 0.3750  plane waves:     454
 k-point  76 :   0.3333 0.3333 0.3750  plane waves:     456
 k-point  77 :   0.0000 0.0000 0.5000  plane waves:     482
 k-point  78 :   0.0833 0.0000 0.5000  plane waves:     474
 k-point  79 :   0.1667 0.0000 0.5000  plane waves:     466
 k-point  80 :   0.2500-0.0000 0.5000  plane waves:     458
 k-point  81 :   0.3333 0.0000 0.5000  plane waves:     456
 k-point  82 :   0.4167 0.0000 0.5000  plane waves:     446
 k-point  83 :   0.5000-0.0000 0.5000  plane waves:     456
 k-point  84 :   0.0833 0.0833 0.5000  plane waves:     468
 k-point  85 :   0.1667 0.0833 0.5000  plane waves:     462
 k-point  86 :   0.2500 0.0833 0.5000  plane waves:     456
 k-point  87 :   0.3333 0.0833 0.5000  plane waves:     454
 k-point  88 :   0.4167 0.0833 0.5000  plane waves:     456
 k-point  89 :   0.1667 0.1667 0.5000  plane waves:     454
 k-point  90 :   0.2500 0.1667 0.5000  plane waves:     450
 k-point  91 :   0.3333 0.1667 0.5000  plane waves:     460
 k-point  92 :   0.4167 0.1667 0.5000  plane waves:     460
 k-point  93 :   0.2500 0.2500 0.5000  plane waves:     450
 k-point  94 :   0.3333 0.2500 0.5000  plane waves:     456
 k-point  95 :   0.3333 0.3333 0.5000  plane waves:     450

 maximum and minimum number of plane-waves per node :       482      446

 maximum number of plane-waves:       482
 maximum index in each direction: 
   IXMAX=    4   IYMAX=    4   IZMAX=    6
   IXMIN=   -4   IYMIN=   -4   IZMIN=   -7


 serial   3D FFT for wavefunctions
 parallel 3D FFT for charge:
    minimum data exchange during FFTs selected (reduces bandwidth)


 total amount of memory used by VASP MPI-rank0    39856. kBytes
=======================================================================

   base      :      30000. kBytes
   nonl-proj :       6910. kBytes
   fftplans  :        172. kBytes
   grid      :       1034. kBytes
   one-center:         62. kBytes
   wavefun   :       1678. kBytes
 
     INWAV:  cpu time      0.0000: real time      0.0001
 Broyden mixing: mesh for mixing (old mesh)
   NGX =  9   NGY =  9   NGZ = 13
  (NGX  = 36   NGY  = 36   NGZ  = 56)
  gives a total of   1053 points

 initial charge density was supplied:
 charge density of overlapping atoms calculated
 number of electron      18.0000000 magnetization       6.0000000
 keeping initial charge density in first step


--------------------------------------------------------------------------------------------------------


 Maximum index for augmentation-charges         1002 (set IRDMAX)


--------------------------------------------------------------------------------------------------------


 First call to EWALD:  gamma=   0.624
 Maximum number of real-space cells 3x 3x 2
 Maximum number of reciprocal cells 3x 3x 4

    FEWALD:  cpu time      0.0015: real time      0.0015


--------------------------------------- Iteration      1(   1)  ---------------------------------------


    POTLOK:  cpu time      0.0070: real time      0.0071
    SETDIJ:  cpu time      0.0054: real time      0.0054
     EDDAV:  cpu time      0.7529: real time      0.7569
       DOS:  cpu time      0.0013: real time      0.0013
    --------------------------------------------
      LOOP:  cpu time      0.7665: real time      0.7706

 eigenvalue-minimisations  :  9120
 total energy-change (2. order) : 0.4194329E+01  (-0.8370778E+03)
 number of electron      18.0000000 magnetization       6.0000000
 augmentation part       18.0000000 magnetization       6.0000000

 Free energy of the ion-electron system (eV)
  ---------------------------------------------------
  alpha Z        PSCENC =        73.82880147
  Ewald energy   TEWEN  =     -1493.50445591
  -Hartree energ DENC   =      -312.00400794
  -exchange      EXHF   =         0.00000000
  -V(xc)+E(xc)   XCENC  =        35.27529066
  PAW double counting   =      1439.98163886    -1545.88690193
  entropy T*S    EENTRO =        -0.00366953
  eigenvalues    EBANDS =       179.78440390
  atomic energy  EATOM  =      1626.72322989
  Solvation  Ediel_sol  =         0.00000000
  ---------------------------------------------------
  free energy    TOTEN  =         4.19432946 eV

  energy without entropy =        4.19799899  energy(sigma->0) =        4.19616423


--------------------------------------------------------------------------------------------------------




--------------------------------------- Iteration      1(   2)  ---------------------------------------


     EDDAV:  cpu time      1.0176: real time      1.0236
       DOS:  cpu time      0.0008: real time      0.0008
    --------------------------------------------
      LOOP:  cpu time      1.0185: real time      1.0244

 eigenvalue-minimisations  : 10992
 total energy-change (2. order) :-0.1976770E+02  (-0.1951020E+02)
 number of electron      18.0000000 magnetization       6.0000000
 augmentation part       18.0000000 magnetization       6.0000000

 Free energy of the ion-electron system (eV)
  ---------------------------------------------------
  alpha Z        PSCENC =        73.82880147
  Ewald energy   TEWEN  =     -1493.50445591
  -Hartree energ DENC   =      -312.00400794
  -exchange      EXHF   =         0.00000000
  -V(xc)+E(xc)   XCENC  =        35.27529066
  PAW double counting   =      1439.98163886    -1545.88690193
  entropy T*S    EENTRO =        -0.00190707
  eigenvalues    EBANDS =       160.01493844
  atomic energy  EATOM  =      1626.72322989
  Solvation  Ediel_sol  =         0.00000000
  ---------------------------------------------------
  free energy    TOTEN  =       -15.57337354 eV

  energy without entropy =      -15.57146646  energy(sigma->0) =      -15.57242000


--------------------------------------------------------------------------------------------------------




--------------------------------------- Iteration      1(   3)  ---------------------------------------


     EDDAV:  cpu time      1.1509: real time      1.1567
       DOS:  cpu time      0.0008: real time      0.0008
    --------------------------------------------
      LOOP:  cpu time      1.1517: real time      1.1575

 eigenvalue-minimisations  : 11712
 total energy-change (2. order) :-0.1234238E+00  (-0.1233889E+00)
 number of electron      18.0000000 magnetization       6.0000000
 augmentation part       18.0000000 magnetization       6.0000000

 Free energy of the ion-electron system (eV)
  ---------------------------------------------------
  alpha Z        PSCENC =        73.82880147
  Ewald energy   TEWEN  =     -1493.50445591
  -Hartree energ DENC   =      -312.00400794
  -exchange      EXHF   =         0.00000000
  -V(xc)+E(xc)   XCENC  =        35.27529066
  PAW double counting   =      1439.98163886    -1545.88690193
  entropy T*S    EENTRO =        -0.00191678
  eigenvalues    EBANDS =       159.89152439
  atomic energy  EATOM  =      1626.72322989
  Solvation  Ediel_sol  =         0.00000000
  ---------------------------------------------------
  free energy    TOTEN  =       -15.69679730 eV

  energy without entropy =      -15.69488052  energy(sigma->0) =      -15.69583891


--------------------------------------------------------------------------------------------------------




--------------------------------------- Iteration      1(   4)  ---------------------------------------


     EDDAV:  cpu time      1.3898: real time      1.3966
       DOS:  cpu time      0.0008: real time      0.0008
    --------------------------------------------
      LOOP:  cpu time      1.3906: real time      1.3974

 eigenvalue-minimisations  : 13056
 total energy-change (2. order) :-0.7295427E-03  (-0.7295229E-03)
 number of electron      18.0000000 magnetization       6.0000000
 augmentation part       18.0000000 magnetization       6.0000000

 Free energy of the ion-electron system (eV)
  ---------------------------------------------------
  alpha Z        PSCENC =        73.82880147
  Ewald energy   TEWEN  =     -1493.50445591
  -Hartree energ DENC   =      -312.00400794
  -exchange      EXHF   =         0.00000000
  -V(xc)+E(xc)   XCENC  =        35.27529066
  PAW double counting   =      1439.98163886    -1545.88690193
  entropy T*S    EENTRO =        -0.00191910
  eigenvalues    EBANDS =       159.89079716
  atomic energy  EATOM  =      1626.72322989
  Solvation  Ediel_sol  =         0.00000000
  ---------------------------------------------------
  free energy    TOTEN  =       -15.69752684 eV

  energy without entropy =      -15.69560775  energy(sigma->0) =      -15.69656730


--------------------------------------------------------------------------------------------------------




--------------------------------------- Iteration      1(   5)  ---------------------------------------


     EDDAV:  cpu time      1.3165: real time      1.3231
       DOS:  cpu time      0.0008: real time      0.0008
    CHARGE:  cpu time      0.0328: real time      0.0329
    MIXING:  cpu time      0.0003: real time      0.0003
    --------------------------------------------
      LOOP:  cpu time      1.3504: real time      1.3570

 eigenvalue-minimisations  : 12408
 total energy-change (2. order) :-0.6415858E-06  (-0.6400477E-06)
 number of electron      18.0000030 magnetization       3.5858000
 augmentation part        9.1372550 magnetization       2.7947506

 Broyden mixing:
  rms(total) = 0.15236E+01    rms(broyden)= 0.15236E+01
  rms(prec ) = 0.26593E+01
  weight for this iteration     100.00

 Free energy of the ion-electron system (eV)
  ---------------------------------------------------
  alpha Z        PSCENC =        73.82880147
  Ewald energy   TEWEN  =     -1493.50445591
  -Hartree energ DENC   =      -312.00400794
  -exchange      EXHF   =         0.00000000
  -V(xc)+E(xc)   XCENC  =        35.27529066
  PAW double counting   =      1439.98163886    -1545.88690193
  entropy T*S    EENTRO =        -0.00191910
  eigenvalues    EBANDS =       159.89079652
  atomic energy  EATOM  =      1626.72322989
  Solvation  Ediel_sol  =         0.00000000
  ---------------------------------------------------
  free energy    TOTEN  =       -15.69752749 eV

  energy without entropy =      -15.69560839  energy(sigma->0) =      -15.69656794


--------------------------------------------------------------------------------------------------------




--------------------------------------- Iteration      1(   6)  ---------------------------------------


    POTLOK:  cpu time      0.0056: real time      0.0058
    SETDIJ:  cpu time      0.0053: real time      0.0053
     EDDAV:  cpu time      1.5880: real time      1.5956
       DOS:  cpu time      0.0008: real time      0.0009
    CHARGE:  cpu time      0.0325: real time      0.0326
    MIXING:  cpu time      0.0003: real time      0.0003
    --------------------------------------------
      LOOP:  cpu time      1.6325: real time      1.6404

 eigenvalue-minimisations  : 14184
 total energy-change (2. order) : 0.1165649E+01  (-0.3363508E+01)
 number of electron      18.0000035 magnetization       3.3121090
 augmentation part       10.7834752 magnetization       2.9332829

 Broyden mixing:
  rms(total) = 0.71023E+00    rms(broyden)= 0.71020E+00
  rms(prec ) = 0.10162E+01
  weight for this iteration     100.00

 eigenvalues of (default mixing * dielectric matrix)
  average eigenvalue GAMMA=   0.8239
  0.8239

 Free energy of the ion-electron system (eV)
  ---------------------------------------------------
  alpha Z        PSCENC =        73.82880147
  Ewald energy   TEWEN  =     -1493.50445591
  -Hartree energ DENC   =      -273.29643417
  -exchange      EXHF   =         0.00000000
  -V(xc)+E(xc)   XCENC  =        32.26583431
  PAW double counting   =      1555.39266447    -1650.45333540
  entropy T*S    EENTRO =        -0.00192459
  eigenvalues    EBANDS =       114.51374145
  atomic energy  EATOM  =      1626.72322989
  Solvation  Ediel_sol  =         0.00000000
  ---------------------------------------------------
  free energy    TOTEN  =       -14.53187849 eV

  energy without entropy =      -14.52995390  energy(sigma->0) =      -14.53091620


--------------------------------------------------------------------------------------------------------




--------------------------------------- Iteration      1(   7)  ---------------------------------------


    POTLOK:  cpu time      0.0057: real time      0.0058
    SETDIJ:  cpu time      0.0052: real time      0.0052
     EDDAV:  cpu time      1.6129: real time      1.6203
       DOS:  cpu time      0.0008: real time      0.0008
    CHARGE:  cpu time      0.0318: real time      0.0321
    MIXING:  cpu time      0.0003: real time      0.0003
    --------------------------------------------
      LOOP:  cpu time      1.6566: real time      1.6645

 eigenvalue-minimisations  : 14280
 total energy-change (2. order) : 0.4740947E+00  (-0.4520070E+00)
 number of electron      18.0000033 magnetization       3.3233961
 augmentation part       10.1832136 magnetization       2.9507768

 Broyden mixing:
  rms(total) = 0.36192E+00    rms(broyden)= 0.36192E+00
  rms(prec ) = 0.44030E+00
  weight for this iteration     100.00

 eigenvalues of (default mixing * dielectric matrix)
  average eigenvalue GAMMA=   0.7331
  0.9781  0.4880

 Free energy of the ion-electron system (eV)
  ---------------------------------------------------
  alpha Z        PSCENC =        73.82880147
  Ewald energy   TEWEN  =     -1493.50445591
  -Hartree energ DENC   =      -282.92745256
  -exchange      EXHF   =         0.00000000
  -V(xc)+E(xc)   XCENC  =        32.77798729
  PAW double counting   =      1616.91689382    -1719.12841507
  entropy T*S    EENTRO =        -0.00260233
  eigenvalues    EBANDS =       131.25822961
  atomic energy  EATOM  =      1626.72322989
  Solvation  Ediel_sol  =         0.00000000
  ---------------------------------------------------
  free energy    TOTEN  =       -14.05778378 eV

  energy without entropy =      -14.05518146  energy(sigma->0) =      -14.05648262


--------------------------------------------------------------------------------------------------------




--------------------------------------- Iteration      1(   8)  ---------------------------------------


    POTLOK:  cpu time      0.0055: real time      0.0056
    SETDIJ:  cpu time      0.0050: real time      0.0050
     EDDAV:  cpu time      1.5505: real time      1.5577
       DOS:  cpu time      0.0008: real time      0.0008
    CHARGE:  cpu time      0.0323: real time      0.0324
    MIXING:  cpu time      0.0003: real time      0.0003
    --------------------------------------------
      LOOP:  cpu time      1.5944: real time      1.6018

 eigenvalue-minimisations  : 13776
 total energy-change (2. order) : 0.1975039E-01  (-0.4501377E-02)
 number of electron      18.0000033 magnetization       3.3530719
 augmentation part       10.2257311 magnetization       3.0104514

 Broyden mixing:
  rms(total) = 0.15652E+00    rms(broyden)= 0.15652E+00
  rms(prec ) = 0.21106E+00
  weight for this iteration     100.00

 eigenvalues of (default mixing * dielectric matrix)
  average eigenvalue GAMMA=   0.9814
  1.6175  0.7594  0.5673

 Free energy of the ion-electron system (eV)
  ---------------------------------------------------
  alpha Z        PSCENC =        73.82880147
  Ewald energy   TEWEN  =     -1493.50445591
  -Hartree energ DENC   =      -280.33388519
  -exchange      EXHF   =         0.00000000
  -V(xc)+E(xc)   XCENC  =        32.73911206
  PAW double counting   =      1662.34317658    -1765.69229808
  entropy T*S    EENTRO =        -0.00257504
  eigenvalues    EBANDS =       129.86086084
  atomic energy  EATOM  =      1626.72322989
  Solvation  Ediel_sol  =         0.00000000
  ---------------------------------------------------
  free energy    TOTEN  =       -14.03803339 eV

  energy without entropy =      -14.03545835  energy(sigma->0) =      -14.03674587


--------------------------------------------------------------------------------------------------------




--------------------------------------- Iteration      1(   9)  ---------------------------------------


    POTLOK:  cpu time      0.0054: real time      0.0056
    SETDIJ:  cpu time      0.0050: real time      0.0051
     EDDAV:  cpu time      1.9732: real time      1.9825
       DOS:  cpu time      0.0008: real time      0.0008
    CHARGE:  cpu time      0.0320: real time      0.0321
    MIXING:  cpu time      0.0003: real time      0.0003
    --------------------------------------------
      LOOP:  cpu time      2.0168: real time      2.0263

 eigenvalue-minimisations  : 16248
 total energy-change (2. order) : 0.1347687E-01  (-0.2258794E-02)
 number of electron      18.0000033 magnetization       3.3638846
 augmentation part       10.2640971 magnetization       3.0340170

 Broyden mixing:
  rms(total) = 0.49888E-01    rms(broyden)= 0.49888E-01
  rms(prec ) = 0.61155E-01
  weight for this iteration     100.00

 eigenvalues of (default mixing * dielectric matrix)
  average eigenvalue GAMMA=   1.0711
  2.1364  0.8086  0.7278  0.6117

 Free energy of the ion-electron system (eV)
  ---------------------------------------------------
  alpha Z        PSCENC =        73.82880147
  Ewald energy   TEWEN  =     -1493.50445591
  -Hartree energ DENC   =      -277.67112167
  -exchange      EXHF   =         0.00000000
  -V(xc)+E(xc)   XCENC  =        32.66520686
  PAW double counting   =      1715.43555918    -1820.16658041
  entropy T*S    EENTRO =        -0.00261952
  eigenvalues    EBANDS =       128.66742361
  atomic energy  EATOM  =      1626.72322989
  Solvation  Ediel_sol  =         0.00000000
  ---------------------------------------------------
  free energy    TOTEN  =       -14.02455652 eV

  energy without entropy =      -14.02193700  energy(sigma->0) =      -14.02324676


--------------------------------------------------------------------------------------------------------




--------------------------------------- Iteration      1(  10)  ---------------------------------------


    POTLOK:  cpu time      0.0055: real time      0.0056
    SETDIJ:  cpu time      0.0050: real time      0.0050
     EDDAV:  cpu time      2.0113: real time      2.0205
       DOS:  cpu time      0.0008: real time      0.0008
    CHARGE:  cpu time      0.0317: real time      0.0318
    MIXING:  cpu time      0.0003: real time      0.0003
    --------------------------------------------
      LOOP:  cpu time      2.0546: real time      2.0641

 eigenvalue-minimisations  : 16296
 total energy-change (2. order) : 0.9624339E-03  (-0.2115433E-03)
 number of electron      18.0000033 magnetization       3.3585712
 augmentation part       10.2700429 magnetization       3.0180211

 Broyden mixing:
  rms(total) = 0.87162E-02    rms(broyden)= 0.87161E-02
  rms(prec ) = 0.11194E-01
  weight for this iteration     100.00

 eigenvalues of (default mixing * dielectric matrix)
  average eigenvalue GAMMA=   1.1485
  2.2943  1.0775  1.0775  0.6466  0.6466

 Free energy of the ion-electron system (eV)
  ---------------------------------------------------
  alpha Z        PSCENC =        73.82880147
  Ewald energy   TEWEN  =     -1493.50445591
  -Hartree energ DENC   =      -276.77008729
  -exchange      EXHF   =         0.00000000
  -V(xc)+E(xc)   XCENC  =        32.60751540
  PAW double counting   =      1739.90153445    -1845.33587059
  entropy T*S    EENTRO =        -0.00261572
  eigenvalues    EBANDS =       128.52835422
  atomic energy  EATOM  =      1626.72322989
  Solvation  Ediel_sol  =         0.00000000
  ---------------------------------------------------
  free energy    TOTEN  =       -14.02359409 eV

  energy without entropy =      -14.02097837  energy(sigma->0) =      -14.02228623


--------------------------------------------------------------------------------------------------------




--------------------------------------- Iteration      1(  11)  ---------------------------------------


    POTLOK:  cpu time      0.0053: real time      0.0055
    SETDIJ:  cpu time      0.0049: real time      0.0049
     EDDAV:  cpu time      1.5058: real time      1.5129
       DOS:  cpu time      0.0008: real time      0.0008
    CHARGE:  cpu time      0.0323: real time      0.0324
    MIXING:  cpu time      0.0003: real time      0.0003
    --------------------------------------------
      LOOP:  cpu time      1.5494: real time      1.5569

 eigenvalue-minimisations  : 13464
 total energy-change (2. order) :-0.5001680E-05  (-0.3694744E-04)
 number of electron      18.0000033 magnetization       3.3592122
 augmentation part       10.2705436 magnetization       3.0141037

 Broyden mixing:
  rms(total) = 0.27758E-02    rms(broyden)= 0.27756E-02
  rms(prec ) = 0.42087E-02
  weight for this iteration     100.00

 eigenvalues of (default mixing * dielectric matrix)
  average eigenvalue GAMMA=   1.0887
  2.3032  1.0677  1.0677  0.6155  0.7392  0.7392

 Free energy of the ion-electron system (eV)
  ---------------------------------------------------
  alpha Z        PSCENC =        73.82880147
  Ewald energy   TEWEN  =     -1493.50445591
  -Hartree energ DENC   =      -276.64807558
  -exchange      EXHF   =         0.00000000
  -V(xc)+E(xc)   XCENC  =        32.58849842
  PAW double counting   =      1745.06701804    -1850.61679177
  entropy T*S    EENTRO =        -0.00261437
  eigenvalues    EBANDS =       128.54079073
  atomic energy  EATOM  =      1626.72322989
  Solvation  Ediel_sol  =         0.00000000
  ---------------------------------------------------
  free energy    TOTEN  =       -14.02359909 eV

  energy without entropy =      -14.02098472  energy(sigma->0) =      -14.02229191


--------------------------------------------------------------------------------------------------------




--------------------------------------- Iteration      1(  12)  ---------------------------------------


    POTLOK:  cpu time      0.0053: real time      0.0055
    SETDIJ:  cpu time      0.0051: real time      0.0051
     EDDAV:  cpu time      1.3761: real time      1.3826
       DOS:  cpu time      0.0008: real time      0.0008
    CHARGE:  cpu time      0.0317: real time      0.0318
    MIXING:  cpu time      0.0003: real time      0.0003
    --------------------------------------------
      LOOP:  cpu time      1.4193: real time      1.4261

 eigenvalue-minimisations  : 12816
 total energy-change (2. order) : 0.4894330E-05  (-0.7560533E-06)
 number of electron      18.0000033 magnetization       3.3594378
 augmentation part       10.2710154 magnetization       3.0143696

 Broyden mixing:
  rms(total) = 0.14528E-02    rms(broyden)= 0.14528E-02
  rms(prec ) = 0.20707E-02
  weight for this iteration     100.00

 eigenvalues of (default mixing * dielectric matrix)
  average eigenvalue GAMMA=   1.2873
  2.5768  2.3332  1.0584  1.0584  0.6328  0.6923  0.6594

 Free energy of the ion-electron system (eV)
  ---------------------------------------------------
  alpha Z        PSCENC =        73.82880147
  Ewald energy   TEWEN  =     -1493.50445591
  -Hartree energ DENC   =      -276.60370857
  -exchange      EXHF   =         0.00000000
  -V(xc)+E(xc)   XCENC  =        32.58765751
  PAW double counting   =      1746.98039319    -1852.55728801
  entropy T*S    EENTRO =        -0.00261176
  eigenvalues    EBANDS =       128.52438799
  atomic energy  EATOM  =      1626.72322989
  Solvation  Ediel_sol  =         0.00000000
  ---------------------------------------------------
  free energy    TOTEN  =       -14.02359420 eV

  energy without entropy =      -14.02098244  energy(sigma->0) =      -14.02228832


--------------------------------------------------------------------------------------------------------




--------------------------------------- Iteration      1(  13)  ---------------------------------------


    POTLOK:  cpu time      0.0052: real time      0.0053
    SETDIJ:  cpu time      0.0048: real time      0.0048
     EDDAV:  cpu time      1.6408: real time      1.6485
       DOS:  cpu time      0.0008: real time      0.0008
    --------------------------------------------
      LOOP:  cpu time      1.6515: real time      1.6594

 eigenvalue-minimisations  : 14088
 total energy-change (2. order) :-0.5477134E-06  (-0.4622959E-06)
 number of electron      18.0000033 magnetization       3.3594378
 augmentation part       10.2710154 magnetization       3.0143696

 Free energy of the ion-electron system (eV)
  ---------------------------------------------------
  alpha Z        PSCENC =        73.82880147
  Ewald energy   TEWEN  =     -1493.50445591
  -Hartree energ DENC   =      -276.56627216
  -exchange      EXHF   =         0.00000000
  -V(xc)+E(xc)   XCENC  =        32.58602199
  PAW double counting   =      1748.81956349    -1854.41786872
  entropy T*S    EENTRO =        -0.00261086
  eigenvalues    EBANDS =       128.50999607
  atomic energy  EATOM  =      1626.72322989
  Solvation  Ediel_sol  =         0.00000000
  ---------------------------------------------------
  free energy    TOTEN  =       -14.02359474 eV

  energy without entropy =      -14.02098389  energy(sigma->0) =      -14.02228932


--------------------------------------------------------------------------------------------------------




 average (electrostatic) potential at core
  the test charge radii are     1.0452
  (the norm of the test charge is              1.0000)
       1 -79.0448       2 -79.0448
 
 
 
 E-fermi :   9.4485     XC(G=0): -13.0796     alpha+bet :-16.7626

 Fermi energy:         9.4485046070

 spin component 1

 k-point     1 :       0.0000    0.0000    0.0000
  band No.  band energies     occupation 
      1       0.8979      1.00000
      2       4.5896      1.00000
      3       6.9259      1.00000
      4       6.9362      1.00000
      5       6.9362      1.00000
      6       7.2207      1.00000
      7       7.2207      1.00000
      8       7.5281      1.00000
      9       7.5281      1.00000
     10       8.5432      1.00000
     11       8.5432      1.00000
     12       9.4701      0.27078
     13      15.3694      0.00000
     14      30.9481      0.00000
     15      32.9438      0.00000
     16      32.9438      0.00000
     17      33.8927      0.00000
     18      34.3585      0.00000
     19      34.3586      0.00000
     20      34.3872      0.00000
     21      39.1070      0.00000
     22      39.1070      0.00000
     23      39.6977      0.00000
     24      40.4472      0.00000

 k-point     2 :       0.0833    0.0000    0.0000
  band No.  band energies     occupation 
      1       1.1305      1.00000
      2       4.7251      1.00000
      3       6.7247      1.00000
      4       7.0395      1.00000
      5       7.1039      1.00000
      6       7.1806      1.00000
      7       7.3121      1.00000
      8       7.3987      1.00000
      9       7.4643      1.00000
     10       7.8892      1.00000
     11       8.5704      1.00000
     12      10.4189      0.00000
     13      15.4162      0.00000
     14      28.8820      0.00000
     15      30.9414      0.00000
     16      31.1867      0.00000
     17      34.3965      0.00000
     18      34.6695      0.00000
     19      36.0408      0.00000
     20      36.6037      0.00000
     21      37.3568      0.00000
     22      38.5358      0.00000
     23      39.2677      0.00000
     24      39.3832      0.00000

 k-point     3 :       0.1667    0.0000    0.0000
  band No.  band energies     occupation 
      1       1.8047      1.00000
      2       5.0596      1.00000
      3       6.4785      1.00000
      4       6.7794      1.00000
      5       7.0266      1.00000
      6       7.3060      1.00000
      7       7.3307      1.00000
      8       7.3818      1.00000
      9       7.5170      1.00000
     10       7.5674      1.00000
     11       8.6285      1.00000
     12      11.9145      0.00000
     13      15.5783      0.00000
     14      25.0785      0.00000
     15      28.6495      0.00000
     16      30.2866      0.00000
     17      32.1698      0.00000
     18      34.4978      0.00000
     19      34.8773      0.00000
     20      36.9776      0.00000
     21      37.6650      0.00000
     22      38.1099      0.00000
     23      38.6579      0.00000
     24      39.9220      0.00000

 k-point     4 :       0.2500   -0.0000    0.0000
  band No.  band energies     occupation 
      1       2.8293      1.00000
      2       5.3277      1.00000
      3       6.1156      1.00000
      4       6.3338      1.00000
      5       6.9461      1.00000
      6       7.1152      1.00000
      7       7.3324      1.00000
      8       7.7521      1.00000
      9       7.7719      1.00000
     10       7.9338      1.00000
     11       8.6839      1.00000
     12      13.6260      0.00000
     13      15.8921      0.00000
     14      21.4453      0.00000
     15      26.6669      0.00000
     16      28.8684      0.00000
     17      29.0721      0.00000
     18      32.4373      0.00000
     19      33.4577      0.00000
     20      36.6129      0.00000
     21      36.9660      0.00000
     22      37.7283      0.00000
     23      38.7381      0.00000
     24      41.6084      0.00000

 k-point     5 :       0.3333    0.0000    0.0000
  band No.  band energies     occupation 
      1       3.9559      1.00000
      2       5.2682      1.00000
      3       5.6305      1.00000
      4       6.4467      1.00000
      5       6.9430      1.00000
      6       7.0613      1.00000
      7       7.1731      1.00000
      8       8.1988      1.00000
      9       8.3304      1.00000
     10       8.4024      1.00000
     11       8.7222      1.00000
     12      15.5064      0.00000
     13      16.0343      0.00000
     14      18.6185      0.00000
     15      25.1011      0.00000
     16      25.8518      0.00000
     17      26.7621      0.00000
     18      31.0485      0.00000
     19      32.3451      0.00000
     20      34.9052      0.00000
     21      36.4861      0.00000
     22      38.4181      0.00000
     23      40.4831      0.00000
     24      42.7518      0.00000

 k-point     6 :       0.4167    0.0000    0.0000
  band No.  band energies     occupation 
      1       4.7013      1.00000
      2       5.0965      1.00000
      3       5.3403      1.00000
      4       6.7987      1.00000
      5       6.8253      1.00000
      6       7.0612      1.00000
      7       7.2472      1.00000
      8       8.5312      1.00000
      9       8.6577      1.00000
     10       8.7427      1.00000
     11       9.4610      0.36169
     12      14.2122      0.00000
     13      17.4635      0.00000
     14      18.5740      0.00000
     15      23.2238      0.00000
     16      24.0765      0.00000
     17      24.1448      0.00000
     18      30.5986      0.00000
     19      31.6005      0.00000
     20      33.8043      0.00000
     21      36.2101      0.00000
     22      38.8413      0.00000
     23      42.8170      0.00000
     24      43.3821      0.00000

 k-point     7 :       0.5000   -0.0000    0.0000
  band No.  band energies     occupation 
      1       4.9522      1.00000
      2       4.9650      1.00000
      3       5.2438      1.00000
      4       6.7836      1.00000
      5       7.0209      1.00000
      6       7.0357      1.00000
      7       7.3164      1.00000
      8       8.6512      1.00000
      9       8.7490      1.00000
     10       8.7897      1.00000
     11      10.6096      0.00000
     12      12.4884      0.00000
     13      18.7482      0.00000
     14      19.3254      0.00000
     15      21.7177      0.00000
     16      22.7213      0.00000
     17      23.7166      0.00000
     18      30.4868      0.00000
     19      31.3433      0.00000
     20      33.4229      0.00000
     21      36.1202      0.00000
     22      38.9981      0.00000
     23      43.5488      0.00000
     24      45.3060      0.00000

 k-point     8 :       0.0833    0.0833    0.0000
  band No.  band energies     occupation 
      1       1.5847      1.00000
      2       4.9654      1.00000
      3       6.5302      1.00000
      4       7.0034      1.00000
      5       7.0863      1.00000
      6       7.2471      1.00000
      7       7.2503      1.00000
      8       7.2830      1.00000
      9       7.5139      1.00000
     10       7.6251      1.00000
     11       8.6044      1.00000
     12      11.4916      0.00000
     13      15.5224      0.00000
     14      26.8391      0.00000
     15      27.4099      0.00000
     16      32.6682      0.00000
     17      33.7103      0.00000
     18      33.8861      0.00000
     19      33.9103      0.00000
     20      36.8280      0.00000
     21      37.4274      0.00000
     22      37.9471      0.00000
     23      40.3569      0.00000
     24      40.7588      0.00000

 k-point     9 :       0.1667    0.0833    0.0000
  band No.  band energies     occupation 
      1       2.4419      1.00000
      2       5.3075      1.00000
      3       6.2863      1.00000
      4       6.3615      1.00000
      5       6.9805      1.00000
      6       7.0824      1.00000
      7       7.4776      1.00000
      8       7.4782      1.00000
      9       7.6345      1.00000
     10       7.8919      1.00000
     11       8.6466      1.00000
     12      13.0057      0.00000
     13      15.7792      0.00000
     14      23.3074      0.00000
     15      25.4515      0.00000
     16      30.5590      0.00000
     17      31.4253      0.00000
     18      32.5526      0.00000
     19      33.8996      0.00000
     20      35.0072      0.00000
     21      37.1524      0.00000
     22      38.6093      0.00000
     23      40.3091      0.00000
     24      40.7563      0.00000

 k-point    10 :       0.2500    0.0833    0.0000
  band No.  band energies     occupation 
      1       3.5525      1.00000
      2       5.4206      1.00000
      3       5.8297      1.00000
      4       6.2298      1.00000
      5       6.9132      1.00000
      6       6.9947      1.00000
      7       7.3011      1.00000
      8       7.8425      1.00000
      9       8.0883      1.00000
     10       8.4092      1.00000
     11       8.6823      1.00000
     12      14.7662      0.00000
     13      16.1781      0.00000
     14      19.9207      0.00000
     15      23.9741      0.00000
     16      27.4346      0.00000
     17      28.6853      0.00000
     18      31.3297      0.00000
     19      33.0866      0.00000
     20      33.5190      0.00000
     21      37.8139      0.00000
     22      40.1442      0.00000
     23      40.3822      0.00000
     24      41.4139      0.00000

 k-point    11 :       0.3333    0.0833    0.0000
  band No.  band energies     occupation 
      1       4.5358      1.00000
      2       5.2624      1.00000
      3       5.4694      1.00000
      4       6.4552      1.00000
      5       6.8027      1.00000
      6       7.1282      1.00000
      7       7.1716      1.00000
      8       8.2968      1.00000
      9       8.4745      1.00000
     10       8.7046      1.00000
     11       9.1629      1.00000
     12      15.5391      0.00000
     13      16.6924      0.00000
     14      18.3234      0.00000
     15      22.8392      0.00000
     16      24.6015      0.00000
     17      25.7355      0.00000
     18      30.4543      0.00000
     19      32.4598      0.00000
     20      32.5072      0.00000
     21      37.8160      0.00000
     22      40.4861      0.00000
     23      41.9714      0.00000
     24      43.1107      0.00000

 k-point    12 :       0.4167    0.0833    0.0000
  band No.  band energies     occupation 
      1       4.9754      1.00000
      2       5.1118      1.00000
      3       5.2892      1.00000
      4       6.7577      1.00000
      5       6.8059      1.00000
      6       7.0144      1.00000
      7       7.3133      1.00000
      8       8.6178      1.00000
      9       8.6826      1.00000
     10       8.7146      1.00000
     11      10.4206      0.00000
     12      13.2473      0.00000
     13      18.5483      0.00000
     14      19.2144      0.00000
     15      22.0893      0.00000
     16      22.2974      0.00000
     17      23.5102      0.00000
     18      30.0013      0.00000
     19      31.8962      0.00000
     20      32.2212      0.00000
     21      37.6835      0.00000
     22      40.6798      0.00000
     23      43.5784      0.00000
     24      44.3643      0.00000

 k-point    13 :       0.1667    0.1667    0.0000
  band No.  band energies     occupation 
      1       3.4094      1.00000
      2       5.5834      1.00000
      3       5.9349      1.00000
[...]
     22      37.7908      0.00000
     23      40.9795      0.00000
     24      40.9795      0.00000

 k-point    90 :       0.2500    0.1667    0.5000
  band No.  band energies     occupation 
      1       5.8166      1.00000
      2       5.8166      1.00000
      3       7.5757      1.00000
      4       7.5757      1.00000
      5       8.1944      1.00000
      6       8.1944      1.00000
      7       9.3078      0.99997
      8       9.3078      0.99997
      9      10.6347      0.00000
     10      10.6347      0.00000
     11      11.4514      0.00000
     12      11.4514      0.00000
     13      21.1698      0.00000
     14      21.1698      0.00000
     15      23.4463      0.00000
     16      23.4463      0.00000
     17      27.6562      0.00000
     18      27.6562      0.00000
     19      35.9778      0.00000
     20      35.9778      0.00000
     21      38.4121      0.00000
     22      38.4121      0.00000
     23      39.7296      0.00000
     24      39.7296      0.00000

 k-point    91 :       0.3333    0.1667    0.5000
  band No.  band energies     occupation 
      1       6.1639      1.00000
      2       6.1639      1.00000
      3       7.5419      1.00000
      4       7.5419      1.00000
      5       8.3398      1.00000
      6       8.3398      1.00000
      7       9.4418      0.57522
      8       9.4418      0.57522
      9      10.6294      0.00000
     10      10.6294      0.00000
     11      12.5104      0.00000
     12      12.5104      0.00000
     13      18.5795      0.00000
     14      18.5795      0.00000
     15      22.7754      0.00000
     16      22.7754      0.00000
     17      28.9129      0.00000
     18      28.9129      0.00000
     19      34.5159      0.00000
     20      34.5159      0.00000
     21      36.9390      0.00000
     22      36.9390      0.00000
     23      40.6786      0.00000
     24      40.6786      0.00000

 k-point    92 :       0.4167    0.1667    0.5000
  band No.  band energies     occupation 
      1       6.2468      1.00000
      2       6.2468      1.00000
      3       7.5337      1.00000
      4       7.5337      1.00000
      5       8.3904      1.00000
      6       8.3904      1.00000
      7       9.5972      0.00001
      8       9.5972      0.00001
      9      10.5701      0.00000
     10      10.5701      0.00000
     11      13.2375      0.00000
     12      13.2375      0.00000
     13      17.3189      0.00000
     14      17.3189      0.00000
     15      22.5426      0.00000
     16      22.5426      0.00000
     17      29.6604      0.00000
     18      29.6604      0.00000
     19      33.6516      0.00000
     20      33.6516      0.00000
     21      36.4443      0.00000
     22      36.4443      0.00000
     23      40.9118      0.00000
     24      40.9118      0.00000

 k-point    93 :       0.2500    0.2500    0.5000
  band No.  band energies     occupation 
      1       6.3391      1.00000
      2       6.3391      1.00000
      3       7.5971      1.00000
      4       7.5971      1.00000
      5       8.0330      1.00000
      6       8.0330      1.00000
      7       9.2895      1.00000
      8       9.2895      1.00000
      9      10.6506      0.00000
     10      10.6506      0.00000
     11      12.7029      0.00000
     12      12.7029      0.00000
     13      19.9336      0.00000
     14      19.9336      0.00000
     15      20.8947      0.00000
     16      20.8947      0.00000
     17      28.9671      0.00000
     18      28.9671      0.00000
     19      35.6264      0.00000
     20      35.6264      0.00000
     21      37.0630      0.00000
     22      37.0630      0.00000
     23      41.0854      0.00000
     24      41.0854      0.00000

 k-point    94 :       0.3333    0.2500    0.5000
  band No.  band energies     occupation 
      1       6.6469      1.00000
      2       6.6469      1.00000
      3       7.5644      1.00000
      4       7.5644      1.00000
      5       7.9459      1.00000
      6       7.9459      1.00000
      7       9.3884      0.95547
      8       9.3884      0.95547
      9      10.5587      0.00000
     10      10.5587      0.00000
     11      14.1726      0.00000
     12      14.1726      0.00000
     13      17.8727      0.00000
     14      17.8727      0.00000
     15      20.1954      0.00000
     16      20.1954      0.00000
     17      30.4057      0.00000
     18      30.4057      0.00000
     19      33.8584      0.00000
     20      33.8584      0.00000
     21      36.5181      0.00000
     22      36.5181      0.00000
     23      42.4706      0.00000
     24      42.4706      0.00000

 k-point    95 :       0.3333    0.3333    0.5000
  band No.  band energies     occupation 
      1       7.1283      1.00000
      2       7.1283      1.00000
      3       7.1804      1.00000
      4       7.1804      1.00000
      5       7.9067      1.00000
      6       7.9067      1.00000
      7       9.3628      0.99230
      8       9.3628      0.99230
      9      10.5094      0.00000
     10      10.5094      0.00000
     11      15.4832      0.00000
     12      15.4832      0.00000
     13      17.1231      0.00000
     14      17.1231      0.00000
     15      19.0985      0.00000
     16      19.0985      0.00000
     17      31.9542      0.00000
     18      31.9542      0.00000
     19      32.4205      0.00000
     20      32.4205      0.00000
     21      36.1698      0.00000
     22      36.1698      0.00000
     23      45.7140      0.00000
     24      45.7140      0.00000


--------------------------------------------------------------------------------------------------------


 soft charge-density along one line, spin component           1
         0         1         2         3         4         5         6         7         8         9
 total charge-density along one line
 
 soft charge-density along one line, spin component           2
         0         1         2         3         4         5         6         7         8         9
 total charge-density along one line
 
 pseudopotential strength for first ion, spin component:           1
 -1.163  -0.000  -0.000   0.000   0.000  -1.777  -0.000  -0.000
 -0.000  -1.168   0.000  -0.000  -0.000  -0.000  -1.782   0.000
 -0.000   0.000  -1.164  -0.000   0.000  -0.000   0.000  -1.778
  0.000  -0.000  -0.000  -1.168  -0.000   0.000  -0.000  -0.000
  0.000  -0.000   0.000  -0.000  -1.163   0.000  -0.000   0.000
 -1.777  -0.000  -0.000   0.000   0.000  -2.332  -0.000  -0.000
 -0.000  -1.782   0.000  -0.000  -0.000  -0.000  -2.337   0.000
 -0.000   0.000  -1.778  -0.000   0.000  -0.000   0.000  -2.333
  0.000  -0.000  -0.000  -1.782  -0.000   0.000  -0.000  -0.000
  0.000  -0.000   0.000  -0.000  -1.777   0.000  -0.000   0.000
 -0.000  -0.000   0.000   0.000   0.000  -0.000  -0.000   0.000
 -0.000  -0.000   0.001   0.000   0.000  -0.000  -0.000   0.001
 -0.000  -0.000  -0.000  -0.000   0.001  -0.000  -0.000  -0.000
 -0.000   0.000  -0.000  -0.000   0.000  -0.000   0.000  -0.000
  0.001  -0.000   0.000   0.000   0.000   0.001  -0.000   0.000
 -0.000  -0.000  -0.000  -0.000   0.001  -0.000  -0.000  -0.000
 -0.000   0.000  -0.000  -0.000   0.000  -0.000   0.000  -0.000
  0.001  -0.000   0.000   0.000  -0.000   0.001  -0.000   0.000
 pseudopotential strength for first ion, spin component:           2
  0.225  -0.000  -0.000   0.000   0.000  -0.448  -0.000  -0.000
 -0.000   0.228   0.000  -0.000  -0.000  -0.000  -0.444   0.000
 -0.000   0.000   0.211  -0.000   0.000  -0.000   0.000  -0.461
  0.000  -0.000  -0.000   0.228  -0.000   0.000  -0.000  -0.000
  0.000  -0.000   0.000  -0.000   0.225   0.000  -0.000   0.000
 -0.448  -0.000  -0.000   0.000   0.000  -1.059  -0.000  -0.000
 -0.000  -0.444   0.000  -0.000  -0.000  -0.000  -1.056   0.000
 -0.000   0.000  -0.461  -0.000   0.000  -0.000   0.000  -1.072
  0.000  -0.000  -0.000  -0.444  -0.000   0.000  -0.000  -0.000
  0.000  -0.000   0.000  -0.000  -0.448   0.000  -0.000   0.000
 -0.000  -0.000   0.001   0.000   0.000  -0.000  -0.000   0.001
 -0.000  -0.000   0.001   0.000   0.000  -0.000  -0.000   0.001
 -0.000  -0.000  -0.000  -0.000   0.000  -0.000  -0.000  -0.000
 -0.000   0.000  -0.000   0.000   0.000  -0.000   0.000  -0.000
  0.000  -0.000   0.000   0.000   0.000   0.000  -0.000   0.000
 -0.000  -0.000  -0.000  -0.000   0.000   0.000  -0.000  -0.000
 -0.000   0.000  -0.000  -0.000   0.000  -0.000   0.000  -0.000
  0.000  -0.000   0.000   0.000  -0.000   0.000  -0.000   0.000
 total augmentation occupancy for first ion, spin component:           1
  2.866  -0.000  -0.000   0.000  -0.000  -1.440  -0.000   0.000   0.000  -0.000   0.000   0.000   0.000  -0.000  -0.038   0.000
 -0.000   2.950   0.000  -0.000  -0.000  -0.000  -1.474   0.000   0.000   0.000   0.000   0.000   0.000   0.000  -0.000  -0.000
  0.000   0.000   2.724  -0.000   0.000  -0.000  -0.000  -1.384   0.000  -0.000  -0.027  -0.000  -0.000   0.000   0.000   0.000
 -0.000   0.000   0.000   2.950  -0.000  -0.000   0.000  -0.000  -1.474   0.000   0.000  -0.000   0.000   0.000  -0.000  -0.000
  0.000   0.000   0.000   0.000   2.866   0.000  -0.000  -0.000   0.000  -1.440  -0.000   0.000  -0.038   0.000  -0.000   0.003
 -1.440   0.000  -0.000   0.000  -0.000   1.560  -0.000  -0.000   0.000   0.000  -0.000  -0.000  -0.000  -0.000   0.054   0.000
 -0.000  -1.474   0.000   0.000  -0.000  -0.000   1.543   0.000   0.000   0.000  -0.000  -0.000   0.000  -0.000   0.000   0.000
  0.000   0.000  -1.384  -0.000  -0.000   0.000  -0.000   1.588   0.000  -0.000   0.028  -0.000   0.000   0.000  -0.000  -0.000
  0.000   0.000  -0.000  -1.474   0.000  -0.000   0.000  -0.000   1.543  -0.000   0.000  -0.000   0.000   0.000  -0.000   0.000
 -0.000  -0.000  -0.000  -0.000  -1.440  -0.000   0.000  -0.000   0.000   1.560   0.000  -0.000   0.054   0.000   0.000  -0.004
  0.000   0.000  -0.027   0.000  -0.000  -0.000   0.000   0.028   0.000   0.000   2.145  -0.240  -0.000   0.000   0.000   0.000
  0.000   0.000  -0.000  -0.000   0.000  -0.000  -0.000  -0.000  -0.000  -0.000  -0.240   0.035  -0.000   0.000   0.000  -0.000
 -0.000  -0.000  -0.000  -0.000  -0.038   0.000  -0.000   0.000   0.000   0.054   0.000   0.000   0.285  -0.000  -0.000  -0.027
  0.000   0.000  -0.000   0.000   0.000  -0.000   0.000  -0.000   0.000  -0.000   0.000   0.000  -0.000   0.290   0.000   0.000
 -0.038   0.000   0.000  -0.000  -0.000   0.054   0.000  -0.000  -0.000   0.000   0.000   0.000   0.000   0.000   0.285   0.000
 -0.000  -0.000   0.000   0.000   0.003   0.000   0.000  -0.000  -0.000  -0.004  -0.000   0.000  -0.027  -0.000   0.000   0.003
  0.000   0.000   0.000   0.000   0.000  -0.000   0.000   0.000   0.000  -0.000  -0.000  -0.000   0.000  -0.027   0.000  -0.000
  0.003   0.000  -0.000   0.000   0.000  -0.004  -0.000  -0.000   0.000   0.000  -0.000   0.000   0.000   0.000  -0.027  -0.000
 total augmentation occupancy for first ion, spin component:           2
  2.107  -0.000  -0.000   0.000   0.000  -1.001  -0.000   0.000   0.000   0.000   0.000   0.000   0.000   0.000   0.004   0.000
 -0.000   2.117  -0.000   0.000  -0.000   0.000  -1.008   0.000  -0.000  -0.000  -0.000  -0.000  -0.000   0.000   0.000   0.000
 -0.000  -0.000   2.099  -0.000   0.000   0.000   0.000  -0.995   0.000   0.000  -0.003  -0.002   0.000  -0.000  -0.000   0.000
 -0.000  -0.000   0.000   2.117  -0.000   0.000  -0.000  -0.000  -1.008  -0.000   0.000  -0.000  -0.000   0.000  -0.000   0.000
  0.000  -0.000   0.000  -0.000   2.107   0.000   0.000  -0.000  -0.000  -1.001  -0.000  -0.000   0.004  -0.000  -0.000  -0.000
 -1.001  -0.000   0.000   0.000  -0.000   0.286   0.000   0.000  -0.000   0.000   0.000   0.000  -0.000  -0.000  -0.008   0.000
  0.000  -1.008   0.000   0.000   0.000   0.000   0.297   0.000  -0.000   0.000   0.000   0.000   0.000   0.000   0.000   0.000
  0.000   0.000  -0.995   0.000   0.000  -0.000   0.000   0.269   0.000   0.000  -0.000   0.001  -0.000   0.000  -0.000   0.000
  0.000   0.000   0.000  -1.008  -0.000  -0.000  -0.000  -0.000   0.297  -0.000   0.000   0.000  -0.000   0.000  -0.000   0.000
  0.000   0.000   0.000  -0.000  -1.001   0.000   0.000   0.000   0.000   0.286   0.000  -0.000  -0.008  -0.000  -0.000   0.001
  0.000   0.000  -0.003   0.000  -0.000   0.000   0.000  -0.000   0.000   0.000  -0.290   0.088  -0.000   0.000   0.000  -0.000
 -0.000   0.000  -0.002   0.000  -0.000   0.000   0.000   0.001   0.000  -0.000   0.088  -0.014  -0.000   0.000   0.000  -0.000
  0.000   0.000   0.000   0.000   0.004  -0.000   0.000   0.000   0.000  -0.008  -0.000   0.000  -0.032  -0.000  -0.000   0.005
  0.000  -0.000  -0.000   0.000   0.000   0.000   0.000   0.000  -0.000   0.000   0.000   0.000   0.000  -0.038   0.000   0.000
  0.004   0.000   0.000  -0.000   0.000  -0.008   0.000   0.000   0.000   0.000  -0.000   0.000  -0.000  -0.000  -0.032   0.000
 -0.000   0.000  -0.000   0.000  -0.000  -0.000  -0.000  -0.000   0.000   0.001   0.000  -0.000   0.005   0.000  -0.000  -0.001
 -0.000  -0.000   0.000  -0.000  -0.000   0.000   0.000   0.000   0.000  -0.000  -0.000   0.000   0.000   0.005   0.000   0.000
 -0.000  -0.000   0.000   0.000  -0.000   0.001   0.000   0.000   0.000   0.000   0.000   0.000  -0.000   0.000   0.005  -0.000


------------------------ aborting loop because EDIFF is reached ----------------------------------------





 total charge

# of ion       s       p       d       tot
------------------------------------------
    1        0.467   0.477   7.223   8.167
    2        0.467   0.477   7.223   8.167
--------------------------------------------------
tot          0.935   0.954  14.445  16.334



 magnetization (x)

# of ion       s       p       d       tot
------------------------------------------
    1       -0.013  -0.050   1.772   1.709
    2       -0.013  -0.050   1.772   1.709
--------------------------------------------------
tot         -0.026  -0.101   3.544   3.417
 
    CHARGE:  cpu time      0.0317: real time      0.0318
    FORLOC:  cpu time      0.0002: real time      0.0002
    FORNL :  cpu time      0.0295: real time      0.0296
    STRESS:  cpu time      0.1876: real time      0.1884
    FORCOR:  cpu time      0.0049: real time      0.0049
    FORHAR:  cpu time      0.0005: real time      0.0005
    MIXING:  cpu time      0.0003: real time      0.0003
    OFIELD:  cpu time      0.0000: real time      0.0000

  FORCE on cell =-STRESS in cart. coord.  units (eV):
  Direction    XX          YY          ZZ          XY          YZ          ZX
  --------------------------------------------------------------------------------------
  Alpha Z    73.82880    73.82880    73.82880
  Ewald    -500.69392  -500.69392  -492.11765    -0.00000     0.00000    -0.00000
  Hartree    90.88630    90.88630    94.79565    -0.00000    -0.00000    -0.00000
  E(xc)     -92.16308   -92.16308   -92.16599     0.00000     0.00000    -0.00000
  Local     -24.44875   -24.44862   -36.44770    -0.00000     0.00000     0.00000
  n-local   -16.40638    -6.26752   -11.33339     3.16841    -0.62090     2.38024
  augment   311.68415   311.68403   311.45638    -0.00000    -0.00000    -0.00000
  Kinetic   153.69773   147.74158   150.43596    -3.24184    -0.62369     0.56839
  Fock        0.00000     0.00000     0.00000     0.00000     0.00000     0.00000
  -------------------------------------------------------------------------------------
  Total      -1.52379    -1.52379    -1.54794     0.00000    -0.00000    -0.00000
  in kB    -106.38203  -106.38203  -108.06799     0.00000    -0.00000    -0.00000
  external pressure =     -106.94 kB  Pullay stress =        0.00 kB


 VOLUME and BASIS-vectors are now :
 -----------------------------------------------------------------------------
  energy-cutoff  :      425.00
  volume of cell :       22.95
      direct lattice vectors                 reciprocal lattice vectors
     1.271060561 -2.201541471  0.000000000     0.393372287 -0.227113596  0.000000000
     1.271060561  2.201541471  0.000000000     0.393372287  0.227113596  0.000000000
     0.000000000  0.000000000  4.100561596     0.000000000  0.000000000  0.243869035

  length of vectors
     2.542121122  2.542121122  4.100561596     0.454227192  0.454227192  0.243869035


 FORCES acting on ions
    electron-ion (+dipol)            ewald-force                    non-local-force                 convergence-correction
 -----------------------------------------------------------------------------------------------
   0.508E-12 -.964E-07 -.871E-12   -.421E-15 0.235E-11 -.232E-13   -.347E-17 0.104E-16 -.130E-17   -.677E-13 -.295E-08 -.608E-13
   0.566E-12 0.964E-07 -.531E-11   0.267E-14 -.234E-11 0.232E-13   -.694E-17 -.173E-16 0.130E-17   0.473E-13 0.295E-08 0.432E-13
 -----------------------------------------------------------------------------------------------
   0.107E-11 0.355E-10 -.618E-11   0.225E-14 0.103E-14 0.000E+00   -.104E-16 -.694E-17 0.000E+00   -.204E-13 -.881E-14 -.176E-13
 
 
 POSITION                                       TOTAL-FORCE (eV/Angst)
 -----------------------------------------------------------------------------------
      1.27106      0.73385      1.02514         0.000000      0.000000      0.000000
      1.27106     -0.73385      3.07542         0.000000     -0.000000     -0.000000
 -----------------------------------------------------------------------------------
    total drift:                                0.000000      0.000000     -0.000000


--------------------------------------------------------------------------------------------------------



  FREE ENERGIE OF THE ION-ELECTRON SYSTEM (eV)
  ---------------------------------------------------
  free  energy   TOTEN  =       -14.02359474 eV

  energy  without entropy=      -14.02098389  energy(sigma->0) =      -14.02228932
 


--------------------------------------------------------------------------------------------------------


    POTLOK:  cpu time      0.0103: real time      0.0103


--------------------------------------------------------------------------------------------------------




--------------------------------------------------------------------------------------------------------


  
 reached required accuracy - stopping structural energy minimisation
     LOOP+:  cpu time     19.5355: real time     19.6347
    4ORBIT:  cpu time      0.0000: real time      0.0000



 total charge

# of ion       s       p       d       tot
------------------------------------------
    1        0.467   0.477   7.223   8.167
    2        0.467   0.477   7.223   8.167
--------------------------------------------------
tot          0.935   0.954  14.445  16.334



 magnetization (x)

# of ion       s       p       d       tot
------------------------------------------
    1       -0.013  -0.050   1.772   1.709
    2       -0.013  -0.050   1.772   1.709
--------------------------------------------------
tot         -0.026  -0.101   3.544   3.417
 

 total amount of memory used by VASP MPI-rank0    39856. kBytes
=======================================================================

   base      :      30000. kBytes
   nonl-proj :       6910. kBytes
   fftplans  :        172. kBytes
   grid      :       1034. kBytes
   one-center:         62. kBytes
   wavefun   :       1678. kBytes
 
  
  
 General timing and accounting informations for this job:
 ========================================================
  
                  Total CPU time used (sec):       20.572
                            User time (sec):       20.032
                          System time (sec):        0.540
                         Elapsed time (sec):       22.029
  
                   Maximum memory used (kb):      234328.
                   Average memory used (kb):          N/A
  
                          Minor page faults:        38472
                          Major page faults:           75
                 Voluntary context switches:         2161
