PROCAR lm decomposed
# of k-points:   95         # of bands:   24         # of ions:    2

 k-point     1 :    0.00000000 0.00000000 0.00000000     weight = 0.00086806

band     1 # energy    0.89792055 # occ.  1.00000000
 
ion      s     py     pz     px    dxy    dyz    dz2    dxz  x2-y2    tot
    1  0.340  0.000  0.000  0.000  0.000  0.000  0.000  0.000  0.000  0.340
    2  0.340  0.000  0.000  0.000  0.000  0.000  0.000  0.000  0.000  0.340
tot    0.680  0.000  0.000  0.000  0.000  0.000  0.000  0.000  0.000  0.680
 
band     2 # energy    4.58964251 # occ.  1.00000000
 
ion      s     py     pz     px    dxy    dyz    dz2    dxz  x2-y2    tot
    1  0.074  0.000  0.000  0.000  0.000  0.000  0.363  0.000  0.000  0.437
    2  0.074  0.000  0.000  0.000  0.000  0.000  0.363  0.000  0.000  0.437
tot    0.148  0.000  0.000  0.000  0.000  0.000  0.725  0.000  0.000  0.874
 
band     3 # energy    6.92592232 # occ.  1.00000000
 
ion      s     py     pz     px    dxy    dyz    dz2    dxz  x2-y2    tot
    1  0.000  0.000  0.000  0.000  0.000  0.000  0.484  0.000  0.000  0.484
    2  0.000  0.000  0.000  0.000  0.000  0.000  0.484  0.000  0.000  0.484
tot    0.000  0.000  0.000  0.000  0.000  0.000  0.968  0.000  0.000  0.968
 
band     4 # energy    6.93616901 # occ.  1.00000000
 
ion      s     py     pz     px    dxy    dyz    dz2    dxz  x2-y2    tot
    1  0.000  0.000  0.000  0.000  0.000  0.000  0.000  0.000  0.480  0.481
    2  0.000  0.000  0.000  0.000  0.000  0.000  0.000  0.000  0.480  0.481
tot    0.000  0.001  0.000  0.000  0.000  0.000  0.000  0.000  0.961  0.961
 
band     5 # energy    6.93616929 # occ.  1.00000000
 
ion      s     py     pz     px    dxy    dyz    dz2    dxz  x2-y2    tot
    1  0.000  0.000  0.000  0.000  0.480  0.000  0.000  0.000  0.000  0.481
    2  0.000  0.000  0.000  0.000  0.480  0.000  0.000  0.000  0.000  0.481
tot    0.000  0.000  0.000  0.001  0.961  0.000  0.000  0.000  0.000  0.961
 
band     6 # energy    7.22066549 # occ.  1.00000000
 
ion      s     py     pz     px    dxy    dyz    dz2    dxz  x2-y2    tot
    1  0.000  0.001  0.000  0.000  0.000  0.000  0.000  0.000  0.485  0.486
    2  0.000  0.001  0.000  0.000  0.000  0.000  0.000  0.000  0.485  0.486
tot    0.000  0.001  0.000  0.000  0.000  0.000  0.000  0.000  0.970  0.971
 
band     7 # energy    7.22066578 # occ.  1.00000000
 
ion      s     py     pz     px    dxy    dyz    dz2    dxz  x2-y2    tot
    1  0.000  0.000  0.000  0.001  0.485  0.000  0.000  0.000  0.000  0.486
    2  0.000  0.000  0.000  0.001  0.485  0.000  0.000  0.000  0.000  0.486
tot    0.000  0.000  0.000  0.001  0.970  0.000  0.000  0.000  0.000  0.971
 
band     8 # energy    7.52810903 # occ.  1.00000000
 
ion      s     py     pz     px    dxy    dyz    dz2    dxz  x2-y2    tot
    1  0.000  0.000  0.000  0.000  0.000  0.488  0.000  0.000  0.000  0.488
    2  0.000  0.000  0.000  0.000  0.000  0.488  0.000  0.000  0.000  0.488
tot    0.000  0.000  0.000  0.000  0.000  0.977  0.000  0.000  0.000  0.977
 
band     9 # energy    7.52810904 # occ.  1.00000000
 
ion      s     py     pz     px    dxy    dyz    dz2    dxz  x2-y2    tot
    1  0.000  0.000  0.000  0.000  0.000  0.000  0.000  0.488  0.000  0.488
    2  0.000  0.000  0.000  0.000  0.000  0.000  0.000  0.488  0.000  0.488
tot    0.000  0.000  0.000  0.000  0.000  0.000  0.000  0.977  0.000  0.977
 
band    10 # energy    8.54319551 # occ.  1.00000000
 
ion      s     py     pz     px    dxy    dyz    dz2    dxz  x2-y2    tot
    1  0.000  0.000  0.000  0.000  0.000  0.000  0.000  0.492  0.000  0.492
    2  0.000  0.000  0.000  0.000  0.000  0.000  0.000  0.492  0.000  0.492
tot    0.000  0.000  0.000  0.000  0.000  0.000  0.000  0.984  0.000  0.984
 
band    11 # energy    8.54319555 # occ.  1.00000000
 
ion      s     py     pz     px    dxy    dyz    dz2    dxz  x2-y2    tot
    1  0.000  0.000  0.000  0.000  0.000  0.492  0.000  0.000  0.000  0.492
    2  0.000  0.000  0.000  0.000  0.000  0.492  0.000  0.000  0.000  0.492
tot    0.000  0.000  0.000  0.000  0.000  0.984  0.000  0.000  0.000  0.984
 
band    12 # energy    9.47008714 # occ.  0.27078312
 
ion      s     py     pz     px    dxy    dyz    dz2    dxz  x2-y2    tot
    1  0.000  0.000  0.322  0.000  0.000  0.000  0.000  0.000  0.000  0.322
    2  0.000  0.000  0.322  0.000  0.000  0.000  0.000  0.000  0.000  0.322
tot    0.000  0.000  0.643  0.000  0.000  0.000  0.000  0.000  0.000  0.643
 
band    13 # energy   15.36938040 # occ.  0.00000000
 
ion      s     py     pz     px    dxy    dyz    dz2    dxz  x2-y2    tot
    1  0.221  0.000  0.000  0.000  0.000  0.000  0.217  0.000  0.000  0.438
    2  0.221  0.000  0.000  0.000  0.000  0.000  0.217  0.000  0.000  0.438
tot    0.442  0.000  0.000  0.000  0.000  0.000  0.435  0.000  0.000  0.877
 
band    14 # energy   30.94807472 # occ.  0.00000000
 
ion      s     py     pz     px    dxy    dyz    dz2    dxz  x2-y2    tot
    1  0.007  0.000  0.000  0.000  0.000  0.000  0.032  0.000  0.000  0.039
    2  0.007  0.000  0.000  0.000  0.000  0.000  0.032  0.000  0.000  0.039
tot    0.013  0.000  0.000  0.000  0.000  0.000  0.065  0.000  0.000  0.078
 
band    15 # energy   32.94379673 # occ.  0.00000000
 
ion      s     py     pz     px    dxy    dyz    dz2    dxz  x2-y2    tot
    1  0.000  0.273  0.000  0.000  0.000  0.000  0.000  0.000  0.105  0.378
    2  0.000  0.273  0.000  0.000  0.000  0.000  0.000  0.000  0.105  0.378
tot    0.000  0.546  0.000  0.000  0.000  0.000  0.000  0.000  0.210  0.756
 
band    16 # energy   32.94379942 # occ.  0.00000000
 
ion      s     py     pz     px    dxy    dyz    dz2    dxz  x2-y2    tot
    1  0.000  0.000  0.000  0.273  0.105  0.000  0.000  0.000  0.000  0.378
    2  0.000  0.000  0.000  0.273  0.105  0.000  0.000  0.000  0.000  0.378
tot    0.000  0.000  0.000  0.546  0.210  0.000  0.000  0.000  0.000  0.756
 
band    17 # energy   33.89268447 # occ.  0.00000000
 
ion      s     py     pz     px    dxy    dyz    dz2    dxz  x2-y2    tot
    1  0.024  0.000  0.000  0.000  0.000  0.000  0.074  0.000  0.000  0.098
    2  0.024  0.000  0.000  0.000  0.000  0.000  0.074  0.000  0.000  0.098
tot    0.049  0.000  0.000  0.000  0.000  0.000  0.147  0.000  0.000  0.196
 
band    18 # energy   34.35854799 # occ.  0.00000000
 
ion      s     py     pz     px    dxy    dyz    dz2    dxz  x2-y2    tot
    1  0.000  0.092  0.000  0.000  0.000  0.000  0.000  0.000  0.343  0.435
    2  0.000  0.092  0.000  0.000  0.000  0.000  0.000  0.000  0.343  0.435
tot    0.000  0.185  0.000  0.000  0.000  0.000  0.000  0.000  0.685  0.870
 
band    19 # energy   34.35855105 # occ.  0.00000000
 
ion      s     py     pz     px    dxy    dyz    dz2    dxz  x2-y2    tot
    1  0.000  0.000  0.000  0.092  0.343  0.000  0.000  0.000  0.000  0.435
    2  0.000  0.000  0.000  0.092  0.343  0.000  0.000  0.000  0.000  0.435
tot    0.000  0.000  0.000  0.185  0.685  0.000  0.000  0.000  0.000  0.870
 
band    20 # energy   34.38716131 # occ.  0.00000000
 
ion      s     py     pz     px    dxy    dyz    dz2    dxz  x2-y2    tot
    1  0.000  0.000  0.032  0.000  0.000  0.000  0.000  0.000  0.000  0.032
    2  0.000  0.000  0.032  0.000  0.000  0.000  0.000  0.000  0.000  0.032
tot    0.000  0.000  0.065  0.000  0.000  0.000  0.000  0.000  0.000  0.065
 
band    21 # energy   39.10702050 # occ.  0.00000000
 
ion      s     py     pz     px    dxy    dyz    dz2    dxz  x2-y2    tot
    1  0.000  0.000  0.000  0.000  0.000  0.128  0.000  0.000  0.000  0.128
    2  0.000  0.000  0.000  0.000  0.000  0.128  0.000  0.000  0.000  0.128
tot    0.000  0.000  0.000  0.000  0.000  0.255  0.000  0.000  0.000  0.255
 
band    22 # energy   39.10702128 # occ.  0.00000000
 
ion      s     py     pz     px    dxy    dyz    dz2    dxz  x2-y2    tot
    1  0.000  0.000  0.000  0.000  0.000  0.000  0.000  0.128  0.000  0.128
    2  0.000  0.000  0.000  0.000  0.000  0.000  0.000  0.128  0.000  0.128
tot    0.000  0.000  0.000  0.000  0.000  0.000  0.000  0.255  0.000  0.255
 
band    23 # energy   39.69774139 # occ.  0.00000000
 
ion      s     py     pz     px    dxy    dyz    dz2    dxz  x2-y2    tot
    1  0.003  0.000  0.000  0.000  0.000  0.000  0.567  0.000  0.000  0.570
    2  0.003  0.000  0.000  0.000  0.000  0.000  0.567  0.000  0.000  0.570
tot    0.006  0.000  0.000  0.000  0.000  0.000  1.134  0.000  0.000  1.141
 
band    24 # energy   40.44716539 # occ.  0.00000000
 
ion      s     py     pz     px    dxy    dyz    dz2    dxz  x2-y2    tot
    1  0.000  0.000  0.048  0.000  0.000  0.000  0.000  0.000  0.000  0.048
    2  0.000  0.000  0.048  0.000  0.000  0.000  0.000  0.000  0.000  0.048
tot    0.000  0.000  0.095  0.000  0.000  0.000  0.000  0.000  0.000  0.095
 

 k-point     2 :    0.08333333 0.00000000 0.00000000     weight = 0.00520833

band     1 # energy    1.13051295 # occ.  1.00000000
 
ion      s     py     pz     px    dxy    dyz    dz2    dxz  x2-y2    tot
    1  0.333  0.002  0.000  0.006  0.000  0.000  0.000  0.000  0.000  0.340
    2  0.333  0.002  0.000  0.006  0.000  0.000  0.000  0.000  0.000  0.340
tot    0.665  0.004  0.000  0.011  0.000  0.000  0.000  0.000  0.000  0.681
 
band     2 # energy    4.72506113 # occ.  1.00000000
 
ion      s     py     pz     px    dxy    dyz    dz2    dxz  x2-y2    tot
    1  0.067  0.001  0.000  0.003  0.002  0.000  0.364  0.000  0.001  0.438
    2  0.067  0.001  0.000  0.003  0.002  0.000  0.364  0.000  0.001  0.438
tot    0.135  0.002  0.000  0.007  0.004  0.000  0.728  0.000  0.001  0.876
 
band     3 # energy    6.72474586 # occ.  1.00000000
 
ion      s     py     pz     px    dxy    dyz    dz2    dxz  x2-y2    tot
    1  0.000  0.000  0.000  0.001  0.235  0.000  0.164  0.000  0.078  0.478
    2  0.000  0.000  0.000  0.001  0.235  0.000  0.164  0.000  0.078  0.478
tot    0.000  0.001  0.000  0.002  0.470  0.000  0.328  0.000  0.157  0.957
 
band     4 # energy    7.03953607 # occ.  1.00000000
 
ion      s     py     pz     px    dxy    dyz    dz2    dxz  x2-y2    tot
    1  0.000  0.001  0.000  0.000  0.120  0.000  0.000  0.000  0.360  0.481
    2  0.000  0.001  0.000  0.000  0.120  0.000  0.000  0.000  0.360  0.481
tot    0.000  0.001  0.000  0.000  0.240  0.000  0.000  0.000  0.720  0.962
 
band     5 # energy    7.10388016 # occ.  1.00000000
 
ion      s     py     pz     px    dxy    dyz    dz2    dxz  x2-y2    tot
    1  0.000  0.000  0.000  0.000  0.153  0.000  0.280  0.000  0.051  0.484
    2  0.000  0.000  0.000  0.000  0.153  0.000  0.280  0.000  0.051  0.484
tot    0.000  0.000  0.000  0.001  0.306  0.000  0.560  0.000  0.102  0.968
 
band     6 # energy    7.18058827 # occ.  1.00000000
 
ion      s     py     pz     px    dxy    dyz    dz2    dxz  x2-y2    tot
    1  0.001  0.000  0.000  0.000  0.331  0.000  0.042  0.000  0.110  0.484
    2  0.001  0.000  0.000  0.000  0.331  0.000  0.042  0.000  0.110  0.484
tot    0.002  0.000  0.000  0.001  0.661  0.000  0.084  0.000  0.220  0.968
 
band     7 # energy    7.31205863 # occ.  1.00000000
 
ion      s     py     pz     px    dxy    dyz    dz2    dxz  x2-y2    tot
    1  0.000  0.001  0.000  0.000  0.121  0.000  0.000  0.000  0.364  0.486
    2  0.000  0.001  0.000  0.000  0.121  0.000  0.000  0.000  0.364  0.486
tot    0.000  0.001  0.000  0.000  0.242  0.000  0.000  0.000  0.727  0.972
 
band     8 # energy    7.39868473 # occ.  1.00000000
 
ion      s     py     pz     px    dxy    dyz    dz2    dxz  x2-y2    tot
    1  0.000  0.000  0.008  0.000  0.000  0.118  0.000  0.355  0.000  0.481
    2  0.000  0.000  0.008  0.000  0.000  0.118  0.000  0.355  0.000  0.481
tot    0.000  0.000  0.016  0.000  0.000  0.236  0.000  0.709  0.000  0.962
 
band     9 # energy    7.46426214 # occ.  1.00000000
 
ion      s     py     pz     px    dxy    dyz    dz2    dxz  x2-y2    tot
    1  0.000  0.000  0.000  0.000  0.000  0.366  0.000  0.122  0.000  0.487
    2  0.000  0.000  0.000  0.000  0.000  0.366  0.000  0.122  0.000  0.487
tot    0.000  0.000  0.000  0.000  0.000  0.731  0.000  0.244  0.000  0.975
 
band    10 # energy    7.88924066 # occ.  1.00000000
 
ion      s     py     pz     px    dxy    dyz    dz2    dxz  x2-y2    tot
    1  0.000  0.000  0.073  0.000  0.000  0.094  0.000  0.281  0.000  0.448
    2  0.000  0.000  0.073  0.000  0.000  0.094  0.000  0.281  0.000  0.448
tot    0.000  0.000  0.146  0.000  0.000  0.187  0.000  0.562  0.000  0.896
 
band    11 # energy    8.57036592 # occ.  1.00000000
 
ion      s     py     pz     px    dxy    dyz    dz2    dxz  x2-y2    tot
    1  0.000  0.000  0.000  0.000  0.000  0.370  0.000  0.123  0.000  0.493
    2  0.000  0.000  0.000  0.000  0.000  0.370  0.000  0.123  0.000  0.493
tot    0.000  0.000  0.000  0.000  0.000  0.739  0.000  0.246  0.000  0.986
 
band    12 # energy   10.41887453 # occ.  0.00000000
 
ion      s     py     pz     px    dxy    dyz    dz2    dxz  x2-y2    tot
    1  0.000  0.000  0.238  0.000  0.000  0.034  0.000  0.102  0.000  0.373
    2  0.000  0.000  0.238  0.000  0.000  0.034  0.000  0.102  0.000  0.373
tot    0.000  0.000  0.475  0.000  0.000  0.068  0.000  0.203  0.000  0.747
 
band    13 # energy   15.41621325 # occ.  0.00000000
 
ion      s     py     pz     px    dxy    dyz    dz2    dxz  x2-y2    tot
    1  0.218  0.002  0.000  0.005  0.000  0.000  0.211  0.000  0.000  0.436
    2  0.218  0.002  0.000  0.005  0.000  0.000  0.211  0.000  0.000  0.436
tot    0.435  0.003  0.000  0.010  0.000  0.000  0.423  0.000  0.000  0.871
 
band    14 # energy   28.88196608 # occ.  0.00000000
 
ion      s     py     pz     px    dxy    dyz    dz2    dxz  x2-y2    tot
    1  0.015  0.028  0.000  0.083  0.104  0.000  0.022  0.000  0.035  0.286
    2  0.015  0.028  0.000  0.083  0.104  0.000  0.022  0.000  0.035  0.286
tot    0.030  0.055  0.000  0.166  0.207  0.000  0.044  0.000  0.069  0.571
 
band    15 # energy   30.94140208 # occ.  0.00000000
 
ion      s     py     pz     px    dxy    dyz    dz2    dxz  x2-y2    tot
    1  0.000  0.176  0.000  0.059  0.037  0.000  0.000  0.000  0.111  0.383
    2  0.000  0.176  0.000  0.059  0.037  0.000  0.000  0.000  0.111  0.383
tot    0.000  0.353  0.000  0.118  0.074  0.000  0.000  0.000  0.222  0.766
 
band    16 # energy   31.18669139 # occ.  0.00000000
 
ion      s     py     pz     px    dxy    dyz    dz2    dxz  x2-y2    tot
    1  0.021  0.020  0.000  0.060  0.058  0.000  0.038  0.000  0.019  0.216
    2  0.021  0.020  0.000  0.060  0.058  0.000  0.038  0.000  0.019  0.216
tot    0.042  0.040  0.000  0.120  0.115  0.000  0.076  0.000  0.038  0.432
 
band    17 # energy   34.39653650 # occ.  0.00000000
 
ion      s     py     pz     px    dxy    dyz    dz2    dxz  x2-y2    tot
    1  0.000  0.000  0.011  0.000  0.000  0.012  0.000  0.036  0.000  0.060
    2  0.000  0.000  0.011  0.000  0.000  0.012  0.000  0.036  0.000  0.060
tot    0.000  0.000  0.023  0.000  0.000  0.024  0.000  0.073  0.000  0.120
 
band    18 # energy   34.66948646 # occ.  0.00000000
 
ion      s     py     pz     px    dxy    dyz    dz2    dxz  x2-y2    tot
    1  0.004  0.015  0.000  0.044  0.035  0.000  0.036  0.000  0.012  0.145
    2  0.004  0.015  0.000  0.044  0.035  0.000  0.036  0.000  0.012  0.145
tot    0.008  0.029  0.000  0.088  0.070  0.000  0.072  0.000  0.023  0.291
 
band    19 # energy   36.04080079 # occ.  0.00000000
 
ion      s     py     pz     px    dxy    dyz    dz2    dxz  x2-y2    tot
    1  0.000  0.000  0.033  0.000  0.000  0.027  0.000  0.081  0.000  0.142
    2  0.000  0.000  0.033  0.000  0.000  0.027  0.000  0.081  0.000  0.142
tot    0.000  0.000  0.067  0.000  0.000  0.054  0.000  0.163  0.000  0.283
 
band    20 # energy   36.60368890 # occ.  0.00000000
 
ion      s     py     pz     px    dxy    dyz    dz2    dxz  x2-y2    tot
    1  0.000  0.089  0.000  0.030  0.077  0.000  0.000  0.000  0.232  0.429
    2  0.000  0.089  0.000  0.030  0.077  0.000  0.000  0.000  0.232  0.429
tot    0.000  0.178  0.000  0.059  0.155  0.000  0.000  0.000  0.465  0.857
 
band    21 # energy   37.35680448 # occ.  0.00000000
 
ion      s     py     pz     px    dxy    dyz    dz2    dxz  x2-y2    tot
    1  0.006  0.042  0.000  0.125  0.102  0.000  0.006  0.000  0.034  0.315
    2  0.006  0.042  0.000  0.125  0.102  0.000  0.006  0.000  0.034  0.315
tot    0.012  0.083  0.000  0.250  0.205  0.000  0.013  0.000  0.068  0.631
 
band    22 # energy   38.53581647 # occ.  0.00000000
 
ion      s     py     pz     px    dxy    dyz    dz2    dxz  x2-y2    tot
    1  0.000  0.000  0.000  0.000  0.000  0.181  0.000  0.060  0.000  0.241
    2  0.000  0.000  0.000  0.000  0.000  0.181  0.000  0.060  0.000  0.241
tot    0.000  0.000  0.000  0.000  0.000  0.361  0.000  0.120  0.000  0.482
 
band    23 # energy   39.26765369 # occ.  0.00000000
 
ion      s     py     pz     px    dxy    dyz    dz2    dxz  x2-y2    tot
    1  0.001  0.008  0.000  0.023  0.057  0.000  0.434  0.000  0.019  0.541
    2  0.001  0.008  0.000  0.023  0.057  0.000  0.434  0.000  0.019  0.541
tot    0.002  0.015  0.000  0.045  0.114  0.000  0.868  0.000  0.038  1.082
 
band    24 # energy   39.38316550 # occ.  0.00000000
 
ion      s     py     pz     px    dxy    dyz    dz2    dxz  x2-y2    tot
    1  0.000  0.000  0.208  0.000  0.000  0.036  0.000  0.107  0.000  0.350
    2  0.000  0.000  0.208  0.000  0.000  0.036  0.000  0.107  0.000  0.350
tot    0.000  0.000  0.415  0.000  0.000  0.071  0.000  0.213  0.000  0.700
 

 k-point     3 :    0.16666667 0.00000000 0.00000000     weight = 0.00520833

band     1 # energy    1.80467909 # occ.  1.00000000
 
ion      s     py     pz     px    dxy    dyz    dz2    dxz  x2-y2    tot
    1  0.310  0.007  0.000  0.021  0.002  0.000  0.001  0.000  0.001  0.342
    2  0.310  0.007  0.000  0.021  0.002  0.000  0.001  0.000  0.001  0.342
tot    0.620  0.014  0.000  0.042  0.004  0.000  0.002  0.000  0.001  0.683
 
band     2 # energy    5.05957148 # occ.  1.00000000
 
ion      s     py     pz     px    dxy    dyz    dz2    dxz  x2-y2    tot
    1  0.048  0.004  0.000  0.011  0.019  0.000  0.356  0.000  0.006  0.443
    2  0.048  0.004  0.000  0.011  0.019  0.000  0.356  0.000  0.006  0.443
tot    0.096  0.007  0.000  0.021  0.037  0.000  0.712  0.000  0.012  0.886
 
band     3 # energy    6.47852268 # occ.  1.00000000
 
ion      s     py     pz     px    dxy    dyz    dz2    dxz  x2-y2    tot
    1  0.000  0.001  0.000  0.004  0.263  0.000  0.116  0.000  0.088  0.471
    2  0.000  0.001  0.000  0.004  0.263  0.000  0.116  0.000  0.088  0.471
tot    0.001  0.003  0.000  0.008  0.525  0.000  0.232  0.000  0.175  0.943
 
band     4 # energy    6.77941751 # occ.  1.00000000
 
ion      s     py     pz     px    dxy    dyz    dz2    dxz  x2-y2    tot
    1  0.000  0.000  0.051  0.000  0.000  0.099  0.000  0.298  0.000  0.447
    2  0.000  0.000  0.051  0.000  0.000  0.099  0.000  0.298  0.000  0.447
tot    0.000  0.000  0.101  0.000  0.000  0.198  0.000  0.595  0.000  0.895
 
band     5 # energy    7.02656970 # occ.  1.00000000
 
ion      s     py     pz     px    dxy    dyz    dz2    dxz  x2-y2    tot
    1  0.004  0.000  0.000  0.001  0.314  0.000  0.056  0.000  0.105  0.480
    2  0.004  0.000  0.000  0.001  0.314  0.000  0.056  0.000  0.105  0.480
tot    0.008  0.001  0.000  0.003  0.628  0.000  0.112  0.000  0.209  0.961
 
band     6 # energy    7.30598152 # occ.  1.00000000
 
ion      s     py     pz     px    dxy    dyz    dz2    dxz  x2-y2    tot
    1  0.000  0.000  0.000  0.000  0.000  0.364  0.000  0.121  0.000  0.485
    2  0.000  0.000  0.000  0.000  0.000  0.364  0.000  0.121  0.000  0.485
tot    0.000  0.000  0.000  0.000  0.000  0.728  0.000  0.243  0.000  0.971
 
band     7 # energy    7.33074322 # occ.  1.00000000
 
ion      s     py     pz     px    dxy    dyz    dz2    dxz  x2-y2    tot
    1  0.000  0.001  0.000  0.000  0.120  0.000  0.000  0.000  0.360  0.482
    2  0.000  0.001  0.000  0.000  0.120  0.000  0.000  0.000  0.360  0.482
tot    0.000  0.003  0.000  0.001  0.240  0.000  0.000  0.000  0.721  0.965
 
band     8 # energy    7.38179602 # occ.  1.00000000
 
ion      s     py     pz     px    dxy    dyz    dz2    dxz  x2-y2    tot
    1  0.001  0.000  0.000  0.001  0.114  0.000  0.331  0.000  0.038  0.485
    2  0.001  0.000  0.000  0.001  0.114  0.000  0.331  0.000  0.038  0.485
tot    0.003  0.001  0.000  0.002  0.227  0.000  0.661  0.000  0.076  0.970
 
band     9 # energy    7.51698328 # occ.  1.00000000
 
ion      s     py     pz     px    dxy    dyz    dz2    dxz  x2-y2    tot
    1  0.000  0.000  0.032  0.000  0.000  0.109  0.000  0.328  0.000  0.470
    2  0.000  0.000  0.032  0.000  0.000  0.109  0.000  0.328  0.000  0.470
tot    0.000  0.000  0.064  0.000  0.000  0.219  0.000  0.657  0.000  0.940
 
band    10 # energy    7.56740637 # occ.  1.00000000
 
ion      s     py     pz     px    dxy    dyz    dz2    dxz  x2-y2    tot
    1  0.000  0.001  0.000  0.000  0.121  0.000  0.000  0.000  0.364  0.487
    2  0.000  0.001  0.000  0.000  0.121  0.000  0.000  0.000  0.364  0.487
tot    0.000  0.003  0.000  0.001  0.243  0.000  0.000  0.000  0.728  0.974
 
band    11 # energy    8.62847512 # occ.  1.00000000
 
ion      s     py     pz     px    dxy    dyz    dz2    dxz  x2-y2    tot
    1  0.000  0.000  0.000  0.000  0.000  0.371  0.000  0.124  0.000  0.494
    2  0.000  0.000  0.000  0.000  0.000  0.371  0.000  0.124  0.000  0.494
tot    0.000  0.000  0.000  0.000  0.000  0.741  0.000  0.247  0.000  0.988
 
band    12 # energy   11.91447839 # occ.  0.00000000
 
ion      s     py     pz     px    dxy    dyz    dz2    dxz  x2-y2    tot
    1  0.000  0.000  0.228  0.000  0.000  0.039  0.000  0.117  0.000  0.385
    2  0.000  0.000  0.228  0.000  0.000  0.039  0.000  0.117  0.000  0.385
tot    0.000  0.000  0.456  0.000  0.000  0.078  0.000  0.235  0.000  0.770
 
band    13 # energy   15.57831004 # occ.  0.00000000
 
ion      s     py     pz     px    dxy    dyz    dz2    dxz  x2-y2    tot
    1  0.204  0.007  0.000  0.022  0.001  0.000  0.193  0.000  0.000  0.428
    2  0.204  0.007  0.000  0.022  0.001  0.000  0.193  0.000  0.000  0.428
tot    0.409  0.015  0.000  0.044  0.001  0.000  0.386  0.000  0.000  0.855
 
band    14 # energy   25.07846647 # occ.  0.00000000
 
ion      s     py     pz     px    dxy    dyz    dz2    dxz  x2-y2    tot
    1  0.043  0.038  0.000  0.113  0.105  0.000  0.021  0.000  0.035  0.355
    2  0.043  0.038  0.000  0.113  0.105  0.000  0.021  0.000  0.035  0.355
tot    0.087  0.075  0.000  0.225  0.210  0.000  0.043  0.000  0.070  0.710
 
band    15 # energy   28.64954116 # occ.  0.00000000
 
ion      s     py     pz     px    dxy    dyz    dz2    dxz  x2-y2    tot
    1  0.000  0.189  0.000  0.063  0.029  0.000  0.000  0.000  0.086  0.367
    2  0.000  0.189  0.000  0.063  0.029  0.000  0.000  0.000  0.086  0.367
tot    0.000  0.378  0.000  0.126  0.058  0.000  0.000  0.000  0.173  0.735
 
band    16 # energy   30.28656623 # occ.  0.00000000
 
ion      s     py     pz     px    dxy    dyz    dz2    dxz  x2-y2    tot
    1  0.023  0.005  0.000  0.015  0.134  0.000  0.046  0.000  0.045  0.268
    2  0.023  0.005  0.000  0.015  0.134  0.000  0.046  0.000  0.045  0.268
tot    0.045  0.010  0.000  0.031  0.268  0.000  0.092  0.000  0.089  0.536
 
band    17 # energy   32.16976145 # occ.  0.00000000
 
ion      s     py     pz     px    dxy    dyz    dz2    dxz  x2-y2    tot
    1  0.000  0.000  0.043  0.000  0.000  0.051  0.000  0.153  0.000  0.247
    2  0.000  0.000  0.043  0.000  0.000  0.051  0.000  0.153  0.000  0.247
tot    0.000  0.000  0.085  0.000  0.000  0.102  0.000  0.306  0.000  0.493
 
band    18 # energy   34.49776474 # occ.  0.00000000
 
ion      s     py     pz     px    dxy    dyz    dz2    dxz  x2-y2    tot
    1  0.000  0.000  0.009  0.000  0.000  0.013  0.000  0.038  0.000  0.059
    2  0.000  0.000  0.009  0.000  0.000  0.013  0.000  0.038  0.000  0.059
tot    0.000  0.000  0.018  0.000  0.000  0.025  0.000  0.076  0.000  0.119
 
band    19 # energy   34.87726412 # occ.  0.00000000
 
ion      s     py     pz     px    dxy    dyz    dz2    dxz  x2-y2    tot
    1  0.036  0.043  0.000  0.129  0.050  0.000  0.033  0.000  0.017  0.307
    2  0.036  0.043  0.000  0.129  0.050  0.000  0.033  0.000  0.017  0.307
tot    0.072  0.086  0.000  0.257  0.100  0.000  0.066  0.000  0.033  0.614
 
band    20 # energy   36.97764286 # occ.  0.00000000
 
ion      s     py     pz     px    dxy    dyz    dz2    dxz  x2-y2    tot
    1  0.030  0.037  0.000  0.111  0.001  0.000  0.089  0.000  0.000  0.269
    2  0.030  0.037  0.000  0.111  0.001  0.000  0.089  0.000  0.000  0.269
tot    0.060  0.074  0.000  0.223  0.002  0.000  0.177  0.000  0.001  0.537
 
band    21 # energy   37.66496149 # occ.  0.00000000
 
ion      s     py     pz     px    dxy    dyz    dz2    dxz  x2-y2    tot
    1  0.000  0.000  0.000  0.000  0.000  0.265  0.000  0.088  0.000  0.353
    2  0.000  0.000  0.000  0.000  0.000  0.265  0.000  0.088  0.000  0.353
tot    0.000  0.000  0.000  0.000  0.000  0.530  0.000  0.177  0.000  0.707
 
band    22 # energy   38.10985298 # occ.  0.00000000
 
ion      s     py     pz     px    dxy    dyz    dz2    dxz  x2-y2    tot
    1  0.000  0.000  0.243  0.000  0.000  0.006  0.000  0.017  0.000  0.265
    2  0.000  0.000  0.243  0.000  0.000  0.006  0.000  0.017  0.000  0.265
tot    0.000  0.000  0.485  0.000  0.000  0.011  0.000  0.034  0.000  0.530
 
band    23 # energy   38.65785761 # occ.  0.00000000
 
ion      s     py     pz     px    dxy    dyz    dz2    dxz  x2-y2    tot
    1  0.000  0.079  0.000  0.026  0.091  0.000  0.000  0.000  0.273  0.470
    2  0.000  0.079  0.000  0.026  0.091  0.000  0.000  0.000  0.273  0.470
tot    0.000  0.159  0.000  0.053  0.182  0.000  0.000  0.000  0.546  0.940
 
band    24 # energy   39.92199874 # occ.  0.00000000
 
ion      s     py     pz     px    dxy    dyz    dz2    dxz  x2-y2    tot
    1  0.000  0.205  0.000  0.068  0.032  0.000  0.000  0.000  0.097  0.402
    2  0.000  0.205  0.000  0.068  0.032  0.000  0.000  0.000  0.097  0.402
tot    0.000  0.410  0.000  0.137  0.064  0.000  0.000  0.000  0.193  0.804
 

 k-point     4 :    0.25000000-0.00000000 0.00000000     weight = 0.00520833

band     1 # energy    2.82928380 # occ.  1.00000000
 
ion      s     py     pz     px    dxy    dyz    dz2    dxz  x2-y2    tot
    1  0.269  0.014  0.000  0.041  0.013  0.000  0.005  0.000  0.004  0.347
    2  0.269  0.014  0.000  0.041  0.013  0.000  0.005  0.000  0.004  0.347
tot    0.539  0.027  0.000  0.082  0.026  0.000  0.010  0.000  0.009  0.693
 
band     2 # energy    5.32774427 # occ.  1.00000000
 
ion      s     py     pz     px    dxy    dyz    dz2    dxz  x2-y2    tot
    1  0.023  0.003  0.000  0.010  0.103  0.000  0.277  0.000  0.034  0.452
    2  0.023  0.003  0.000  0.010  0.103  0.000  0.277  0.000  0.034  0.452
tot    0.047  0.007  0.000  0.021  0.206  0.000  0.555  0.000  0.069  0.903
 
band     3 # energy    6.11563277 # occ.  1.00000000
 
ion      s     py     pz     px    dxy    dyz    dz2    dxz  x2-y2    tot
    1  0.000  0.000  0.044  0.000  0.000  0.099  0.000  0.298  0.000  0.442
    2  0.000  0.000  0.044  0.000  0.000  0.099  0.000  0.298  0.000  0.442
tot    0.000  0.000  0.089  0.000  0.000  0.199  0.000  0.596  0.000  0.884
 
band     4 # energy    6.33380245 # occ.  1.00000000
 
ion      s     py     pz     px    dxy    dyz    dz2    dxz  x2-y2    tot
    1  0.001  0.006  0.000  0.017  0.229  0.000  0.130  0.000  0.076  0.459
    2  0.001  0.006  0.000  0.017  0.229  0.000  0.130  0.000  0.076  0.459
tot    0.002  0.012  0.000  0.035  0.458  0.000  0.259  0.000  0.153  0.918
 
band     5 # energy    6.94612649 # occ.  1.00000000
 
ion      s     py     pz     px    dxy    dyz    dz2    dxz  x2-y2    tot
    1  0.009  0.001  0.000  0.004  0.251  0.000  0.128  0.000  0.084  0.476
    2  0.009  0.001  0.000  0.004  0.251  0.000  0.128  0.000  0.084  0.476
tot    0.019  0.002  0.000  0.007  0.502  0.000  0.255  0.000  0.167  0.952
 
band     6 # energy    7.11524897 # occ.  1.00000000
 
ion      s     py     pz     px    dxy    dyz    dz2    dxz  x2-y2    tot
    1  0.000  0.000  0.000  0.000  0.000  0.362  0.000  0.121  0.000  0.483
    2  0.000  0.000  0.000  0.000  0.000  0.362  0.000  0.121  0.000  0.483
tot    0.000  0.000  0.000  0.000  0.000  0.725  0.000  0.242  0.000  0.966
 
band     7 # energy    7.33241688 # occ.  1.00000000
 
ion      s     py     pz     px    dxy    dyz    dz2    dxz  x2-y2    tot
    1  0.000  0.000  0.024  0.000  0.000  0.112  0.000  0.336  0.000  0.473
    2  0.000  0.000  0.024  0.000  0.000  0.112  0.000  0.336  0.000  0.473
tot    0.000  0.000  0.049  0.000  0.000  0.224  0.000  0.673  0.000  0.946
 
band     8 # energy    7.75212503 # occ.  1.00000000
 
ion      s     py     pz     px    dxy    dyz    dz2    dxz  x2-y2    tot
    1  0.000  0.001  0.000  0.000  0.121  0.000  0.000  0.000  0.362  0.485
    2  0.000  0.001  0.000  0.000  0.121  0.000  0.000  0.000  0.362  0.485
tot    0.000  0.003  0.000  0.001  0.242  0.000  0.000  0.000  0.725  0.970
 
band     9 # energy    7.77194588 # occ.  1.00000000
 
ion      s     py     pz     px    dxy    dyz    dz2    dxz  x2-y2    tot
    1  0.005  0.001  0.000  0.004  0.102  0.000  0.337  0.000  0.034  0.484
    2  0.005  0.001  0.000  0.004  0.102  0.000  0.337  0.000  0.034  0.484
tot    0.010  0.003  0.000  0.009  0.204  0.000  0.674  0.000  0.068  0.968
 
band    10 # energy    7.93382824 # occ.  1.00000000
 
ion      s     py     pz     px    dxy    dyz    dz2    dxz  x2-y2    tot
    1  0.000  0.002  0.000  0.001  0.122  0.000  0.000  0.000  0.365  0.489
    2  0.000  0.002  0.000  0.001  0.122  0.000  0.000  0.000  0.365  0.489
tot    0.000  0.004  0.000  0.001  0.243  0.000  0.000  0.000  0.729  0.978
 
band    11 # energy    8.68388506 # occ.  1.00000000
 
ion      s     py     pz     px    dxy    dyz    dz2    dxz  x2-y2    tot