<?xml version="1.0" encoding="ISO-8859-1"?>
<modeling>
 <generator>
  <i name="program" type="string">vasp </i>
  <i name="version" type="string">6.3.2  </i>
  <i name="subversion" type="string">27Jun22 (build Aug 12 2022 00:53:59) complex                          parallel </i>
  <i name="platform" type="string">tv2STD </i>
  <i name="date" type="string">2024 12 03 </i>
  <i name="time" type="string">01:29:27 </i>
 </generator>
 <incar>
  <i type="string" name="SYSTEM">Co-hcc</i>
  <i type="int" name="ISTART">     0</i>
  <i type="string" name="PREC">Accurate      normal | accurate</i>
  <i type="string" name="ALGO">Normal     Normal, Fast, Very_Fast</i>
  <i type="logical" name="ADDGRID"> F  </i>
  <i type="int" name="ISPIN">     2</i>
  <i type="int" name="ICHARG">     2</i>
  <i type="int" name="INIWAV">     1</i>
  <i type="int" name="NELM">   100</i>
  <i type="int" name="IBRION">     2</i>
  <i name="EDIFF">      0.00000100</i>
  <i name="EDIFFG">     -0.02000000</i>
  <i type="int" name="NSW">   100</i>
  <i type="int" name="ISIF">     2</i>
  <i type="int" name="ISYM">     1</i>
  <i name="ENCUT">    425.00000000</i>
  <v name="MAGMOM">      3.00000000      3.00000000</v>
  <i type="logical" name="LREAL"> F  </i>
  <i type="int" name="ISMEAR">     0</i>
  <i name="SIGMA">      0.05000000</i>
  <i type="int" name="NWRITE">     2</i>
  <i type="logical" name="LWAVE"> F  </i>
  <i type="logical" name="LCHARG"> F  </i>
  <i type="int" name="LORBIT">    11</i>
 </incar>
 <primitive_cell>
  <structure name="primitive_cell" >
   <crystal>
    <varray name="basis" >
     <v>       1.27106056      -2.20154147       0.00000000 </v>
     <v>       1.27106056       2.20154147       0.00000000 </v>
     <v>       0.00000000       0.00000000       4.10056160 </v>
    </varray>
    <i name="volume">     22.94914183 </i>
    <varray name="rec_basis" >
     <v>       0.39337229      -0.22711360       0.00000000 </v>
     <v>       0.39337229       0.22711360       0.00000000 </v>
     <v>       0.00000000       0.00000000       0.24386904 </v>
    </varray>
   </crystal>
   <varray name="positions" >
    <v>       0.33333333       0.66666667       0.25000000 </v>
    <v>       0.66666667       0.33333333       0.75000000 </v>
   </varray>
  </structure>
  <varray name="primitive_index" >
   <v type="int" >        1 </v>
   <v type="int" >        2 </v>
  </varray>
 </primitive_cell>
 <kpoints>
  <generation param="Gamma">
   <v type="int" name="divisions">      12       12        8 </v>
   <v name="usershift">      0.00000000       0.00000000       0.00000000 </v>
   <v name="genvec1">      0.08333333       0.00000000       0.00000000 </v>
   <v name="genvec2">      0.00000000       0.08333333       0.00000000 </v>
   <v name="genvec3">      0.00000000       0.00000000       0.12500000 </v>
   <v name="shift">      0.00000000       0.00000000       0.00000000 </v>
  </generation>
  <varray name="kpointlist" >
   <v>       0.00000000       0.00000000       0.00000000 </v>
   <v>       0.08333333       0.00000000       0.00000000 </v>
   <v>       0.16666667       0.00000000       0.00000000 </v>
   <v>       0.25000000      -0.00000000       0.00000000 </v>
   <v>       0.33333333       0.00000000       0.00000000 </v>
   <v>       0.41666667       0.00000000       0.00000000 </v>
   <v>       0.50000000      -0.00000000       0.00000000 </v>
   <v>       0.08333333       0.08333333       0.00000000 </v>
   <v>       0.16666667       0.08333333       0.00000000 </v>
   <v>       0.25000000       0.08333333       0.00000000 </v>
   <v>       0.33333333       0.08333333       0.00000000 </v>
   <v>       0.41666667       0.08333333       0.00000000 </v>
   <v>       0.16666667       0.16666667       0.00000000 </v>
   <v>       0.25000000       0.16666667       0.00000000 </v>
   <v>       0.33333333       0.16666667       0.00000000 </v>
   <v>       0.41666667       0.16666667       0.00000000 </v>
   <v>       0.25000000       0.25000000       0.00000000 </v>
   <v>       0.33333333       0.25000000       0.00000000 </v>
   <v>       0.33333333       0.33333333       0.00000000 </v>
   <v>       0.00000000       0.00000000       0.12500000 </v>
   <v>       0.08333333       0.00000000       0.12500000 </v>
   <v>       0.16666667       0.00000000       0.12500000 </v>
   <v>       0.25000000      -0.00000000       0.12500000 </v>
   <v>       0.33333333       0.00000000       0.12500000 </v>
   <v>       0.41666667       0.00000000       0.12500000 </v>
   <v>       0.50000000      -0.00000000       0.12500000 </v>
   <v>       0.08333333       0.08333333       0.12500000 </v>
   <v>       0.16666667       0.08333333       0.12500000 </v>
   <v>       0.25000000       0.08333333       0.12500000 </v>
   <v>       0.33333333       0.08333333       0.12500000 </v>
   <v>       0.41666667       0.08333333       0.12500000 </v>
   <v>       0.16666667       0.16666667       0.12500000 </v>
   <v>       0.25000000       0.16666667       0.12500000 </v>
   <v>       0.33333333       0.16666667       0.12500000 </v>
   <v>       0.41666667       0.16666667       0.12500000 </v>
   <v>       0.25000000       0.25000000       0.12500000 </v>
   <v>       0.33333333       0.25000000       0.12500000 </v>
   <v>       0.33333333       0.33333333       0.12500000 </v>
   <v>       0.00000000       0.00000000       0.25000000 </v>
   <v>       0.08333333       0.00000000       0.25000000 </v>
   <v>       0.16666667       0.00000000       0.25000000 </v>
   <v>       0.25000000      -0.00000000       0.25000000 </v>
   <v>       0.33333333       0.00000000       0.25000000 </v>
   <v>       0.41666667       0.00000000       0.25000000 </v>
   <v>       0.50000000      -0.00000000       0.25000000 </v>
   <v>       0.08333333       0.08333333       0.25000000 </v>
   <v>       0.16666667       0.08333333       0.25000000 </v>
   <v>       0.25000000       0.08333333       0.25000000 </v>
   <v>       0.33333333       0.08333333       0.25000000 </v>
   <v>       0.41666667       0.08333333       0.25000000 </v>
   <v>       0.16666667       0.16666667       0.25000000 </v>
   <v>       0.25000000       0.16666667       0.25000000 </v>
   <v>       0.33333333       0.16666667       0.25000000 </v>
   <v>       0.41666667       0.16666667       0.25000000 </v>
   <v>       0.25000000       0.25000000       0.25000000 </v>
   <v>       0.33333333       0.25000000       0.25000000 </v>
   <v>       0.33333333       0.33333333       0.25000000 </v>
   <v>       0.00000000       0.00000000       0.37500000 </v>
   <v>       0.08333333       0.00000000       0.37500000 </v>
   <v>       0.16666667       0.00000000       0.37500000 </v>
   <v>       0.25000000      -0.00000000       0.37500000 </v>
   <v>       0.33333333       0.00000000       0.37500000 </v>
   <v>       0.41666667       0.00000000       0.37500000 </v>
   <v>       0.50000000      -0.00000000       0.37500000 </v>
   <v>       0.08333333       0.08333333       0.37500000 </v>
   <v>       0.16666667       0.08333333       0.37500000 </v>
   <v>       0.25000000       0.08333333       0.37500000 </v>
   <v>       0.33333333       0.08333333       0.37500000 </v>
   <v>       0.41666667       0.08333333       0.37500000 </v>
   <v>       0.16666667       0.16666667       0.37500000 </v>
   <v>       0.25000000       0.16666667       0.37500000 </v>
   <v>       0.33333333       0.16666667       0.37500000 </v>
   <v>       0.41666667       0.16666667       0.37500000 </v>
   <v>       0.25000000       0.25000000       0.37500000 </v>
   <v>       0.33333333       0.25000000       0.37500000 </v>
   <v>       0.33333333       0.33333333       0.37500000 </v>
   <v>       0.00000000       0.00000000       0.50000000 </v>
   <v>       0.08333333       0.00000000       0.50000000 </v>
   <v>       0.16666667       0.00000000       0.50000000 </v>
   <v>       0.25000000      -0.00000000       0.50000000 </v>
   <v>       0.33333333       0.00000000       0.50000000 </v>
   <v>       0.41666667       0.00000000       0.50000000 </v>
   <v>       0.50000000      -0.00000000       0.50000000 </v>
   <v>       0.08333333       0.08333333       0.50000000 </v>
   <v>       0.16666667       0.08333333       0.50000000 </v>
   <v>       0.25000000       0.08333333       0.50000000 </v>
   <v>       0.33333333       0.08333333       0.50000000 </v>
   <v>       0.41666667       0.08333333       0.50000000 </v>
   <v>       0.16666667       0.16666667       0.50000000 </v>
   <v>       0.25000000       0.16666667       0.50000000 </v>
   <v>       0.33333333       0.16666667       0.50000000 </v>
   <v>       0.41666667       0.16666667       0.50000000 </v>
   <v>       0.25000000       0.25000000       0.50000000 </v>
   <v>       0.33333333       0.25000000       0.50000000 </v>
   <v>       0.33333333       0.33333333       0.50000000 </v>
  </varray>
  <varray name="weights" >
   <v>       0.00086806 </v>
   <v>       0.00520833 </v>
   <v>       0.00520833 </v>
   <v>       0.00520833 </v>
   <v>       0.00520833 </v>
   <v>       0.00520833 </v>
   <v>       0.00260417 </v>
   <v>       0.00520833 </v>
   <v>       0.01041667 </v>
   <v>       0.01041667 </v>
   <v>       0.01041667 </v>
   <v>       0.01041667 </v>
   <v>       0.00520833 </v>
   <v>       0.01041667 </v>
   <v>       0.01041667 </v>
   <v>       0.00520833 </v>
   <v>       0.00520833 </v>
   <v>       0.01041667 </v>
   <v>       0.00173611 </v>
   <v>       0.00173611 </v>
   <v>       0.01041667 </v>
   <v>       0.01041667 </v>
   <v>       0.01041667 </v>
   <v>       0.01041667 </v>
   <v>       0.01041667 </v>
   <v>       0.00520833 </v>
   <v>       0.01041667 </v>
   <v>       0.02083333 </v>
   <v>       0.02083333 </v>
   <v>       0.02083333 </v>
   <v>       0.02083333 </v>
   <v>       0.01041667 </v>
   <v>       0.02083333 </v>
   <v>       0.02083333 </v>
   <v>       0.01041667 </v>
   <v>       0.01041667 </v>
   <v>       0.02083333 </v>
   <v>       0.00347222 </v>
   <v>       0.00173611 </v>
   <v>       0.01041667 </v>
   <v>       0.01041667 </v>
   <v>       0.01041667 </v>
   <v>       0.01041667 </v>
   <v>       0.01041667 </v>
   <v>       0.00520833 </v>
   <v>       0.01041667 </v>
   <v>       0.02083333 </v>
   <v>       0.02083333 </v>
   <v>       0.02083333 </v>
   <v>       0.02083333 </v>
   <v>       0.01041667 </v>
   <v>       0.02083333 </v>
   <v>       0.02083333 </v>
   <v>       0.01041667 </v>
   <v>       0.01041667 </v>
   <v>       0.02083333 </v>
   <v>       0.00347222 </v>
   <v>       0.00173611 </v>
   <v>       0.01041667 </v>
   <v>       0.01041667 </v>
   <v>       0.01041667 </v>
   <v>       0.01041667 </v>
   <v>       0.01041667 </v>
   <v>       0.00520833 </v>
   <v>       0.01041667 </v>
   <v>       0.02083333 </v>
   <v>       0.02083333 </v>
   <v>       0.02083333 </v>
   <v>       0.02083333 </v>
   <v>       0.01041667 </v>
   <v>       0.02083333 </v>
   <v>       0.02083333 </v>
   <v>       0.01041667 </v>
   <v>       0.01041667 </v>
   <v>       0.02083333 </v>
   <v>       0.00347222 </v>
   <v>       0.00086806 </v>
   <v>       0.00520833 </v>
   <v>       0.00520833 </v>
   <v>       0.00520833 </v>
   <v>       0.00520833 </v>
   <v>       0.00520833 </v>
   <v>       0.00260417 </v>
   <v>       0.00520833 </v>
   <v>       0.01041667 </v>
   <v>       0.01041667 </v>
   <v>       0.01041667 </v>
   <v>       0.01041667 </v>
   <v>       0.00520833 </v>
   <v>       0.01041667 </v>
   <v>       0.01041667 </v>
   <v>       0.00520833 </v>
   <v>       0.00520833 </v>
   <v>       0.01041667 </v>
   <v>       0.00173611 </v>
  </varray>
 </kpoints>
 <parameters>
  <separator name="general" >
   <i type="string" name="SYSTEM">Co-hcc</i>
   <i type="logical" name="LCOMPAT"> F  </i>
  </separator>
  <separator name="electronic" >
   <i type="string" name="PREC">accura</i>
   <i name="ENMAX">    425.00000000</i>
   <i name="ENAUG">    477.81800000</i>
   <i name="EDIFF">      0.00000100</i>
   <i type="int" name="IALGO">    38</i>
   <i type="int" name="IWAVPR">    11</i>
   <i type="int" name="NBANDS">    24</i>
   <i type="int" name="NBANDSLOW">    -1</i>
   <i type="int" name="NBANDSHIGH">    -1</i>
   <i name="NELECT">     18.00000000</i>
   <i type="int" name="TURBO">     0</i>
   <i type="int" name="IRESTART">     0</i>
   <i type="int" name="NREBOOT">     0</i>
   <i type="int" name="NMIN">     0</i>
   <i name="EREF">      0.00000000</i>
   <separator name="electronic smearing" >
    <i type="int" name="ISMEAR">     0</i>
    <i name="SIGMA">      0.05000000</i>
    <i name="KSPACING">      0.50000000</i>
    <i type="logical" name="KGAMMA"> T  </i>
    <i type="logical" name="KBLOWUP"> T  </i>
   </separator>
   <separator name="electronic projectors" >
    <i type="logical" name="LREAL"> F  </i>
    <v name="ROPT">      0.00000000</v>
    <i type="int" name="LMAXPAW">  -100</i>
    <i type="int" name="LMAXMIX">     2</i>
    <i type="logical" name="NLSPLINE"> F  </i>
   </separator>
   <separator name="electronic startup" >
    <i type="int" name="ISTART">     0</i>
    <i type="int" name="ICHARG">     2</i>
    <i type="int" name="INIWAV">     1</i>
   </separator>
   <separator name="electronic spin" >
    <i type="int" name="ISPIN">     2</i>
    <i type="logical" name="LNONCOLLINEAR"> F  </i>
    <v name="MAGMOM">      3.00000000      3.00000000</v>
    <i name="NUPDOWN">     -1.00000000</i>
    <i type="logical" name="LSORBIT"> F  </i>
    <v name="SAXIS">      0.00000000      0.00000000      1.00000000</v>
    <i type="logical" name="LSPIRAL"> F  </i>
    <v name="QSPIRAL">      0.00000000      0.00000000      0.00000000</v>
    <i type="logical" name="LZEROZ"> F  </i>
   </separator>
   <separator name="electronic exchange-correlation" >
    <i type="logical" name="LASPH"> F  </i>
    <i type="logical" name="LMETAGGA"> F  </i>
   </separator>
   <separator name="electronic convergence" >
    <i type="int" name="NELM">   100</i>
    <i type="int" name="NELMDL">    -5</i>
    <i type="int" name="NELMIN">     2</i>
    <i name="ENINI">    425.00000000</i>
    <separator name="electronic convergence detail" >
     <i type="logical" name="LDIAG"> T  </i>
     <i type="logical" name="LSUBROT"> F  </i>
     <i name="WEIMIN">      0.00100000</i>
     <i name="EBREAK">      0.00000001</i>
     <i name="DEPER">      0.30000000</i>
     <i type="int" name="NRMM">     4</i>
     <i name="TIME">      0.40000000</i>
    </separator>
   </separator>
   <separator name="electronic mixer" >
    <i name="AMIX">      0.40000000</i>
    <i name="BMIX">      1.00000000</i>
    <i name="AMIN">      0.10000000</i>
    <i name="AMIX_MAG">      1.60000000</i>
    <i name="BMIX_MAG">      1.00000000</i>
    <separator name="electronic mixer details" >
     <i type="int" name="IMIX">     4</i>
     <i type="logical" name="MIXFIRST"> F  </i>
     <i type="int" name="MAXMIX">   -45</i>
     <i name="WC">    100.00000000</i>
     <i type="int" name="INIMIX">     1</i>
     <i type="int" name="MIXPRE">     1</i>
     <i type="int" name="MREMOVE">     5</i>
    </separator>
   </separator>
   <separator name="electronic dipolcorrection" >
    <i type="logical" name="LDIPOL"> F  </i>
    <i type="logical" name="LMONO"> F  </i>
    <i type="int" name="IDIPOL">     0</i>
    <i name="EPSILON">      1.00000000</i>
    <v name="DIPOL">   -100.00000000   -100.00000000   -100.00000000</v>
    <i name="EFIELD">      0.00000000</i>
   </separator>
  </separator>
  <separator name="grids" >
   <i type="int" name="NGX">    18</i>
   <i type="int" name="NGY">    18</i>
   <i type="int" name="NGZ">    28</i>
   <i type="int" name="NGXF">    36</i>
   <i type="int" name="NGYF">    36</i>
   <i type="int" name="NGZF">    56</i>
   <i type="logical" name="ADDGRID"> F  </i>
  </separator>
  <separator name="ionic" >
   <i type="int" name="NSW">   100</i>
   <i type="int" name="IBRION">     2</i>
   <i type="int" name="MDALGO">     0</i>
   <i type="int" name="ISIF">     2</i>
   <i name="PSTRESS">      0.00000000</i>
   <i name="EDIFFG">     -0.02000000</i>
   <i type="int" name="NFREE">     1</i>
   <i name="POTIM">      0.50000000</i>
   <i name="SMASS">     -3.00000000</i>
   <i name="SCALEE">      1.00000000</i>
  </separator>
  <separator name="ionic md" >
   <i name="TEBEG">      0.00010000</i>
   <i name="TEEND">      0.00010000</i>
   <i type="int" name="NBLOCK">     1</i>
   <i type="int" name="KBLOCK">   100</i>
   <i type="int" name="NPACO">   256</i>
   <i name="APACO">     10.00000000</i>
  </separator>
  <separator name="symmetry" >
   <i type="int" name="ISYM">     1</i>
   <i name="SYMPREC">      0.00001000</i>
  </separator>
  <separator name="dos" >
   <i type="int" name="LORBIT">    11</i>
   <v name="RWIGS">     -1.00000000</v>
   <i type="int" name="NEDOS">   301</i>
   <i name="EMIN">     10.00000000</i>
   <i name="EMAX">    -10.00000000</i>
   <i name="EFERMI">      0.00000000</i>
  </separator>
  <separator name="writing" >
   <i type="int" name="NWRITE">     2</i>
   <i type="logical" name="LWAVE"> F  </i>
   <i type="logical" name="LDOWNSAMPLE"> F  </i>
   <i type="logical" name="LCHARG"> F  </i>
   <i type="logical" name="LPARD"> F  </i>
   <i type="logical" name="LVTOT"> F  </i>
   <i type="logical" name="LVHAR"> F  </i>
   <i type="logical" name="LELF"> F  </i>
   <i type="logical" name="LOPTICS"> F  </i>
   <v name="STM">      0.00000000      0.00000000      0.00000000      0.00000000      0.00000000      0.00000000      0.00000000</v>
  </separator>
  <separator name="performance" >
   <i type="int" name="NPAR">    24</i>
   <i type="int" name="NSIM">     4</i>
   <i type="int" name="NBLK">    -1</i>
   <i type="logical" name="LPLANE"> T  </i>
   <i type="logical" name="LSCALAPACK"> T  </i>
   <i type="logical" name="LSCAAWARE"> T  </i>
   <i type="logical" name="LSCALU"> F  </i>
   <i type="logical" name="LASYNC"> F  </i>
   <i type="logical" name="LORBITALREAL"> F  </i>
  </separator>
  <separator name="miscellaneous" >
   <i type="int" name="IDIOT">     3</i>
   <i type="int" name="PHON_NSTRUCT">    -1</i>
   <i type="logical" name="LMUSIC"> F  </i>
   <v name="POMASS">     58.93300000</v>
   <v name="DARWINR">      0.00000000</v>
   <v name="DARWINV">      1.00000000</v>
   <i type="logical" name="LCORR"> T  </i>
  </separator>
  <i type="logical" name="GGA_COMPAT"> T  </i>
  <i type="logical" name="LBERRY"> F  </i>
  <i type="int" name="ICORELEVEL">     0</i>
  <i type="logical" name="LDAU"> F  </i>
  <i type="int" name="I_CONSTRAINED_M">     0</i>
  <separator name="electronic exchange-correlation" >
   <i type="string" name="GGA">--</i>
   <i type="int" name="VOSKOWN">     0</i>
   <i type="logical" name="LHFCALC"> F  </i>
   <i type="string" name="PRECFOCK"></i>
   <i type="logical" name="LSYMGRAD"> F  </i>
   <i type="logical" name="LHFONE"> F  </i>
   <i type="logical" name="LRHFCALC"> F  </i>
   <i type="logical" name="LTHOMAS"> F  </i>
   <i type="logical" name="LMODELHF"> F  </i>
   <i type="logical" name="LFOCKACE"> F  </i>
   <i name="ENCUT4O">     -1.00000000</i>
   <i type="int" name="EXXOEP">     0</i>
   <i type="int" name="FOURORBIT">     0</i>
   <i name="AEXX">      0.00000000</i>
   <i name="HFALPHA">      0.00000000</i>
   <i name="MCALPHA">      0.00000000</i>
   <i name="ALDAX">      1.00000000</i>
   <i name="AGGAX">      1.00000000</i>
   <i name="ALDAC">      1.00000000</i>
   <i name="AGGAC">      1.00000000</i>
   <i type="int" name="NKREDX">     1</i>
   <i type="int" name="NKREDY">     1</i>
   <i type="int" name="NKREDZ">     1</i>
   <i type="logical" name="SHIFTRED"> F  </i>
   <i type="logical" name="ODDONLY"> F  </i>
   <i type="logical" name="EVENONLY"> F  </i>
   <i type="int" name="LMAXFOCK">     0</i>
   <i type="int" name="NMAXFOCKAE">     0</i>
   <i type="logical" name="LFOCKAEDFT"> F  </i>
   <i name="HFSCREEN">      0.00000000</i>
   <i name="HFSCREENC">      0.00000000</i>
   <i type="int" name="NBANDSGWLOW">     0</i>
  </separator>
  <separator name="vdW DFT" >
   <i type="logical" name="LUSE_VDW"> F  </i>
   <i name="Zab_VDW">     -0.84910000</i>
   <i name="PARAM1">      0.12340000</i>
   <i name="PARAM2">      1.00000000</i>
   <i name="PARAM3">      0.00000000</i>
  </separator>
  <separator name="model GW" >
   <i type="int" name="MODEL_GW">     0</i>
   <i name="MODEL_EPS0">      6.88474255</i>
   <i name="MODEL_ALPHA">      1.00000000</i>
  </separator>
  <separator name="linear response parameters" >
   <i type="logical" name="LEPSILON"> F  </i>
   <i type="logical" name="LRPA"> F  </i>
   <i type="logical" name="LNABLA"> F  </i>
   <i type="logical" name="LVEL"> F  </i>
   <i name="CSHIFT">      0.10000000</i>
   <i name="OMEGAMAX">     -1.00000000</i>
   <i name="DEG_THRESHOLD">      0.00200000</i>
   <i name="RTIME">     -0.10000000</i>
   <i name="WPLASMAI">      0.00000000</i>
   <v name="DFIELD">      0.00000000      0.00000000      0.00000000</v>
   <v name="WPLASMA">      0.00000000      0.00000000      0.00000000      0.00000000      0.00000000      0.00000000      0.00000000      0.00000000      0.00000000</v>
  </separator>
  <separator name="orbital magnetization" >
   <i type="logical" name="NUCIND"> F  </i>
   <v name="MAGPOS">      0.00000000      0.00000000      0.00000000</v>
   <i type="logical" name="LNICSALL"> T  </i>
   <i type="logical" name="ORBITALMAG"> F  </i>
   <i type="logical" name="LMAGBLOCH"> F  </i>
   <i type="logical" name="LCHIMAG"> F  </i>
   <i type="logical" name="LGAUGE"> T  </i>
   <i type="int" name="MAGATOM">     0</i>
   <v name="MAGDIPOL">      0.00000000      0.00000000      0.00000000</v>
   <v name="AVECCONST">      0.00000000      0.00000000      0.00000000</v>
  </separator>
  <separator name="response functions" >
   <i type="logical" name="LFINITE_TEMPERATURE"> F  </i>
   <i type="logical" name="LADDER"> F  </i>
   <i type="logical" name="LRPAFORCE"> F  </i>
   <i type="logical" name="LFXC"> F  </i>
   <i type="logical" name="LHARTREE"> T  </i>
   <i type="int" name="IBSE">     0</i>
   <v type="int" name="KPOINT">    -1     0     0     0</v>
   <i type="logical" name="LTCTC"> F  </i>
   <i type="logical" name="LTCTE"> F  </i>
   <i type="logical" name="LTETE"> F  </i>
   <i type="logical" name="LTRIPLET"> F  </i>
   <i type="logical" name="LFXCEPS"> F  </i>
   <i type="logical" name="LFXHEG"> F  </i>
   <i type="int" name="NATURALO">     2</i>
   <i type="logical" name="LHOLEGF"> F  </i>
   <i type="logical" name="L2ORDER"> F  </i>
   <i type="logical" name="LDMP1"> F  </i>
   <i type="logical" name="LMP2LT"> F  </i>
   <i type="logical" name="LSMP2LT"> F  </i>
   <i type="logical" name="LGWLF"> F  </i>
   <i name="ENCUTGW">     -2.00000000</i>
   <i name="ENCUTGWSOFT">     -2.00000000</i>
   <i name="ENCUTLF">     -1.00000000</i>
   <i type="logical" name="LESF_SPLINES"> F  </i>
   <i type="int" name="LMAXMP2">    -1</i>
   <i name="SCISSOR">      0.00000000</i>
   <i type="int" name="NOMEGA">     0</i>
   <i type="int" name="NOMEGAR">     0</i>
   <i type="int" name="NBANDSGW">    -1</i>
   <i type="int" name="NBANDSO">    -1</i>
   <i type="int" name="NBANDSV">    -1</i>
   <i type="int" name="NELMGW">     1</i>
   <i type="int" name="NELMHF">     1</i>
   <i type="int" name="DIM">     3</i>
   <i type="int" name="IESPILON">     4</i>
   <i type="int" name="ANTIRES">     0</i>
   <i name="OMEGAMAX">    -30.00000000</i>
   <i name="OMEGAMIN">    -30.00000000</i>
   <i name="OMEGATL">   -200.00000000</i>
   <i type="int" name="OMEGAGRID">     0</i>
   <i name="CSHIFT">     -0.10000000</i>
   <i type="logical" name="LSELFENERGY"> F  </i>
   <i type="logical" name="LSPECTRAL"> F  </i>
   <i type="logical" name="LSPECTRALGW"> F  </i>
   <i type="logical" name="LSINGLES"> F  </i>
   <i type="logical" name="LFERMIGW"> F  </i>
   <i type="logical" name="ODDONLYGW"> F  </i>
   <i type="logical" name="EVENONLYGW"> F  </i>
   <i type="int" name="NKREDLFX">     1</i>
   <i type="int" name="NKREDLFY">     1</i>
   <i type="int" name="NKREDLFZ">     1</i>
   <i type="int" name="MAXMEM">  2800</i>
   <i type="int" name="TELESCOPE">     0</i>
   <i type="int" name="NTAUPAR">    -1</i>
   <i type="int" name="NOMEGAPAR">    -1</i>
   <i name="DAMP_NEWTON">      0.80000001</i>
   <i name="LAMBDA">      1.00000000</i>
  </separator>
  <separator name="External order field" >
   <i name="OFIELD_KAPPA">      0.00000000</i>
   <v name="OFIELD_K">      0.00000000      0.00000000      0.00000000</v>
   <i name="OFIELD_Q6_NEAR">      0.00000000</i>
   <i name="OFIELD_Q6_FAR">      0.00000000</i>
   <i name="OFIELD_A">      0.00000000</i>
  </separator>
  <separator name="optional k-points parameters" >
   <i type="int" name="KPOINTS_OPT_MODE">     1</i>
   <i type="logical" name="LKPOINTS_OPT"> F  </i>
  </separator>
 </parameters>
 <atominfo>
  <atoms>       2 </atoms>
  <types>       1 </types>
  <array name="atoms" >
   <dimension dim="1">ion</dimension>
   <field type="string">element</field>
   <field type="int">atomtype</field>
   <set>
    <rc><c>Co</c><c>   1</c></rc>
    <rc><c>Co</c><c>   1</c></rc>
   </set>
  </array>
  <array name="atomtypes" >
   <dimension dim="1">type</dimension>
   <field type="int">atomspertype</field>
   <field type="string">element</field>
   <field>mass</field>
   <field>valence</field>
   <field type="string">pseudopotential</field>
   <set>
    <rc><c>   2</c><c>Co</c><c>     58.93300000</c><c>      9.00000000</c><c>  PAW_PBE Co 02Aug2007                  </c></rc>
   </set>
  </array>
 </atominfo>
 <structure name="initialpos" >
  <crystal>
   <varray name="basis" >
    <v>       1.27106056      -2.20154147       0.00000000 </v>
    <v>       1.27106056       2.20154147       0.00000000 </v>
    <v>       0.00000000       0.00000000       4.10056160 </v>
   </varray>
   <i name="volume">     22.94914183 </i>
   <varray name="rec_basis" >
    <v>       0.39337229      -0.22711360       0.00000000 </v>
    <v>       0.39337229       0.22711360       0.00000000 </v>
    <v>       0.00000000       0.00000000       0.24386904 </v>
   </varray>
  </crystal>
  <varray name="positions" >
   <v>       0.33333333       0.66666667       0.25000000 </v>
   <v>       0.66666667       0.33333333       0.75000000 </v>
  </varray>
 </structure>
 <calculation>
  <scstep>
   <time name="dav">    0.75    0.76</time>
   <time name="total">    0.77    0.77</time>
   <energy>
    <i name="alphaZ">     73.82880147 </i>
    <i name="ewald">  -1493.50445591 </i>
    <i name="hartreedc">   -312.00400794 </i>
    <i name="XCdc">     35.27529066 </i>
    <i name="pawpsdc">   1439.98163886 </i>
    <i name="pawaedc">  -1545.88690193 </i>
    <i name="eentropy">     -0.00366953 </i>
    <i name="bandstr">    179.78440390 </i>
    <i name="atom">   1626.72322989 </i>
    <i name="e_fr_energy">      4.19432946 </i>
    <i name="e_wo_entrp">      4.19799899 </i>
    <i name="e_0_energy">      4.19616423 </i>
   </energy>
  </scstep>
  <scstep>
   <time name="dav">    1.02    1.02</time>
   <time name="total">    1.02    1.02</time>
   <energy>
    <i name="e_fr_energy">    -15.57337354 </i>
    <i name="e_wo_entrp">    -15.57146646 </i>
    <i name="e_0_energy">    -15.57242000 </i>
   </energy>
  </scstep>
  <scstep>
   <time name="dav">    1.15    1.16</time>
   <time name="total">    1.15    1.16</time>
   <energy>
    <i name="e_fr_energy">    -15.69679730 </i>
    <i name="e_wo_entrp">    -15.69488052 </i>
    <i name="e_0_energy">    -15.69583891 </i>
   </energy>
  </scstep>
  <scstep>
   <time name="dav">    1.39    1.40</time>
   <time name="total">    1.39    1.40</time>
   <energy>
    <i name="e_fr_energy">    -15.69752684 </i>
    <i name="e_wo_entrp">    -15.69560775 </i>
    <i name="e_0_energy">    -15.69656730 </i>
   </energy>
  </scstep>
  <scstep>
   <time name="dav">    1.32    1.32</time>
   <time name="total">    1.35    1.36</time>
   <energy>
    <i name="e_fr_energy">    -15.69752749 </i>
    <i name="e_wo_entrp">    -15.69560839 </i>
    <i name="e_0_energy">    -15.69656794 </i>
   </energy>
  </scstep>
  <scstep>
   <time name="dav">    1.59    1.60</time>
   <time name="total">    1.63    1.64</time>
   <energy>
    <i name="e_fr_energy">    -14.53187849 </i>
    <i name="e_wo_entrp">    -14.52995390 </i>
    <i name="e_0_energy">    -14.53091620 </i>
   </energy>
  </scstep>
  <scstep>
   <time name="dav">    1.61    1.62</time>
   <time name="total">    1.66    1.66</time>
   <energy>
    <i name="e_fr_energy">    -14.05778378 </i>
    <i name="e_wo_entrp">    -14.05518146 </i>
    <i name="e_0_energy">    -14.05648262 </i>
   </energy>
  </scstep>
  <scstep>
   <time name="dav">    1.55    1.56</time>
   <time name="total">    1.59    1.60</time>
   <energy>
    <i name="e_fr_energy">    -14.03803339 </i>
    <i name="e_wo_entrp">    -14.03545835 </i>
    <i name="e_0_energy">    -14.03674587 </i>
   </energy>
  </scstep>
  <scstep>
   <time name="dav">    1.97    1.98</time>
   <time name="total">    2.02    2.03</time>
   <energy>
    <i name="e_fr_energy">    -14.02455652 </i>
    <i name="e_wo_entrp">    -14.02193700 </i>
    <i name="e_0_energy">    -14.02324676 </i>
   </energy>
  </scstep>
  <scstep>
   <time name="dav">    2.01    2.02</time>
   <time name="total">    2.05    2.06</time>
   <energy>
    <i name="e_fr_energy">    -14.02359409 </i>
    <i name="e_wo_entrp">    -14.02097837 </i>
    <i name="e_0_energy">    -14.02228623 </i>
   </energy>
  </scstep>
  <scstep>
   <time name="dav">    1.51    1.51</time>
   <time name="total">    1.55    1.56</time>
   <energy>
    <i name="e_fr_energy">    -14.02359909 </i>
    <i name="e_wo_entrp">    -14.02098472 </i>
    <i name="e_0_energy">    -14.02229191 </i>
   </energy>
  </scstep>
  <scstep>
   <time name="dav">    1.38    1.38</time>
   <time name="total">    1.42    1.43</time>
   <energy>
    <i name="e_fr_energy">    -14.02359420 </i>
    <i name="e_wo_entrp">    -14.02098244 </i>
    <i name="e_0_energy">    -14.02228832 </i>
   </energy>
  </scstep>
  <scstep>
   <time name="dav">    1.64    1.65</time>
   <time name="total">    1.65    1.66</time>
   <energy>
    <i name="alphaZ">     73.82880147 </i>
    <i name="ewald">  -1493.50445591 </i>
    <i name="hartreedc">   -276.56627216 </i>
    <i name="XCdc">     32.58602199 </i>
    <i name="pawpsdc">   1748.81956349 </i>
    <i name="pawaedc">  -1854.41786872 </i>
    <i name="eentropy">     -0.00261086 </i>
    <i name="bandstr">    128.50999607 </i>
    <i name="atom">   1626.72322989 </i>
    <i name="e_fr_energy">    -14.02359474 </i>
    <i name="e_wo_entrp">    -14.02098389 </i>
    <i name="e_0_energy">    -14.02228932 </i>
   </energy>
  </scstep>
  <structure>
   <crystal>
    <varray name="basis" >
     <v>       1.27106056      -2.20154147       0.00000000 </v>
     <v>       1.27106056       2.20154147       0.00000000 </v>
     <v>       0.00000000       0.00000000       4.10056160 </v>
    </varray>
    <i name="volume">     22.94914183 </i>
    <varray name="rec_basis" >
     <v>       0.39337229      -0.22711360       0.00000000 </v>
     <v>       0.39337229       0.22711360       0.00000000 </v>
     <v>       0.00000000       0.00000000       0.24386904 </v>
    </varray>
   </crystal>
   <varray name="positions" >
    <v>       0.33333333       0.66666667       0.25000000 </v>
    <v>       0.66666667       0.33333333       0.75000000 </v>
   </varray>
  </structure>
  <varray name="forces" >
   <v>       0.00000000       0.00000000       0.00000000 </v>
   <v>       0.00000000      -0.00000000      -0.00000000 </v>
  </varray>
  <varray name="stress" >
   <v>    -106.38202602       0.00000000      -0.00000000 </v>
   <v>       0.00000000    -106.38202602       0.00000000 </v>
   <v>      -0.00000000      -0.00000000    -108.06799158 </v>
  </varray>
  <energy>
   <i name="e_fr_energy">    -14.02359474 </i>
   <i name="e_wo_entrp">    -14.02098389 </i>
   <i name="e_0_energy">    -14.02228932 </i>
  </energy>
  <time name="totalsc">   19.54   19.63</time>
  <eigenvalues>
   <array>
    <dimension dim="1">band</dimension>
    <dimension dim="2">kpoint</dimension>
    <dimension dim="3">spin</dimension>
    <field>eigene</field>
    <field>occ</field>
    <set>
     <set comment="spin 1">
      <set comment="kpoint 1">
       <r>    0.8979    1.0000 </r>
       <r>    4.5896    1.0000 </r>
       <r>    6.9259    1.0000 </r>
       <r>    6.9362    1.0000 </r>
       <r>    6.9362    1.0000 </r>
       <r>    7.2207    1.0000 </r>
       <r>    7.2207    1.0000 </r>
       <r>    7.5281    1.0000 </r>
       <r>    7.5281    1.0000 </r>
       <r>    8.5432    1.0000 </r>
       <r>    8.5432    1.0000 </r>
       <r>    9.4701    0.2708 </r>
       <r>   15.3694    0.0000 </r>
       <r>   30.9481    0.0000 </r>
       <r>   32.9438    0.0000 </r>
       <r>   32.9438    0.0000 </r>
       <r>   33.8927    0.0000 </r>
       <r>   34.3585    0.0000 </r>
       <r>   34.3586    0.0000 </r>
       <r>   34.3872    0.0000 </r>
       <r>   39.1070    0.0000 </r>
       <r>   39.1070    0.0000 </r>
       <r>   39.6977    0.0000 </r>
       <r>   40.4472    0.0000 </r>
      </set>
      <set comment="kpoint 2">
       <r>    1.1305    1.0000 </r>
       <r>    4.7251    1.0000 </r>
       <r>    6.7247    1.0000 </r>
       <r>    7.0395    1.0000 </r>
       <r>    7.1039    1.0000 </r>
       <r>    7.1806    1.0000 </r>
       <r>    7.3121    1.0000 </r>
       <r>    7.3987    1.0000 </r>
       <r>    7.4643    1.0000 </r>
       <r>    7.8892    1.0000 </r>
       <r>    8.5704    1.0000 </r>
       <r>   10.4189    0.0000 </r>
       <r>   15.4162    0.0000 </r>
       <r>   28.8820    0.0000 </r>
       <r>   30.9414    0.0000 </r>
       <r>   31.1867    0.0000 </r>
       <r>   34.3965    0.0000 </r>
       <r>   34.6695    0.0000 </r>
       <r>   36.0408    0.0000 </r>
       <r>   36.6037    0.0000 </r>
       <r>   37.3568    0.0000 </r>
       <r>   38.5358    0.0000 </r>
       <r>   39.2677    0.0000 </r>
       <r>   39.3832    0.0000 </r>
      </set>
      <set comment="kpoint 3">
       <r>    1.8047    1.0000 </r>
       <r>    5.0596    1.0000 </r>
       <r>    6.4785    1.0000 </r>
       <r>    6.7794    1.0000 </r>
       <r>    7.0266    1.0000 </r>
       <r>    7.3060    1.0000 </r>
       <r>    7.3307    1.0000 </r>
       <r>    7.3818    1.0000 </r>
       <r>    7.5170    1.0000 </r>
       <r>    7.5674    1.0000 </r>
       <r>    8.6285    1.0000 </r>
       <r>   11.9145    0.0000 </r>
       <r>   15.5783    0.0000 </r>
       <r>   25.0785    0.0000 </r>
       <r>   28.6495    0.0000 </r>
       <r>   30.2866    0.0000 </r>
       <r>   32.1698    0.0000 </r>
       <r>   34.4978    0.0000 </r>
       <r>   34.8773    0.0000 </r>
       <r>   36.9776    0.0000 </r>
       <r>   37.6650    0.0000 </r>
       <r>   38.1099    0.0000 </r>
       <r>   38.6579    0.0000 </r>
       <r>   39.9220    0.0000 </r>
      </set>
      <set comment="kpoint 4">
       <r>    2.8293    1.0000 </r>
       <r>    5.3277    1.0000 </r>
       <r>    6.1156    1.0000 </r>
       <r>    6.3338    1.0000 </r>
       <r>    6.9461    1.0000 </r>
       <r>    7.1152    1.0000 </r>
       <r>    7.3324    1.0000 </r>
       <r>    7.7521    1.0000 </r>
       <r>    7.7719    1.0000 </r>
       <r>    7.9338    1.0000 </r>
       <r>    8.6839    1.0000 </r>
       <r>   13.6260    0.0000 </r>
       <r>   15.8921    0.0000 </r>
       <r>   21.4453    0.0000 </r>
       <r>   26.6669    0.0000 </r>
       <r>   28.8684    0.0000 </r>
       <r>   29.0721    0.0000 </r>
       <r>   32.4373    0.0000 </r>
       <r>   33.4577    0.0000 </r>
       <r>   36.6129    0.0000 </r>
       <r>   36.9660    0.0000 </r>
       <r>   37.7283    0.0000 </r>
       <r>   38.7381    0.0000 </r>
       <r>   41.6084    0.0000 </r>
      </set>
      <set comment="kpoint 5">
       <r>    3.9559    1.0000 </r>
       <r>    5.2682    1.0000 </r>
       <r>    5.6305    1.0000 </r>
       <r>    6.4467    1.0000 </r>
       <r>    6.9430    1.0000 </r>
       <r>    7.0613    1.0000 </r>
       <r>    7.1731    1.0000 </r>
       <r>    8.1988    1.0000 </r>
       <r>    8.3304    1.0000 </r>
       <r>    8.4024    1.0000 </r>
       <r>    8.7222    1.0000 </r>
       <r>   15.5064    0.0000 </r>
       <r>   16.0343    0.0000 </r>
       <r>   18.6185    0.0000 </r>
       <r>   25.1011    0.0000 </r>
       <r>   25.8518    0.0000 </r>
       <r>   26.7621    0.0000 </r>
       <r>   31.0485    0.0000 </r>
       <r>   32.3451    0.0000 </r>
       <r>   34.9052    0.0000 </r>
       <r>   36.4861    0.0000 </r>
       <r>   38.4181    0.0000 </r>
       <r>   40.4831    0.0000 </r>
       <r>   42.7518    0.0000 </r>
      </set>
      <set comment="kpoint 6">
       <r>    4.7013    1.0000 </r>
       <r>    5.0965    1.0000 </r>
       <r>    5.3403    1.0000 </r>
       <r>    6.7987    1.0000 </r>
       <r>    6.8253    1.0000 </r>
       <r>    7.0612    1.0000 </r>
       <r>    7.2472    1.0000 </r>
       <r>    8.5312    1.0000 </r>
       <r>    8.6577    1.0000 </r>
       <r>    8.7427    1.0000 </r>
       <r>    9.4610    0.3617 </r>
       <r>   14.2122    0.0000 </r>
       <r>   17.4635    0.0000 </r>
       <r>   18.5740    0.0000 </r>
       <r>   23.2238    0.0000 </r>
       <r>   24.0765    0.0000 </r>
       <r>   24.1448    0.0000 </r>
       <r>   30.5986    0.0000 </r>
       <r>   31.6005    0.0000 </r>
       <r>   33.8043    0.0000 </r>
       <r>   36.2101    0.0000 </r>
       <r>   38.8413    0.0000 </r>
       <r>   42.8170    0.0000 </r>
       <r>   43.3821    0.0000 </r>
      </set>
      <set comment="kpoint 7">
       <r>    4.9522    1.0000 </r>
       <r>    4.9650    1.0000 </r>
       <r>    5.2438    1.0000 </r>
       <r>    6.7836    1.0000 </r>
       <r>    7.0209    1.0000 </r>
       <r>    7.0357    1.0000 </r>
       <r>    7.3164    1.0000 </r>
       <r>    8.6512    1.0000 </r>
       <r>    8.7490    1.0000 </r>
       <r>    8.7897    1.0000 </r>
       <r>   10.6096    0.0000 </r>
       <r>   12.4884    0.0000 </r>
       <r>   18.7482    0.0000 </r>
       <r>   19.3254    0.0000 </r>
       <r>   21.7177    0.0000 </r>
       <r>   22.7213    0.0000 </r>
       <r>   23.7166    0.0000 </r>
       <r>   30.4868    0.0000 </r>
       <r>   31.3433    0.0000 </r>
       <r>   33.4229    0.0000 </r>
       <r>   36.1202    0.0000 </r>
       <r>   38.9981    0.0000 </r>
       <r>   43.5488    0.0000 </r>
       <r>   45.3060    0.0000 </r>
      </set>
      <set comment="kpoint 8">
       <r>    1.5847    1.0000 </r>
       <r>    4.9654    1.0000 </r>
       <r>    6.5302    1.0000 </r>
       <r>    7.0034    1.0000 </r>
       <r>    7.0863    1.0000 </r>
       <r>    7.2471    1.0000 </r>
       <r>    7.2503    1.0000 </r>
       <r>    7.2830    1.0000 </r>
       <r>    7.5139    1.0000 </r>
       <r>    7.6251    1.0000 </r>
       <r>    8.6044    1.0000 </r>
       <r>   11.4916    0.0000 </r>
       <r>   15.5224    0.0000 </r>
       <r>   26.8391    0.0000 </r>
       <r>   27.4099    0.0000 </r>
       <r>   32.6682    0.0000 </r>
       <r>   33.7103    0.0000 </r>
       <r>   33.8861    0.0000 </r>
       <r>   33.9103    0.0000 </r>
       <r>   36.8280    0.0000 </r>
       <r>   37.4274    0.0000 </r>
       <r>   37.9471    0.0000 </r>
       <r>   40.3569    0.0000 </r>
       <r>   40.7588    0.0000 </r>
      </set>
      <set comment="kpoint 9">
       <r>    2.4419    1.0000 </r>
       <r>    5.3075    1.0000 </r>
       <r>    6.2863    1.0000 </r>
       <r>    6.3615    1.0000 </r>
       <r>    6.9805    1.0000 </r>
       <r>    7.0824    1.0000 </r>
       <r>    7.4776    1.0000 </r>
       <r>    7.4782    1.0000 </r>
       <r>    7.6345    1.0000 </r>
       <r>    7.8919    1.0000 </r>
       <r>    8.6466    1.0000 </r>
       <r>   13.0057    0.0000 </r>
       <r>   15.7792    0.0000 </r>
       <r>   23.3074    0.0000 </r>
       <r>   25.4515    0.0000 </r>
       <r>   30.5590    0.0000 </r>
       <r>   31.4253    0.0000 </r>
       <r>   32.5526    0.0000 </r>
       <r>   33.8996    0.0000 </r>
       <r>   35.0072    0.0000 </r>
       <r>   37.1524    0.0000 </r>
       <r>   38.6093    0.0000 </r>
       <r>   40.3091    0.0000 </r>
       <r>   40.7563    0.0000 </r>
      </set>
      <set comment="kpoint 10">
       <r>    3.5525    1.0000 </r>
       <r>    5.4206    1.0000 </r>
       <r>    5.8297    1.0000 </r>
       <r>    6.2298    1.0000 </r>
       <r>    6.9132    1.0000 </r>
       <r>    6.9947    1.0000 </r>
       <r>    7.3011    1.0000 </r>
       <r>    7.8425    1.0000 </r>
       <r>    8.0883    1.0000 </r>
       <r>    8.4092    1.0000 </r>
       <r>    8.6823    1.0000 </r>
       <r>   14.7662    0.0000 </r>
       <r>   16.1781    0.0000 </r>
       <r>   19.9207    0.0000 </r>
       <r>   23.9741    0.0000 </r>
       <r>   27.4346    0.0000 </r>
       <r>   28.6853    0.0000 </r>
       <r>   31.3297    0.0000 </r>
       <r>   33.0866    0.0000 </r>
       <r>   33.5190    0.0000 </r>
       <r>   37.8139    0.0000 </r>
       <r>   40.1442    0.0000 </r>
       <r>   40.3822    0.0000 </r>
       <r>   41.4139    0.0000 </r>
      </set>
      <set comment="kpoint 11">
       <r>    4.5358    1.0000 </r>
       <r>    5.2624    1.0000 </r>
       <r>    5.4694    1.0000 </r>
       <r>    6.4552    1.0000 </r>
       <r>    6.8027    1.0000 </r>
       <r>    7.1282    1.0000 </r>
       <r>    7.1716    1.0000 </r>
       <r>    8.2968    1.0000 </r>
       <r>    8.4745    1.0000 </r>
       <r>    8.7046    1.0000 </r>
       <r>    9.1629    1.0000 </r>
       <r>   15.5391    0.0000 </r>
       <r>   16.6924    0.0000 </r>
       <r>   18.3234    0.0000 </r>
       <r>   22.8392    0.0000 </r>
       <r>   24.6015    0.0000 </r>
       <r>   25.7355    0.0000 </r>
       <r>   30.4543    0.0000 </r>
       <r>   32.4598    0.0000 </r>
       <r>   32.5072    0.0000 </r>
       <r>   37.8160    0.0000 </r>
       <r>   40.4861    0.0000 </r>
       <r>   41.9714    0.0000 </r>
       <r>   43.1107    0.0000 </r>
      </set>
      <set comment="kpoint 12">
       <r>    4.9754    1.0000 </r>
       <r>    5.1118    1.0000 </r>
       <r>    5.2892    1.0000 </r>
       <r>    6.7577    1.0000 </r>
       <r>    6.8059    1.0000 </r>
       <r>    7.0144    1.0000 </r>
       <r>    7.3133    1.0000 </r>
       <r>    8.6178    1.0000 </r>
       <r>    8.6826    1.0000 </r>
       <r>    8.7146    1.0000 </r>
       <r>   10.4206    0.0000 </r>
       <r>   13.2473    0.0000 </r>
       <r>   18.5483    0.0000 </r>
       <r>   19.2144    0.0000 </r>
       <r>   22.0893    0.0000 </r>
       <r>   22.2974    0.0000 </r>
       <r>   23.5102    0.0000 </r>
       <r>   30.0013    0.0000 </r>
       <r>   31.8962    0.0000 </r>
       <r>   32.2212    0.0000 </r>
       <r>   37.6835    0.0000 </r>
       <r>   40.6798    0.0000 </r>
       <r>   43.5784    0.0000 </r>
       <r>   44.3643    0.0000 </r>
      </set>
      <set comment="kpoint 13">
       <r>    3.4094    1.0000 </r>
       <r>    5.5834    1.0000 </r>
       <r>    5.9349    1.0000 </r>
       <r>    6.0220    1.0000 </r>
       <r>    6.8510    1.0000 </r>
       <r>    6.9915    1.0000 </r>
       <r>    7.3841    1.0000 </r>
       <r>    7.6297    1.0000 </r>
       <r>    8.0786    1.0000 </r>
       <r>    8.4285    1.0000 </r>
       <r>    8.6482    1.0000 </r>
       <r>   14.5153    0.0000 </r>
       <r>   16.1986    0.0000 </r>
       <r>   21.6579    0.0000 </r>
       <r>   22.0077    0.0000 </r>
       <r>   29.0284    0.0000 </r>
       <r>   29.6394    0.0000 </r>
       <r>   30.6398    0.0000 </r>
       <r>   31.3449    0.0000 </r>
       <r>   35.9285    0.0000 </r>
       <r>   38.2060    0.0000 </r>
       <r>   38.3096    0.0000 </r>
       <r>   41.8788    0.0000 </r>
       <r>   43.1051    0.0000 </r>
      </set>
      <set comment="kpoint 14">
       <r>    4.4716    1.0000 </r>
       <r>    5.5722    1.0000 </r>
       <r>    5.5985    1.0000 </r>
       <r>    6.0038    1.0000 </r>
       <r>    6.7115    1.0000 </r>
       <r>    7.1249    1.0000 </r>
       <r>    7.2114    1.0000 </r>
       <r>    7.9083    1.0000 </r>
       <r>    8.4768    1.0000 </r>
       <r>    8.6462    1.0000 </r>
       <r>    9.1774    1.0000 </r>
       <r>   16.3033    0.0000 </r>
       <r>   16.6298    0.0000 </r>
       <r>   18.8406    0.0000 </r>
       <r>   20.6827    0.0000 </r>
       <r>   26.3387    0.0000 </r>
       <r>   27.6444    0.0000 </r>
       <r>   28.3678    0.0000 </r>
       <r>   30.0644    0.0000 </r>
       <r>   36.0642    0.0000 </r>
       <r>   39.5441    0.0000 </r>
       <r>   40.6803    0.0000 </r>
       <r>   42.4975    0.0000 </r>
       <r>   43.0431    0.0000 </r>
      </set>
      <set comment="kpoint 15">
       <r>    5.1396    1.0000 </r>
       <r>    5.3900    1.0000 </r>
       <r>    5.3907    1.0000 </r>
       <r>    6.3010    1.0000 </r>
       <r>    6.6729    1.0000 </r>
       <r>    7.0251    1.0000 </r>
       <r>    7.3090    1.0000 </r>
       <r>    8.2760    1.0000 </r>
       <r>    8.6438    1.0000 </r>
       <r>    8.6737    1.0000 </r>
       <r>   10.3163    0.0000 </r>
       <r>   14.8785    0.0000 </r>
       <r>   18.2536    0.0000 </r>
       <r>   18.8239    0.0000 </r>
       <r>   19.9512    0.0000 </r>
       <r>   23.6982    0.0000 </r>
       <r>   24.8119    0.0000 </r>
       <r>   27.7532    0.0000 </r>
       <r>   29.3336    0.0000 </r>
       <r>   35.7234    0.0000 </r>
       <r>   40.3113    0.0000 </r>
       <r>   42.8460    0.0000 </r>
       <r>   43.9901    0.0000 </r>
       <r>   44.0694    0.0000 </r>
      </set>
      <set comment="kpoint 16">
       <r>    5.2998    1.0000 </r>
       <r>    5.3036    1.0000 </r>
       <r>    5.3210    1.0000 </r>
       <r>    6.5100    1.0000 </r>
       <r>    6.6874    1.0000 </r>
       <r>    6.9287    1.0000 </r>
       <r>    7.3871    1.0000 </r>
       <r>    8.5235    1.0000 </r>
       <r>    8.6426    1.0000 </r>
       <r>    8.6541    1.0000 </r>
       <r>   11.5910    0.0000 </r>
       <r>   13.0268    0.0000 </r>
       <r>   19.3518    0.0000 </r>
       <r>   19.6437    0.0000 </r>
       <r>   20.0025    0.0000 </r>
       <r>   22.0775    0.0000 </r>
       <r>   23.3280    0.0000 </r>
       <r>   27.5496    0.0000 </r>
       <r>   29.0766    0.0000 </r>
       <r>   35.5910    0.0000 </r>
       <r>   40.4442    0.0000 </r>
       <r>   43.6438    0.0000 </r>
       <r>   43.7608    0.0000 </r>
       <r>   45.9032    0.0000 </r>
      </set>
      <set comment="kpoint 17">
       <r>    5.2604    1.0000 </r>
       <r>    5.4489    1.0000 </r>
       <r>    5.7522    1.0000 </r>
       <r>    5.8122    1.0000 </r>
       <r>    6.6161    1.0000 </r>
       <r>    7.0386    1.0000 </r>
       <r>    7.3147    1.0000 </r>
       <r>    8.0703    1.0000 </r>
       <r>    8.6072    1.0000 </r>
       <r>    8.6794    1.0000 </r>
       <r>   10.3127    0.0000 </r>
       <r>   16.6284    0.0000 </r>
       <r>   17.3216    0.0000 </r>
       <r>   18.1367    0.0000 </r>
       <r>   19.3374    0.0000 </r>
       <r>   25.4241    0.0000 </r>
       <r>   25.7306    0.0000 </r>
       <r>   26.4371    0.0000 </r>
       <r>   27.2721    0.0000 </r>
       <r>   39.0666    0.0000 </r>
       <r>   40.7194    0.0000 </r>
       <r>   41.4849    0.0000 </r>
       <r>   43.7326    0.0000 </r>
       <r>   45.6380    0.0000 </r>
      </set>
      <set comment="kpoint 18">
       <r>    5.3782    1.0000 </r>
       <r>    5.5338    1.0000 </r>
       <r>    5.6321    1.0000 </r>
       <r>    6.1026    1.0000 </r>
       <r>    6.6341    1.0000 </r>
       <r>    6.8595    1.0000 </r>
       <r>    7.4669    1.0000 </r>
       <r>    8.3182    1.0000 </r>
       <r>    8.5843    1.0000 </r>
       <r>    8.6299    1.0000 </r>
       <r>   11.9406    0.0000 </r>
       <r>   14.4112    0.0000 </r>
       <r>   16.6970    0.0000 </r>
       <r>   20.1015    0.0000 </r>
       <r>   20.4331    0.0000 </r>
       <r>   23.0675    0.0000 </r>
       <r>   24.2821    0.0000 </r>
       <r>   25.2677    0.0000 </r>
       <r>   26.5084    0.0000 </r>
       <r>   39.4454    0.0000 </r>
       <r>   43.0519    0.0000 </r>
       <r>   43.2457    0.0000 </r>
       <r>   45.0971    0.0000 </r>
       <r>   46.0646    0.0000 </r>
      </set>
      <set comment="kpoint 19">
       <r>    5.3833    1.0000 </r>
       <r>    5.7162    1.0000 </r>
       <r>    5.7162    1.0000 </r>
       <r>    5.9977    1.0000 </r>
       <r>    6.7052    1.0000 </r>
       <r>    6.7052    1.0000 </r>
       <r>    7.5559    1.0000 </r>
       <r>    8.4494    1.0000 </r>
       <r>    8.4494    1.0000 </r>
       <r>    8.5605    1.0000 </r>
       <r>   13.6854    0.0000 </r>
       <r>   14.3877    0.0000 </r>
       <r>   14.3877    0.0000 </r>
       <r>   21.3147    0.0000 </r>
       <r>   22.0162    0.0000 </r>
       <r>   22.0162    0.0000 </r>
       <r>   23.9821    0.0000 </r>
       <r>   24.5964    0.0000 </r>
       <r>   24.5964    0.0000 </r>
       <r>   42.0869    0.0000 </r>
       <r>   43.9772    0.0000 </r>
       <r>   43.9772    0.0000 </r>
       <r>   45.6790    0.0000 </r>
       <r>   46.1427    0.0000 </r>
      </set>
      <set comment="kpoint 20">
       <r>    1.0496    1.0000 </r>
       <r>    4.5573    1.0000 </r>
       <r>    6.8893    1.0000 </r>
       <r>    6.8965    1.0000 </r>
       <r>    6.8965    1.0000 </r>
       <r>    7.1813    1.0000 </r>
       <r>    7.1813    1.0000 </r>
       <r>    7.6192    1.0000 </r>
       <r>    7.6192    1.0000 </r>
       <r>    8.5355    1.0000 </r>
       <r>    8.5355    1.0000 </r>
       <r>    8.8447    1.0000 </r>
       <r>   16.3017    0.0000 </r>
       <r>   30.9083    0.0000 </r>
       <r>   33.0048    0.0000 </r>
       <r>   33.0854    0.0000 </r>
       <r>   33.0854    0.0000 </r>
       <r>   33.5978    0.0000 </r>
       <r>   34.4120    0.0000 </r>
       <r>   34.4120    0.0000 </r>
       <r>   38.6810    0.0000 </r>
       <r>   38.6810    0.0000 </r>
       <r>   40.1191    0.0000 </r>
       <r>   40.7480    0.0000 </r>
      </set>
      <set comment="kpoint 21">
       <r>    1.2800    1.0000 </r>
       <r>    4.7010    1.0000 </r>
       <r>    6.7219    1.0000 </r>
       <r>    6.9883    1.0000 </r>
       <r>    7.0033    1.0000 </r>
       <r>    7.0873    1.0000 </r>
       <r>    7.2680    1.0000 </r>
       <r>    7.5234    1.0000 </r>
       <r>    7.5733    1.0000 </r>
       <r>    7.8071    1.0000 </r>
       <r>    8.5588    1.0000 </r>
       <r>    9.8575    0.0000 </r>
       <r>   16.3980    0.0000 </r>
       <r>   28.9750    0.0000 </r>
       <r>   31.0907    0.0000 </r>
       <r>   31.1830    0.0000 </r>
       <r>   33.0376    0.0000 </r>
       <r>   34.0152    0.0000 </r>
       <r>   35.7987    0.0000 </r>
       <r>   36.5469    0.0000 </r>
       <r>   37.8130    0.0000 </r>
       <r>   38.0461    0.0000 </r>
       <r>   38.5146    0.0000 </r>
       <r>   40.2887    0.0000 </r>
      </set>
      <set comment="kpoint 22">
       <r>    1.9459    1.0000 </r>
       <r>    5.0601    1.0000 </r>
       <r>    6.4933    1.0000 </r>
       <r>    6.6290    1.0000 </r>
       <r>    6.9756    1.0000 </r>
       <r>    7.1817    1.0000 </r>
       <r>    7.3126    1.0000 </r>
       <r>    7.4657    1.0000 </r>
       <r>    7.5749    1.0000 </r>
       <r>    7.6537    1.0000 </r>
       <r>    8.6082    1.0000 </r>
       <r>   11.1371    0.0000 </r>
       <r>   16.7180    0.0000 </r>
       <r>   25.2071    0.0000 </r>
       <r>   28.8238    0.0000 </r>
       <r>   30.0350    0.0000 </r>
       <r>   31.6679    0.0000 </r>
       <r>   33.2959    0.0000 </r>
       <r>   35.2913    0.0000 </r>
       <r>   36.1855    0.0000 </r>
       <r>   36.9801    0.0000 </r>
       <r>   37.9315    0.0000 </r>
       <r>   39.3061    0.0000 </r>
       <r>   41.0372    0.0000 </r>
      </set>
      <set comment="kpoint 23">
       <r>    2.9484    1.0000 </r>
       <r>    5.3566    1.0000 </r>
       <r>    6.0369    1.0000 </r>
       <r>    6.3610    1.0000 </r>
       <r>    6.8582    1.0000 </r>
       <r>    7.1341    1.0000 </r>
       <r>    7.3443    1.0000 </r>
       <r>    7.7833    1.0000 </r>
       <r>    7.8311    1.0000 </r>
       <r>    7.9029    1.0000 </r>
       <r>    8.6552    1.0000 </r>
       <r>   12.4863    0.0000 </r>
       <r>   17.3194    0.0000 </r>
       <r>   21.5851    0.0000 </r>
       <r>   26.8634    0.0000 </r>
       <r>   27.5337    0.0000 </r>
       <r>   29.9589    0.0000 </r>
       <r>   32.7642    0.0000 </r>
       <r>   33.1309    0.0000 </r>
       <r>   34.7485    0.0000 </r>
       <r>   36.5276    0.0000 </r>
       <r>   38.7511    0.0000 </r>
       <r>   38.8582    0.0000 </r>
       <r>   43.3478    0.0000 </r>
      </set>
      <set comment="kpoint 24">
       <r>    4.0140    1.0000 </r>
       <r>    5.2937    1.0000 </r>
       <r>    5.6493    1.0000 </r>
       <r>    6.3493    1.0000 </r>
       <r>    6.9908    1.0000 </r>
       <r>    7.0028    1.0000 </r>
       <r>    7.3901    1.0000 </r>
       <r>    8.2146    1.0000 </r>
       <r>    8.2796    1.0000 </r>
       <r>    8.3640    1.0000 </r>
       <r>    8.6917    1.0000 </r>
       <r>   13.7914    0.0000 </r>
       <r>   17.6484    0.0000 </r>
       <r>   19.0446    0.0000 </r>
       <r>   24.5823    0.0000 </r>
       <r>   25.3164    0.0000 </r>
       <r>   28.0771    0.0000 </r>
       <r>   31.2234    0.0000 </r>
       <r>   32.0715    0.0000 </r>
       <r>   33.4659    0.0000 </r>
       <r>   37.4470    0.0000 </r>
       <r>   38.0194    0.0000 </r>
       <r>   39.7515    0.0000 </r>
       <r>   44.8457    0.0000 </r>
      </set>
      <set comment="kpoint 25">
       <r>    4.6366    1.0000 </r>
       <r>    5.0937    1.0000 </r>
       <r>    5.5271    1.0000 </r>
       <r>    6.3617    1.0000 </r>
       <r>    6.8839    1.0000 </r>
       <r>    7.2433    1.0000 </r>
       <r>    7.6070    1.0000 </r>
       <r>    8.5239    1.0000 </r>
       <r>    8.5891    1.0000 </r>
       <r>    8.7350    1.0000 </r>
       <r>    9.3844    0.9651 </r>
       <r>   13.8221    0.0000 </r>
       <r>   16.7791    0.0000 </r>
       <r>   19.4885    0.0000 </r>
       <r>   22.4478    0.0000 </r>
       <r>   24.3053    0.0000 </r>
       <r>   25.5588    0.0000 </r>
       <r>   30.6687    0.0000 </r>
       <r>   31.4176    0.0000 </r>
       <r>   32.5754    0.0000 </r>
       <r>   37.5485    0.0000 </r>
       <r>   38.6260    0.0000 </r>
       <r>   40.4555    0.0000 </r>
       <r>   44.5767    0.0000 </r>
      </set>
      <set comment="kpoint 26">
       <r>    4.7712    1.0000 </r>
       <r>    4.9944    1.0000 </r>
       <r>    5.5223    1.0000 </r>
       <r>    6.3819    1.0000 </r>
       <r>    6.8453    1.0000 </r>
       <r>    7.3181    1.0000 </r>
       <r>    7.7688    1.0000 </r>
       <r>    8.6060    1.0000 </r>
       <r>    8.7084    1.0000 </r>
       <r>    8.7856    1.0000 </r>
       <r>   10.5197    0.0000 </r>
       <r>   12.4124    0.0000 </r>
       <r>   18.1345    0.0000 </r>
       <r>   18.4612    0.0000 </r>
       <r>   22.8592    0.0000 </r>
       <r>   23.6492    0.0000 </r>
       <r>   23.9505    0.0000 </r>
       <r>   30.5394    0.0000 </r>
       <r>   31.1866    0.0000 </r>
       <r>   32.2566    0.0000 </r>
       <r>   37.3993    0.0000 </r>
       <r>   39.2280    0.0000 </r>
       <r>   40.7670    0.0000 </r>
       <r>   43.8507    0.0000 </r>
      </set>
      <set comment="kpoint 27">
       <r>    1.7291    1.0000 </r>
       <r>    4.9581    1.0000 </r>
       <r>    6.5421    1.0000 </r>
       <r>    6.7943    1.0000 </r>
       <r>    7.0407    1.0000 </r>
       <r>    7.1342    1.0000 </r>
       <r>    7.2619    1.0000 </r>
       <r>    7.4006    1.0000 </r>
       <r>    7.5787    1.0000 </r>
       <r>    7.6717    1.0000 </r>
       <r>    8.5884    1.0000 </r>
       <r>   10.7870    0.0000 </r>
       <r>   16.6078    0.0000 </r>
       <r>   26.9516    0.0000 </r>
       <r>   27.5507    0.0000 </r>
       <r>   32.2439    0.0000 </r>
       <r>   32.3865    0.0000 </r>
       <r>   33.3780    0.0000 </r>
       <r>   34.8957    0.0000 </r>
       <r>   35.1922    0.0000 </r>
       <r>   38.1109    0.0000 </r>
       <r>   38.4506    0.0000 </r>
       <r>   40.0975    0.0000 </r>
       <r>   40.2853    0.0000 </r>
      </set>
      <set comment="kpoint 28">
       <r>    2.5722    1.0000 </r>
       <r>    5.3317    1.0000 </r>
       <r>    6.2400    1.0000 </r>
       <r>    6.3161    1.0000 </r>
       <r>    6.9188    1.0000 </r>
       <r>    7.1002    1.0000 </r>
       <r>    7.3470    1.0000 </r>
       <r>    7.5528    1.0000 </r>
       <r>    7.7590    1.0000 </r>
       <r>    7.8761    1.0000 </r>
       <r>    8.6273    1.0000 </r>
       <r>   12.0162    0.0000 </r>
       <r>   17.0868    0.0000 </r>
       <r>   23.4445    0.0000 </r>
       <r>   25.5990    0.0000 </r>
       <r>   29.3878    0.0000 </r>
       <r>   31.4910    0.0000 </r>
       <r>   32.3454    0.0000 </r>
       <r>   34.4576    0.0000 </r>
       <r>   35.1929    0.0000 </r>
       <r>   36.0913    0.0000 </r>
       <r>   37.9730    0.0000 </r>
       <r>   40.6003    0.0000 </r>
       <r>   41.7627    0.0000 </r>
      </set>
      <set comment="kpoint 29">
       <r>    3.6455    1.0000 </r>
       <r>    5.4615    1.0000 </r>
       <r>    5.7781    1.0000 </r>
       <r>    6.2529    1.0000 </r>
       <r>    6.8336    1.0000 </r>
       <r>    7.0797    1.0000 </r>
       <r>    7.2927    1.0000 </r>
       <r>    7.8510    1.0000 </r>
       <r>    8.1376    1.0000 </r>
       <r>    8.3344    1.0000 </r>
       <r>    8.6879    1.0000 </r>
       <r>   13.3445    0.0000 </r>
       <r>   17.8251    0.0000 </r>
       <r>   20.0817    0.0000 </r>
       <r>   24.1311    0.0000 </r>
       <r>   26.2423    0.0000 </r>
       <r>   29.9356    0.0000 </r>
       <r>   30.4214    0.0000 </r>
       <r>   33.2556    0.0000 </r>
       <r>   34.3788    0.0000 </r>
       <r>   36.2006    0.0000 </r>
       <r>   38.7835    0.0000 </r>
       <r>   41.4038    0.0000 </r>
       <r>   42.7160    0.0000 </r>
      </set>
      <set comment="kpoint 30">
       <r>    4.5337    1.0000 </r>
       <r>    5.2820    1.0000 </r>
       <r>    5.5569    1.0000 </r>
       <r>    6.2848    1.0000 </r>
       <r>    6.8630    1.0000 </r>
       <r>    7.1650    1.0000 </r>
       <r>    7.3435    1.0000 </r>
       <r>    8.2708    1.0000 </r>
       <r>    8.5067    1.0000 </r>
       <r>    8.6059    1.0000 </r>
       <r>    9.1652    1.0000 </r>
       <r>   14.3896    0.0000 </r>
       <r>   17.0098    0.0000 </r>
       <r>   19.3699    0.0000 </r>
       <r>   22.9001    0.0000 </r>
       <r>   23.6087    0.0000 </r>
       <r>   27.1457    0.0000 </r>
       <r>   29.5624    0.0000 </r>
       <r>   32.5755    0.0000 </r>
       <r>   33.2679    0.0000 </r>
       <r>   36.9150    0.0000 </r>
       <r>   39.4492    0.0000 </r>
       <r>   41.8078    0.0000 </r>
       <r>   44.9711    0.0000 </r>
      </set>
      <set comment="kpoint 31">
       <r>    4.8365    1.0000 </r>
       <r>    5.1154    1.0000 </r>
       <r>    5.5560    1.0000 </r>
       <r>    6.3350    1.0000 </r>
       <r>    6.7920    1.0000 </r>
       <r>    7.3351    1.0000 </r>
       <r>    7.5199    1.0000 </r>
       <r>    8.5675    1.0000 </r>
       <r>    8.6633    1.0000 </r>
       <r>    8.6987    1.0000 </r>
       <r>   10.3959    0.0000 </r>
       <r>   13.1349    0.0000 </r>
       <r>   17.5463    0.0000 </r>
       <r>   19.3242    0.0000 </r>
       <r>   22.1983    0.0000 </r>
       <r>   22.7753    0.0000 </r>
       <r>   24.6515    0.0000 </r>
       <r>   29.1109    0.0000 </r>
       <r>   32.2900    0.0000 </r>
       <r>   32.6597    0.0000 </r>
       <r>   37.1912    0.0000 </r>
       <r>   40.4978    0.0000 </r>
       <r>   41.6314    0.0000 </r>
       <r>   44.3446    0.0000 </r>
      </set>
      <set comment="kpoint 32">
       <r>    3.5139    1.0000 </r>
       <r>    5.6337    1.0000 </r>
       <r>    5.8638    1.0000 </r>
       <r>    6.0484    1.0000 </r>
       <r>    6.8422    1.0000 </r>
       <r>    6.9982    1.0000 </r>
       <r>    7.3100    1.0000 </r>
       <r>    7.6689    1.0000 </r>
       <r>    8.1460    1.0000 </r>
       <r>    8.3327    1.0000 </r>
       <r>    8.6855    1.0000 </r>
       <r>   13.1884    0.0000 </r>
       <r>   17.7873    0.0000 </r>
       <r>   21.7986    0.0000 </r>
       <r>   22.1689    0.0000 </r>
       <r>   27.9038    0.0000 </r>
       <r>   28.5055    0.0000 </r>
       <r>   31.9758    0.0000 </r>
       <r>   32.4756    0.0000 </r>
       <r>   35.7066    0.0000 </r>
       <r>   36.6373    0.0000 </r>
       <r>   38.2962    0.0000 </r>
       <r>   42.3000    0.0000 </r>
       <r>   42.3591    0.0000 </r>
      </set>
      <set comment="kpoint 33">
       <r>    4.5177    1.0000 </r>
       <r>    5.5541    1.0000 </r>
       <r>    5.6364    1.0000 </r>
       <r>    6.0430    1.0000 </r>
       <r>    6.7517    1.0000 </r>
       <r>    7.1352    1.0000 </r>
       <r>    7.1612    1.0000 </r>
       <r>    7.9219    1.0000 </r>
       <r>    8.5252    1.0000 </r>
       <r>    8.5258    1.0000 </r>
       <r>    9.2303    1.0000 </r>
       <r>   14.5023    0.0000 </r>
       <r>   18.2643    0.0000 </r>
       <r>   19.3336    0.0000 </r>
       <r>   20.8518    0.0000 </r>
       <r>   25.1270    0.0000 </r>
       <r>   27.2236    0.0000 </r>
       <r>   29.0821    0.0000 </r>
       <r>   31.3632    0.0000 </r>
       <r>   36.0676    0.0000 </r>
       <r>   37.6616    0.0000 </r>
       <r>   40.3836    0.0000 </r>
       <r>   42.1671    0.0000 </r>
       <r>   44.2658    0.0000 </r>
      </set>
      <set comment="kpoint 34">
       <r>    5.0385    1.0000 </r>
       <r>    5.4271    1.0000 </r>
       <r>    5.5592    1.0000 </r>
       <r>    6.1641    1.0000 </r>
       <r>    6.7261    1.0000 </r>
       <r>    7.1051    1.0000 </r>
       <r>    7.3411    1.0000 </r>
       <r>    8.2693    1.0000 </r>
       <r>    8.5359    1.0000 </r>
       <r>    8.7085    1.0000 </r>
       <r>   10.3655    0.0000 </r>
       <r>   14.6310    0.0000 </r>
       <r>   17.1975    0.0000 </r>
       <r>   19.8870    0.0000 </r>
       <r>   20.2419    0.0000 </r>
       <r>   22.9199    0.0000 </r>
       <r>   26.1825    0.0000 </r>
       <r>   26.6692    0.0000 </r>
       <r>   30.6945    0.0000 </r>
       <r>   35.7792    0.0000 </r>
       <r>   38.8029    0.0000 </r>
       <r>   41.1388    0.0000 </r>
       <r>   44.5236    0.0000 </r>
       <r>   44.8312    0.0000 </r>
      </set>
      <set comment="kpoint 35">
       <r>    5.0804    1.0000 </r>
       <r>    5.3454    1.0000 </r>
       <r>    5.6450    1.0000 </r>
       <r>    6.2357    1.0000 </r>
       <r>    6.6675    1.0000 </r>
       <r>    7.1729    1.0000 </r>
       <r>    7.4229    1.0000 </r>
       <r>    8.5211    1.0000 </r>
       <r>    8.5214    1.0000 </r>
       <r>    8.6874    1.0000 </r>
       <r>   11.6557    0.0000 </r>
       <r>   13.0141    0.0000 </r>
       <r>   18.6798    0.0000 </r>
       <r>   19.0246    0.0000 </r>
       <r>   19.8063    0.0000 </r>
       <r>   23.2810    0.0000 </r>
       <r>   24.3195    0.0000 </r>
       <r>   26.4004    0.0000 </r>
       <r>   30.4591    0.0000 </r>
       <r>   35.6526    0.0000 </r>
       <r>   39.3510    0.0000 </r>
       <r>   41.1881    0.0000 </r>
       <r>   44.1444    0.0000 </r>
       <r>   45.2689    0.0000 </r>
      </set>
      <set comment="kpoint 36">
       <r>    5.2661    1.0000 </r>
       <r>    5.4179    1.0000 </r>
       <r>    5.8094    1.0000 </r>
       <r>    5.8541    1.0000 </r>
       <r>    6.7094    1.0000 </r>
       <r>    6.9607    1.0000 </r>
       <r>    7.3093    1.0000 </r>
       <r>    8.0876    1.0000 </r>
       <r>    8.4938    1.0000 </r>
       <r>    8.7156    1.0000 </r>
       <r>   10.3840    0.0000 </r>
       <r>   15.6839    0.0000 </r>
       <r>   17.4780    0.0000 </r>
       <r>   18.1271    0.0000 </r>
       <r>   20.4951    0.0000 </r>
       <r>   24.2684    0.0000 </r>
       <r>   24.4653    0.0000 </r>
       <r>   28.1076    0.0000 </r>
       <r>   28.6061    0.0000 </r>
       <r>   38.5662    0.0000 </r>
       <r>   39.9040    0.0000 </r>
       <r>   40.7259    0.0000 </r>
       <r>   43.6158    0.0000 </r>
       <r>   44.3271    0.0000 </r>
      </set>
      <set comment="kpoint 37">
       <r>    5.3345    1.0000 </r>
       <r>    5.6142    1.0000 </r>
       <r>    5.7037    1.0000 </r>
       <r>    6.0338    1.0000 </r>
       <r>    6.6639    1.0000 </r>
       <r>    6.8579    1.0000 </r>
       <r>    7.4685    1.0000 </r>
       <r>    8.3298    1.0000 </r>
       <r>    8.4651    1.0000 </r>
       <r>    8.6554    1.0000 </r>
       <r>   12.0472    0.0000 </r>
       <r>   14.4434    0.0000 </r>
       <r>   16.7431    0.0000 </r>
       <r>   18.8870    0.0000 </r>
       <r>   20.7063    0.0000 </r>
       <r>   22.8976    0.0000 </r>
       <r>   24.2970    0.0000 </r>
       <r>   25.7802    0.0000 </r>
       <r>   27.9835    0.0000 </r>
       <r>   39.3274    0.0000 </r>
       <r>   41.0173    0.0000 </r>
       <r>   42.4278    0.0000 </r>
       <r>   43.9254    0.0000 </r>
       <r>   45.3612    0.0000 </r>
      </set>
      <set comment="kpoint 38">
       <r>    5.4337    1.0000 </r>
       <r>    5.7280    1.0000 </r>
       <r>    5.7280    1.0000 </r>
       <r>    6.0090    1.0000 </r>
       <r>    6.6924    1.0000 </r>
       <r>    6.6924    1.0000 </r>
       <r>    7.5404    1.0000 </r>
       <r>    8.4350    1.0000 </r>
       <r>    8.4710    1.0000 </r>
       <r>    8.4710    1.0000 </r>
       <r>   13.9036    0.0000 </r>
       <r>   14.4388    0.0000 </r>
       <r>   14.4388    0.0000 </r>
       <r>   20.4116    0.0000 </r>
       <r>   21.0695    0.0000 </r>
       <r>   21.0695    0.0000 </r>
       <r>   25.1064    0.0000 </r>
       <r>   25.8274    0.0000 </r>
       <r>   25.8274    0.0000 </r>
       <r>   41.1975    0.0000 </r>
       <r>   42.9052    0.0000 </r>
       <r>   42.9052    0.0000 </r>
       <r>   44.3189    0.0000 </r>
       <r>   44.6899    0.0000 </r>
      </set>
      <set comment="kpoint 39">
       <r>    1.4945    1.0000 </r>
       <r>    4.3887    1.0000 </r>
       <r>    6.7925    1.0000 </r>
       <r>    6.8386    1.0000 </r>
       <r>    6.8386    1.0000 </r>
       <r>    7.0820    1.0000 </r>
       <r>    7.0820    1.0000 </r>
       <r>    7.7179    1.0000 </r>
       <r>    7.8219    1.0000 </r>
       <r>    7.8219    1.0000 </r>
       <r>    8.4989    1.0000 </r>
       <r>    8.4989    1.0000 </r>
       <r>   18.4132    0.0000 </r>
       <r>   29.9108    0.0000 </r>
       <r>   31.2450    0.0000 </r>
       <r>   32.9280    0.0000 </r>
       <r>   33.4956    0.0000 </r>
       <r>   33.4956    0.0000 </r>
       <r>   34.5589    0.0000 </r>
       <r>   34.5589    0.0000 </r>
       <r>   37.8611    0.0000 </r>
       <r>   37.8611    0.0000 </r>
       <r>   39.1383    0.0000 </r>
       <r>   39.1383    0.0000 </r>
      </set>
      <set comment="kpoint 40">
       <r>    1.7184    1.0000 </r>
       <r>    4.5540    1.0000 </r>
       <r>    6.7298    1.0000 </r>
       <r>    6.8161    1.0000 </r>
       <r>    6.8628    1.0000 </r>
       <r>    6.9214    1.0000 </r>
       <r>    7.1675    1.0000 </r>
       <r>    7.4166    1.0000 </r>
       <r>    7.7924    1.0000 </r>
       <r>    7.8329    1.0000 </r>
       <r>    8.5125    1.0000 </r>
       <r>    9.0641    1.0000 </r>
       <r>   18.5542    0.0000 </r>
       <r>   29.2309    0.0000 </r>
       <r>   30.1589    0.0000 </r>
       <r>   31.3577    0.0000 </r>
       <r>   31.5346    0.0000 </r>
       <r>   33.0493    0.0000 </r>
       <r>   34.8966    0.0000 </r>
       <r>   35.7503    0.0000 </r>
       <r>   37.4472    0.0000 </r>
       <r>   38.5194    0.0000 </r>
       <r>   38.7753    0.0000 </r>
       <r>   40.7394    0.0000 </r>
      </set>
      <set comment="kpoint 41">
       <r>    2.3591    1.0000 </r>
       <r>    4.9790    1.0000 </r>
       <r>    6.3297    1.0000 </r>
       <r>    6.5465    1.0000 </r>
       <r>    6.7845    1.0000 </r>
       <r>    7.1112    1.0000 </r>
       <r>    7.2268    1.0000 </r>
       <r>    7.4034    1.0000 </r>
       <r>    7.7697    1.0000 </r>
       <r>    7.8890    1.0000 </r>
       <r>    8.5407    1.0000 </r>
       <r>    9.9746    0.0000 </r>
       <r>   18.9889    0.0000 </r>
       <r>   25.5884    0.0000 </r>
       <r>   29.0934    0.0000 </r>
       <r>   29.3404    0.0000 </r>
       <r>   30.8305    0.0000 </r>
       <r>   31.4005    0.0000 </r>
       <r>   34.0511    0.0000 </r>
       <r>   34.3713    0.0000 </r>
       <r>   38.2906    0.0000 </r>
       <r>   39.5110    0.0000 </r>
       <r>   39.7312    0.0000 </r>
       <r>   42.0288    0.0000 </r>
      </set>
      <set comment="kpoint 42">
       <r>    3.2918    1.0000 </r>
       <r>    5.3526    1.0000 </r>
       <r>    5.8749    1.0000 </r>
       <r>    6.4220    1.0000 </r>
       <r>    6.7162    1.0000 </r>
       <r>    7.1943    1.0000 </r>
       <r>    7.2862    1.0000 </r>
       <r>    7.7508    1.0000 </r>
       <r>    7.9374    1.0000 </r>
       <r>    8.0254    1.0000 </r>
       <r>    8.5707    1.0000 </r>
       <r>   10.9723    0.0000 </r>
       <r>   19.6911    0.0000 </r>
       <r>   22.0052    0.0000 </r>
       <r>   26.0792    0.0000 </r>
       <r>   27.4417    0.0000 </r>
       <r>   30.4216    0.0000 </r>
       <r>   31.2238    0.0000 </r>
       <r>   32.8441    0.0000 </r>
       <r>   33.1607    0.0000 </r>
       <r>   35.8942    0.0000 </r>
       <r>   40.2662    0.0000 </r>
       <r>   40.7326    0.0000 </r>
       <r>   44.2536    0.0000 </r>
      </set>
      <set comment="kpoint 43">
       <r>    4.1794    1.0000 </r>
       <r>    5.2779    1.0000 </r>
       <r>    5.6865    1.0000 </r>
       <r>    6.2646    1.0000 </r>
       <r>    7.0003    1.0000 </r>
       <r>    7.1294    1.0000 </r>
       <r>    7.7221    1.0000 </r>
       <r>    8.1207    1.0000 </r>
       <r>    8.2669    1.0000 </r>
       <r>    8.3084    1.0000 </r>
       <r>    8.6173    1.0000 </r>
       <r>   12.0409    0.0000 </r>
       <r>   18.5968    0.0000 </r>
       <r>   20.6520    0.0000 </r>
       <r>   23.3449    0.0000 </r>
       <r>   25.9451    0.0000 </r>
       <r>   29.3428    0.0000 </r>
       <r>   31.1512    0.0000 </r>
       <r>   31.5788    0.0000 </r>
       <r>   31.8859    0.0000 </r>
       <r>   35.1917    0.0000 </r>
       <r>   40.1795    0.0000 </r>
       <r>   40.9565    0.0000 </r>
       <r>   44.0570    0.0000 </r>
      </set>
      <set comment="kpoint 44">
       <r>    4.5724    1.0000 </r>
       <r>    5.1037    1.0000 </r>
       <r>    5.7451    1.0000 </r>
       <r>    6.0631    1.0000 </r>
       <r>    7.0544    1.0000 </r>
       <r>    7.3090    1.0000 </r>
       <r>    8.3206    1.0000 </r>
       <r>    8.3310    1.0000 </r>
       <r>    8.5736    1.0000 </r>
       <r>    8.7133    1.0000 </r>
       <r>    9.1765    1.0000 </r>
       <r>   12.7454    0.0000 </r>
       <r>   16.5415    0.0000 </r>
       <r>   19.3430    0.0000 </r>
       <r>   23.3606    0.0000 </r>
       <r>   24.9694    0.0000 </r>
       <r>   27.4192    0.0000 </r>
       <r>   30.7338    0.0000 </r>
       <r>   30.8210    0.0000 </r>
       <r>   31.0322    0.0000 </r>
       <r>   36.2901    0.0000 </r>
       <r>   39.7229    0.0000 </r>
       <r>   40.2262    0.0000 </r>
       <r>   42.7168    0.0000 </r>
      </set>
      <set comment="kpoint 45">
       <r>    4.6274    1.0000 </r>
       <r>    5.0363    1.0000 </r>
       <r>    5.8719    1.0000 </r>
       <r>    5.9164    1.0000 </r>
       <r>    7.0250    1.0000 </r>
       <r>    7.4080    1.0000 </r>
       <r>    8.3782    1.0000 </r>
       <r>    8.4834    1.0000 </r>
       <r>    8.7015    1.0000 </r>
       <r>    8.7741    1.0000 </r>
       <r>   10.3131    0.0000 </r>
       <r>   12.1568    0.0000 </r>
       <r>   17.1520    0.0000 </r>
       <r>   17.2872    0.0000 </r>
       <r>   24.6278    0.0000 </r>
       <r>   24.8839    0.0000 </r>
       <r>   25.5240    0.0000 </r>
       <r>   30.4352    0.0000 </r>
       <r>   30.6999    0.0000 </r>
       <r>   30.8012    0.0000 </r>
       <r>   37.5634    0.0000 </r>
       <r>   38.8138    0.0000 </r>
       <r>   39.5655    0.0000 </r>
       <r>   42.5758    0.0000 </r>
      </set>
      <set comment="kpoint 46">
       <r>    2.1519    1.0000 </r>
       <r>    4.8554    1.0000 </r>
       <r>    6.4743    1.0000 </r>
       <r>    6.5854    1.0000 </r>
       <r>    6.8069    1.0000 </r>
       <r>    7.0748    1.0000 </r>
       <r>    7.2281    1.0000 </r>
       <r>    7.3270    1.0000 </r>
       <r>    7.8190    1.0000 </r>
       <r>    7.8306    1.0000 </r>
       <r>    8.5315    1.0000 </r>
       <r>    9.7233    0.0000 </r>
       <r>   18.8441    0.0000 </r>
       <r>   27.2839    0.0000 </r>
       <r>   27.9584    0.0000 </r>
       <r>   30.2806    0.0000 </r>
       <r>   31.0309    0.0000 </r>
       <r>   32.5705    0.0000 </r>
       <r>   33.7286    0.0000 </r>
       <r>   35.2377    0.0000 </r>
       <r>   38.5061    0.0000 </r>
       <r>   38.8452    0.0000 </r>
       <r>   40.1660    0.0000 </r>
       <r>   41.0778    0.0000 </r>
      </set>
      <set comment="kpoint 47">
       <r>    2.9509    1.0000 </r>
       <r>    5.3149    1.0000 </r>
       <r>    6.0047    1.0000 </r>
       <r>    6.3799    1.0000 </r>
       <r>    6.7547    1.0000 </r>
       <r>    7.1137    1.0000 </r>
       <r>    7.2219    1.0000 </r>
       <r>    7.5991    1.0000 </r>
       <r>    7.9177    1.0000 </r>
       <r>    7.9697    1.0000 </r>
       <r>    8.5655    1.0000 </r>
       <r>   10.6257    0.0000 </r>
       <r>   19.4389    0.0000 </r>
       <r>   23.8491    0.0000 </r>
       <r>   26.0141    0.0000 </r>
       <r>   27.9564    0.0000 </r>
       <r>   29.9643    0.0000 </r>
       <r>   31.9248    0.0000 </r>
       <r>   33.0681    0.0000 </r>
       <r>   35.9867    0.0000 </r>
       <r>   36.8402    0.0000 </r>
       <r>   37.8555    0.0000 </r>
       <r>   41.2972    0.0000 </r>
       <r>   42.1365    0.0000 </r>
      </set>
      <set comment="kpoint 48">
       <r>    3.9086    1.0000 </r>
       <r>    5.4651    1.0000 </r>
       <r>    5.7112    1.0000 </r>
       <r>    6.3248    1.0000 </r>
       <r>    6.7361    1.0000 </r>
       <r>    7.1849    1.0000 </r>
       <r>    7.2694    1.0000 </r>
       <r>    7.8947    1.0000 </r>
       <r>    8.2018    1.0000 </r>
       <r>    8.2665    1.0000 </r>
       <r>    8.6745    1.0000 </r>
       <r>   11.6698    0.0000 </r>
       <r>   19.9523    0.0000 </r>
       <r>   20.7538    0.0000 </r>
       <r>   24.3667    0.0000 </r>
       <r>   25.0534    0.0000 </r>
       <r>   28.9795    0.0000 </r>
       <r>   31.1875    0.0000 </r>
       <r>   32.7325    0.0000 </r>
       <r>   34.7692    0.0000 </r>
       <r>   35.2850    0.0000 </r>
       <r>   38.3210    0.0000 </r>
       <r>   42.8970    0.0000 </r>
       <r>   43.5990    0.0000 </r>
      </set>
      <set comment="kpoint 49">
       <r>    4.5645    1.0000 </r>
       <r>    5.2803    1.0000 </r>
       <r>    5.6762    1.0000 </r>
       <r>    6.1866    1.0000 </r>
       <r>    6.9018    1.0000 </r>
       <r>    7.2580    1.0000 </r>
       <r>    7.6969    1.0000 </r>
       <r>    8.1781    1.0000 </r>
       <r>    8.4098    1.0000 </r>
       <r>    8.6036    1.0000 </r>
       <r>    9.1740    1.0000 </r>
       <r>   12.7527    0.0000 </r>
       <r>   17.4271    0.0000 </r>
       <r>   20.5078    0.0000 </r>
       <r>   22.8588    0.0000 </r>
       <r>   23.7944    0.0000 </r>
       <r>   28.1634    0.0000 </r>
       <r>   28.9884    0.0000 </r>
       <r>   32.6972    0.0000 </r>
       <r>   33.7988    0.0000 </r>
       <r>   35.2766    0.0000 </r>
       <r>   38.4228    0.0000 </r>
       <r>   42.7336    0.0000 </r>
       <r>   43.9638    0.0000 </r>
      </set>
      <set comment="kpoint 50">
       <r>    4.7141    1.0000 </r>
       <r>    5.1589    1.0000 </r>
       <r>    5.8343    1.0000 </r>
       <r>    6.0100    1.0000 </r>
       <r>    6.8532    1.0000 </r>
       <r>    7.4699    1.0000 </r>
       <r>    8.0181    1.0000 </r>
       <r>    8.3242    1.0000 </r>
       <r>    8.6274    1.0000 </r>
       <r>    8.7567    1.0000 </r>
       <r>   10.3841    0.0000 </r>
       <r>   12.7336    0.0000 </r>
       <r>   16.6326    0.0000 </r>
       <r>   18.3585    0.0000 </r>
       <r>   22.9946    0.0000 </r>
       <r>   24.3712    0.0000 </r>
       <r>   26.6315    0.0000 </r>
       <r>   27.7190    0.0000 </r>
       <r>   32.4707    0.0000 </r>
       <r>   33.2357    0.0000 </r>
       <r>   36.4799    0.0000 </r>
       <r>   37.9443    0.0000 </r>
       <r>   41.1837    0.0000 </r>
       <r>   44.0123    0.0000 </r>
      </set>
      <set comment="kpoint 51">
       <r>    3.8122    1.0000 </r>
       <r>    5.6368    1.0000 </r>
       <r>    5.7772    1.0000 </r>
       <r>    6.1299    1.0000 </r>
       <r>    6.7694    1.0000 </r>
       <r>    6.9815    1.0000 </r>
       <r>    7.2113    1.0000 </r>
       <r>    7.7963    1.0000 </r>
       <r>    8.1879    1.0000 </r>
       <r>    8.2814    1.0000 </r>
       <r>    8.7178    1.0000 </r>
       <r>   11.5592    0.0000 </r>
       <r>   20.1881    0.0000 </r>
       <r>   22.2082    0.0000 </r>
       <r>   22.6459    0.0000 </r>
       <r>   26.4671    0.0000 </r>
       <r>   26.9534    0.0000 </r>
       <r>   32.1839    0.0000 </r>
       <r>   34.0160    0.0000 </r>
       <r>   35.0254    0.0000 </r>
       <r>   36.6324    0.0000 </r>
       <r>   38.2079    0.0000 </r>
       <r>   41.1000    0.0000 </r>
       <r>   41.7430    0.0000 </r>
      </set>
      <set comment="kpoint 52">
       <r>    4.6465    1.0000 </r>
       <r>    5.4587    1.0000 </r>
       <r>    5.7613    1.0000 </r>
       <r>    6.1818    1.0000 </r>
       <r>    6.7549    1.0000 </r>
       <r>    7.0415    1.0000 </r>
       <r>    7.2136    1.0000 </r>
       <r>    7.9872    1.0000 </r>
       <r>    8.3059    1.0000 </r>
       <r>    8.6316    1.0000 </r>
       <r>    9.3354    0.9993 </r>
       <r>   12.7512    0.0000 </r>
       <r>   19.0462    0.0000 </r>
       <r>   21.0332    0.0000 </r>
       <r>   21.4110    0.0000 </r>
       <r>   23.8686    0.0000 </r>
       <r>   25.7305    0.0000 </r>
       <r>   30.9089    0.0000 </r>
       <r>   33.0349    0.0000 </r>
       <r>   34.9178    0.0000 </r>
       <r>   36.7342    0.0000 </r>
       <r>   39.4641    0.0000 </r>
       <r>   41.6526    0.0000 </r>
       <r>   43.1767    0.0000 </r>
      </set>
      <set comment="kpoint 53">
       <r>    4.9634    1.0000 </r>
       <r>    5.4779    1.0000 </r>
       <r>    5.6991    1.0000 </r>
       <r>    6.1699    1.0000 </r>
       <r>    6.6671    1.0000 </r>
       <r>    7.2415    1.0000 </r>
[...]
       </set>
       <set comment="band 12">
        <r>  0.0083  0.0674  0.0090  0.1962  0.0926  0.0035  0.0127  0.0039  0.2162 </r>
        <r>  0.0009  0.0076  0.0797  0.0221  0.0104  0.0313  0.0014  0.0348  0.0244 </r>
       </set>
       <set comment="band 13">
        <r>  0.2299  0.0294  0.0072  0.0197  0.1140  0.0149  0.0108  0.0438  0.0401 </r>
        <r>  0.0902  0.0115  0.0184  0.0077  0.0447  0.0379  0.0042  0.1117  0.0157 </r>
       </set>
       <set comment="band 14">
        <r>  0.0902  0.0115  0.0184  0.0077  0.0447  0.0379  0.0042  0.1117  0.0157 </r>
        <r>  0.2299  0.0294  0.0072  0.0197  0.1140  0.0149  0.0108  0.0438  0.0401 </r>
       </set>
       <set comment="band 15">
        <r>  0.0547  0.0773  0.0138  0.0258  0.0257  0.0687  0.0123  0.0266  0.0086 </r>
        <r>  0.1004  0.1419  0.0075  0.0474  0.0473  0.0374  0.0226  0.0145  0.0158 </r>
       </set>
       <set comment="band 16">
        <r>  0.1004  0.1419  0.0075  0.0474  0.0473  0.0374  0.0226  0.0145  0.0158 </r>
        <r>  0.0547  0.0773  0.0138  0.0258  0.0257  0.0687  0.0123  0.0266  0.0086 </r>
       </set>
       <set comment="band 17">
        <r>  0.0008  0.0065  0.2125  0.0192  0.0019  0.0245  0.0015  0.0471  0.0028 </r>
        <r>  0.0029  0.0238  0.0581  0.0702  0.0071  0.0067  0.0055  0.0129  0.0102 </r>
       </set>
       <set comment="band 18">
        <r>  0.0029  0.0238  0.0581  0.0702  0.0071  0.0067  0.0055  0.0129  0.0102 </r>
        <r>  0.0008  0.0065  0.2125  0.0192  0.0019  0.0245  0.0015  0.0471  0.0028 </r>
       </set>
       <set comment="band 19">
        <r>  0.0483  0.0007  0.0021  0.0016  0.1123  0.0052  0.2403  0.0129  0.0375 </r>
        <r>  0.0030  0.0000  0.0337  0.0001  0.0071  0.0821  0.0151  0.2051  0.0024 </r>
       </set>
       <set comment="band 20">
        <r>  0.0030  0.0000  0.0337  0.0001  0.0071  0.0821  0.0151  0.2051  0.0024 </r>
        <r>  0.0483  0.0007  0.0021  0.0016  0.1123  0.0052  0.2403  0.0129  0.0375 </r>
       </set>
       <set comment="band 21">
        <r>  0.0103  0.0755  0.0939  0.0255  0.0073  0.0052  0.0214  0.0047  0.0027 </r>
        <r>  0.0121  0.0888  0.0799  0.0299  0.0086  0.0044  0.0252  0.0040  0.0032 </r>
       </set>
       <set comment="band 22">
        <r>  0.0121  0.0888  0.0799  0.0299  0.0086  0.0044  0.0252  0.0040  0.0032 </r>
        <r>  0.0103  0.0755  0.0939  0.0255  0.0073  0.0052  0.0214  0.0047  0.0027 </r>
       </set>
       <set comment="band 23">
        <r>  0.0063  0.0002  0.0005  0.0001  0.0048  0.2471  0.0020  0.0956  0.0016 </r>
        <r>  0.1852  0.0054  0.0000  0.0020  0.1397  0.0085  0.0598  0.0033  0.0466 </r>
       </set>
       <set comment="band 24">
        <r>  0.1852  0.0054  0.0000  0.0020  0.1397  0.0085  0.0598  0.0033  0.0466 </r>
        <r>  0.0063  0.0002  0.0005  0.0001  0.0048  0.2471  0.0020  0.0956  0.0016 </r>
       </set>
      </set>
      <set comment="kpoint 93">
       <set comment="band 1">
        <r>  0.0976  0.0074  0.0031  0.0550  0.0324  0.0001  0.0422  0.0605  0.0591 </r>
        <r>  0.0151  0.0011  0.0203  0.0085  0.0050  0.0004  0.0065  0.3919  0.0091 </r>
       </set>
       <set comment="band 2">
        <r>  0.0151  0.0011  0.0203  0.0085  0.0050  0.0004  0.0065  0.3919  0.0091 </r>
        <r>  0.0976  0.0074  0.0031  0.0550  0.0324  0.0001  0.0422  0.0605  0.0591 </r>
       </set>
       <set comment="band 3">
        <r>  0.0042  0.0107  0.0244  0.0025  0.1286  0.0533  0.0008  0.0001  0.0081 </r>
        <r>  0.0173  0.0441  0.0059  0.0104  0.5286  0.0130  0.0032  0.0000  0.0331 </r>
       </set>
       <set comment="band 4">
        <r>  0.0173  0.0441  0.0059  0.0104  0.5286  0.0130  0.0032  0.0000  0.0331 </r>
        <r>  0.0042  0.0107  0.0244  0.0025  0.1286  0.0533  0.0008  0.0001  0.0081 </r>
       </set>
       <set comment="band 5">
        <r>  0.0011  0.0001  0.0001  0.0861  0.0007  0.0021  0.3481  0.0002  0.1607 </r>
        <r>  0.0000  0.0000  0.0080  0.0007  0.0000  0.2551  0.0029  0.0289  0.0013 </r>
       </set>
       <set comment="band 6">
        <r>  0.0000  0.0000  0.0080  0.0007  0.0000  0.2551  0.0029  0.0289  0.0013 </r>
        <r>  0.0011  0.0001  0.0001  0.0861  0.0007  0.0021  0.3481  0.0002  0.1607 </r>
       </set>
       <set comment="band 7">
        <r>  0.0072  0.0000  0.0000  0.0009  0.1044  0.0836  0.0341  0.0154  0.1644 </r>
        <r>  0.0015  0.0000  0.0000  0.0002  0.0212  0.4110  0.0069  0.0759  0.0335 </r>
       </set>
       <set comment="band 8">
        <r>  0.0015  0.0000  0.0000  0.0002  0.0212  0.4110  0.0069  0.0759  0.0335 </r>
        <r>  0.0072  0.0000  0.0000  0.0009  0.1044  0.0836  0.0341  0.0154  0.1644 </r>
       </set>
       <set comment="band 9">
        <r>  0.0000  0.0000  0.0019  0.0010  0.0032  0.0602  0.1707  0.1404  0.0553 </r>
        <r>  0.0000  0.0000  0.0010  0.0019  0.0062  0.0306  0.3357  0.0714  0.1088 </r>
       </set>
       <set comment="band 10">
        <r>  0.0000  0.0000  0.0010  0.0019  0.0062  0.0306  0.3357  0.0714  0.1088 </r>
        <r>  0.0000  0.0000  0.0019  0.0010  0.0032  0.0602  0.1707  0.1404  0.0553 </r>
       </set>
       <set comment="band 11">
        <r>  0.0532  0.0021  0.0218  0.1148  0.0136  0.0021  0.0008  0.0476  0.2557 </r>
        <r>  0.0249  0.0010  0.0467  0.0537  0.0064  0.0044  0.0004  0.1018  0.1196 </r>
       </set>
       <set comment="band 12">
        <r>  0.0249  0.0010  0.0467  0.0537  0.0064  0.0044  0.0004  0.1018  0.1196 </r>
        <r>  0.0532  0.0021  0.0218  0.1148  0.0136  0.0021  0.0008  0.0476  0.2557 </r>
       </set>
       <set comment="band 13">
        <r>  0.0010  0.2688  0.0066  0.0057  0.2710  0.0037  0.0014  0.0069  0.0011 </r>
        <r>  0.0001  0.0309  0.0572  0.0007  0.0311  0.0325  0.0002  0.0597  0.0001 </r>
       </set>
       <set comment="band 14">
        <r>  0.0001  0.0309  0.0572  0.0007  0.0311  0.0325  0.0002  0.0597  0.0001 </r>
        <r>  0.0010  0.2688  0.0066  0.0057  0.2710  0.0037  0.0014  0.0069  0.0011 </r>
       </set>
       <set comment="band 15">
        <r>  0.2596  0.0004  0.0013  0.1153  0.0003  0.0347  0.0403  0.0228  0.0000 </r>
        <r>  0.1096  0.0002  0.0031  0.0487  0.0001  0.0821  0.0170  0.0539  0.0000 </r>
       </set>
       <set comment="band 16">
        <r>  0.1096  0.0002  0.0031  0.0487  0.0001  0.0821  0.0170  0.0539  0.0000 </r>
        <r>  0.2596  0.0004  0.0013  0.1153  0.0003  0.0347  0.0403  0.0228  0.0000 </r>
       </set>
       <set comment="band 17">
        <r>  0.0285  0.0001  0.0955  0.0447  0.0018  0.0089  0.0549  0.0321  0.0143 </r>
        <r>  0.0163  0.0001  0.1675  0.0255  0.0010  0.0156  0.0313  0.0562  0.0082 </r>
       </set>
       <set comment="band 18">
        <r>  0.0163  0.0001  0.1675  0.0255  0.0010  0.0156  0.0313  0.0562  0.0082 </r>
        <r>  0.0285  0.0001  0.0955  0.0447  0.0018  0.0089  0.0549  0.0321  0.0143 </r>
       </set>
       <set comment="band 19">
        <r>  0.0035  0.0345  0.0457  0.0066  0.0519  0.0570  0.0221  0.0507  0.0049 </r>
        <r>  0.0034  0.0337  0.0467  0.0064  0.0508  0.0582  0.0216  0.0518  0.0048 </r>
       </set>
       <set comment="band 20">
        <r>  0.0034  0.0337  0.0467  0.0064  0.0508  0.0582  0.0216  0.0518  0.0048 </r>
        <r>  0.0035  0.0345  0.0457  0.0066  0.0519  0.0570  0.0221  0.0507  0.0049 </r>
       </set>
       <set comment="band 21">
        <r>  0.0144  0.0034  0.0421  0.0229  0.0125  0.0054  0.1099  0.1005  0.0152 </r>
        <r>  0.0190  0.0045  0.0319  0.0302  0.0165  0.0041  0.1450  0.0762  0.0201 </r>
       </set>
       <set comment="band 22">
        <r>  0.0190  0.0045  0.0319  0.0302  0.0165  0.0041  0.1450  0.0762  0.0201 </r>
        <r>  0.0144  0.0034  0.0421  0.0229  0.0125  0.0054  0.1099  0.1005  0.0152 </r>
       </set>
       <set comment="band 23">
        <r>  0.0010  0.2403  0.0045  0.0011  0.1846  0.0023  0.0000  0.0012  0.0000 </r>
        <r>  0.0001  0.0225  0.0481  0.0001  0.0173  0.0245  0.0000  0.0129  0.0000 </r>
       </set>
       <set comment="band 24">
        <r>  0.0001  0.0225  0.0481  0.0001  0.0173  0.0245  0.0000  0.0129  0.0000 </r>
        <r>  0.0010  0.2403  0.0045  0.0011  0.1846  0.0023  0.0000  0.0012  0.0000 </r>
       </set>
      </set>
      <set comment="kpoint 94">
       <set comment="band 1">
        <r>  0.0599  0.0212  0.0001  0.0330  0.1038  0.0016  0.0699  0.0174  0.0617 </r>
        <r>  0.0025  0.0009  0.0035  0.0014  0.0043  0.0389  0.0029  0.4228  0.0025 </r>
       </set>
       <set comment="band 2">
        <r>  0.0025  0.0009  0.0035  0.0014  0.0043  0.0389  0.0029  0.4228  0.0025 </r>
        <r>  0.0599  0.0212  0.0001  0.0330  0.1038  0.0016  0.0699  0.0174  0.0617 </r>
       </set>
       <set comment="band 3">
        <r>  0.0118  0.0366  0.0016  0.0013  0.2633  0.0497  0.1328  0.0151  0.0131 </r>
        <r>  0.0031  0.0096  0.0060  0.0003  0.0691  0.1894  0.0349  0.0576  0.0034 </r>
       </set>
       <set comment="band 4">
        <r>  0.0031  0.0096  0.0060  0.0003  0.0691  0.1894  0.0349  0.0576  0.0034 </r>
        <r>  0.0118  0.0366  0.0016  0.0013  0.2633  0.0497  0.1328  0.0151  0.0131 </r>
       </set>
       <set comment="band 5">
        <r>  0.0005  0.0016  0.0337  0.0084  0.0141  0.1625  0.0049  0.0045  0.0221 </r>
        <r>  0.0061  0.0188  0.0029  0.0979  0.1639  0.0140  0.0564  0.0004  0.2560 </r>
       </set>
       <set comment="band 6">
        <r>  0.0061  0.0188  0.0029  0.0979  0.1639  0.0140  0.0564  0.0004  0.2560 </r>
        <r>  0.0005  0.0016  0.0337  0.0084  0.0141  0.1625  0.0049  0.0045  0.0221 </r>
       </set>
       <set comment="band 7">
        <r>  0.0029  0.0022  0.0000  0.0096  0.1618  0.0080  0.0213  0.0033  0.2925 </r>
        <r>  0.0001  0.0001  0.0012  0.0002  0.0041  0.3153  0.0005  0.1290  0.0074 </r>
       </set>
       <set comment="band 8">
        <r>  0.0001  0.0001  0.0012  0.0002  0.0041  0.3153  0.0005  0.1290  0.0074 </r>
        <r>  0.0029  0.0022  0.0000  0.0096  0.1618  0.0080  0.0213  0.0033  0.2925 </r>
       </set>
       <set comment="band 9">
        <r>  0.0002  0.0000  0.0009  0.0002  0.0015  0.0896  0.0948  0.1558  0.0075 </r>
        <r>  0.0011  0.0001  0.0002  0.0013  0.0087  0.0158  0.5387  0.0274  0.0424 </r>
       </set>
       <set comment="band 10">
        <r>  0.0011  0.0001  0.0002  0.0013  0.0087  0.0158  0.5387  0.0274  0.0424 </r>
        <r>  0.0002  0.0000  0.0009  0.0002  0.0015  0.0896  0.0948  0.1558  0.0075 </r>
       </set>
       <set comment="band 11">
        <r>  0.0013  0.0010  0.0963  0.0089  0.0015  0.0091  0.0001  0.0634  0.0112 </r>
        <r>  0.0343  0.0252  0.0037  0.2349  0.0389  0.0003  0.0016  0.0024  0.2961 </r>
       </set>
       <set comment="band 12">
        <r>  0.0343  0.0252  0.0037  0.2349  0.0389  0.0003  0.0016  0.0024  0.2961 </r>
        <r>  0.0013  0.0010  0.0963  0.0089  0.0015  0.0091  0.0001  0.0634  0.0112 </r>
       </set>
       <set comment="band 13">
        <r>  0.1134  0.1607  0.0077  0.0128  0.1801  0.0114  0.0061  0.0224  0.0112 </r>
        <r>  0.0302  0.0429  0.0289  0.0034  0.0480  0.0426  0.0016  0.0841  0.0030 </r>
       </set>
       <set comment="band 14">
        <r>  0.0302  0.0429  0.0289  0.0034  0.0480  0.0426  0.0016  0.0841  0.0030 </r>
        <r>  0.1134  0.1607  0.0077  0.0128  0.1801  0.0114  0.0061  0.0224  0.0112 </r>
       </set>
       <set comment="band 15">
        <r>  0.2358  0.0642  0.0041  0.0485  0.0320  0.0363  0.0274  0.0195  0.0046 </r>
        <r>  0.0995  0.0271  0.0098  0.0205  0.0135  0.0861  0.0116  0.0462  0.0020 </r>
       </set>
       <set comment="band 16">
        <r>  0.0995  0.0271  0.0098  0.0205  0.0135  0.0861  0.0116  0.0462  0.0020 </r>
        <r>  0.2358  0.0642  0.0041  0.0485  0.0320  0.0363  0.0274  0.0195  0.0046 </r>
       </set>
       <set comment="band 17">
        <r>  0.0001  0.0001  0.2679  0.0006  0.0000  0.0366  0.0002  0.0827  0.0002 </r>
        <r>  0.0117  0.0079  0.0017  0.0966  0.0045  0.0002  0.0245  0.0005  0.0317 </r>
       </set>
       <set comment="band 18">
        <r>  0.0117  0.0079  0.0017  0.0966  0.0045  0.0002  0.0245  0.0005  0.0317 </r>
        <r>  0.0001  0.0001  0.2679  0.0006  0.0000  0.0366  0.0002  0.0827  0.0002 </r>
       </set>
       <set comment="band 19">
        <r>  0.0193  0.0676  0.0062  0.0018  0.0815  0.0048  0.0556  0.0074  0.0072 </r>
        <r>  0.0009  0.0033  0.1279  0.0001  0.0039  0.0981  0.0027  0.1526  0.0004 </r>
       </set>
       <set comment="band 20">
        <r>  0.0009  0.0033  0.1279  0.0001  0.0039  0.0981  0.0027  0.1526  0.0004 </r>
        <r>  0.0193  0.0676  0.0062  0.0018  0.0815  0.0048  0.0556  0.0074  0.0072 </r>
       </set>
       <set comment="band 21">
        <r>  0.0483  0.0327  0.0039  0.0269  0.0015  0.0059  0.2773  0.0075  0.0055 </r>
        <r>  0.0048  0.0033  0.0390  0.0027  0.0002  0.0591  0.0277  0.0746  0.0006 </r>
       </set>
       <set comment="band 22">
        <r>  0.0048  0.0033  0.0390  0.0027  0.0002  0.0591  0.0277  0.0746  0.0006 </r>
        <r>  0.0483  0.0327  0.0039  0.0269  0.0015  0.0059  0.2773  0.0075  0.0055 </r>
       </set>
       <set comment="band 23">
        <r>  0.0012  0.0017  0.0304  0.0001  0.0028  0.1094  0.0000  0.0459  0.0005 </r>
        <r>  0.1027  0.1443  0.0004  0.0089  0.2318  0.0013  0.0032  0.0005  0.0383 </r>
       </set>
       <set comment="band 24">
        <r>  0.1027  0.1443  0.0004  0.0089  0.2318  0.0013  0.0032  0.0005  0.0383 </r>
        <r>  0.0012  0.0017  0.0304  0.0001  0.0028  0.1094  0.0000  0.0459  0.0005 </r>
       </set>
      </set>
      <set comment="kpoint 95">
       <set comment="band 1">
        <r>  0.0000  0.0169  0.0000  0.0169  0.0431  0.1475  0.0000  0.1475  0.0431 </r>
        <r>  0.0000  0.0413  0.0000  0.0413  0.1053  0.0604  0.0000  0.0604  0.1053 </r>
       </set>
       <set comment="band 2">
        <r>  0.0000  0.0413  0.0000  0.0413  0.1053  0.0604  0.0000  0.0604  0.1053 </r>
        <r>  0.0000  0.0169  0.0000  0.0169  0.0431  0.1475  0.0000  0.1475  0.0431 </r>
       </set>
       <set comment="band 3">
        <r>  0.0038  0.0000  0.0000  0.0000  0.0000  0.2740  0.0150  0.2740  0.0000 </r>
        <r>  0.0621  0.0000  0.0000  0.0000  0.0000  0.0166  0.2479  0.0166  0.0000 </r>
       </set>
       <set comment="band 4">
        <r>  0.0621  0.0000  0.0000  0.0000  0.0000  0.0166  0.2479  0.0166  0.0000 </r>
        <r>  0.0038  0.0000  0.0000  0.0000  0.0000  0.2740  0.0150  0.2740  0.0000 </r>
       </set>
       <set comment="band 5">
        <r>  0.0000  0.0174  0.0317  0.0174  0.0980  0.0000  0.0000  0.0000  0.0980 </r>
        <r>  0.0000  0.0456  0.0121  0.0456  0.2566  0.0000  0.0000  0.0000  0.2566 </r>
       </set>
       <set comment="band 6">
        <r>  0.0000  0.0456  0.0121  0.0456  0.2566  0.0000  0.0000  0.0000  0.2566 </r>
        <r>  0.0000  0.0174  0.0317  0.0174  0.0980  0.0000  0.0000  0.0000  0.0980 </r>
       </set>
       <set comment="band 7">
        <r>  0.0000  0.0008  0.0000  0.0008  0.0579  0.1704  0.0000  0.1704  0.0579 </r>
        <r>  0.0000  0.0026  0.0000  0.0026  0.1998  0.0494  0.0000  0.0494  0.1998 </r>
       </set>
       <set comment="band 8">
        <r>  0.0000  0.0026  0.0000  0.0026  0.1998  0.0494  0.0000  0.0494  0.1998 </r>
        <r>  0.0000  0.0008  0.0000  0.0008  0.0579  0.1704  0.0000  0.1704  0.0579 </r>
       </set>
       <set comment="band 9">
        <r>  0.0000  0.0000  0.0000  0.0000  0.0000  0.1407  0.0085  0.1407  0.0000 </r>
        <r>  0.0034  0.0000  0.0000  0.0000  0.0000  0.0017  0.6882  0.0017  0.0000 </r>
       </set>
       <set comment="band 10">
        <r>  0.0034  0.0000  0.0000  0.0000  0.0000  0.0017  0.6882  0.0017  0.0000 </r>
        <r>  0.0000  0.0000  0.0000  0.0000  0.0000  0.1407  0.0085  0.1407  0.0000 </r>
       </set>
       <set comment="band 11">
        <r>  0.0000  0.0380  0.1190  0.0380  0.0436  0.0000  0.0000  0.0000  0.0436 </r>
        <r>  0.0000  0.1166  0.0388  0.1166  0.1339  0.0000  0.0000  0.0000  0.1339 </r>
       </set>
       <set comment="band 12">
        <r>  0.0000  0.1166  0.0388  0.1166  0.1339  0.0000  0.0000  0.0000  0.1339 </r>
        <r>  0.0000  0.0380  0.1190  0.0380  0.0436  0.0000  0.0000  0.0000  0.0436 </r>
       </set>
       <set comment="band 13">
        <r>  0.0000  0.0486  0.0000  0.0486  0.0375  0.0627  0.0000  0.0627  0.0375 </r>
        <r>  0.0000  0.1222  0.0000  0.1222  0.0942  0.0249  0.0000  0.0249  0.0942 </r>
       </set>
       <set comment="band 14">
        <r>  0.0000  0.1222  0.0000  0.1222  0.0942  0.0249  0.0000  0.0249  0.0942 </r>
        <r>  0.0000  0.0486  0.0000  0.0486  0.0375  0.0627  0.0000  0.0627  0.0375 </r>
       </set>
       <set comment="band 15">
        <r>  0.4277  0.0000  0.0000  0.0000  0.0000  0.0252  0.0344  0.0252  0.0000 </r>
        <r>  0.1118  0.0000  0.0000  0.0000  0.0000  0.0964  0.0090  0.0964  0.0000 </r>
       </set>
       <set comment="band 16">
        <r>  0.1118  0.0000  0.0000  0.0000  0.0000  0.0964  0.0090  0.0964  0.0000 </r>
        <r>  0.4277  0.0000  0.0000  0.0000  0.0000  0.0252  0.0344  0.0252  0.0000 </r>
       </set>
       <set comment="band 17">
        <r>  0.0000  0.0116  0.3524  0.0116  0.0076  0.0000  0.0000  0.0000  0.0076 </r>
        <r>  0.0000  0.0446  0.0913  0.0446  0.0294  0.0000  0.0000  0.0000  0.0294 </r>
       </set>
       <set comment="band 18">
        <r>  0.0000  0.0446  0.0913  0.0446  0.0294  0.0000  0.0000  0.0000  0.0294 </r>
        <r>  0.0000  0.0116  0.3524  0.0116  0.0076  0.0000  0.0000  0.0000  0.0076 </r>
       </set>
       <set comment="band 19">
        <r>  0.0000  0.0105  0.0000  0.0105  0.0040  0.1487  0.0000  0.1487  0.0040 </r>
        <r>  0.0000  0.0450  0.0000  0.0450  0.0172  0.0346  0.0000  0.0346  0.0172 </r>
       </set>
       <set comment="band 20">
        <r>  0.0000  0.0450  0.0000  0.0450  0.0172  0.0346  0.0000  0.0346  0.0172 </r>
        <r>  0.0000  0.0105  0.0000  0.0105  0.0040  0.1487  0.0000  0.1487  0.0040 </r>
       </set>
       <set comment="band 21">
        <r>  0.0768  0.0000  0.0000  0.0000  0.0000  0.0262  0.2949  0.0262  0.0000 </r>
        <r>  0.0273  0.0000  0.0000  0.0000  0.0000  0.0738  0.1048  0.0738  0.0000 </r>
       </set>
       <set comment="band 22">
        <r>  0.0273  0.0000  0.0000  0.0000  0.0000  0.0738  0.1048  0.0738  0.0000 </r>
        <r>  0.0768  0.0000  0.0000  0.0000  0.0000  0.0262  0.2949  0.0262  0.0000 </r>
       </set>
       <set comment="band 23">
        <r>  0.0000  0.0201  0.0000  0.0201  0.0481  0.0486  0.0000  0.0486  0.0481 </r>
        <r>  0.0000  0.0604  0.0000  0.0604  0.1442  0.0162  0.0000  0.0162  0.1443 </r>
       </set>
       <set comment="band 24">
        <r>  0.0000  0.0604  0.0000  0.0603  0.1443  0.0162  0.0000  0.0162  0.1442 </r>
        <r>  0.0000  0.0201  0.0000  0.0201  0.0481  0.0486  0.0000  0.0486  0.0480 </r>
       </set>
      </set>
     </set>
    </set>
   </array>
  </projected>
 </calculation>
 <structure name="finalpos" >
  <crystal>
   <varray name="basis" >
    <v>       1.27106056      -2.20154147       0.00000000 </v>
    <v>       1.27106056       2.20154147       0.00000000 </v>
    <v>       0.00000000       0.00000000       4.10056160 </v>
   </varray>
   <i name="volume">     22.94914183 </i>
   <varray name="rec_basis" >
    <v>       0.39337229      -0.22711360       0.00000000 </v>
    <v>       0.39337229       0.22711360       0.00000000 </v>
    <v>       0.00000000       0.00000000       0.24386904 </v>
   </varray>
  </crystal>
  <varray name="positions" >
   <v>       0.33333333       0.66666667       0.25000000 </v>
   <v>       0.66666667       0.33333333       0.75000000 </v>
  </varray>
 </structure>
</modeling>
