    2    2  100    2
  0.1084814E+02  0.2492465E-09  0.2492465E-09  0.4032707E-09  0.5000000E-15
  1.000000000000000E-004
  CAR 
 Co-hcc                                  
     18     70     16
 
  0.0000000E+00  0.0000000E+00  0.0000000E+00  0.1250000E-02
      1          1.340274        1.351250   1.000000   1.000000
      2          5.103278        6.085448   1.000000   1.000000
      3          7.609207        9.293769   1.000000   1.000000
      4          7.629857        9.324926   1.000000   1.000000
      5          7.629859        9.324926   1.000000   1.000000
      6          7.940105        9.690371   1.000000   1.000000
      7          7.940106        9.690372   1.000000   1.000000
      8          8.292691       10.109221   1.000000   0.996677
      9          8.292692       10.109222   1.000000   0.996677
     10          9.387904       10.118930   1.000000   0.992646
     11          9.387905       11.323719   1.000000   0.000000
     12         10.171822       11.323720   0.827277   0.000000
     13         16.578809       17.631159   0.000000   0.000000
     14         32.238582       31.967715   0.000000   0.000000
     15         34.794183       35.168070   0.000000   0.000000
     16         34.794192       35.185214   0.000000   0.000000
 
  0.1000000E+00 -0.6938894E-17  0.0000000E+00  0.7500000E-02
      1          1.689255        1.701764   1.000000   1.000000
      2          5.308127        6.320521   1.000000   1.000000
      3          7.344024        8.976741   1.000000   1.000000
      4          7.791588        9.256970   1.000000   1.000000
      5          7.820108        9.503512   1.000000   1.000000
      6          7.901979        9.536595   1.000000   1.000000
      7          8.045362        9.630300   1.000000   1.000000
      8          8.083059        9.848138   1.000000   1.000000
      9          8.193673        9.993152   1.000000   1.000000
     10          8.509815       10.024509   1.000000   1.000000
     11          9.429145       11.372906   1.000000   0.000000
     12         11.536342       12.486948   0.000000   0.000000
     13         16.642122       17.660299   0.000000   0.000000
     14         29.634849       29.818981   0.000000   0.000000
     15         32.175443       32.521454   0.000000   0.000000
     16         32.495729       32.547628   0.000000   0.000000
 
  0.2000000E+00 -0.1387779E-16  0.0000000E+00  0.7500000E-02
      1          2.678573        2.706471   1.000000   1.000000
      2          5.751564        6.867075   1.000000   1.000000
      3          7.035744        8.281133   1.000000   1.000000
      4          7.133539        8.553113   1.000000   1.000000
      5          7.669478        9.324906   1.000000   1.000000
      6          7.965883        9.728393   1.000000   1.000000
      7          8.175207        9.804464   1.000000   1.000000
      8          8.234222        9.996106   1.000000   1.000000
      9          8.256736       10.005730   1.000000   1.000000
     10          8.470201       10.276712   1.000000   0.021523
     11          9.507003       11.464400   1.000000   0.000000
     12         13.520376       14.356546   0.000000   0.000000
     13         16.872991       17.782718   0.000000   0.000000
     14         25.018749       25.426887   0.000000   0.000000
     15         29.405710       29.719531   0.000000   0.000000
     16         31.363227       31.507718   0.000000   0.000000
 
  0.3000000E+00  0.0000000E+00  0.0000000E+00  0.7500000E-02
      1          4.060262        4.188510   1.000000   1.000000
      2          5.876183        7.156225   1.000000   1.000000
      3          6.380570        7.581240   1.000000   1.000000
      4          7.011023        8.303315   1.000000   1.000000
      5          7.682760        9.275015   1.000000   1.000000
      6          7.721659        9.446704   1.000000   1.000000
      7          7.947361        9.537901   1.000000   1.000000
      8          8.824029       10.653824   1.000000   0.000000
      9          8.908031       10.664034   1.000000   0.000000
     10          8.985488       10.850749   1.000000   0.000000
     11          9.568323       11.535239   1.000000   0.000000
     12         15.777394       16.500372   0.000000   0.000000
     13         17.232143       17.953855   0.000000   0.000000
     14         20.899790       21.481019   0.000000   0.000000
     15         27.157907       27.414957   0.000000   0.000000
     16         28.397878       28.626720   0.000000   0.000000
 
  0.4000000E+00 -0.2775558E-16  0.0000000E+00  0.7500000E-02
      1          5.145961        5.686530   1.000000   1.000000
      2          5.662515        6.952926   1.000000   1.000000
      3          5.926313        7.169920   1.000000   1.000000
      4          7.382819        8.307759   1.000000   1.000000
      5          7.542674        9.241254   1.000000   1.000000
      6          7.775680        9.325619   1.000000   1.000000
      7          7.929394        9.534223   1.000000   1.000000
      8          9.324266       11.241157   1.000000   0.000000
      9          9.457602       11.384700   1.000000   0.000000
     10          9.600970       11.572361   1.000000   0.000000
     11         10.082487       11.678424   0.999740   0.000000
     12         15.783216       16.526047   0.000000   0.000000
     13         18.205576       18.791665   0.000000   0.000000
     14         19.688973       20.255422   0.000000   0.000000
     15         25.014174       25.416187   0.000000   0.000000
     16         25.642077       25.831961   0.000000   0.000000
 
  0.5000000E+00 -0.5551115E-16  0.0000000E+00  0.3750000E-02
      1          5.477849        6.405215   1.000000   1.000000
      2          5.503534        6.724736   1.000000   1.000000
      3          5.775622        7.035410   1.000000   1.000000
      4          7.477665        8.422032   1.000000   1.000000
      5          7.711549        9.166832   1.000000   1.000000
      6          7.722380        9.245238   1.000000   1.000000
      7          8.038782        9.661239   1.000000   1.000000
      8          9.513699       11.458799   1.000000   0.000000
      9          9.610569       11.583156   1.000000   0.000000
     10          9.662348       11.623761   1.000000   0.000000
     11         11.534024       12.811366   0.000000   0.000000
     12         13.548716       14.565097   0.000000   0.000000
     13         19.930594       20.365808   0.000000   0.000000
     14         20.577995       20.982834   0.000000   0.000000
     15         22.975971       23.542687   0.000000   0.000000
     16         24.195867       24.783892   0.000000   0.000000
 
  0.1000000E+00  0.1000000E+00  0.0000000E+00  0.7500000E-02
      1          2.361263        2.381008   1.000000   1.000000
      2          5.650747        6.725208   1.000000   1.000000
      3          7.072180        8.533805   1.000000   1.000000
      4          7.412790        8.637540   1.000000   1.000000
      5          7.744088        9.422998   1.000000   1.000000
      6          7.924740        9.668283   1.000000   1.000000
      7          8.036214        9.778056   1.000000   1.000000
      8          8.121081        9.864989   1.000000   1.000000
      9          8.327192       10.004381   1.000000   1.000000
     10          8.406618       10.195961   1.000000   0.602845
     11          9.470952       11.421753   1.000000   0.000000
     12         12.963443       13.831599   0.000000   0.000000
     13         16.795412       17.742549   0.000000   0.000000
     14         27.186310       27.476114   0.000000   0.000000
     15         27.819866       28.199363   0.000000   0.000000
     16         34.092960       34.010810   0.000000   0.000000
 
  0.2000000E+00  0.1000000E+00  0.0000000E+00  0.1500000E-01
      1          3.577139        3.639944   1.000000   1.000000
      2          6.017885        7.224460   1.000000   1.000000
      3          6.657188        7.833633   1.000000   1.000000
      4          6.797225        8.228426   1.000000   1.000000
      5          7.656779        9.270266   1.000000   1.000000
      6          7.661349        9.344665   1.000000   1.000000
      7          8.138633        9.802510   1.000000   1.000000
      8          8.374045       10.148522   1.000000   0.945476
      9          8.686030       10.491249   1.000000   0.000000
     10          8.999148       10.811074   1.000000   0.000000
     11          9.514201       11.471992   1.000000   0.000000
     12         14.969767       15.742019   0.000000   0.000000
     13         17.181648       17.981653   0.000000   0.000000
     14         22.962467       23.435746   0.000000   0.000000
     15         25.567668       25.934487   0.000000   0.000000
     16         30.411078       30.522233   0.000000   0.000000
 
  0.3000000E+00  0.1000000E+00  0.0000000E+00  0.1500000E-01
      1          4.905237        5.191933   1.000000   1.000000
      2          5.904578        7.214597   1.000000   1.000000
      3          6.117833        7.352744   1.000000   1.000000
      4          6.939939        8.116303   1.000000   1.000000
      5          7.489462        9.133977   1.000000   1.000000
      6          7.821654        9.416976   1.000000   1.000000
      7          7.895838        9.510241   1.000000   1.000000
      8          8.911839       10.731036   1.000000   0.000000
      9          9.240346       11.122492   1.000000   0.000000
     10          9.543944       11.506105   1.000000   0.000000
     11          9.857945       11.599976   1.000000   0.000000
     12         17.225231       17.861848   0.000000   0.000000
     13         17.290872       17.949739   0.000000   0.000000
     14         19.756152       20.375101   0.000000   0.000000
     15         24.000094       24.338224   0.000000   0.000000
     16         26.813992       27.114061   0.000000   0.000000
 
  0.4000000E+00  0.1000000E+00  0.0000000E+00  0.1500000E-01
      1          5.548365        6.370757   1.000000   1.000000
      2          5.699726        6.950462   1.000000   1.000000
      3          5.845263        7.115333   1.000000   1.000000
      4          7.382786        8.215486   1.000000   1.000000
      5          7.431204        9.082017   1.000000   1.000000
      6          7.707096        9.259692   1.000000   1.000000
      7          8.032896        9.660774   1.000000   1.000000
      8          9.414393       11.321251   1.000000   0.000000
      9          9.532572       11.464128   1.000000   0.000000
     10          9.556673       11.520403   1.000000   0.000000
     11         11.320478       12.686961   0.000000   0.000000
     12         14.610615       15.498711   0.000000   0.000000
     13         19.662502       20.171516   0.000000   0.000000
     14         20.435536       20.894147   0.000000   0.000000
     15         22.993384       23.319549   0.000000   0.000000
     16         23.807786       24.294155   0.000000   0.000000
 
  0.2000000E+00  0.2000000E+00  0.0000000E+00  0.7500000E-02
      1          4.832646        5.015013   1.000000   1.000000
      2          6.240763        7.472455   1.000000   1.000000
      3          6.287747        7.552386   1.000000   1.000000
      4          6.459233        7.807041   1.000000   1.000000
      5          7.396809        9.022349   1.000000   1.000000
      6          7.783740        9.378341   1.000000   1.000000
      7          7.984581        9.618612   1.000000   1.000000
      8          8.572403       10.380415   1.000000   0.000000
      9          9.245482       11.118096   1.000000   0.000000
     10          9.488950       11.442567   1.000000   0.000000
     11          9.889722       11.634329   1.000000   0.000000
     12         16.986000       17.677115   0.000000   0.000000
     13         17.820092       18.460341   0.000000   0.000000
     14         21.092329       21.599664   0.000000   0.000000
     15         21.672944       22.150157   0.000000   0.000000
     16         28.844945       28.921973   0.000000   0.000000
 
  0.3000000E+00  0.2000000E+00  0.0000000E+00  0.1500000E-01
      1          5.796996        6.385928   1.000000   1.000000
      2          5.975764        7.265594   1.000000   1.000000
      3          6.094668        7.373464   1.000000   1.000000
      4          6.700542        7.803421   1.000000   1.000000
      5          7.307743        8.896931   1.000000   1.000000
      6          7.733472        9.313138   1.000000   1.000000
      7          8.029973        9.659251   1.000000   1.000000
      8          8.953121       10.801712   1.000000   0.000000
      9          9.466545       11.416626   1.000000   0.000000
     10          9.536282       11.460378   1.000000   0.000000
     11         11.267927       12.731570   0.000000   0.000000
     12         16.792052       17.456251   0.000000   0.000000
     13         19.355692       19.943030   0.000000   0.000000
     14         19.496426       20.023160   0.000000   0.000000
     15         20.821359       21.279778   0.000000   0.000000
     16         25.731154       26.092074   0.000000   0.000000
 
  0.4000000E+00  0.2000000E+00  0.0000000E+00  0.7500000E-02
      1          5.886644        6.964111   1.000000   1.000000
      2          5.980927        7.201354   1.000000   1.000000
      3          5.996012        7.221749   1.000000   1.000000
      4          6.997874        7.903598   1.000000   1.000000
      5          7.338980        8.941541   1.000000   1.000000
      6          7.571999        9.100107   1.000000   1.000000
      7          8.152805        9.809159   1.000000   1.000000
      8          9.290758       11.179837   1.000000   0.000000
      9          9.458109       11.406761   1.000000   0.000000
     10          9.484774       11.408282   1.000000   0.000000
     11         12.958796       13.982828   0.000000   0.000000
     12         14.345751       15.332803   0.000000   0.000000
     13         19.485305       19.957119   0.000000   0.000000
     14         21.260043       21.723361   0.000000   0.000000
     15         21.560040       21.956869   0.000000   0.000000
     16         23.496650       24.011872   0.000000   0.000000
 
  0.3000000E+00  0.3000000E+00  0.0000000E+00  0.7500000E-02
      1          5.933310        7.216812   1.000000   1.000000
      2          6.195381        7.276317   1.000000   1.000000
      3          6.351851        7.535030   1.000000   1.000000
      4          6.586119        7.584047   1.000000   1.000000
      5          7.301544        8.849895   1.000000   1.000000
      6          7.495541        9.036002   1.000000   1.000000
      7          8.243310        9.907394   1.000000   1.000000
      8          9.131676       11.010081   1.000000   0.000000
      9          9.408971       11.350636   1.000000   0.000000
     10          9.442798       11.359037   1.000000   0.000000
     11         13.364853       14.406411   0.000000   0.000000
     12         16.345695       17.047078   0.000000   0.000000
     13         16.374313       17.067747   0.000000   0.000000
     14         21.800330       22.304243   0.000000   0.000000
     15         22.036530       22.447072   0.000000   0.000000
     16         24.639510       25.083144   0.000000   0.000000
 
  0.0000000E+00  0.0000000E+00  0.1250000E+00  0.2500000E-02
      1          1.497834        1.509393   1.000000   1.000000
      2          5.072776        5.968729   1.000000   1.000000
      3          7.569077        9.241668   1.000000   1.000000
      4          7.588722        9.281542   1.000000   1.000000
      5          7.588723        9.281543   1.000000   1.000000
      6          7.897734        9.641467   1.000000   1.000000
      7          7.897735        9.641468   1.000000   1.000000
      8          8.389297        9.724579   1.000000   1.000000
      9          8.389297       10.215483   1.000000   0.385352
     10          9.379467       10.215484   1.000000   0.385343
     11          9.379467       11.316378   1.000000   0.000000
     12          9.553182       11.316380   1.000000   0.000000
     13         17.508126       18.422547   0.000000   0.000000
     14         32.179339       31.881439   0.000000   0.000000
     15         34.398366       34.402452   0.000000   0.000000
     16         34.974775       34.852521   0.000000   0.000000
 
  0.1000000E+00 -0.6938894E-17  0.1250000E+00  0.1500000E-01
      1          1.843272        1.856851   1.000000   1.000000
      2          5.289741        6.216098   1.000000   1.000000
      3          7.346997        8.979846   1.000000   1.000000
      4          7.711585        8.995175   1.000000   1.000000
      5          7.731629        9.414788   1.000000   1.000000
      6          7.733927        9.440952   1.000000   1.000000
      7          8.032864        9.653001   1.000000   1.000000
      8          8.185286        9.788898   1.000000   1.000000
      9          8.320329       10.132822   1.000000   0.979649
     10          8.480357       10.162009   1.000000   0.888960
     11          9.414790       11.358369   1.000000   0.000000
     12         10.961865       12.188202   0.000000   0.000000
     13         17.643673       18.518638   0.000000   0.000000
     14         29.734607       29.900500   0.000000   0.000000
     15         32.333020       32.477440   0.000000   0.000000
     16         32.452088       32.676636   0.000000   0.000000
 
  0.2000000E+00 -0.1387779E-16  0.1250000E+00  0.1500000E-01
      1          2.817538        2.849922   1.000000   1.000000
      2          5.768063        6.804222   1.000000   1.000000
      3          6.996651        8.141801   1.000000   1.000000
      4          7.070656        8.581282   1.000000   1.000000
      5          7.603187        9.271642   1.000000   1.000000
      6          7.926843        9.649927   1.000000   1.000000
      7          8.048347        9.675706   1.000000   1.000000
      8          8.312598       10.085318   1.000000   0.999651
      9          8.443541       10.209993   1.000000   0.445848
     10          8.452167       10.263105   1.000000   0.050670
     11          9.480757       11.435431   1.000000   0.000000
     12         12.621021       13.677232   0.000000   0.000000
     13         18.112942       18.872781   0.000000   0.000000
     14         25.154670       25.558403   0.000000   0.000000
     15         29.596022       29.912662   0.000000   0.000000
     16         30.669478       30.823703   0.000000   0.000000
 
  0.3000000E+00  0.0000000E+00  0.1250000E+00  0.1500000E-01
      1          4.149234        4.300429   1.000000   1.000000
      2          5.910252        7.132935   1.000000   1.000000
      3          6.352230        7.540592   1.000000   1.000000
      4          6.991336        8.332987   1.000000   1.000000
      5          7.591413        9.161938   1.000000   1.000000
      6          7.764875        9.493101   1.000000   1.000000
      7          8.082364        9.605932   1.000000   1.000000
      8          8.843781       10.680121   1.000000   0.000000
      9          8.902009       10.682699   1.000000   0.000000
     10          8.940801       10.804134   1.000000   0.000000
     11          9.534190       11.496006   1.000000   0.000000
     12         14.314563       15.197094   0.000000   0.000000
     13         18.898720       19.508923   0.000000   0.000000
     14         21.077382       21.646077   0.000000   0.000000
     15         27.142561       27.481995   0.000000   0.000000
     16         27.375591       27.640740   0.000000   0.000000
 
  0.4000000E+00 -0.2775558E-16  0.1250000E+00  0.1500000E-01
      1          5.096936        5.711895   1.000000   1.000000
      2          5.659984        6.912078   1.000000   1.000000
      3          6.100066        7.285556   1.000000   1.000000
      4          6.993508        8.175800   1.000000   1.000000
      5          7.604698        9.309200   1.000000   1.000000
      6          7.921109        9.468435   1.000000   1.000000
      7          8.283398        9.618306   1.000000   1.000000
      8          9.326044       11.246674   1.000000   0.000000
      9          9.383675       11.299667   1.000000   0.000000
     10          9.585030       11.548661   1.000000   0.000000
     11         10.000344       11.602002   1.000000   0.000000
     12         15.106088       15.804219   0.000000   0.000000
     13         17.927551       18.694942   0.000000   0.000000
     14         20.675442       21.115016   0.000000   0.000000
     15         24.069196       24.583158   0.000000   0.000000
     16         25.880099       26.083282   0.000000   0.000000
 
  0.5000000E+00 -0.5551115E-16  0.1250000E+00  0.7500000E-02
      1          5.294553        6.286319   1.000000   1.000000
      2          5.509667        6.738404   1.000000   1.000000
      3          6.087132        7.282743   1.000000   1.000000
      4          7.022091        8.092816   1.000000   1.000000
      5          7.544505        9.240198   1.000000   1.000000
      6          8.040879        9.631751   1.000000   1.000000
      7          8.515762        9.725221   1.000000   1.000000
      8          9.460456       11.404968   1.000000   0.000000
      9          9.570282       11.525926   1.000000   0.000000
     10          9.657980       11.618861   1.000000   0.000000
     11         11.424466       12.636041   0.000000   0.000000
     12         13.457333       14.437324   0.000000   0.000000
     13         19.346730       19.889151   0.000000   0.000000
     14         19.704830       20.268192   0.000000   0.000000
     15         24.139279       24.569955   0.000000   0.000000
     16         25.100775       25.515873   0.000000   0.000000
 
  0.1000000E+00  0.1000000E+00  0.1250000E+00  0.1500000E-01
      1          2.506315        2.528886   1.000000   1.000000
      2          5.657277        6.648275   1.000000   1.000000
      3          7.090958        8.360924   1.000000   1.000000
      4          7.234387        8.660502   1.000000   1.000000
      5          7.731321        9.428895   1.000000   1.000000
      6          7.812045        9.469365   1.000000   1.000000
      7          8.022370        9.719978   1.000000   1.000000
      8          8.182680        9.943896   1.000000   1.000000
      9          8.426553       10.176792   1.000000   0.788979
     10          8.435638       10.228392   1.000000   0.255725
     11          9.451618       11.399879   1.000000   0.000000
     12         12.172764       13.270722   0.000000   0.000000
     13         17.952040       18.749828   0.000000   0.000000
     14         27.306285       27.588869   0.000000   0.000000
     15         27.968665       28.345991   0.000000   0.000000
     16         32.960669       32.977396   0.000000   0.000000
 
  0.2000000E+00  0.1000000E+00  0.1250000E+00  0.3000000E-01
      1          3.693832        3.768132   1.000000   1.000000
      2          6.062416        7.204895   1.000000   1.000000
      3          6.561895        7.733413   1.000000   1.000000
      4          6.835768        8.266643   1.000000   1.000000
      5          7.536140        9.175170   1.000000   1.000000
      6          7.768474        9.404685   1.000000   1.000000
      7          8.056964        9.726490   1.000000   1.000000
      8          8.422360       10.203531   1.000000   0.518587
      9          8.764159       10.572092   1.000000   0.000000
     10          8.950712       10.771990   1.000000   0.000000
     11          9.503766       11.451242   1.000000   0.000000
     12         13.757614       14.717164   0.000000   0.000000
     13         18.676907       19.339306   0.000000   0.000000
     14         23.108910       23.579420   0.000000   0.000000
     15         25.725070       26.094312   0.000000   0.000000
     16         29.297894       29.518202   0.000000   0.000000
 
  0.3000000E+00  0.1000000E+00  0.1250000E+00  0.3000000E-01
      1          4.932671        5.268821   1.000000   1.000000
      2          5.938510        7.184247   1.000000   1.000000
      3          6.151312        7.376571   1.000000   1.000000
      4          6.872336        8.142405   1.000000   1.000000
      5          7.526237        9.109934   1.000000   1.000000
      6          7.839427        9.472447   1.000000   1.000000
      7          7.989046        9.513781   1.000000   1.000000
      8          8.897012       10.723200   1.000000   0.000000
      9          9.284190       11.168721   1.000000   0.000000
     10          9.412119       11.316252   1.000000   0.000000
     11          9.895135       11.683675   1.000000   0.000000
     12         15.328525       16.074967   0.000000   0.000000
     13         18.774917       19.441151   0.000000   0.000000
     14         20.471830       20.990098   0.000000   0.000000
     15         24.144216       24.500616   0.000000   0.000000
     16         25.714453       26.106520   0.000000   0.000000
 
  0.4000000E+00  0.1000000E+00  0.1250000E+00  0.3000000E-01
      1          5.399628        6.314537   1.000000   1.000000
      2          5.695638        6.937079   1.000000   1.000000
      3          6.137502        7.314061   1.000000   1.000000
      4          6.946931        8.042370   1.000000   1.000000
      5          7.464658        9.111636   1.000000   1.000000
      6          8.059368        9.482621   1.000000   1.000000
      7          8.161663        9.685709   1.000000   1.000000
      8          9.374680       11.285392   1.000000   0.000000
      9          9.474287       11.407403   1.000000   0.000000
     10          9.561033       11.497807   1.000000   0.000000
     11         11.306624       12.638184   0.000000   0.000000
     12         14.460617       15.299454   0.000000   0.000000
     13         18.662800       19.324533   0.000000   0.000000
     14         20.779849       21.226691   0.000000   0.000000
     15         23.124249       23.495904   0.000000   0.000000
     16         24.037674       24.479366   0.000000   0.000000
 
  0.2000000E+00  0.2000000E+00  0.1250000E+00  0.1500000E-01
      1          4.896410        5.109945   1.000000   1.000000
      2          6.155079        7.385856   1.000000   1.000000
      3          6.405196        7.623525   1.000000   1.000000
      4          6.487028        7.846786   1.000000   1.000000
      5          7.439171        9.021345   1.000000   1.000000
      6          7.768116        9.371124   1.000000   1.000000
      7          7.916779        9.548258   1.000000   1.000000
      8          8.601843       10.410222   1.000000   0.000000
      9          9.303211       11.183629   1.000000   0.000000
     10          9.346134       11.254270   1.000000   0.000000
     11          9.961334       11.737394   1.000000   0.000000
     12         15.293164       16.093522   0.000000   0.000000
     13         19.694819       20.259145   0.000000   0.000000
     14         21.244595       21.752657   0.000000   0.000000
     15         21.872425       22.345409   0.000000   0.000000
     16         27.714169       27.931739   0.000000   0.000000
 
  0.3000000E+00  0.2000000E+00  0.1250000E+00  0.3000000E-01
      1          5.710636        6.412326   1.000000   1.000000
      2          6.079402        7.249370   1.000000   1.000000
      3          6.151900        7.429452   1.000000   1.000000
      4          6.665235        7.864363   1.000000   1.000000
      5          7.386119        8.923386   1.000000   1.000000
      6          7.707662        9.242063   1.000000   1.000000
      7          8.046410        9.674728   1.000000   1.000000
      8          8.960828       10.811141   1.000000   0.000000
      9          9.344938       11.271249   1.000000   0.000000
     10          9.575624       11.507734   1.000000   0.000000
     11         11.333156       12.784133   0.000000   0.000000
     12         16.321441       16.957594   0.000000   0.000000
     13         18.442113       19.132331   0.000000   0.000000
     14         20.275650       20.784752   0.000000   0.000000
     15         21.684305       22.105746   0.000000   0.000000
     16         24.755765       25.202419   0.000000   0.000000
 
  0.4000000E+00  0.2000000E+00  0.1250000E+00  0.1500000E-01
      1          5.728009        6.849012   1.000000   1.000000
      2          6.029124        7.261879   1.000000   1.000000
      3          6.258124        7.435229   1.000000   1.000000
      4          6.796714        7.820578   1.000000   1.000000
      5          7.313416        8.900596   1.000000   1.000000
      6          7.724534        9.151764   1.000000   1.000000
      7          8.183468        9.836933   1.000000   1.000000
      8          9.294312       11.184820   1.000000   0.000000
      9          9.324330       11.247985   1.000000   0.000000
     10          9.517918       11.447047   1.000000   0.000000
     11         13.054545       14.050408   0.000000   0.000000
     12         14.345029       15.307055   0.000000   0.000000
     13         19.422804       19.930544   0.000000   0.000000
     14         20.519378       21.044542   0.000000   0.000000
     15         20.784181       21.290424   0.000000   0.000000
     16         24.697616       25.123514   0.000000   0.000000
 
  0.3000000E+00  0.3000000E+00  0.1250000E+00  0.1500000E-01
      1          5.959606        7.251370   1.000000   1.000000
      2          6.215069        7.277126   1.000000   1.000000
      3          6.404138        7.599730   1.000000   1.000000
      4          6.556151        7.621713   1.000000   1.000000
      5          7.350218        8.849196   1.000000   1.000000
      6          7.443292        8.955593   1.000000   1.000000