 vasp.6.3.2 27Jun22 (build Aug 12 2022 00:53:59) complex                        
  
 executed on               tv2STD date 2024.11.30  17:13:20
 running   24 mpi-ranks, with    1 threads/rank
 distrk:  each k-point on   24 cores,    1 groups
 distr:  one band on NCORE=   6 cores,    4 groups


--------------------------------------------------------------------------------------------------------


 INCAR:
   SYSTEM = Co-hcc
   NWRITE = 2    write-flag
   ISTART = 0    job   : 0-new, 1-cont, 2-samecut
   ICHARG = 2    charge: 0-wave, 1-file, 2-atom, >10-const
   INIWAV = 1    electr: 0-lowe 1-rand  2-diag
   ENCUT = 400     energy cutoff in eV
   PREC = Accurate      normal | accurate
   ADDGRID = .FALSE.  (use fine grid)
   NELM = 100     number of ELM steps
   EDIFF = 1E-06    energy stopping-criterion for ELM
   LREAL = .FALSE.      real-space projection (.FALSE., .TRUE., On, Auto)
   ALGO = Normal     Normal, Fast, Very_Fast
   LWAVE = .TRUE.
   LCHARG = .TRUE.
   NSW = 100       max number of geometry steps
   IBRION = 2     ionic relax: 0-MD, 1-quasi-Newton, 2-CG, 3-Damped MD
   EDIFFG = -0.02  force (eV/A) stopping-criterion for geometry steps
   ISIF = 2     (1:force\=y stress\=trace only ions\=y shape\=n volume\=n)
   ISYM = 1     (1-use symmetry, 0-no symmetry)
   ISMEAR = 0     (-1-Fermi, 1-Methfessel/Paxton)
   SIGMA = 0.05   broadening in eV
   LORBIT = 11 magnetic props in OUTCAR should be on
   NPAR = 4
   ISPIN = 2
   MAGMOM = 2*3

 POTCAR:    PAW_PBE Co 02Aug2007                  
 POTCAR:    PAW_PBE Co 02Aug2007                  
   SHA256 =  0e690c60710354995174544f52f9f2c30879afabeffe3b3fbd4001cb294e56d4 Co/POTCAR             
   COPYR  = (c) Copyright 02Aug2007 Georg Kresse                                                    
   COPYR  = This file is part of the software VASP. Any use, copying, and all other rights are regul
   COPYR  = If you do not have a valid VASP license, you may not use, copy or distribute this file. 
   VRHFIN =Co: d8 s1                                                                                
   LEXCH  = PE                                                                                      
   EATOM  =   813.3670 eV,   59.7808 Ry                                                             
                                                                                                    
   TITEL  = PAW_PBE Co 02Aug2007                                                                    
   LULTRA =        F    use ultrasoft PP ?                                                          
   IUNSCR =        1    unscreen: 0-lin 1-nonlin 2-no                                               
   RPACOR =    2.000    partial core radius                                                         
   POMASS =   58.933; ZVAL   =    9.000    mass and valenz                                          
   RCORE  =    2.300    outmost cutoff radius                                                       
   RWIGS  =    2.460; RWIGS  =    1.302    wigner-seitz radius (au A)                               
   ENMAX  =  267.968; ENMIN  =  200.976 eV                                                          
   RCLOC  =    1.203    cutoff for local pot                                                        
   LCOR   =        T    correct aug charges                                                         
   LPAW   =        T    paw PP                                                                      
   EAUG   =  477.818                                                                                
   DEXC   =    0.000                                                                                
   RMAX   =    2.360    core radius for proj-oper                                                   
   RAUG   =    1.300    factor for augmentation sphere                                              
   RDEP   =    2.393    radius for radial grids                                                     
   RDEPT  =    1.864    core radius for aug-charge                                                  
                                                                                                    
   Atomic configuration                                                                             
    9 entries                                                                                       
     n  l   j            E        occ.                                                              
     1  0  0.50     -7587.6674   2.0000                                                             
     2  0  0.50      -893.6084   2.0000                                                             
     2  1  1.50      -764.5805   6.0000                                                             
     3  0  0.50       -97.5973   2.0000                                                             
     3  1  1.50       -60.9648   6.0000                                                             
     3  2  2.50        -4.2382   8.0000                                                             
     4  0  0.50        -4.3746   1.0000                                                             
     4  1  1.50        -4.0817   0.0000                                                             
     4  3  2.50        -1.3606   0.0000                                                             
   Description                                                                                      
     l       E           TYP  RCUT    TYP  RCUT                                                     
     2     -4.2382362     23  2.300                                                                 
     2     -5.5988188     23  2.300                                                                 
     0     -4.3745797     23  2.300                                                                 
     0      5.7660125     23  2.300                                                                 
     1     -2.7211652     23  2.300                                                                 
     1     16.9860234     23  2.300                                                                 
  local pseudopotential read in
  partial core-charges read in
  partial kinetic energy density read in
  atomic valenz-charges read in
  non local Contribution for L=           2  read in
    real space projection operators read in
  non local Contribution for L=           2  read in
    real space projection operators read in
  non local Contribution for L=           0  read in
    real space projection operators read in
  non local Contribution for L=           0  read in
    real space projection operators read in
  non local Contribution for L=           1  read in
    real space projection operators read in
  non local Contribution for L=           1  read in
    real space projection operators read in
    PAW grid and wavefunctions read in
 
   number of l-projection  operators is LMAX  =           6
   number of lm-projection operators is LMMAX =          18
 
  PAW_PBE Co 02Aug2007                  :
 energy of atom  1       EATOM= -813.3670
 kinetic energy error for atom=    0.0093 (will be added to EATOM!!)
 
 
 POSCAR: Co
  positions in cartesian coordinates
  No initial velocities read in
 exchange correlation table for  LEXCH =        8
   RHO(1)=    0.500       N(1)  =     2000
   RHO(2)=  100.500       N(2)  =     4000
 


--------------------------------------------------------------------------------------------------------


 ion  position               nearest neighbor table
   1  0.000  0.000  0.000-   2 2.48   2 2.48   2 2.48   2 2.48   2 2.48   2 2.48
   2  0.333  0.667  0.500-   1 2.48   1 2.48   1 2.48   1 2.48   1 2.48   1 2.48
 
  LATTYP: Found a hexagonal cell.
 ALAT       =     2.4924647475
 C/A-ratio  =     1.6179593006
  
  Lattice vectors:
  
 A1 = (   2.4924647475,   0.0000000000,   0.0000000000)
 A2 = (  -1.2462323737,   2.1585377894,   0.0000000000)
 A3 = (   0.0000000000,   0.0000000000,   4.0327065196)


Analysis of symmetry for initial positions (statically):
=====================================================================
 Subroutine PRICEL returns:
 Original cell was already a primitive cell.
 

 Routine SETGRP: Setting up the symmetry group for a 
 hexagonal supercell.


 Subroutine GETGRP returns: Found 24 space group operations
 (whereof 12 operations were pure point group operations)
 out of a pool of 24 trial point group operations.


The static configuration has the point symmetry D_3h.
 The point group associated with its full space group is D_6h.


Analysis of symmetry for dynamics (positions and initial velocities):
=====================================================================
 Subroutine PRICEL returns:
 Original cell was already a primitive cell.
 

 Routine SETGRP: Setting up the symmetry group for a 
 hexagonal supercell.


 Subroutine GETGRP returns: Found 24 space group operations
 (whereof 12 operations were pure point group operations)
 out of a pool of 24 trial point group operations.


The dynamic configuration has the point symmetry D_3h.
 The point group associated with its full space group is D_6h.


Analysis of structural, dynamic, and magnetic symmetry:
=====================================================================
 Subroutine PRICEL returns:
 Original cell was already a primitive cell.
 

 Routine SETGRP: Setting up the symmetry group for a 
 hexagonal supercell.


 Subroutine GETGRP returns: Found 24 space group operations
 (whereof 12 operations were pure point group operations)
 out of a pool of 24 trial point group operations.


The overall configuration has the point symmetry D_3h.
 The point group associated with its full space group is D_6h.


 Subroutine INISYM returns: Found 24 space group operations
 (whereof 12 operations are pure point group operations),
 and found     1 'primitive' translations


----------------------------------------------------------------------------------------

                                     Primitive cell                                     

  volume of cell :      21.6963

  direct lattice vectors                    reciprocal lattice vectors
     2.492464747  0.000000000  0.000000000     0.401209285  0.231638289  0.000000000
    -1.246232374  2.158537789  0.000000000     0.000000000  0.463276578  0.000000000
     0.000000000  0.000000000  4.032706520     0.000000000  0.000000000  0.247972421

  length of vectors
     2.492464747  2.492464747  4.032706520     0.463276578  0.463276578  0.247972421

  position of ions in fractional coordinates (direct lattice)
     0.000000000  0.000000000  0.000000000
     0.333333333  0.666666667  0.500000000

  ion indices of the primitive-cell ions
   primitive index   ion index
                 1           1
                 2           2

----------------------------------------------------------------------------------------

 
 
 KPOINTS: Automatic mesh                          

Automatic generation of k-mesh.
 Grid dimensions read from file:
 generate k-points for:   10   10    8

 Generating k-lattice:

  Cartesian coordinates                     Fractional coordinates (reciprocal lattice)
     0.040120929  0.023163829  0.000000000     0.100000000 -0.000000000  0.000000000
     0.000000000  0.046327658  0.000000000     0.000000000  0.100000000  0.000000000
     0.000000000  0.000000000  0.030996553     0.000000000  0.000000000  0.125000000

  Length of vectors
     0.046327658  0.046327658  0.030996553

  Shift w.r.t. Gamma in fractional coordinates (k-lattice)
     0.000000000  0.000000000  0.000000000

 
 Subroutine IBZKPT returns following result:
 ===========================================
 
 Found     70 irreducible k-points:
 
 Following reciprocal coordinates:
            Coordinates               Weight
  0.000000  0.000000  0.000000      1.000000
  0.100000 -0.000000  0.000000      6.000000
  0.200000 -0.000000  0.000000      6.000000
  0.300000  0.000000  0.000000      6.000000
  0.400000 -0.000000  0.000000      6.000000
  0.500000 -0.000000  0.000000      3.000000
  0.100000  0.100000  0.000000      6.000000
  0.200000  0.100000  0.000000     12.000000
  0.300000  0.100000  0.000000     12.000000
  0.400000  0.100000  0.000000     12.000000
  0.200000  0.200000  0.000000      6.000000
  0.300000  0.200000  0.000000     12.000000
  0.400000  0.200000  0.000000      6.000000
  0.300000  0.300000  0.000000      6.000000
  0.000000  0.000000  0.125000      2.000000
  0.100000 -0.000000  0.125000     12.000000
  0.200000 -0.000000  0.125000     12.000000
  0.300000  0.000000  0.125000     12.000000
  0.400000 -0.000000  0.125000     12.000000
  0.500000 -0.000000  0.125000      6.000000
  0.100000  0.100000  0.125000     12.000000
  0.200000  0.100000  0.125000     24.000000
  0.300000  0.100000  0.125000     24.000000
  0.400000  0.100000  0.125000     24.000000
  0.200000  0.200000  0.125000     12.000000
  0.300000  0.200000  0.125000     24.000000
  0.400000  0.200000  0.125000     12.000000
  0.300000  0.300000  0.125000     12.000000
  0.000000  0.000000  0.250000      2.000000
  0.100000 -0.000000  0.250000     12.000000
  0.200000 -0.000000  0.250000     12.000000
  0.300000  0.000000  0.250000     12.000000
  0.400000 -0.000000  0.250000     12.000000
  0.500000 -0.000000  0.250000      6.000000
  0.100000  0.100000  0.250000     12.000000
  0.200000  0.100000  0.250000     24.000000
  0.300000  0.100000  0.250000     24.000000
  0.400000  0.100000  0.250000     24.000000
  0.200000  0.200000  0.250000     12.000000
  0.300000  0.200000  0.250000     24.000000
  0.400000  0.200000  0.250000     12.000000
  0.300000  0.300000  0.250000     12.000000
  0.000000  0.000000  0.375000      2.000000
  0.100000 -0.000000  0.375000     12.000000
  0.200000 -0.000000  0.375000     12.000000
  0.300000  0.000000  0.375000     12.000000
  0.400000 -0.000000  0.375000     12.000000
  0.500000 -0.000000  0.375000      6.000000
  0.100000  0.100000  0.375000     12.000000
  0.200000  0.100000  0.375000     24.000000
  0.300000  0.100000  0.375000     24.000000
  0.400000  0.100000  0.375000     24.000000
  0.200000  0.200000  0.375000     12.000000
  0.300000  0.200000  0.375000     24.000000
  0.400000  0.200000  0.375000     12.000000
  0.300000  0.300000  0.375000     12.000000
  0.000000  0.000000  0.500000      1.000000
  0.100000 -0.000000  0.500000      6.000000
  0.200000 -0.000000  0.500000      6.000000
  0.300000  0.000000  0.500000      6.000000
  0.400000 -0.000000  0.500000      6.000000
  0.500000 -0.000000  0.500000      3.000000
  0.100000  0.100000  0.500000      6.000000
  0.200000  0.100000  0.500000     12.000000
  0.300000  0.100000  0.500000     12.000000
  0.400000  0.100000  0.500000     12.000000
  0.200000  0.200000  0.500000      6.000000
  0.300000  0.200000  0.500000     12.000000
  0.400000  0.200000  0.500000      6.000000
  0.300000  0.300000  0.500000      6.000000
 
 Following cartesian coordinates:
            Coordinates               Weight
  0.000000  0.000000  0.000000      1.000000
  0.040121  0.023164  0.000000      6.000000
  0.080242  0.046328  0.000000      6.000000
  0.120363  0.069491  0.000000      6.000000
  0.160484  0.092655  0.000000      6.000000
  0.200605  0.115819  0.000000      3.000000
  0.040121  0.069491  0.000000      6.000000
  0.080242  0.092655  0.000000     12.000000
  0.120363  0.115819  0.000000     12.000000
  0.160484  0.138983  0.000000     12.000000
  0.080242  0.138983  0.000000      6.000000
  0.120363  0.162147  0.000000     12.000000
  0.160484  0.185311  0.000000      6.000000
  0.120363  0.208474  0.000000      6.000000
  0.000000  0.000000  0.030997      2.000000
  0.040121  0.023164  0.030997     12.000000
  0.080242  0.046328  0.030997     12.000000
  0.120363  0.069491  0.030997     12.000000
  0.160484  0.092655  0.030997     12.000000
  0.200605  0.115819  0.030997      6.000000
  0.040121  0.069491  0.030997     12.000000
  0.080242  0.092655  0.030997     24.000000
  0.120363  0.115819  0.030997     24.000000
  0.160484  0.138983  0.030997     24.000000
  0.080242  0.138983  0.030997     12.000000
  0.120363  0.162147  0.030997     24.000000
  0.160484  0.185311  0.030997     12.000000
  0.120363  0.208474  0.030997     12.000000
  0.000000  0.000000  0.061993      2.000000
  0.040121  0.023164  0.061993     12.000000
  0.080242  0.046328  0.061993     12.000000
  0.120363  0.069491  0.061993     12.000000
  0.160484  0.092655  0.061993     12.000000
  0.200605  0.115819  0.061993      6.000000
  0.040121  0.069491  0.061993     12.000000
  0.080242  0.092655  0.061993     24.000000
  0.120363  0.115819  0.061993     24.000000
  0.160484  0.138983  0.061993     24.000000
  0.080242  0.138983  0.061993     12.000000
  0.120363  0.162147  0.061993     24.000000
  0.160484  0.185311  0.061993     12.000000
  0.120363  0.208474  0.061993     12.000000
  0.000000  0.000000  0.092990      2.000000
  0.040121  0.023164  0.092990     12.000000
  0.080242  0.046328  0.092990     12.000000
  0.120363  0.069491  0.092990     12.000000
  0.160484  0.092655  0.092990     12.000000
  0.200605  0.115819  0.092990      6.000000
  0.040121  0.069491  0.092990     12.000000
  0.080242  0.092655  0.092990     24.000000
  0.120363  0.115819  0.092990     24.000000
  0.160484  0.138983  0.092990     24.000000
  0.080242  0.138983  0.092990     12.000000
  0.120363  0.162147  0.092990     24.000000
  0.160484  0.185311  0.092990     12.000000
  0.120363  0.208474  0.092990     12.000000
  0.000000  0.000000  0.123986      1.000000
  0.040121  0.023164  0.123986      6.000000
  0.080242  0.046328  0.123986      6.000000
  0.120363  0.069491  0.123986      6.000000
  0.160484  0.092655  0.123986      6.000000
  0.200605  0.115819  0.123986      3.000000
  0.040121  0.069491  0.123986      6.000000
  0.080242  0.092655  0.123986     12.000000
  0.120363  0.115819  0.123986     12.000000
  0.160484  0.138983  0.123986     12.000000
  0.080242  0.138983  0.123986      6.000000
  0.120363  0.162147  0.123986     12.000000
  0.160484  0.185311  0.123986      6.000000
  0.120363  0.208474  0.123986      6.000000
 


--------------------------------------------------------------------------------------------------------




 Dimension of arrays:
   k-points           NKPTS =     70   k-points in BZ     NKDIM =     70   number of bands    NBANDS=     16
   number of dos      NEDOS =    301   number of ions     NIONS =      2
   non local maximal  LDIM  =      6   non local SUM 2l+1 LMDIM =     18
   total plane-waves  NPLWV =   7168
   max r-space proj   IRMAX =      1   max aug-charges    IRDMAX=  13228
   dimension x,y,z NGX =    16 NGY =   16 NGZ =   28
   dimension x,y,z NGXF=    32 NGYF=   32 NGZF=   56
   support grid    NGXF=    32 NGYF=   32 NGZF=   56
   ions per type =               2
   NGX,Y,Z   is equivalent  to a cutoff of  10.67, 10.67, 11.54 a.u.
   NGXF,Y,Z  is equivalent  to a cutoff of  21.34, 21.34, 23.09 a.u.

 SYSTEM =  Co-hcc                                  
 POSCAR =  Co                                      

 Startparameter for this run:
   NWRITE =      2    write-flag & timer
   PREC   = accura    normal or accurate (medium, high low for compatibility)
   ISTART =      0    job   : 0-new  1-cont  2-samecut
   ICHARG =      2    charge: 1-file 2-atom 10-const
   ISPIN  =      2    spin polarized calculation?
   LNONCOLLINEAR =      F non collinear calculations
   LSORBIT =      F    spin-orbit coupling
   INIWAV =      1    electr: 0-lowe 1-rand  2-diag
   LASPH  =      F    aspherical Exc in radial PAW
 Electronic Relaxation 1
   ENCUT  =  400.0 eV  29.40 Ry    5.42 a.u.   4.06  4.06  6.58*2*pi/ulx,y,z
   ENINI  =  400.0     initial cutoff
   ENAUG  =  477.8 eV  augmentation charge cutoff
   NELM   =    100;   NELMIN=  2; NELMDL= -5     # of ELM steps 
   EDIFF  = 0.1E-05   stopping-criterion for ELM
   LREAL  =      F    real-space projection
   NLSPLINE    = F    spline interpolate recip. space projectors
   LCOMPAT=      F    compatible to vasp.4.4
   GGA_COMPAT  = T    GGA compatible to vasp.4.4-vasp.4.6
   LMAXPAW     = -100 max onsite density
   LMAXMIX     =    2 max onsite mixed and CHGCAR
   VOSKOWN=      0    Vosko Wilk Nusair interpolation
   ROPT   =    0.00000
 Ionic relaxation
   EDIFFG = -.2E-01   stopping-criterion for IOM
   NSW    =    100    number of steps for IOM
   NBLOCK =      1;   KBLOCK =    100    inner block; outer block 
   IBRION =      2    ionic relax: 0-MD 1-quasi-New 2-CG
   NFREE  =      1    steps in history (QN), initial steepest desc. (CG)
   ISIF   =      2    stress and relaxation
   IWAVPR =     11    prediction:  0-non 1-charg 2-wave 3-comb
   ISYM   =      1    0-nonsym 1-usesym 2-fastsym
   LCORR  =      T    Harris-Foulkes like correction to forces

   POTIM  = 0.5000    time-step for ionic-motion
   TEIN   =    0.0    initial temperature
   TEBEG  =    0.0;   TEEND  =   0.0 temperature during run
   SMASS  =  -3.00    Nose mass-parameter (am)
   estimated Nose-frequenzy (Omega)   =  0.10E-29 period in steps = 0.13E+47 mass=  -0.142E-27a.u.
   SCALEE = 1.0000    scale energy and forces
   NPACO  =    256;   APACO  = 10.0  distance and # of slots for P.C.
   PSTRESS=    0.0 pullay stress

  Mass of Ions in am
   POMASS =  58.93
  Ionic Valenz
   ZVAL   =   9.00
  Atomic Wigner-Seitz radii
   RWIGS  =  -1.00
  virtual crystal weights 
   VCA    =   1.00
   NELECT =      18.0000    total number of electrons
   NUPDOWN=      -1.0000    fix difference up-down

 DOS related values:
   EMIN   =  10.00;   EMAX   =-10.00  energy-range for DOS
   EFERMI =   0.00
   ISMEAR =     0;   SIGMA  =   0.05  broadening in eV -4-tet -1-fermi 0-gaus

 Electronic relaxation 2 (details)
   IALGO  =     38    algorithm
   LDIAG  =      T    sub-space diagonalisation (order eigenvalues)
   LSUBROT=      F    optimize rotation matrix (better conditioning)
   TURBO    =      0    0=normal 1=particle mesh
   IRESTART =      0    0=no restart 2=restart with 2 vectors
   NREBOOT  =      0    no. of reboots
   NMIN     =      0    reboot dimension
   EREF     =   0.00    reference energy to select bands
   IMIX   =      4    mixing-type and parameters
     AMIX     =   0.40;   BMIX     =  1.00
     AMIX_MAG =   1.60;   BMIX_MAG =  1.00
     AMIN     =   0.10
     WC   =   100.;   INIMIX=   1;  MIXPRE=   1;  MAXMIX= -45

 Intra band minimization:
   WEIMIN = 0.0010     energy-eigenvalue tresh-hold
   EBREAK =  0.16E-07  absolut break condition
   DEPER  =   0.30     relativ break condition  

   TIME   =   0.40     timestep for ELM

  volume/ion in A,a.u.               =      10.85        73.21
  Fermi-wavevector in a.u.,A,eV,Ry     =   1.538287  2.906940 32.195812  2.366325
  Thomas-Fermi vector in A             =   2.644676
 
 Write flags
   LWAVE        =      T    write WAVECAR
   LDOWNSAMPLE  =      F    k-point downsampling of WAVECAR
   LCHARG       =      T    write CHGCAR
   LVTOT        =      F    write LOCPOT, total local potential
   LVHAR        =      F    write LOCPOT, Hartree potential only
   LELF         =      F    write electronic localiz. function (ELF)
   LORBIT       =     11    0 simple, 1 ext, 2 COOP (PROOUT), +10 PAW based schemes


 Dipole corrections
   LMONO  =      F    monopole corrections only (constant potential shift)
   LDIPOL =      F    correct potential (dipole corrections)
   IDIPOL =      0    1-x, 2-y, 3-z, 4-all directions 
   EPSILON=  1.0000000 bulk dielectric constant

 Exchange correlation treatment:
   GGA     =    --    GGA type
   LEXCH   =     8    internal setting for exchange type
   LIBXC   =     F    Libxc                    
   VOSKOWN =     0    Vosko Wilk Nusair interpolation
   LHFCALC =     F    Hartree Fock is set to
   LHFONE  =     F    Hartree Fock one center treatment
   AEXX    =    0.0000 exact exchange contribution

 Linear response parameters
   LEPSILON=     F    determine dielectric tensor
   LRPA    =     F    only Hartree local field effects (RPA)
   LNABLA  =     F    use nabla operator in PAW spheres
   LVEL    =     F    velocity operator in full k-point grid
   CSHIFT  =0.1000    complex shift for real part using Kramers Kronig
   OMEGAMAX=  -1.0    maximum frequency
   DEG_THRESHOLD= 0.2000000E-02 threshold for treating states as degnerate
   RTIME   =   -0.100 relaxation time in fs
  (WPLASMAI=    0.000 imaginary part of plasma frequency in eV, 0.658/RTIME)
   DFIELD  = 0.0000000 0.0000000 0.0000000 field for delta impulse in time
 
  Optional k-point grid parameters
   LKPOINTS_OPT  =     F    use optional k-point grid
   KPOINTS_OPT_MODE=     1    mode for optional k-point grid
 
 Orbital magnetization related:
   ORBITALMAG=     F  switch on orbital magnetization
   LCHIMAG   =     F  perturbation theory with respect to B field
   DQ        =  0.001000  dq finite difference perturbation B field
   LLRAUG    =     F  two centre corrections for induced B field



--------------------------------------------------------------------------------------------------------


 conjugate gradient relaxation of ions
 charge density and potential will be updated during run
 spin polarized calculation
 Variant of blocked Davidson
 Davidson routine will perform the subspace rotation
 perform sub-space diagonalisation
    after iterative eigenvector-optimisation
 modified Broyden-mixing scheme, WC =      100.0
 initial mixing is a Kerker type mixing with AMIX =  0.4000 and BMIX =      1.0000
 Hartree-type preconditioning will be used
 using additional bands            7
 reciprocal scheme for non local part
 use partial core corrections
 calculate Harris-corrections to forces 
   (improved forces if not selfconsistent)
 use gradient corrections 
 use of overlap-Matrix (Vanderbilt PP)
 Gauss-broadening in eV      SIGMA  =   0.05


--------------------------------------------------------------------------------------------------------


  energy-cutoff  :      400.00
  volume of cell :       21.70
      direct lattice vectors                 reciprocal lattice vectors
     2.492464747  0.000000000  0.000000000     0.401209285  0.231638289  0.000000000
    -1.246232374  2.158537789  0.000000000     0.000000000  0.463276578  0.000000000
     0.000000000  0.000000000  4.032706520     0.000000000  0.000000000  0.247972421

  length of vectors
     2.492464747  2.492464747  4.032706520     0.463276578  0.463276578  0.247972421


 
 k-points in units of 2pi/SCALE and weight: Automatic mesh                          
   0.00000000  0.00000000  0.00000000       0.001
   0.04012093  0.02316383  0.00000000       0.007
   0.08024186  0.04632766  0.00000000       0.007
   0.12036279  0.06949149  0.00000000       0.007
   0.16048371  0.09265532  0.00000000       0.007
   0.20060464  0.11581914  0.00000000       0.004
   0.04012093  0.06949149  0.00000000       0.007
   0.08024186  0.09265532  0.00000000       0.015
   0.12036279  0.11581914  0.00000000       0.015
   0.16048371  0.13898297  0.00000000       0.015
   0.08024186  0.13898297  0.00000000       0.007
   0.12036279  0.16214680  0.00000000       0.015
   0.16048371  0.18531063  0.00000000       0.007
   0.12036279  0.20847446  0.00000000       0.007
   0.00000000  0.00000000  0.03099655       0.003
   0.04012093  0.02316383  0.03099655       0.015
   0.08024186  0.04632766  0.03099655       0.015
   0.12036279  0.06949149  0.03099655       0.015
   0.16048371  0.09265532  0.03099655       0.015
   0.20060464  0.11581914  0.03099655       0.007
   0.04012093  0.06949149  0.03099655       0.015
   0.08024186  0.09265532  0.03099655       0.030
   0.12036279  0.11581914  0.03099655       0.030
   0.16048371  0.13898297  0.03099655       0.030
   0.08024186  0.13898297  0.03099655       0.015
   0.12036279  0.16214680  0.03099655       0.030
   0.16048371  0.18531063  0.03099655       0.015
   0.12036279  0.20847446  0.03099655       0.015
   0.00000000  0.00000000  0.06199311       0.003
   0.04012093  0.02316383  0.06199311       0.015
   0.08024186  0.04632766  0.06199311       0.015
   0.12036279  0.06949149  0.06199311       0.015
   0.16048371  0.09265532  0.06199311       0.015
   0.20060464  0.11581914  0.06199311       0.007
   0.04012093  0.06949149  0.06199311       0.015
   0.08024186  0.09265532  0.06199311       0.030
   0.12036279  0.11581914  0.06199311       0.030
   0.16048371  0.13898297  0.06199311       0.030
   0.08024186  0.13898297  0.06199311       0.015
   0.12036279  0.16214680  0.06199311       0.030
   0.16048371  0.18531063  0.06199311       0.015
   0.12036279  0.20847446  0.06199311       0.015
   0.00000000  0.00000000  0.09298966       0.003
   0.04012093  0.02316383  0.09298966       0.015
   0.08024186  0.04632766  0.09298966       0.015
   0.12036279  0.06949149  0.09298966       0.015
   0.16048371  0.09265532  0.09298966       0.015
   0.20060464  0.11581914  0.09298966       0.007
   0.04012093  0.06949149  0.09298966       0.015
   0.08024186  0.09265532  0.09298966       0.030
   0.12036279  0.11581914  0.09298966       0.030
   0.16048371  0.13898297  0.09298966       0.030
   0.08024186  0.13898297  0.09298966       0.015
   0.12036279  0.16214680  0.09298966       0.030
   0.16048371  0.18531063  0.09298966       0.015
   0.12036279  0.20847446  0.09298966       0.015
   0.00000000  0.00000000  0.12398621       0.001
   0.04012093  0.02316383  0.12398621       0.007
   0.08024186  0.04632766  0.12398621       0.007
   0.12036279  0.06949149  0.12398621       0.007
   0.16048371  0.09265532  0.12398621       0.007
   0.20060464  0.11581914  0.12398621       0.004
   0.04012093  0.06949149  0.12398621       0.007
   0.08024186  0.09265532  0.12398621       0.015
   0.12036279  0.11581914  0.12398621       0.015
   0.16048371  0.13898297  0.12398621       0.015
   0.08024186  0.13898297  0.12398621       0.007
   0.12036279  0.16214680  0.12398621       0.015
   0.16048371  0.18531063  0.12398621       0.007
   0.12036279  0.20847446  0.12398621       0.007
 
 k-points in reciprocal lattice and weights: Automatic mesh                          
   0.00000000  0.00000000  0.00000000       0.001
   0.10000000 -0.00000000  0.00000000       0.007
   0.20000000 -0.00000000  0.00000000       0.007
   0.30000000  0.00000000  0.00000000       0.007
   0.40000000 -0.00000000  0.00000000       0.007
   0.50000000 -0.00000000  0.00000000       0.004
   0.10000000  0.10000000  0.00000000       0.007
   0.20000000  0.10000000  0.00000000       0.015
   0.30000000  0.10000000  0.00000000       0.015
   0.40000000  0.10000000  0.00000000       0.015
   0.20000000  0.20000000  0.00000000       0.007
   0.30000000  0.20000000  0.00000000       0.015
   0.40000000  0.20000000  0.00000000       0.007
   0.30000000  0.30000000  0.00000000       0.007
   0.00000000  0.00000000  0.12500000       0.003
   0.10000000 -0.00000000  0.12500000       0.015
   0.20000000 -0.00000000  0.12500000       0.015
   0.30000000  0.00000000  0.12500000       0.015
   0.40000000 -0.00000000  0.12500000       0.015
   0.50000000 -0.00000000  0.12500000       0.007
   0.10000000  0.10000000  0.12500000       0.015
   0.20000000  0.10000000  0.12500000       0.030
   0.30000000  0.10000000  0.12500000       0.030
   0.40000000  0.10000000  0.12500000       0.030
   0.20000000  0.20000000  0.12500000       0.015
   0.30000000  0.20000000  0.12500000       0.030
   0.40000000  0.20000000  0.12500000       0.015
   0.30000000  0.30000000  0.12500000       0.015
   0.00000000  0.00000000  0.25000000       0.003
   0.10000000 -0.00000000  0.25000000       0.015
   0.20000000 -0.00000000  0.25000000       0.015
   0.30000000  0.00000000  0.25000000       0.015
   0.40000000 -0.00000000  0.25000000       0.015
   0.50000000 -0.00000000  0.25000000       0.007
   0.10000000  0.10000000  0.25000000       0.015
   0.20000000  0.10000000  0.25000000       0.030
   0.30000000  0.10000000  0.25000000       0.030
   0.40000000  0.10000000  0.25000000       0.030
   0.20000000  0.20000000  0.25000000       0.015
   0.30000000  0.20000000  0.25000000       0.030
   0.40000000  0.20000000  0.25000000       0.015
   0.30000000  0.30000000  0.25000000       0.015
   0.00000000  0.00000000  0.37500000       0.003
   0.10000000 -0.00000000  0.37500000       0.015
   0.20000000 -0.00000000  0.37500000       0.015
   0.30000000  0.00000000  0.37500000       0.015
   0.40000000 -0.00000000  0.37500000       0.015
   0.50000000 -0.00000000  0.37500000       0.007
   0.10000000  0.10000000  0.37500000       0.015
   0.20000000  0.10000000  0.37500000       0.030
   0.30000000  0.10000000  0.37500000       0.030
   0.40000000  0.10000000  0.37500000       0.030
   0.20000000  0.20000000  0.37500000       0.015
   0.30000000  0.20000000  0.37500000       0.030
   0.40000000  0.20000000  0.37500000       0.015
   0.30000000  0.30000000  0.37500000       0.015
   0.00000000  0.00000000  0.50000000       0.001
   0.10000000 -0.00000000  0.50000000       0.007
   0.20000000 -0.00000000  0.50000000       0.007
   0.30000000  0.00000000  0.50000000       0.007
   0.40000000 -0.00000000  0.50000000       0.007
   0.50000000 -0.00000000  0.50000000       0.004
   0.10000000  0.10000000  0.50000000       0.007
   0.20000000  0.10000000  0.50000000       0.015
   0.30000000  0.10000000  0.50000000       0.015
   0.40000000  0.10000000  0.50000000       0.015
   0.20000000  0.20000000  0.50000000       0.007
   0.30000000  0.20000000  0.50000000       0.015
   0.40000000  0.20000000  0.50000000       0.007
   0.30000000  0.30000000  0.50000000       0.007
 
 position of ions in fractional coordinates (direct lattice) 
   0.00000000  0.00000000  0.00000000
   0.33333333  0.66666667  0.50000000
 
 position of ions in cartesian coordinates  (Angst):
   0.00000000  0.00000000  0.00000000
   0.00000000  1.43902519  2.01635326
 


--------------------------------------------------------------------------------------------------------


 k-point   1 :   0.0000 0.0000 0.0000  plane waves:     391
 k-point   2 :   0.1000-0.0000 0.0000  plane waves:     387
 k-point   3 :   0.2000-0.0000 0.0000  plane waves:     391
 k-point   4 :   0.3000 0.0000 0.0000  plane waves:     391
 k-point   5 :   0.4000-0.0000 0.0000  plane waves:     403
 k-point   6 :   0.5000-0.0000 0.0000  plane waves:     404
 k-point   7 :   0.1000 0.1000 0.0000  plane waves:     384
 k-point   8 :   0.2000 0.1000 0.0000  plane waves:     393
 k-point   9 :   0.3000 0.1000 0.0000  plane waves:     399
 k-point  10 :   0.4000 0.1000 0.0000  plane waves:     401
 k-point  11 :   0.2000 0.2000 0.0000  plane waves:     396
 k-point  12 :   0.3000 0.2000 0.0000  plane waves:     401
 k-point  13 :   0.4000 0.2000 0.0000  plane waves:     394
 k-point  14 :   0.3000 0.3000 0.0000  plane waves:     394
 k-point  15 :   0.0000 0.0000 0.1250  plane waves:     391
 k-point  16 :   0.1000-0.0000 0.1250  plane waves:     386
 k-point  17 :   0.2000-0.0000 0.1250  plane waves:     392
 k-point  18 :   0.3000 0.0000 0.1250  plane waves:     393
 k-point  19 :   0.4000-0.0000 0.1250  plane waves:     396
 k-point  20 :   0.5000-0.0000 0.1250  plane waves:     398
 k-point  21 :   0.1000 0.1000 0.1250  plane waves:     389
 k-point  22 :   0.2000 0.1000 0.1250  plane waves:     391
 k-point  23 :   0.3000 0.1000 0.1250  plane waves:     398
 k-point  24 :   0.4000 0.1000 0.1250  plane waves:     398
 k-point  25 :   0.2000 0.2000 0.1250  plane waves:     396
 k-point  26 :   0.3000 0.2000 0.1250  plane waves:     396
 k-point  27 :   0.4000 0.2000 0.1250  plane waves:     399
 k-point  28 :   0.3000 0.3000 0.1250  plane waves:     401
 k-point  29 :   0.0000 0.0000 0.2500  plane waves:     385
 k-point  30 :   0.1000-0.0000 0.2500  plane waves:     383
 k-point  31 :   0.2000-0.0000 0.2500  plane waves:     386
 k-point  32 :   0.3000 0.0000 0.2500  plane waves:     393
 k-point  33 :   0.4000-0.0000 0.2500  plane waves:     396
 k-point  34 :   0.5000-0.0000 0.2500  plane waves:     394
 k-point  35 :   0.1000 0.1000 0.2500  plane waves:     389
 k-point  36 :   0.2000 0.1000 0.2500  plane waves:     392
 k-point  37 :   0.3000 0.1000 0.2500  plane waves:     397
 k-point  38 :   0.4000 0.1000 0.2500  plane waves:     399
 k-point  39 :   0.2000 0.2000 0.2500  plane waves:     400
 k-point  40 :   0.3000 0.2000 0.2500  plane waves:     398
 k-point  41 :   0.4000 0.2000 0.2500  plane waves:     398
 k-point  42 :   0.3000 0.3000 0.2500  plane waves:     396
 k-point  43 :   0.0000 0.0000 0.3750  plane waves:     373
 k-point  44 :   0.1000-0.0000 0.3750  plane waves:     374
 k-point  45 :   0.2000-0.0000 0.3750  plane waves:     390
 k-point  46 :   0.3000 0.0000 0.3750  plane waves:     398
 k-point  47 :   0.4000-0.0000 0.3750  plane waves:     395
 k-point  48 :   0.5000-0.0000 0.3750  plane waves:     400
 k-point  49 :   0.1000 0.1000 0.3750  plane waves:     388
 k-point  50 :   0.2000 0.1000 0.3750  plane waves:     396
 k-point  51 :   0.3000 0.1000 0.3750  plane waves:     396
 k-point  52 :   0.4000 0.1000 0.3750  plane waves:     394
 k-point  53 :   0.2000 0.2000 0.3750  plane waves:     393
 k-point  54 :   0.3000 0.2000 0.3750  plane waves:     399
 k-point  55 :   0.4000 0.2000 0.3750  plane waves:     395
 k-point  56 :   0.3000 0.3000 0.3750  plane waves:     390
 k-point  57 :   0.0000 0.0000 0.5000  plane waves:     362
 k-point  58 :   0.1000-0.0000 0.5000  plane waves:     378
 k-point  59 :   0.2000-0.0000 0.5000  plane waves:     394
 k-point  60 :   0.3000 0.0000 0.5000  plane waves:     396
 k-point  61 :   0.4000-0.0000 0.5000  plane waves:     396
 k-point  62 :   0.5000-0.0000 0.5000  plane waves:     396
 k-point  63 :   0.1000 0.1000 0.5000  plane waves:     386
 k-point  64 :   0.2000 0.1000 0.5000  plane waves:     398
 k-point  65 :   0.3000 0.1000 0.5000  plane waves:     394
 k-point  66 :   0.4000 0.1000 0.5000  plane waves:     400
 k-point  67 :   0.2000 0.2000 0.5000  plane waves:     390
 k-point  68 :   0.3000 0.2000 0.5000  plane waves:     390
 k-point  69 :   0.4000 0.2000 0.5000  plane waves:     402
 k-point  70 :   0.3000 0.3000 0.5000  plane waves:     396

 maximum and minimum number of plane-waves per node :        73       53

 maximum number of plane-waves:       404
 maximum index in each direction: 
   IXMAX=    4   IYMAX=    4   IZMAX=    6
   IXMIN=   -4   IYMIN=   -4   IZMIN=   -7


 parallel 3D FFT for wavefunctions:
    minimum data exchange during FFTs selected (reduces bandwidth)
 parallel 3D FFT for charge:
    minimum data exchange during FFTs selected (reduces bandwidth)


 total amount of memory used by VASP MPI-rank0    32110. kBytes
=======================================================================

   base      :      30000. kBytes
   nonl-proj :        728. kBytes
   fftplans  :        153. kBytes
   grid      :        374. kBytes
   one-center:         31. kBytes
   wavefun   :        824. kBytes
 
     INWAV:  cpu time      0.0000: real time      0.0001
 Broyden mixing: mesh for mixing (old mesh)
   NGX =  9   NGY =  9   NGZ = 13
  (NGX  = 32   NGY  = 32   NGZ  = 56)
  gives a total of   1053 points

 initial charge density was supplied:
 charge density of overlapping atoms calculated
 number of electron      18.0000000 magnetization       6.0000000
 keeping initial charge density in first step


--------------------------------------------------------------------------------------------------------


 Maximum index for augmentation-charges         1058 (set IRDMAX)


--------------------------------------------------------------------------------------------------------


 First call to EWALD:  gamma=   0.635
 Maximum number of real-space cells 3x 3x 2
 Maximum number of reciprocal cells 3x 3x 4

    FEWALD:  cpu time      0.0015: real time      0.0015


--------------------------------------- Iteration      1(   1)  ---------------------------------------


    POTLOK:  cpu time      0.0063: real time      0.0064
    SETDIJ:  cpu time      0.0054: real time      0.0055
     EDDAV:  cpu time      0.4168: real time      0.4192
       DOS:  cpu time      0.0018: real time      0.0018
    --------------------------------------------
      LOOP:  cpu time      0.4303: real time      0.4328

 eigenvalue-minimisations  :  4616
 total energy-change (2. order) : 0.6983361E+02  (-0.6744474E+03)
 number of electron      18.0000000 magnetization       6.0000000
 augmentation part       18.0000000 magnetization       6.0000000

 Free energy of the ion-electron system (eV)
  ---------------------------------------------------
  alpha Z        PSCENC =        78.09207632
  Ewald energy   TEWEN  =     -1521.73170024
  -Hartree energ DENC   =      -299.98943667
  -exchange      EXHF   =         0.00000000
  -V(xc)+E(xc)   XCENC  =        35.63008544
  PAW double counting   =      1439.98163886    -1545.88690193
  entropy T*S    EENTRO =        -0.00282988
  eigenvalues    EBANDS =       257.02521014
  atomic energy  EATOM  =      1626.71546820
  Solvation  Ediel_sol  =         0.00000000
  ---------------------------------------------------
  free energy    TOTEN  =        69.83361025 eV

  energy without entropy =       69.83644013  energy(sigma->0) =       69.83502519


--------------------------------------------------------------------------------------------------------




--------------------------------------- Iteration      1(   2)  ---------------------------------------


     EDDAV:  cpu time      0.3934: real time      0.3959
       DOS:  cpu time      0.0014: real time      0.0014
    --------------------------------------------
      LOOP:  cpu time      0.3948: real time      0.3974

 eigenvalue-minimisations  :  4504
 total energy-change (2. order) :-0.8343078E+02  (-0.7704235E+02)
 number of electron      18.0000000 magnetization       6.0000000
 augmentation part       18.0000000 magnetization       6.0000000

 Free energy of the ion-electron system (eV)
  ---------------------------------------------------
  alpha Z        PSCENC =        78.09207632
  Ewald energy   TEWEN  =     -1521.73170024
  -Hartree energ DENC   =      -299.98943667
  -exchange      EXHF   =         0.00000000
  -V(xc)+E(xc)   XCENC  =        35.63008544
  PAW double counting   =      1439.98163886    -1545.88690193
  entropy T*S    EENTRO =        -0.00268324
  eigenvalues    EBANDS =       173.59428317
  atomic energy  EATOM  =      1626.71546820
  Solvation  Ediel_sol  =         0.00000000
  ---------------------------------------------------
  free energy    TOTEN  =       -13.59717008 eV

  energy without entropy =      -13.59448684  energy(sigma->0) =      -13.59582846


--------------------------------------------------------------------------------------------------------




--------------------------------------- Iteration      1(   3)  ---------------------------------------


     EDDAV:  cpu time      0.4734: real time      0.4759
       DOS:  cpu time      0.0013: real time      0.0013
    --------------------------------------------
      LOOP:  cpu time      0.4747: real time      0.4772

 eigenvalue-minimisations  :  5616
 total energy-change (2. order) :-0.2014539E+01  (-0.1983756E+01)
 number of electron      18.0000000 magnetization       6.0000000
 augmentation part       18.0000000 magnetization       6.0000000

 Free energy of the ion-electron system (eV)
  ---------------------------------------------------
  alpha Z        PSCENC =        78.09207632
  Ewald energy   TEWEN  =     -1521.73170024
  -Hartree energ DENC   =      -299.98943667
  -exchange      EXHF   =         0.00000000
  -V(xc)+E(xc)   XCENC  =        35.63008544
  PAW double counting   =      1439.98163886    -1545.88690193
  entropy T*S    EENTRO =        -0.00244603
  eigenvalues    EBANDS =       171.57950696
  atomic energy  EATOM  =      1626.71546820
  Solvation  Ediel_sol  =         0.00000000
  ---------------------------------------------------
  free energy    TOTEN  =       -15.61170908 eV

  energy without entropy =      -15.60926305  energy(sigma->0) =      -15.61048607


--------------------------------------------------------------------------------------------------------




--------------------------------------- Iteration      1(   4)  ---------------------------------------


     EDDAV:  cpu time      0.5370: real time      0.5399
       DOS:  cpu time      0.0014: real time      0.0014
    --------------------------------------------
      LOOP:  cpu time      0.5384: real time      0.5412

 eigenvalue-minimisations  :  6368
 total energy-change (2. order) :-0.3633172E-01  (-0.3632357E-01)
 number of electron      18.0000000 magnetization       6.0000000
 augmentation part       18.0000000 magnetization       6.0000000

 Free energy of the ion-electron system (eV)
  ---------------------------------------------------
  alpha Z        PSCENC =        78.09207632
  Ewald energy   TEWEN  =     -1521.73170024
  -Hartree energ DENC   =      -299.98943667
  -exchange      EXHF   =         0.00000000
  -V(xc)+E(xc)   XCENC  =        35.63008544
  PAW double counting   =      1439.98163886    -1545.88690193
  entropy T*S    EENTRO =        -0.00242872
  eigenvalues    EBANDS =       171.54315792
  atomic energy  EATOM  =      1626.71546820
  Solvation  Ediel_sol  =         0.00000000
  ---------------------------------------------------
  free energy    TOTEN  =       -15.64804080 eV

  energy without entropy =      -15.64561209  energy(sigma->0) =      -15.64682644


--------------------------------------------------------------------------------------------------------




--------------------------------------- Iteration      1(   5)  ---------------------------------------


     EDDAV:  cpu time      0.4862: real time      0.4888
       DOS:  cpu time      0.0014: real time      0.0014
    CHARGE:  cpu time      0.0200: real time      0.0201
    MIXING:  cpu time      0.0003: real time      0.0003
    --------------------------------------------
      LOOP:  cpu time      0.5078: real time      0.5105

 eigenvalue-minimisations  :  5792
 total energy-change (2. order) :-0.2241761E-03  (-0.2241760E-03)
 number of electron      18.0000001 magnetization       3.4370699
 augmentation part        9.1597451 magnetization       2.6806712

 Broyden mixing:
  rms(total) = 0.16139E+01    rms(broyden)= 0.16139E+01
  rms(prec ) = 0.27013E+01
  weight for this iteration     100.00

 Free energy of the ion-electron system (eV)
  ---------------------------------------------------
  alpha Z        PSCENC =        78.09207632
  Ewald energy   TEWEN  =     -1521.73170024
  -Hartree energ DENC   =      -299.98943667
  -exchange      EXHF   =         0.00000000
  -V(xc)+E(xc)   XCENC  =        35.63008544
  PAW double counting   =      1439.98163886    -1545.88690193
  entropy T*S    EENTRO =        -0.00242879
  eigenvalues    EBANDS =       171.54293382
  atomic energy  EATOM  =      1626.71546820
  Solvation  Ediel_sol  =         0.00000000
  ---------------------------------------------------
  free energy    TOTEN  =       -15.64826498 eV

  energy without entropy =      -15.64583618  energy(sigma->0) =      -15.64705058


--------------------------------------------------------------------------------------------------------




--------------------------------------- Iteration      1(   6)  ---------------------------------------


    POTLOK:  cpu time      0.0044: real time      0.0046
    SETDIJ:  cpu time      0.0052: real time      0.0052
     EDDAV:  cpu time      0.4115: real time      0.4136
       DOS:  cpu time      0.0014: real time      0.0014
    CHARGE:  cpu time      0.0190: real time      0.0191
    MIXING:  cpu time      0.0003: real time      0.0003
    --------------------------------------------
      LOOP:  cpu time      0.4419: real time      0.4442

 eigenvalue-minimisations  :  4792
 total energy-change (2. order) : 0.1194286E+01  (-0.1100207E+01)
 number of electron      18.0000001 magnetization       3.2905791
 augmentation part       10.6983904 magnetization       2.8887186

 Broyden mixing:
  rms(total) = 0.65525E+00    rms(broyden)= 0.65521E+00
  rms(prec ) = 0.88815E+00
  weight for this iteration     100.00

 eigenvalues of (default mixing * dielectric matrix)
  average eigenvalue GAMMA=   0.8731
  0.8731

 Free energy of the ion-electron system (eV)
  ---------------------------------------------------
  alpha Z        PSCENC =        78.09207632
  Ewald energy   TEWEN  =     -1521.73170024
  -Hartree energ DENC   =      -262.79561415
  -exchange      EXHF   =         0.00000000
  -V(xc)+E(xc)   XCENC  =        32.59147164
  PAW double counting   =      1585.11061762    -1680.77547738
  entropy T*S    EENTRO =        -0.00237496
  eigenvalues    EBANDS =       128.34155434
  atomic energy  EATOM  =      1626.71546820
  Solvation  Ediel_sol  =         0.00000000
  ---------------------------------------------------
  free energy    TOTEN  =       -14.45397861 eV

  energy without entropy =      -14.45160364  energy(sigma->0) =      -14.45279113


--------------------------------------------------------------------------------------------------------




--------------------------------------- Iteration      1(   7)  ---------------------------------------


    POTLOK:  cpu time      0.0044: real time      0.0045
    SETDIJ:  cpu time      0.0051: real time      0.0051
     EDDAV:  cpu time      0.4324: real time      0.4346
       DOS:  cpu time      0.0014: real time      0.0014
    CHARGE:  cpu time      0.0184: real time      0.0184
    MIXING:  cpu time      0.0003: real time      0.0003
    --------------------------------------------
      LOOP:  cpu time      0.4619: real time      0.4644

 eigenvalue-minimisations  :  5120
 total energy-change (2. order) : 0.3432806E+00  (-0.1522752E+00)
 number of electron      18.0000001 magnetization       3.3123904
 augmentation part       10.1719679 magnetization       2.9423303

 Broyden mixing:
  rms(total) = 0.38142E+00    rms(broyden)= 0.38142E+00
  rms(prec ) = 0.45464E+00
  weight for this iteration     100.00

 eigenvalues of (default mixing * dielectric matrix)
  average eigenvalue GAMMA=   0.7424
  0.9943  0.4906

 Free energy of the ion-electron system (eV)
  ---------------------------------------------------
  alpha Z        PSCENC =        78.09207632
  Ewald energy   TEWEN  =     -1521.73170024
  -Hartree energ DENC   =      -270.85934602
  -exchange      EXHF   =         0.00000000
  -V(xc)+E(xc)   XCENC  =        33.11544859
  PAW double counting   =      1664.51959140    -1767.12279968
  entropy T*S    EENTRO =        -0.00245281
  eigenvalues    EBANDS =       143.16301618
  atomic energy  EATOM  =      1626.71546820
  Solvation  Ediel_sol  =         0.00000000
  ---------------------------------------------------
  free energy    TOTEN  =       -14.11069805 eV

  energy without entropy =      -14.10824524  energy(sigma->0) =      -14.10947164


--------------------------------------------------------------------------------------------------------




--------------------------------------- Iteration      1(   8)  ---------------------------------------


    POTLOK:  cpu time      0.0042: real time      0.0044
    SETDIJ:  cpu time      0.0048: real time      0.0048
     EDDAV:  cpu time      0.5191: real time      0.5218
       DOS:  cpu time      0.0014: real time      0.0014
    CHARGE:  cpu time      0.0191: real time      0.0192
    MIXING:  cpu time      0.0003: real time      0.0003
    --------------------------------------------
      LOOP:  cpu time      0.5490: real time      0.5518

 eigenvalue-minimisations  :  6240
 total energy-change (2. order) : 0.2116966E-01  (-0.2002783E-02)
 number of electron      18.0000001 magnetization       3.3366280
 augmentation part       10.2091575 magnetization       2.9926048

 Broyden mixing:
  rms(total) = 0.17120E+00    rms(broyden)= 0.17120E+00
  rms(prec ) = 0.22241E+00
  weight for this iteration     100.00

 eigenvalues of (default mixing * dielectric matrix)
  average eigenvalue GAMMA=   1.0419
  1.7790  0.7735  0.5732

 Free energy of the ion-electron system (eV)
  ---------------------------------------------------
  alpha Z        PSCENC =        78.09207632
  Ewald energy   TEWEN  =     -1521.73170024
  -Hartree energ DENC   =      -268.27267778
  -exchange      EXHF   =         0.00000000
  -V(xc)+E(xc)   XCENC  =        33.06091768
  PAW double counting   =      1719.15249552    -1822.96084652
  entropy T*S    EENTRO =        -0.00249228
  eigenvalues    EBANDS =       141.85723070
  atomic energy  EATOM  =      1626.71546820
  Solvation  Ediel_sol  =         0.00000000
  ---------------------------------------------------
  free energy    TOTEN  =       -14.08952839 eV

  energy without entropy =      -14.08703611  energy(sigma->0) =      -14.08828225


--------------------------------------------------------------------------------------------------------




--------------------------------------- Iteration      1(   9)  ---------------------------------------


    POTLOK:  cpu time      0.0045: real time      0.0046
    SETDIJ:  cpu time      0.0051: real time      0.0051
     EDDAV:  cpu time      0.5421: real time      0.5448
       DOS:  cpu time      0.0014: real time      0.0014
    CHARGE:  cpu time      0.0185: real time      0.0185
    MIXING:  cpu time      0.0003: real time      0.0003
    --------------------------------------------
      LOOP:  cpu time      0.5718: real time      0.5747

 eigenvalue-minimisations  :  6632
 total energy-change (2. order) : 0.1476517E-01  (-0.5618062E-03)
 number of electron      18.0000001 magnetization       3.3398945
 augmentation part       10.2476166 magnetization       3.0065438

 Broyden mixing:
  rms(total) = 0.46990E-01    rms(broyden)= 0.46989E-01
  rms(prec ) = 0.55196E-01
  weight for this iteration     100.00

 eigenvalues of (default mixing * dielectric matrix)
  average eigenvalue GAMMA=   1.1002
  2.1975  0.7971  0.7971  0.6090

 Free energy of the ion-electron system (eV)
  ---------------------------------------------------
  alpha Z        PSCENC =        78.09207632
  Ewald energy   TEWEN  =     -1521.73170024
  -Hartree energ DENC   =      -265.44275851
  -exchange      EXHF   =         0.00000000
  -V(xc)+E(xc)   XCENC  =        32.96872193
  PAW double counting   =      1781.35715407    -1886.68472656
  entropy T*S    EENTRO =        -0.00263677
  eigenvalues    EBANDS =       140.65363834
  atomic energy  EATOM  =      1626.71546820
  Solvation  Ediel_sol  =         0.00000000
  ---------------------------------------------------
  free energy    TOTEN  =       -14.07476322 eV

  energy without entropy =      -14.07212644  energy(sigma->0) =      -14.07344483


--------------------------------------------------------------------------------------------------------




--------------------------------------- Iteration      1(  10)  ---------------------------------------


    POTLOK:  cpu time      0.0042: real time      0.0044
    SETDIJ:  cpu time      0.0049: real time      0.0049
     EDDAV:  cpu time      0.5074: real time      0.5099
       DOS:  cpu time      0.0014: real time      0.0014
    CHARGE:  cpu time      0.0183: real time      0.0184
    MIXING:  cpu time      0.0003: real time      0.0003
    --------------------------------------------
      LOOP:  cpu time      0.5365: real time      0.5393

 eigenvalue-minimisations  :  6192
 total energy-change (2. order) : 0.6873915E-03  (-0.7977000E-04)
 number of electron      18.0000001 magnetization       3.3331816
 augmentation part       10.2509676 magnetization       2.9909713

 Broyden mixing:
  rms(total) = 0.79711E-02    rms(broyden)= 0.79708E-02
  rms(prec ) = 0.10582E-01
  weight for this iteration     100.00

 eigenvalues of (default mixing * dielectric matrix)
  average eigenvalue GAMMA=   1.1513
  2.3211  1.0596  1.0596  0.6582  0.6582

 Free energy of the ion-electron system (eV)
  ---------------------------------------------------
  alpha Z        PSCENC =        78.09207632
  Ewald energy   TEWEN  =     -1521.73170024
  -Hartree energ DENC   =      -264.70096408
  -exchange      EXHF   =         0.00000000
  -V(xc)+E(xc)   XCENC  =        32.91451647
  PAW double counting   =      1802.14909770    -1908.09605302
  entropy T*S    EENTRO =        -0.00261084
  eigenvalues    EBANDS =       140.58609365
  atomic energy  EATOM  =      1626.71546820
  Solvation  Ediel_sol  =         0.00000000
  ---------------------------------------------------
  free energy    TOTEN  =       -14.07407582 eV

  energy without entropy =      -14.07146499  energy(sigma->0) =      -14.07277041


--------------------------------------------------------------------------------------------------------




--------------------------------------- Iteration      1(  11)  ---------------------------------------


    POTLOK:  cpu time      0.0042: real time      0.0044
    SETDIJ:  cpu time      0.0048: real time      0.0048
     EDDAV:  cpu time      0.5427: real time      0.5454
       DOS:  cpu time      0.0014: real time      0.0014
    CHARGE:  cpu time      0.0186: real time      0.0187
    MIXING:  cpu time      0.0003: real time      0.0003
    --------------------------------------------
      LOOP:  cpu time      0.5721: real time      0.5750

 eigenvalue-minimisations  :  6648
 total energy-change (2. order) : 0.1637775E-04  (-0.7340078E-05)
 number of electron      18.0000001 magnetization       3.3336526
 augmentation part       10.2517762 magnetization       2.9886221

 Broyden mixing:
  rms(total) = 0.25276E-02    rms(broyden)= 0.25274E-02
  rms(prec ) = 0.39493E-02
  weight for this iteration     100.00

 eigenvalues of (default mixing * dielectric matrix)
  average eigenvalue GAMMA=   1.0773
  2.3283  1.0521  1.0521  0.6147  0.7084  0.7084

 Free energy of the ion-electron system (eV)
  ---------------------------------------------------
  alpha Z        PSCENC =        78.09207632
  Ewald energy   TEWEN  =     -1521.73170024
  -Hartree energ DENC   =      -264.58189650
  -exchange      EXHF   =         0.00000000
  -V(xc)+E(xc)   XCENC  =        32.89802303
  PAW double counting   =      1805.39801175    -1911.44085220
  entropy T*S    EENTRO =        -0.00257658
  eigenvalues    EBANDS =       140.57938677
  atomic energy  EATOM  =      1626.71546820
  Solvation  Ediel_sol  =         0.00000000
  ---------------------------------------------------
  free energy    TOTEN  =       -14.07405945 eV

  energy without entropy =      -14.07148287  energy(sigma->0) =      -14.07277116


--------------------------------------------------------------------------------------------------------




--------------------------------------- Iteration      1(  12)  ---------------------------------------


    POTLOK:  cpu time      0.0044: real time      0.0045
    SETDIJ:  cpu time      0.0050: real time      0.0050
     EDDAV:  cpu time      0.4148: real time      0.4169
       DOS:  cpu time      0.0014: real time      0.0014
    CHARGE:  cpu time      0.0187: real time      0.0187
    MIXING:  cpu time      0.0003: real time      0.0003
    --------------------------------------------
      LOOP:  cpu time      0.4446: real time      0.4470

 eigenvalue-minimisations  :  4848
 total energy-change (2. order) : 0.3542233E-05  (-0.6013440E-06)
 number of electron      18.0000001 magnetization       3.3339766
 augmentation part       10.2521265 magnetization       2.9889598

 Broyden mixing:
  rms(total) = 0.15244E-02    rms(broyden)= 0.15243E-02
  rms(prec ) = 0.23340E-02
  weight for this iteration     100.00

 eigenvalues of (default mixing * dielectric matrix)
  average eigenvalue GAMMA=   1.2071
  2.3263  2.0255  1.0488  1.0488  0.7125  0.6441  0.6441

 Free energy of the ion-electron system (eV)
  ---------------------------------------------------
  alpha Z        PSCENC =        78.09207632
  Ewald energy   TEWEN  =     -1521.73170024
  -Hartree energ DENC   =      -264.54827712
  -exchange      EXHF   =         0.00000000
  -V(xc)+E(xc)   XCENC  =        32.89710286
  PAW double counting   =      1806.24341034    -1912.30680511
  entropy T*S    EENTRO =        -0.00258118
  eigenvalues    EBANDS =       140.56725003
  atomic energy  EATOM  =      1626.71546820
  Solvation  Ediel_sol  =         0.00000000
  ---------------------------------------------------
  free energy    TOTEN  =       -14.07405591 eV

  energy without entropy =      -14.07147472  energy(sigma->0) =      -14.07276531


--------------------------------------------------------------------------------------------------------




--------------------------------------- Iteration      1(  13)  ---------------------------------------


    POTLOK:  cpu time      0.0044: real time      0.0045
    SETDIJ:  cpu time      0.0048: real time      0.0048
     EDDAV:  cpu time      0.3270: real time      0.3287
       DOS:  cpu time      0.0013: real time      0.0013
    --------------------------------------------
      LOOP:  cpu time      0.3375: real time      0.3394

 eigenvalue-minimisations  :  3264
 total energy-change (2. order) : 0.6057151E-06  (-0.1129387E-06)
 number of electron      18.0000001 magnetization       3.3339766
 augmentation part       10.2521265 magnetization       2.9889598

 Free energy of the ion-electron system (eV)
  ---------------------------------------------------
  alpha Z        PSCENC =        78.09207632
  Ewald energy   TEWEN  =     -1521.73170024
  -Hartree energ DENC   =      -264.50305953
  -exchange      EXHF   =         0.00000000
  -V(xc)+E(xc)   XCENC  =        32.89515721
  PAW double counting   =      1807.46291746    -1913.55289621
  entropy T*S    EENTRO =        -0.00258266
  eigenvalues    EBANDS =       140.55056414
  atomic energy  EATOM  =      1626.71546820
  Solvation  Ediel_sol  =         0.00000000
  ---------------------------------------------------
  free energy    TOTEN  =       -14.07405530 eV

  energy without entropy =      -14.07147263  energy(sigma->0) =      -14.07276397


--------------------------------------------------------------------------------------------------------




 average (electrostatic) potential at core
  the test charge radii are     1.0452
  (the norm of the test charge is              1.0000)
       1 -78.3019       2 -78.3019
 
 
 
 E-fermi :  10.2052     XC(G=0): -13.4072     alpha+bet :-17.7306

 Fermi energy:        10.2051786482

 spin component 1

 k-point     1 :       0.0000    0.0000    0.0000
  band No.  band energies     occupation 
      1       1.3403      1.00000
      2       5.1033      1.00000
      3       7.6092      1.00000
      4       7.6299      1.00000
      5       7.6299      1.00000
      6       7.9401      1.00000
      7       7.9401      1.00000
      8       8.2927      1.00000
      9       8.2927      1.00000
     10       9.3879      1.00000
     11       9.3879      1.00000
     12      10.1718      0.82728
     13      16.5788      0.00000
     14      32.2386      0.00000
     15      34.7942      0.00000
     16      34.7942      0.00000

 k-point     2 :       0.1000   -0.0000    0.0000
  band No.  band energies     occupation 
      1       1.6893      1.00000
      2       5.3081      1.00000
      3       7.3440      1.00000
      4       7.7916      1.00000
      5       7.8201      1.00000
      6       7.9020      1.00000
      7       8.0454      1.00000
      8       8.0831      1.00000
      9       8.1937      1.00000
     10       8.5098      1.00000
     11       9.4291      1.00000
     12      11.5363      0.00000
     13      16.6421      0.00000
     14      29.6348      0.00000
     15      32.1754      0.00000
     16      32.4957      0.00000

 k-point     3 :       0.2000   -0.0000    0.0000
  band No.  band energies     occupation 
      1       2.6786      1.00000
      2       5.7516      1.00000
      3       7.0357      1.00000
      4       7.1335      1.00000
      5       7.6695      1.00000
      6       7.9659      1.00000
      7       8.1752      1.00000
      8       8.2342      1.00000
      9       8.2567      1.00000
     10       8.4702      1.00000
     11       9.5070      1.00000
     12      13.5204      0.00000
     13      16.8730      0.00000
     14      25.0187      0.00000
     15      29.4057      0.00000
     16      31.3632      0.00000

 k-point     4 :       0.3000    0.0000    0.0000
  band No.  band energies     occupation 
      1       4.0603      1.00000
      2       5.8762      1.00000
      3       6.3806      1.00000
      4       7.0110      1.00000
      5       7.6828      1.00000
      6       7.7217      1.00000
      7       7.9474      1.00000
      8       8.8240      1.00000
      9       8.9080      1.00000
     10       8.9855      1.00000
     11       9.5683      1.00000
     12      15.7774      0.00000
     13      17.2321      0.00000
     14      20.8998      0.00000
     15      27.1579      0.00000
     16      28.3979      0.00000

 k-point     5 :       0.4000   -0.0000    0.0000
  band No.  band energies     occupation 
      1       5.1460      1.00000
      2       5.6625      1.00000
      3       5.9263      1.00000
      4       7.3828      1.00000
      5       7.5427      1.00000
      6       7.7757      1.00000
      7       7.9294      1.00000
      8       9.3243      1.00000
      9       9.4576      1.00000
     10       9.6010      1.00000
     11      10.0825      0.99974
     12      15.7832      0.00000
     13      18.2056      0.00000
     14      19.6890      0.00000
     15      25.0142      0.00000
     16      25.6421      0.00000

 k-point     6 :       0.5000   -0.0000    0.0000
  band No.  band energies     occupation 
      1       5.4778      1.00000
      2       5.5035      1.00000
      3       5.7756      1.00000
      4       7.4777      1.00000
      5       7.7115      1.00000
      6       7.7224      1.00000
      7       8.0388      1.00000
      8       9.5137      1.00000
      9       9.6106      1.00000
     10       9.6623      1.00000
     11      11.5340      0.00000
     12      13.5487      0.00000
     13      19.9306      0.00000
     14      20.5780      0.00000
     15      22.9760      0.00000
     16      24.1959      0.00000

 k-point     7 :       0.1000    0.1000    0.0000
  band No.  band energies     occupation 
      1       2.3613      1.00000
      2       5.6507      1.00000
      3       7.0722      1.00000
      4       7.4128      1.00000
      5       7.7441      1.00000
      6       7.9247      1.00000
      7       8.0362      1.00000
      8       8.1211      1.00000
      9       8.3272      1.00000
     10       8.4066      1.00000
     11       9.4710      1.00000
     12      12.9634      0.00000
     13      16.7954      0.00000
     14      27.1863      0.00000
     15      27.8199      0.00000
     16      34.0930      0.00000

 k-point     8 :       0.2000    0.1000    0.0000
  band No.  band energies     occupation 
      1       3.5771      1.00000
      2       6.0179      1.00000
      3       6.6572      1.00000
      4       6.7972      1.00000
      5       7.6568      1.00000
      6       7.6613      1.00000
      7       8.1386      1.00000
      8       8.3740      1.00000
      9       8.6860      1.00000
     10       8.9991      1.00000
     11       9.5142      1.00000
     12      14.9698      0.00000
     13      17.1816      0.00000
     14      22.9625      0.00000
     15      25.5677      0.00000
     16      30.4111      0.00000

 k-point     9 :       0.3000    0.1000    0.0000
  band No.  band energies     occupation 
      1       4.9052      1.00000
      2       5.9046      1.00000
      3       6.1178      1.00000
      4       6.9399      1.00000
      5       7.4895      1.00000
      6       7.8217      1.00000
      7       7.8958      1.00000
      8       8.9118      1.00000
      9       9.2403      1.00000
     10       9.5439      1.00000
     11       9.8579      1.00000
     12      17.2252      0.00000
     13      17.2909      0.00000
     14      19.7562      0.00000
     15      24.0001      0.00000
     16      26.8140      0.00000

 k-point    10 :       0.4000    0.1000    0.0000
  band No.  band energies     occupation 
      1       5.5484      1.00000
      2       5.6997      1.00000
      3       5.8453      1.00000
      4       7.3828      1.00000
      5       7.4312      1.00000
      6       7.7071      1.00000
      7       8.0329      1.00000
      8       9.4144      1.00000
      9       9.5326      1.00000
     10       9.5567      1.00000
     11      11.3205      0.00000
     12      14.6106      0.00000
     13      19.6625      0.00000
     14      20.4355      0.00000
     15      22.9934      0.00000
     16      23.8078      0.00000

 k-point    11 :       0.2000    0.2000    0.0000
  band No.  band energies     occupation 
      1       4.8326      1.00000
      2       6.2408      1.00000
      3       6.2877      1.00000
      4       6.4592      1.00000
      5       7.3968      1.00000
      6       7.7837      1.00000
      7       7.9846      1.00000
      8       8.5724      1.00000
      9       9.2455      1.00000
     10       9.4889      1.00000
     11       9.8897      1.00000
     12      16.9860      0.00000
     13      17.8201      0.00000
     14      21.0923      0.00000
     15      21.6729      0.00000
     16      28.8449      0.00000

 k-point    12 :       0.3000    0.2000    0.0000
  band No.  band energies     occupation 
      1       5.7970      1.00000
      2       5.9758      1.00000
      3       6.0947      1.00000
      4       6.7005      1.00000
      5       7.3077      1.00000
      6       7.7335      1.00000
      7       8.0300      1.00000
      8       8.9531      1.00000
      9       9.4665      1.00000
     10       9.5363      1.00000
     11      11.2679      0.00000
     12      16.7921      0.00000
     13      19.3557      0.00000
     14      19.4964      0.00000
     15      20.8214      0.00000
     16      25.7312      0.00000

 k-point    13 :       0.4000    0.2000    0.0000
  band No.  band energies     occupation 
      1       5.8866      1.00000
      2       5.9809      1.00000
      3       5.9960      1.00000
      4       6.9979      1.00000
      5       7.3390      1.00000
      6       7.5720      1.00000
      7       8.1528      1.00000
      8       9.2908      1.00000
      9       9.4581      1.00000
     10       9.4848      1.00000
     11      12.9588      0.00000
     12      14.3458      0.00000
     13      19.4853      0.00000
     14      21.2600      0.00000
     15      21.5600      0.00000
     16      23.4967      0.00000

 k-point    14 :       0.3000    0.3000    0.0000
  band No.  band energies     occupation 
      1       5.9333      1.00000
      2       6.1954      1.00000
      3       6.3519      1.00000
      4       6.5861      1.00000
      5       7.3015      1.00000
      6       7.4955      1.00000
      7       8.2433      1.00000
      8       9.1317      1.00000
      9       9.4090      1.00000
     10       9.4428      1.00000
     11      13.3649      0.00000
     12      16.3457      0.00000
     13      16.3743      0.00000
     14      21.8003      0.00000
     15      22.0365      0.00000
     16      24.6395      0.00000

 k-point    15 :       0.0000    0.0000    0.1250
  band No.  band energies     occupation 
      1       1.4978      1.00000
      2       5.0728      1.00000
      3       7.5691      1.00000
      4       7.5887      1.00000
      5       7.5887      1.00000
      6       7.8977      1.00000
      7       7.8977      1.00000
      8       8.3893      1.00000
      9       8.3893      1.00000
     10       9.3795      1.00000
     11       9.3795      1.00000
     12       9.5532      1.00000
     13      17.5081      0.00000
     14      32.1793      0.00000
     15      34.3984      0.00000
     16      34.9748      0.00000

 k-point    16 :       0.1000   -0.0000    0.1250
  band No.  band energies     occupation 
      1       1.8433      1.00000
      2       5.2897      1.00000
      3       7.3470      1.00000
      4       7.7116      1.00000
      5       7.7316      1.00000
      6       7.7339      1.00000
      7       8.0329      1.00000
      8       8.1853      1.00000
      9       8.3203      1.00000
     10       8.4804      1.00000
     11       9.4148      1.00000
     12      10.9619      0.00000
     13      17.6437      0.00000
     14      29.7346      0.00000
     15      32.3330      0.00000
     16      32.4521      0.00000

 k-point    17 :       0.2000   -0.0000    0.1250
  band No.  band energies     occupation 
      1       2.8175      1.00000
      2       5.7681      1.00000
      3       6.9967      1.00000
      4       7.0707      1.00000
      5       7.6032      1.00000
      6       7.9268      1.00000
      7       8.0483      1.00000
      8       8.3126      1.00000
      9       8.4435      1.00000
     10       8.4522      1.00000
     11       9.4808      1.00000
     12      12.6210      0.00000
     13      18.1129      0.00000
     14      25.1547      0.00000
     15      29.5960      0.00000
     16      30.6695      0.00000

 k-point    18 :       0.3000    0.0000    0.1250
  band No.  band energies     occupation 
      1       4.1492      1.00000
      2       5.9103      1.00000
      3       6.3522      1.00000
      4       6.9913      1.00000
      5       7.5914      1.00000
      6       7.7649      1.00000
      7       8.0824      1.00000
      8       8.8438      1.00000
      9       8.9020      1.00000
     10       8.9408      1.00000
     11       9.5342      1.00000
     12      14.3146      0.00000
     13      18.8987      0.00000
     14      21.0774      0.00000
     15      27.1426      0.00000
     16      27.3756      0.00000

 k-point    19 :       0.4000   -0.0000    0.1250
  band No.  band energies     occupation 
      1       5.0969      1.00000
      2       5.6600      1.00000
      3       6.1001      1.00000
      4       6.9935      1.00000
      5       7.6047      1.00000
      6       7.9211      1.00000
      7       8.2834      1.00000
      8       9.3260      1.00000
      9       9.3837      1.00000
     10       9.5850      1.00000
     11      10.0003      1.00000
     12      15.1061      0.00000
     13      17.9276      0.00000
     14      20.6754      0.00000
     15      24.0692      0.00000
     16      25.8801      0.00000

 k-point    20 :       0.5000   -0.0000    0.1250
  band No.  band energies     occupation 
      1       5.2946      1.00000
      2       5.5097      1.00000
      3       6.0871      1.00000
      4       7.0221      1.00000
      5       7.5445      1.00000
      6       8.0409      1.00000
      7       8.5158      1.00000
      8       9.4605      1.00000
      9       9.5703      1.00000
     10       9.6580      1.00000
     11      11.4245      0.00000
     12      13.4573      0.00000
     13      19.3467      0.00000
     14      19.7048      0.00000
     15      24.1393      0.00000
     16      25.1008      0.00000

 k-point    21 :       0.1000    0.1000    0.1250
  band No.  band energies     occupation 
      1       2.5063      1.00000
      2       5.6573      1.00000
      3       7.0910      1.00000
      4       7.2344      1.00000
      5       7.7313      1.00000
      6       7.8120      1.00000
      7       8.0224      1.00000
      8       8.1827      1.00000
      9       8.4266      1.00000
     10       8.4356      1.00000
     11       9.4516      1.00000
     12      12.1728      0.00000
     13      17.9520      0.00000
     14      27.3063      0.00000
     15      27.9687      0.00000
     16      32.9607      0.00000

 k-point    22 :       0.2000    0.1000    0.1250
  band No.  band energies     occupation 
      1       3.6938      1.00000
      2       6.0624      1.00000
      3       6.5619      1.00000
      4       6.8358      1.00000
      5       7.5361      1.00000
      6       7.7685      1.00000
      7       8.0570      1.00000
      8       8.4224      1.00000
      9       8.7642      1.00000
     10       8.9507      1.00000
     11       9.5038      1.00000
     12      13.7576      0.00000
     13      18.6769      0.00000
     14      23.1089      0.00000
     15      25.7251      0.00000
     16      29.2979      0.00000

 k-point    23 :       0.3000    0.1000    0.1250
  band No.  band energies     occupation 
      1       4.9327      1.00000
      2       5.9385      1.00000
      3       6.1513      1.00000
      4       6.8723      1.00000
      5       7.5262      1.00000
      6       7.8394      1.00000
      7       7.9890      1.00000
      8       8.8970      1.00000
      9       9.2842      1.00000
     10       9.4121      1.00000
     11       9.8951      1.00000
     12      15.3285      0.00000
     13      18.7749      0.00000
     14      20.4718      0.00000
     15      24.1442      0.00000
     16      25.7145      0.00000

 k-point    24 :       0.4000    0.1000    0.1250
  band No.  band energies     occupation 
      1       5.3996      1.00000
      2       5.6956      1.00000
      3       6.1375      1.00000
      4       6.9469      1.00000
      5       7.4647      1.00000
      6       8.0594      1.00000
      7       8.1617      1.00000
      8       9.3747      1.00000
      9       9.4743      1.00000
     10       9.5610      1.00000
     11      11.3066      0.00000
     12      14.4606      0.00000
     13      18.6628      0.00000
     14      20.7798      0.00000
     15      23.1242      0.00000
     16      24.0377      0.00000

 k-point    25 :       0.2000    0.2000    0.1250
  band No.  band energies     occupation 
      1       4.8964      1.00000
      2       6.1551      1.00000
      3       6.4052      1.00000
      4       6.4870      1.00000
      5       7.4392      1.00000
      6       7.7681      1.00000
      7       7.9168      1.00000
      8       8.6018      1.00000
      9       9.3032      1.00000
     10       9.3461      1.00000
     11       9.9613      1.00000
     12      15.2932      0.00000
     13      19.6948      0.00000
     14      21.2446      0.00000
     15      21.8724      0.00000
     16      27.7142      0.00000

 k-point    26 :       0.3000    0.2000    0.1250
  band No.  band energies     occupation 
      1       5.7106      1.00000
      2       6.0794      1.00000
      3       6.1519      1.00000
      4       6.6652      1.00000
      5       7.3861      1.00000
      6       7.7077      1.00000
      7       8.0464      1.00000
      8       8.9608      1.00000
      9       9.3449      1.00000
     10       9.5756      1.00000
     11      11.3332      0.00000
     12      16.3214      0.00000
     13      18.4421      0.00000
     14      20.2757      0.00000
     15      21.6843      0.00000
     16      24.7558      0.00000

 k-point    27 :       0.4000    0.2000    0.1250
  band No.  band energies     occupation 
      1       5.7280      1.00000
      2       6.0291      1.00000
      3       6.2581      1.00000
      4       6.7967      1.00000
      5       7.3134      1.00000
      6       7.7245      1.00000
      7       8.1835      1.00000
      8       9.2943      1.00000
      9       9.3243      1.00000
     10       9.5179      1.00000
     11      13.0545      0.00000
     12      14.3450      0.00000
     13      19.4228      0.00000
     14      20.5194      0.00000
     15      20.7842      0.00000
     16      24.6976      0.00000

 k-point    28 :       0.3000    0.3000    0.1250
[...]
      4       7.9081      1.00000
      5      10.2181      0.35690
      6      10.2181      0.35689
      7      10.5228      0.00000
      8      10.5228      0.00000
      9      11.5591      0.00000
     10      11.5591      0.00000
     11      12.4796      0.00000
     12      12.4796      0.00000
     13      18.4366      0.00000
     14      18.4366      0.00000
     15      28.8893      0.00000
     16      28.8893      0.00000

 k-point    63 :       0.1000    0.1000    0.5000
  band No.  band energies     occupation 
      1       4.5373      1.00000
      2       4.5373      1.00000
      3       8.4221      1.00000
      4       8.4221      1.00000
      5       9.0839      1.00000
      6       9.0839      1.00000
      7       9.6652      1.00000
      8       9.6652      1.00000
      9      10.9554      0.00000
     10      10.9554      0.00000
     11      11.2570      0.00000
     12      11.2570      0.00000
     13      26.3561      0.00000
     14      26.3561      0.00000
     15      29.1165      0.00000
     16      29.1165      0.00000

 k-point    64 :       0.2000    0.1000    0.5000
  band No.  band energies     occupation 
      1       5.4607      1.00000
      2       5.4607      1.00000
      3       8.2375      1.00000
      4       8.2375      1.00000
      5       8.9378      1.00000
      6       8.9378      1.00000
      7       9.9942      1.00000
      8       9.9942      1.00000
      9      11.0951      0.00000
     10      11.0951      0.00000
     11      11.5543      0.00000
     12      11.5543      0.00000
     13      25.3690      0.00000
     14      25.3690      0.00000
     15      27.2897      0.00000
     16      27.2897      0.00000

 k-point    65 :       0.3000    0.1000    0.5000
  band No.  band energies     occupation 
      1       6.2166      1.00000
      2       6.2166      1.00000
      3       8.0986      1.00000
      4       8.0986      1.00000
      5       9.2008      1.00000
      6       9.2008      1.00000
      7      10.1485      0.94568
      8      10.1485      0.94568
      9      11.4038      0.00000
     10      11.4038      0.00000
     11      12.1094      0.00000
     12      12.1094      0.00000
     13      21.6803      0.00000
     14      21.6803      0.00000
     15      26.9680      0.00000
     16      26.9680      0.00000

 k-point    66 :       0.4000    0.1000    0.5000
  band No.  band energies     occupation 
      1       6.4668      1.00000
      2       6.4668      1.00000
      3       8.0084      1.00000
      4       8.0084      1.00000
      5       9.5875      1.00000
      6       9.5875      1.00000
      7      10.4363      0.00000
      8      10.4363      0.00000
      9      11.4558      0.00000
     10      11.4558      0.00000
     11      13.0524      0.00000
     12      13.0524      0.00000
     13      18.9554      0.00000
     14      18.9554      0.00000
     15      26.3080      0.00000
     16      26.3080      0.00000

 k-point    67 :       0.2000    0.2000    0.5000
  band No.  band energies     occupation 
      1       6.2791      1.00000
      2       6.2791      1.00000
      3       8.2042      1.00000
      4       8.2042      1.00000
      5       8.7665      1.00000
      6       8.7665      1.00000
      7      10.0231      1.00000
      8      10.0231      1.00000
      9      11.4690      0.00000
     10      11.4690      0.00000
     11      12.1902      0.00000
     12      12.1902      0.00000
     13      23.6444      0.00000
     14      23.6444      0.00000
     15      24.5093      0.00000
     16      24.5093      0.00000

 k-point    68 :       0.3000    0.2000    0.5000
  band No.  band energies     occupation 
      1       6.8084      1.00000
      2       6.8084      1.00000
      3       8.1856      1.00000
      4       8.1856      1.00000
      5       8.8012      1.00000
      6       8.8012      1.00000
      7      10.0884      0.99952
      8      10.0884      0.99952
      9      11.4937      0.00000
     10      11.4937      0.00000
     11      13.6186      0.00000
     12      13.6186      0.00000
     13      20.4841      0.00000
     14      20.4841      0.00000
     15      23.2428      0.00000
     16      23.2428      0.00000

 k-point    69 :       0.4000    0.2000    0.5000
  band No.  band energies     occupation 
      1       6.9463      1.00000
      2       6.9463      1.00000
      3       8.1814      1.00000
      4       8.1814      1.00000
      5       8.8195      1.00000
      6       8.8195      1.00000
      7      10.2656      0.04364
      8      10.2656      0.04364
      9      11.4038      0.00000
     10      11.4038      0.00000
     11      14.7678      0.00000
     12      14.7678      0.00000
     13      18.6423      0.00000
     14      18.6423      0.00000
     15      22.8934      0.00000
     16      22.8934      0.00000

 k-point    70 :       0.3000    0.3000    0.5000
  band No.  band energies     occupation 
      1       7.3772      1.00000
      2       7.3772      1.00000
      3       8.0490      1.00000
      4       8.0490      1.00000
      5       8.5490      1.00000
      6       8.5490      1.00000
      7      10.0923      0.99929
      8      10.0923      0.99929
      9      11.3849      0.00000
     10      11.3849      0.00000
     11      15.7153      0.00000
     12      15.7153      0.00000
     13      19.0691      0.00000
     14      19.0691      0.00000
     15      20.8707      0.00000
     16      20.8707      0.00000


--------------------------------------------------------------------------------------------------------


 soft charge-density along one line, spin component           1
         0         1         2         3         4         5         6         7         8         9
 total charge-density along one line
 
 soft charge-density along one line, spin component           2
         0         1         2         3         4         5         6         7         8         9
 total charge-density along one line
 
 pseudopotential strength for first ion, spin component:           1
 -0.650   0.000   0.000  -0.000   0.000  -1.283   0.000   0.000
  0.000  -0.652   0.000  -0.000   0.000   0.000  -1.285   0.000
  0.000   0.000  -0.647   0.000  -0.000   0.000   0.000  -1.280
 -0.000  -0.000   0.000  -0.652  -0.000  -0.000  -0.000   0.000
  0.000   0.000  -0.000  -0.000  -0.650   0.000   0.000  -0.000
 -1.283   0.000   0.000  -0.000   0.000  -1.856   0.000   0.000
  0.000  -1.285   0.000  -0.000   0.000   0.000  -1.858   0.000
  0.000   0.000  -1.280   0.000  -0.000   0.000   0.000  -1.854
 -0.000  -0.000   0.000  -1.285  -0.000  -0.000  -0.000   0.000
  0.000   0.000  -0.000  -0.000  -1.283   0.000   0.000  -0.000
  0.000   0.000  -0.000   0.000  -0.000   0.000   0.000  -0.000
  0.000   0.000  -0.000   0.000  -0.000   0.000   0.000  -0.000
 -0.000  -0.000  -0.000   0.000  -0.001  -0.000  -0.000  -0.000
  0.000   0.000  -0.000  -0.000   0.000   0.000   0.000  -0.000
 -0.001   0.000   0.000   0.000  -0.000  -0.001   0.000   0.000
 -0.000  -0.000  -0.000   0.000  -0.001  -0.000  -0.000  -0.000
  0.000   0.000  -0.000  -0.000   0.000   0.000   0.000  -0.000
 -0.001   0.000   0.000   0.000  -0.000  -0.001   0.000   0.000
 pseudopotential strength for first ion, spin component:           2
  0.726  -0.000   0.000   0.000   0.000   0.036  -0.000   0.000
 -0.000   0.734  -0.000  -0.000  -0.000  -0.000   0.043  -0.000
  0.000  -0.000   0.715  -0.000  -0.000   0.000  -0.000   0.025
  0.000  -0.000  -0.000   0.734   0.000   0.000  -0.000  -0.000
  0.000  -0.000  -0.000   0.000   0.726   0.000  -0.000  -0.000
  0.036  -0.000   0.000   0.000   0.000  -0.593  -0.000   0.000
 -0.000   0.043  -0.000  -0.000  -0.000  -0.000  -0.586  -0.000
  0.000  -0.000   0.025  -0.000  -0.000   0.000  -0.000  -0.604
  0.000  -0.000  -0.000   0.043   0.000   0.000  -0.000  -0.000
  0.000  -0.000  -0.000   0.000   0.036   0.000  -0.000  -0.000
  0.000  -0.000   0.000  -0.000  -0.000   0.000  -0.000   0.000
  0.000  -0.000   0.000  -0.000  -0.000   0.000  -0.000   0.000
  0.000  -0.000   0.000   0.000  -0.000   0.000  -0.000   0.000
  0.000  -0.000  -0.000   0.000   0.000   0.000  -0.000  -0.000
 -0.000   0.000  -0.000   0.000   0.000  -0.000   0.000  -0.000
  0.000  -0.000   0.000   0.000  -0.000   0.000  -0.000   0.000
  0.000  -0.000  -0.000   0.000   0.000   0.000  -0.000  -0.000
 -0.000   0.000  -0.000   0.000   0.000  -0.000   0.000  -0.000
 total augmentation occupancy for first ion, spin component:           1
  2.960   0.000   0.000  -0.000   0.000  -1.604   0.000  -0.000  -0.000  -0.000   0.000  -0.000   0.000   0.000   0.043  -0.000
  0.000   3.068   0.000  -0.000   0.000  -0.000  -1.651  -0.000   0.000   0.000   0.000   0.000   0.000   0.000   0.000   0.000
  0.000   0.000   2.819   0.000   0.000  -0.000  -0.000  -1.550   0.000  -0.000  -0.023  -0.000   0.000   0.000   0.000  -0.000
  0.000  -0.000   0.000   3.068   0.000  -0.000   0.000   0.000  -1.651   0.000   0.000  -0.000   0.000   0.000   0.000   0.000
  0.000   0.000   0.000   0.000   2.960  -0.000   0.000  -0.000  -0.000  -1.604  -0.000   0.000   0.043   0.000  -0.000  -0.003
 -1.604  -0.000  -0.000   0.000  -0.000   1.797  -0.000   0.000  -0.000   0.000  -0.000   0.000  -0.000   0.000  -0.059   0.000
  0.000  -1.651  -0.000   0.000  -0.000  -0.000   1.783  -0.000  -0.000  -0.000  -0.000  -0.000   0.000  -0.000   0.000   0.000
 -0.000  -0.000  -1.550   0.000  -0.000   0.000  -0.000   1.830   0.000   0.000   0.022  -0.000  -0.000   0.000  -0.000   0.000
  0.000   0.000   0.000  -1.651   0.000   0.000  -0.000   0.000   1.783   0.000   0.000  -0.000   0.000  -0.000   0.000   0.000
 -0.000   0.000  -0.000  -0.000  -1.604   0.000   0.000   0.000  -0.000   1.797   0.000   0.000  -0.059   0.000  -0.000   0.004
  0.000  -0.000  -0.023   0.000  -0.000  -0.000   0.000   0.022   0.000   0.000   2.304  -0.270   0.000   0.000  -0.000  -0.000
  0.000  -0.000  -0.000   0.000   0.000   0.000  -0.000  -0.000  -0.000  -0.000  -0.270   0.040   0.000   0.000   0.000   0.000
  0.000   0.000   0.000   0.000   0.043  -0.000   0.000  -0.000   0.000  -0.059   0.000  -0.000   0.313   0.000   0.000  -0.030
  0.000   0.000   0.000   0.000   0.000   0.000  -0.000   0.000   0.000   0.000   0.000   0.000   0.000   0.319   0.000   0.000
  0.043   0.000   0.000  -0.000   0.000  -0.059   0.000  -0.000   0.000  -0.000  -0.000   0.000   0.000   0.000   0.313   0.000
 -0.000   0.000  -0.000   0.000  -0.003   0.000   0.000   0.000   0.000   0.004   0.000   0.000  -0.030   0.000   0.000   0.003
 -0.000  -0.000   0.000  -0.000   0.000  -0.000   0.000   0.000   0.000   0.000   0.000   0.000  -0.000  -0.030   0.000   0.000
 -0.003   0.000  -0.000   0.000   0.000   0.004   0.000   0.000  -0.000   0.000   0.000  -0.000   0.000   0.000  -0.030   0.000
 total augmentation occupancy for first ion, spin component:           2
  2.150   0.000   0.000  -0.000   0.000  -1.033   0.000  -0.000  -0.000  -0.000  -0.000   0.000  -0.000   0.000  -0.004   0.000
  0.000   2.171  -0.000  -0.000  -0.000  -0.000  -1.048  -0.000   0.000   0.000   0.000  -0.000  -0.000   0.000   0.000   0.000
  0.000   0.000   2.143   0.000   0.000  -0.000   0.000  -1.028   0.000  -0.000  -0.001  -0.001  -0.000   0.000  -0.000   0.000
 -0.000  -0.000   0.000   2.171   0.000   0.000   0.000   0.000  -1.048   0.000   0.000   0.000   0.000   0.000  -0.000  -0.000
  0.000  -0.000   0.000   0.000   2.150  -0.000   0.000  -0.000   0.000  -1.033   0.000   0.000  -0.004  -0.000  -0.000   0.000
 -1.033   0.000  -0.000  -0.000  -0.000   0.302   0.000  -0.000   0.000   0.000   0.000  -0.000   0.000   0.000   0.008  -0.000
  0.000  -1.048  -0.000   0.000   0.000  -0.000   0.319  -0.000  -0.000   0.000   0.000  -0.000  -0.000   0.000  -0.000  -0.000
  0.000   0.000  -1.028   0.000  -0.000  -0.000  -0.000   0.286  -0.000   0.000  -0.001   0.001   0.000   0.000   0.000  -0.000
 -0.000   0.000   0.000  -1.048   0.000   0.000  -0.000   0.000   0.319  -0.000   0.000   0.000   0.000   0.000   0.000   0.000
  0.000  -0.000  -0.000   0.000  -1.033   0.000   0.000   0.000   0.000   0.302  -0.000   0.000   0.008   0.000   0.000  -0.000
 -0.000   0.000  -0.001   0.000   0.000   0.000   0.000  -0.001   0.000  -0.000  -0.303   0.093   0.000   0.000  -0.000   0.000
  0.000   0.000  -0.001   0.000   0.000  -0.000   0.000   0.001   0.000   0.000   0.093  -0.016  -0.000   0.000  -0.000   0.000
 -0.000  -0.000  -0.000   0.000  -0.004  -0.000  -0.000   0.000   0.000   0.008   0.000   0.000  -0.033  -0.000  -0.000   0.005
  0.000   0.000   0.000   0.000   0.000   0.000   0.000   0.000   0.000   0.000   0.000   0.000  -0.000  -0.038   0.000   0.000
 -0.004   0.000  -0.000   0.000  -0.000   0.008  -0.000   0.000   0.000   0.000   0.000  -0.000   0.000  -0.000  -0.033   0.000
  0.000   0.000   0.000   0.000   0.000  -0.000   0.000  -0.000   0.000  -0.000   0.000  -0.000   0.005   0.000   0.000  -0.001
  0.000  -0.000   0.000   0.000  -0.000   0.000   0.000   0.000   0.000   0.000   0.000   0.000   0.000   0.005   0.000   0.000
  0.000   0.000  -0.000  -0.000   0.000  -0.000  -0.000   0.000   0.000  -0.000  -0.000   0.000   0.000   0.000   0.005   0.000


------------------------ aborting loop because EDIFF is reached ----------------------------------------





 total charge

# of ion       s       p       d       tot
------------------------------------------
    1        0.491   0.525   7.253   8.269
    2        0.491   0.525   7.253   8.269
--------------------------------------------------
tot          0.982   1.050  14.506  16.538



 magnetization (x)

# of ion       s       p       d       tot
------------------------------------------
    1       -0.013  -0.051   1.749   1.685
    2       -0.013  -0.051   1.749   1.685
--------------------------------------------------
tot         -0.026  -0.102   3.498   3.369
 
    CHARGE:  cpu time      0.0184: real time      0.0185
    FORLOC:  cpu time      0.0001: real time      0.0001
    FORNL :  cpu time      0.0170: real time      0.0171
    STRESS:  cpu time      0.0506: real time      0.0508
    FORCOR:  cpu time      0.0040: real time      0.0040
    FORHAR:  cpu time      0.0004: real time      0.0004
    MIXING:  cpu time      0.0002: real time      0.0002
    OFIELD:  cpu time      0.0000: real time      0.0000

  FORCE on cell =-STRESS in cart. coord.  units (eV):
  Direction    XX          YY          ZZ          XY          YZ          ZX
  --------------------------------------------------------------------------------------
  Alpha Z    78.09208    78.09208    78.09208
  Ewald    -509.53281  -509.53281  -502.66715     0.00000     0.00000     0.00000
  Hartree    87.12182    87.12182    90.26109    -0.00000    -0.00000    -0.00000
  E(xc)     -92.55623   -92.55623   -92.56077     0.00000    -0.00000    -0.00000
  Local     -16.68295   -16.68307   -26.37167    -0.00011    -0.00000    -0.00000
  n-local    -9.56648    -9.29569    -9.49115    -6.25967     1.75220     1.74588
  augment   311.04818   311.04830   310.92687     0.00010    -0.00000    -0.00000
  Kinetic   153.33177   150.56045   151.76340     4.29227     0.21450     0.84398
  Fock        0.00000     0.00000     0.00000     0.00000     0.00000     0.00000
  -------------------------------------------------------------------------------------
  Total       0.00512     0.00512    -0.04730    -0.00000    -0.00000     0.00000
  in kB       0.37777     0.37777    -3.49304    -0.00000    -0.00000     0.00000
  external pressure =       -0.91 kB  Pullay stress =        0.00 kB


 VOLUME and BASIS-vectors are now :
 -----------------------------------------------------------------------------
  energy-cutoff  :      400.00
  volume of cell :       21.70
      direct lattice vectors                 reciprocal lattice vectors
     2.492464747  0.000000000  0.000000000     0.401209285  0.231638289  0.000000000
    -1.246232374  2.158537789  0.000000000     0.000000000  0.463276578  0.000000000
     0.000000000  0.000000000  4.032706520     0.000000000  0.000000000  0.247972421

  length of vectors
     2.492464747  2.492464747  4.032706520     0.463276578  0.463276578  0.247972421


 FORCES acting on ions
    electron-ion (+dipol)            ewald-force                    non-local-force                 convergence-correction
 -----------------------------------------------------------------------------------------------
   -.572E-05 0.330E-05 0.514E-13   0.107E-11 -.524E-12 -.244E-13   0.000E+00 -.694E-17 0.000E+00   0.182E-08 -.105E-08 -.736E-14
   -.401E-05 0.232E-05 -.913E-12   -.107E-11 0.521E-12 0.244E-13   0.000E+00 0.694E-17 0.000E+00   -.182E-08 0.105E-08 -.733E-13
 -----------------------------------------------------------------------------------------------
   -.973E-05 0.562E-05 -.861E-12   0.627E-14 -.338E-14 0.000E+00   0.000E+00 0.000E+00 0.000E+00   0.169E-11 -.996E-12 -.807E-13
 
 
 POSITION                                       TOTAL-FORCE (eV/Angst)
 -----------------------------------------------------------------------------------
      0.00000      0.00000      0.00000         0.000000     -0.000000      0.000000
      0.00000      1.43903      2.01635        -0.000000      0.000000      0.000000
 -----------------------------------------------------------------------------------
    total drift:                               -0.000010      0.000006     -0.000000


--------------------------------------------------------------------------------------------------------



  FREE ENERGIE OF THE ION-ELECTRON SYSTEM (eV)
  ---------------------------------------------------
  free  energy   TOTEN  =       -14.07405530 eV

  energy  without entropy=      -14.07147263  energy(sigma->0) =      -14.07276397
 


--------------------------------------------------------------------------------------------------------


    POTLOK:  cpu time      0.0093: real time      0.0093


--------------------------------------------------------------------------------------------------------




--------------------------------------------------------------------------------------------------------


  
 reached required accuracy - stopping structural energy minimisation
 writing wavefunctions
     LOOP+:  cpu time      6.4951: real time      6.6291
    4ORBIT:  cpu time      0.0000: real time      0.0000



 total charge

# of ion       s       p       d       tot
------------------------------------------
    1        0.491   0.525   7.253   8.269
    2        0.491   0.525   7.253   8.269
--------------------------------------------------
tot          0.982   1.050  14.506  16.538



 magnetization (x)

# of ion       s       p       d       tot
------------------------------------------
    1       -0.013  -0.051   1.749   1.685
    2       -0.013  -0.051   1.749   1.685
--------------------------------------------------
tot         -0.026  -0.102   3.498   3.369
 

 total amount of memory used by VASP MPI-rank0    32110. kBytes
=======================================================================

   base      :      30000. kBytes
   nonl-proj :        728. kBytes
   fftplans  :        153. kBytes
   grid      :        374. kBytes
   one-center:         31. kBytes
   wavefun   :        824. kBytes
 
  
  
 General timing and accounting informations for this job:
 ========================================================
  
                  Total CPU time used (sec):        7.429
                            User time (sec):        6.897
                          System time (sec):        0.532
                         Elapsed time (sec):        8.977
  
                   Maximum memory used (kb):      224516.
                   Average memory used (kb):          N/A
  
                          Minor page faults:        20493
                          Major page faults:           68
                 Voluntary context switches:         2181
