Co-hcc                                  
           1
     2.492465    0.000000    0.000000
    -1.246232    2.158538    0.000000
     0.000000    0.000000    4.032707
   Co
     2
Direct configuration=     1
   0.00000000  0.00000000  0.00000000
   0.33333333  0.66666667  0.50000000
