Pt-hcc                                  
   1.00000000000000     
     2.706303    0.000000    0.000000
    -1.353151    2.343727    0.000000
     0.000000    0.000000    4.688606
   Pt
     2
Direct
  0.000000  0.000000  0.000000
  0.333333  0.666667  0.500000
 
   40   40   64
  260.34      260.04      258.61      254.64      246.35      232.26      211.84      185.81      156.13      125.51    
  96.769      72.122      52.768      38.767      29.274      22.903      18.531      15.658      13.897      12.958    
  12.663      12.959      13.897      15.659      18.530      22.905      29.273      38.767      52.769      72.122    
  96.769      125.51      156.13      185.81      211.84      232.26      246.35      254.64      258.61      260.04    
  260.04      260.04      259.17      256.44      250.23      238.89      221.41      197.91      169.77      139.40    
  109.61      82.958      61.132      44.723      33.275      25.622      20.390      16.850      14.600      13.290    
  12.694      12.693      13.291      14.599      16.851      20.389      25.620      33.277      44.721      61.133    
  82.958      109.61      139.40      169.77      197.91      221.41      238.89      250.23      256.44      259.17    
  258.61      259.18      258.61      256.44      251.41      241.98      226.91      205.88      179.72      150.40    
  120.54      92.774      69.154      50.720      37.435      28.424      22.326      18.125      15.366      13.671    
  12.768      12.483      12.768      13.671      15.367      18.124      22.328      28.422      37.436      50.720    
  69.154      92.774      120.54      150.40      179.72      205.88      226.91      241.98      251.41      256.44    
  254.64      256.46      256.46      254.64      250.23      241.98      228.70      209.82      185.74      157.98    
  128.82      100.82      76.193      56.297      41.487      31.196      24.245      19.426      16.166      14.090    
  12.878      12.327      12.325      12.879      14.089      16.167      19.425      24.246      31.197      41.487    
  56.298      76.193      100.82      128.82      157.98      185.74      209.82      228.70      241.98      250.23    
  246.35      250.26      251.45      250.26      246.35      238.89      226.92      209.82      187.75      161.83    
  133.97      106.52      81.674      60.984      45.108      33.775      26.045      20.681      16.964      14.524    
  13.018      12.214      11.960      12.214      13.018      14.523      16.964      20.682      26.043      33.777    
  45.107      60.985      81.673      106.52      133.97      161.83      187.75      209.82      226.91      238.89    
  232.26      238.92      242.04      242.04      238.92      232.26      221.41      205.88      185.74      161.83    
  135.72      109.47      85.148      64.365      47.973      35.958      27.616      21.810      17.715      14.948    
  13.175      12.138      11.661      11.661      12.138      13.175      14.948      17.714      21.812      27.614    
  35.959      47.972      64.365      85.148      109.47      135.72      161.83      185.74      205.88      221.41    
  211.84      221.44      226.98      228.78      226.98      221.44      211.84      197.91      179.73      157.98    
  133.97      109.47      86.337      66.136      49.812      37.546      28.845      22.740      18.366      15.335    
  13.332      12.091      11.420      11.209      11.420      12.091      13.331      15.336      18.365      22.741    
  28.845      37.546      49.812      66.136      86.338      109.47      133.97      157.98      179.72      197.91    
  185.81      197.93      205.93      209.89      209.89      205.93      197.93      185.81      169.77      150.40    
  128.82      106.52      85.148      66.137      50.445      38.383      29.633      23.403      18.872      15.657    
  13.475      12.064      11.230      10.843      10.844      11.229      12.064      13.474      15.658      18.871    
  23.403      29.633      38.382      50.446      66.136      85.148      106.52      128.82      150.40      169.77    
  156.13      169.78      179.75      185.79      187.80      185.79      179.75      169.78      156.13      139.40    
  120.54      100.82      81.673      64.366      49.811      38.383      29.903      23.748      19.192      15.888    
  13.589      12.050      11.085      10.556      10.389      10.556      11.084      12.051      13.589      15.888    
  19.192      23.748      29.904      38.382      49.812      64.365      81.673      100.82      120.54      139.40    
  125.51      139.39      150.40      157.98      161.84      161.84      157.98      150.39      139.39      125.51    
  109.61      92.773      76.193      60.985      47.972      37.547      29.632      23.749      19.301      16.009    
  13.662      12.045      10.982      10.342      10.042      10.042      10.342      10.982      12.045      13.663    
  16.008      19.302      23.748      29.633      37.546      47.972      60.985      76.193      92.774      109.61    
  96.769      109.58      120.49      128.77      133.93      135.68      133.93      128.78      120.49      109.58    
  96.769      82.958      69.154      56.297      45.107      35.959      28.844      23.404      19.191      16.009    
  13.688      12.043      10.921      10.199      9.7968      9.6674      9.7969      10.199      10.921      12.043    
  13.688      16.008      19.192      23.403      28.845      35.959      45.107      56.298      69.154      82.958    
  72.122      82.918      92.704      100.74      106.43      109.37      109.37      106.42      100.74      92.703    
  82.918      72.122      61.132      50.719      41.488      33.776      27.614      22.741      18.871      15.889    
  13.662      12.043      10.900      10.127      9.6498      9.4223      9.4221      9.6500      10.127      10.900    
  12.043      13.663      15.888      18.871      22.741      27.614      33.777      41.487      50.720      61.133    
  52.769      61.086      69.067      76.074      81.533      84.996      86.182      84.996      81.534      76.074    
  69.067      61.086      52.768      44.722      37.437      31.195      26.045      21.811      18.365      15.658    
  13.588      12.045      10.920      10.127      9.6009      9.3006      9.2027      9.3007      9.6009      10.127    
  10.921      12.045      13.589      15.658      18.365      21.812      26.043      31.197      37.436      44.721    
  38.767      44.675      50.627      56.166      60.821      64.180      65.940      65.940      64.180      60.820    
  56.164      50.626      44.675      38.768      33.275      28.422      24.248      20.679      17.715      15.335    
  13.474      12.051      10.982      10.199      9.6499      9.3005      9.1303      9.1303      9.3007      9.6500    
  10.199      10.982      12.051      13.474      15.336      17.714      20.682      24.246      28.422      33.277    
  29.273      33.234      37.348      41.356      44.939      47.776      49.598      50.226      49.598      47.776    
  44.939      41.357      37.349      33.233      29.271      25.623      22.326      19.424      16.966      14.947    
  13.332      12.064      11.084      10.342      9.7967      9.4222      9.2028      9.1303      9.2027      9.4221    
  9.7969      10.342      11.084      12.064      13.331      14.948      16.964      19.425      22.328      25.620    
  22.905      25.585      28.346      31.081      33.622      35.771      37.336      38.160      38.160      37.336    
  35.771      33.620      31.079      28.346      25.587      22.905      20.388      18.126      16.167      14.523    
  13.175      12.090      11.229      10.556      10.042      9.6676      9.4222      9.3005      9.3006      9.4223    
  9.6674      10.042      10.556      11.229      12.091      13.175      14.523      16.167      18.124      20.389    
  18.530      20.361      22.266      24.149      25.910      27.450      28.657      29.429      29.695      29.428    
  28.656      27.450      25.911      24.150      22.265      20.359      18.531      16.852      15.365      14.089    
  13.019      12.137      11.420      10.844      10.388      10.042      9.7967      9.6499      9.6009      9.6498    
  9.7968      10.042      10.389      10.844      11.420      12.138      13.018      14.089      15.367      16.851    
  15.659      16.829      18.075      19.347      20.574      21.677      22.584      23.229      23.565      23.565    
  23.229      22.584      21.676      20.572      19.347      18.077      16.829      15.658      14.599      13.672    
  12.879      12.213      11.661      11.209      10.844      10.556      10.342      10.199      10.127      10.127    
  10.199      10.342      10.556      10.843      11.209      11.661      12.214      12.879      13.671      14.599    
  13.897      14.582      15.329      16.107      16.880      17.607      18.238      18.728      19.039      19.145    
  19.038      18.728      18.239      17.608      16.882      16.106      15.327      14.582      13.898      13.290    
  12.767      12.326      11.960      11.661      11.420      11.229      11.084      10.982      10.920      10.900    
  10.921      10.982      11.085      11.230      11.420      11.661      11.960      12.325      12.768      13.291    
  12.959      13.276      13.641      14.041      14.459      14.866      15.238      15.547      15.769      15.885    
  15.885      15.769      15.547      15.237      14.865      14.458      14.042      13.642      13.276      12.958    
  12.693      12.484      12.326      12.213      12.137      12.090      12.064      12.051      12.045      12.043    
  12.043      12.045      12.050      12.064      12.091      12.138      12.214      12.327      12.483      12.693    
  12.663      12.681      12.743      12.841      12.967      13.111      13.257      13.390      13.498      13.567    
  13.591      13.567      13.498      13.391      13.258      13.112      12.968      12.841      12.742      12.681    
  12.664      12.693      12.767      12.879      13.019      13.175      13.332      13.474      13.588      13.662    
  13.688      13.662      13.589      13.475      13.332      13.175      13.018      12.878      12.768      12.694    
  12.958      12.681      12.459      12.292      12.171      12.087      12.033      12.001      11.984      11.976    
  11.973      11.973      11.976      11.983      12.001      12.033      12.087      12.170      12.292      12.460    
  12.681      12.958      13.290      13.672      14.089      14.523      14.947      15.335      15.658      15.889    
  16.009      16.009      15.888      15.657      15.335      14.948      14.524      14.090      13.671      13.290    
  13.897      13.276      12.742      12.293      11.919      11.616      11.372      11.180      11.034      10.931    
  10.870      10.850      10.870      10.931      11.034      11.180      11.372      11.617      11.920      12.292    
  12.742      13.276      13.898      14.599      15.365      16.167      16.966      17.715      18.365      18.871    
  19.191      19.301      19.192      18.872      18.366      17.715      16.964      16.166      15.366      14.600    
  15.658      14.583      13.641      12.840      12.171      11.617      11.165      10.801      10.516      10.304    
  10.163      10.093      10.093      10.163      10.304      10.516      10.801      11.165      11.617      12.170    
  12.841      13.642      14.582      15.658      16.852      18.126      19.424      20.679      21.811      22.741    
  23.404      23.749      23.748      23.403      22.740      21.810      20.681      19.426      18.125      16.850    
  18.531      16.828      15.328      14.043      12.967      12.087      11.372      10.800      10.351      10.010    
  9.7699      9.6262      9.5786      9.6264      9.7701      10.010      10.351      10.801      11.372      12.087    
  12.968      14.042      15.327      16.829      18.531      20.388      22.326      24.248      26.045      27.614    
  28.844      29.632      29.903      29.633      28.845      27.616      26.045      24.245      22.326      20.390    
  22.903      20.361      18.076      16.105      14.459      13.111      12.033      11.180      10.516      10.011    
  9.6440      9.4044      9.2854      9.2855      9.4041      9.6440      10.010      10.516      11.180      12.033    
  13.112      14.458      16.106      18.077      20.359      22.905      25.623      28.422      31.195      33.776    
  35.959      37.547      38.383      38.383      37.546      35.958      33.775      31.196      28.424      25.622    
  29.274      25.586      22.264      19.349      16.880      14.865      13.257      12.000      11.034      10.304    
  9.7699      9.4040      9.1901      9.1194      9.1902      9.4041      9.7701      10.304      11.034      12.001    
  13.258      14.865      16.882      19.347      22.265      25.587      29.271      33.275      37.437      41.488    
  45.107      47.972      49.811      50.445      49.812      47.973      45.108      41.487      37.435      33.275    
  38.767      33.232      28.348      24.148      20.573      17.608      15.237      13.391      11.983      10.932    
  10.163      9.6267      9.2853      9.1197      9.1194      9.2855      9.6264      10.163      10.931      11.983    
  13.391      15.237      17.608      20.572      24.150      28.346      33.233      38.768      44.722      50.719    
  56.297      60.985      64.366      66.137      66.136      64.365      60.984      56.297      50.720      44.723    
  52.768      44.676      37.347      31.080      25.911      21.676      18.239      15.546      13.498      11.975    
  10.870      10.093      9.5788      9.2853      9.1901      9.2854      9.5786      10.093      10.870      11.976    
  13.498      15.547      18.239      21.676      25.911      31.079      37.349      44.675      52.768      61.132    
  69.154      76.193      81.673      85.148      86.337      85.148      81.674      76.193      69.154      61.132    
  72.122      61.085      50.627      41.357      33.620      27.451      22.583      18.729      15.769      13.567    
  11.972      10.850      10.093      9.6267      9.4040      9.4044      9.6262      10.093      10.850      11.973    
  13.567      15.769      18.728      22.584      27.450      33.620      41.357      50.626      61.086      72.122    
  82.958      92.773      100.82      106.52      109.47      109.47      106.52      100.82      92.774      82.958    
  96.769      82.918      69.066      56.165      44.940      35.770      28.657      23.229      19.038      15.885    
  13.591      11.972      10.870      10.163      9.7699      9.6440      9.7699      10.163      10.870      11.973    
  13.591      15.885      19.038      23.229      28.656      35.771      44.939      56.164      69.067      82.918    
  96.769      109.61      120.54      128.82      133.97      135.72      133.97      128.82      120.54      109.61    
  125.51      109.58      92.704      76.075      60.820      47.777      37.336      29.429      23.565      19.145    
  15.885      13.567      11.975      10.932      10.304      10.011      10.010      10.304      10.931      11.976    
  13.567      15.885      19.145      23.565      29.428      37.336      47.776      60.820      76.074      92.703    
  109.58      125.51      139.40      150.40      157.98      161.83      161.83      157.98      150.40      139.40    
  156.13      139.39      120.49      100.74      81.534      64.180      49.598      38.160      29.694      23.565    
  19.038      15.769      13.498      11.983      11.034      10.516      10.351      10.516      11.034      11.984    
  13.498      15.769      19.039      23.565      29.695      38.160      49.598      64.180      81.534      100.74    
  120.49      139.39      156.13      169.77      179.73      185.74      187.75      185.74      179.72      169.77    
  185.81      169.78      150.40      128.78      106.42      84.996      65.940      50.226      38.160      29.429    
  23.229      18.729      15.546      13.391      12.000      11.180      10.800      10.801      11.180      12.001    
  13.390      15.547      18.728      23.229      29.429      38.160      50.226      65.940      84.996      106.42    
  128.78      150.39      169.78      185.81      197.91      205.88      209.82      209.82      205.88      197.91    
  211.84      197.93      179.75      157.98      133.93      109.37      86.182      65.940      49.598      37.336    
  28.657      22.583      18.239      15.237      13.257      12.033      11.372      11.165      11.372      12.033    
  13.257      15.238      18.238      22.584      28.657      37.336      49.598      65.940      86.182      109.37    
  133.93      157.98      179.75      197.93      211.84      221.41      226.92      228.70      226.91      221.41    
  232.26      221.44      205.93      185.79      161.84      135.68      109.37      84.996      64.180      47.777    
  35.770      27.451      21.676      17.608      14.865      13.111      12.087      11.617      11.616      12.087    
  13.111      14.866      17.607      21.677      27.450      35.771      47.776      64.180      84.996      109.37    
  135.68      161.84      185.79      205.93      221.44      232.26      238.89      241.98      241.98      238.89    
  246.35      238.92      226.98      209.89      187.80      161.84      133.93      106.42      81.534      60.820    
  44.940      33.620      25.911      20.573      16.880      14.459      12.967      12.171      11.919      12.171    
  12.967      14.459      16.880      20.574      25.910      33.622      44.939      60.821      81.533      106.43    
  133.93      161.84      187.80      209.89      226.98      238.92      246.35      250.23      251.41      250.23    
  254.64      250.26      242.04      228.78      209.89      185.79      157.98      128.78      100.74      76.075    
  56.165      41.357      31.080      24.148      19.349      16.105      14.043      12.840      12.293      12.292    
  12.841      14.041      16.107      19.347      24.149      31.081      41.356      56.166      76.074      100.74    
  128.77      157.98      185.79      209.89      228.78      242.04      250.26      254.64      256.44      256.44    
  258.61      256.46      251.45      242.04      226.98      205.93      179.75      150.40      120.49      92.704    
  69.066      50.627      37.347      28.348      22.264      18.076      15.328      13.641      12.742      12.459    
  12.743      13.641      15.329      18.075      22.266      28.346      37.348      50.627      69.067      92.704    
  120.49      150.40      179.75      205.93      226.98      242.04      251.45      256.46      258.61      259.17    
  260.04      259.18      256.46      250.26      238.92      221.44      197.93      169.78      139.39      109.58    
  82.918      61.085      44.676      33.232      25.586      20.361      16.828      14.583      13.276      12.681    
  12.681      13.276      14.582      16.829      20.361      25.585      33.234      44.675      61.086      82.918    
  109.58      139.39      169.78      197.93      221.44      238.92      250.26      256.46      259.18      260.04    
  260.16      259.78      258.13      253.84      245.18      230.76      210.10      183.96      154.32      123.89    
  95.421      71.088      52.031      38.273      28.949      22.675      18.363      15.532      13.795      12.870    
  12.578      12.870      13.795      15.533      18.362      22.677      28.948      38.273      52.032      71.087    
  95.421      123.89      154.32      183.96      210.10      230.76      245.18      253.84      258.13      259.79    
  259.78      259.79      258.76      255.76      249.20      237.52      219.75      196.08      167.92      137.67    
  108.13      81.775      60.258      44.121      32.878      25.353      20.195      16.705      14.487      13.195    
  12.607      12.606      13.195      14.486      16.706      20.194      25.352      32.881      44.119      60.259    
  81.774      108.13      137.67      167.92      196.08      219.75      237.52      249.21      255.76      258.76    
  258.13      258.77      258.13      255.76      250.44      240.68      225.33      204.09      177.86      148.61    
  118.95      91.467      68.157      50.013      36.961      28.110      22.102      17.960      15.241      13.569    
  12.679      12.397      12.679      13.569      15.241      17.959      22.105      28.107      36.962      50.013    
  68.157      91.467      118.95      148.61      177.86      204.09      225.32      240.68      250.44      255.76    
  253.84      255.78      255.78      253.84      249.20      240.68      227.14      208.05      183.88      156.16    
  127.16      99.425      75.095      55.497      40.939      30.833      23.993      19.242      16.028      13.981    
  12.786      12.241      12.240      12.787      13.979      16.029      19.240      23.994      30.834      40.938    
  55.498      75.095      99.426      127.16      156.16      183.88      208.05      227.14      240.68      249.20    
  245.18      249.24      250.48      249.24      245.18      237.52      225.33      208.05      185.89      159.99    
  132.28      105.06      80.501      60.107      44.494      33.365      25.765      20.477      16.813      14.407    
  12.922      12.129      11.878      12.128      12.922      14.407      16.814      20.478      25.764      33.366    
  44.493      60.108      80.501      105.06      132.28      159.99      185.89      208.05      225.32      237.52    
  230.76      237.56      240.74      240.74      237.56      230.76      219.75      204.09      183.88      159.99    
  134.01      107.98      83.930      63.435      47.308      35.506      27.311      21.590      17.552      14.824    
  13.075      12.052      11.582      11.581      12.052      13.075      14.824      17.551      21.592      27.309    
  35.507      47.307      63.436      83.930      107.98      134.01      159.99      183.88      204.09      219.75    
  210.10      219.79      225.39      227.22      225.40      219.79      210.10      196.08      177.86      156.16    
  132.28      107.98      85.104      65.179      49.115      37.065      28.519      22.506      18.193      15.205    
  13.229      12.004      11.342      11.134      11.342      12.004      13.228      15.206      18.192      22.507    
  28.518      37.065      49.115      65.179      85.105      107.98      132.28      156.16      177.86      196.08    
  183.96      196.11      204.15      208.13      208.13      204.15      196.11      183.96      167.92      148.61    
  127.16      105.06      83.930      65.180      49.737      37.885      29.292      23.160      18.691      15.521    
  13.369      11.976      11.153      10.771      10.771      11.152      11.976      13.368      15.522      18.691    
  23.160      29.292      37.885      49.738      65.179      83.930      105.06      127.16      148.61      167.92    
  154.32      167.93      177.90      183.94      185.96      183.94      177.90      167.93      154.32      137.67    
  118.95      99.425      80.501      63.436      49.114      37.886      29.558      23.500      19.006      15.749    
  13.481      11.962      11.008      10.486      10.320      10.486      11.008      11.962      13.480      15.749    
  19.006      23.499      29.559      37.885      49.115      63.436      80.501      99.426      118.95      137.67    
  123.89      137.67      148.62      156.18      160.02      160.02      156.18      148.62      137.67      123.89    
  108.13      91.466      75.095      60.108      47.307      37.065      29.291      23.500      19.114      15.868    
  13.553      11.956      10.906      10.273      9.9764      9.9765      10.273      10.906      11.956      13.553    
  15.867      19.115      23.499      29.292      37.064      47.308      60.108      75.095      91.467      108.13    
  95.421      108.11      118.92      127.14      132.25      133.99      132.25      127.14      118.92      108.11    
  95.421      81.774      68.158      55.496      44.493      35.507      28.518      23.160      19.006      15.868    
  13.578      11.954      10.845      10.131      9.7333      9.6053      9.7334      10.131      10.845      11.954    
  13.578      15.867      19.007      23.160      28.519      35.507      44.493      55.497      68.157      81.774    
  71.087      81.740      91.409      99.354      104.99      107.90      107.90      104.99      99.354      91.408    
  81.740      71.088      60.259      50.012      40.939      33.365      27.309      22.507      18.690      15.749    
  13.552      11.954      10.824      10.060      9.5875      9.3622      9.3619      9.5878      10.060      10.825    
  11.954      13.553      15.748      18.691      22.507      27.309      33.366      40.938      50.013      60.259    
  52.032      60.218      68.081      74.992      80.381      83.801      84.973      83.801      80.382      74.993    
  68.082      60.218      52.031      44.120      36.963      30.832      25.766      21.591      18.193      15.522    
  13.480      11.957      10.845      10.060      9.5390      9.2414      9.1443      9.2414      9.5389      10.060    
  10.845      11.956      13.480      15.522      18.192      21.591      25.764      30.833      36.962      44.120    
  38.273      44.078      49.930      55.380      59.964      63.273      65.007      65.008      63.273      59.963    
  55.379      49.929      44.079      38.275      32.879      28.108      23.996      20.476      17.552      15.205    
  13.368      11.962      10.906      10.131      9.5877      9.2412      9.0726      9.0724      9.2416      9.5875    
  10.131      10.906      11.962      13.368      15.206      17.551      20.478      23.994      28.108      32.880    
  28.948      32.842      36.884      40.822      44.343      47.133      48.925      49.542      48.924      47.133    
  44.344      40.823      36.884      32.841      28.947      25.355      22.103      19.240      16.815      14.823    
  13.229      11.976      11.008      10.273      9.7332      9.3621      9.1445      9.0725      9.1442      9.3621    
  9.7333      10.273      11.008      11.977      13.228      14.824      16.814      19.240      22.104      25.352    
  22.677      25.320      28.040      30.730      33.228      35.340      36.877      37.687      37.687      36.877    
  35.340      33.226      30.728      28.040      25.323      22.676      20.193      17.961      16.028      14.406    
  13.075      12.004      11.152      10.486      9.9764      9.6054      9.3620      9.2413      9.2415      9.3621    
  9.6053      9.9763      10.486      11.152      12.004      13.075      14.407      16.029      17.959      20.194    
  18.362      20.169      22.050      23.909      25.645      27.163      28.351      29.111      29.372      29.110    
  28.350      27.163      25.647      23.910      22.048      20.168      18.364      16.707      15.240      13.980    
  12.923      12.052      11.342      10.771      10.320      9.9764      9.7333      9.5876      9.5389      9.5876    
  9.7333      9.9765      10.320      10.771      11.342      12.052      12.922      13.979      15.241      16.706    
  15.533      16.687      17.917      19.172      20.384      21.474      22.369      23.007      23.338      23.339    
  23.007      22.369      21.473      20.382      19.172      17.919      16.688      15.532      14.486      13.570    
  12.786      12.128      11.582      11.133      10.771      10.486      10.273      10.131      10.060      10.060    
  10.131      10.273      10.486      10.771      11.134      11.582      12.128      12.787      13.569      14.486    
  13.795      14.472      15.209      15.978      16.742      17.460      18.083      18.567      18.874      18.979    
  18.873      18.567      18.084      17.461      16.743      15.977      15.208      14.472      13.796      13.195    
  12.678      12.241      11.878      11.582      11.342      11.152      11.008      10.906      10.845      10.825    
  10.845      10.906      11.008      11.153      11.342      11.582      11.878      12.240      12.679      13.196    
  12.870      13.185      13.545      13.941      14.353      14.756      15.124      15.430      15.649      15.764    
  15.764      15.649      15.430      15.123      14.755      14.353      13.941      13.546      13.184      12.869    
  12.607      12.398      12.241      12.128      12.052      12.004      11.976      11.962      11.957      11.954    
  11.954      11.956      11.962      11.976      12.004      12.052      12.129      12.241      12.398      12.606    
  12.578      12.596      12.659      12.757      12.882      13.025      13.169      13.302      13.408      13.477    
  13.500      13.477      13.408      13.302      13.170      13.025      12.883      12.756      12.658      12.597    
  12.579      12.607      12.678      12.786      12.923      13.075      13.229      13.368      13.480      13.552    
  13.577      13.553      13.481      13.369      13.229      13.075      12.922      12.786      12.678      12.607    
  12.869      12.597      12.379      12.215      12.096      12.014      11.961      11.930      11.913      11.906    