   2   2   1   0
  0.1486952E+02  0.2706303E-09  0.2706303E-09  0.4688606E-09  0.5000000E-15
  1.000000000000000E-004
  CAR 
 Pt-hcc                                  
     37.72432897    -44.52319104  301     12.30960618      1.00000000
    -44.523  0.0000E+00  0.0000E+00
    -44.249  0.0000E+00  0.0000E+00
    -43.975  0.0000E+00  0.0000E+00
    -43.701  0.0000E+00  0.0000E+00
    -43.427  0.0000E+00  0.0000E+00
    -43.152  0.0000E+00  0.0000E+00
    -42.878  0.0000E+00  0.0000E+00
    -42.604  0.0000E+00  0.0000E+00
    -42.330  0.0000E+00  0.0000E+00
    -42.056  0.0000E+00  0.0000E+00
    -41.782  0.0000E+00  0.0000E+00
    -41.507  0.0000E+00  0.0000E+00
    -41.233  0.0000E+00  0.0000E+00
    -40.959  0.7609E-09  0.2086E-09
    -40.685  0.5316E-01  0.1457E-01
    -40.411  0.1641E+00  0.5956E-01
    -40.137  0.2185E+00  0.1195E+00
    -39.862  0.1953E-02  0.1200E+00
    -39.588  0.0000E+00  0.1200E+00
    -39.314  0.0000E+00  0.1200E+00
    -39.040  0.0000E+00  0.1200E+00
    -38.766  0.0000E+00  0.1200E+00
    -38.492  0.0000E+00  0.1200E+00
    -38.218  0.0000E+00  0.1200E+00
    -37.943  0.0000E+00  0.1200E+00
    -37.669  0.0000E+00  0.1200E+00
    -37.395  0.0000E+00  0.1200E+00
    -37.121  0.0000E+00  0.1200E+00
    -36.847  0.0000E+00  0.1200E+00
    -36.573  0.0000E+00  0.1200E+00
    -36.298  0.0000E+00  0.1200E+00
    -36.024  0.0000E+00  0.1200E+00
    -35.750  0.0000E+00  0.1200E+00
    -35.476  0.0000E+00  0.1200E+00
    -35.202  0.0000E+00  0.1200E+00
    -34.928  0.0000E+00  0.1200E+00
    -34.653  0.0000E+00  0.1200E+00
    -34.379  0.0000E+00  0.1200E+00
    -34.105  0.0000E+00  0.1200E+00
    -33.831  0.0000E+00  0.1200E+00
    -33.557  0.0000E+00  0.1200E+00
    -33.283  0.0000E+00  0.1200E+00
    -33.009  0.0000E+00  0.1200E+00
    -32.734  0.0000E+00  0.1200E+00
    -32.460  0.0000E+00  0.1200E+00
    -32.186  0.0000E+00  0.1200E+00
    -31.912  0.0000E+00  0.1200E+00
    -31.638  0.0000E+00  0.1200E+00
    -31.364  0.0000E+00  0.1200E+00
    -31.089  0.0000E+00  0.1200E+00
    -30.815  0.0000E+00  0.1200E+00
    -30.541  0.0000E+00  0.1200E+00
    -30.267  0.0000E+00  0.1200E+00
    -29.993  0.0000E+00  0.1200E+00
    -29.719  0.0000E+00  0.1200E+00
    -29.444  0.0000E+00  0.1200E+00
    -29.170  0.0000E+00  0.1200E+00
    -28.896  0.0000E+00  0.1200E+00
    -28.622  0.0000E+00  0.1200E+00
    -28.348  0.0000E+00  0.1200E+00
    -28.074  0.0000E+00  0.1200E+00
    -27.800  0.0000E+00  0.1200E+00
    -27.525  0.0000E+00  0.1200E+00
    -27.251  0.0000E+00  0.1200E+00
    -26.977  0.0000E+00  0.1200E+00
    -26.703  0.0000E+00  0.1200E+00
    -26.429  0.0000E+00  0.1200E+00
    -26.155  0.0000E+00  0.1200E+00
    -25.880  0.0000E+00  0.1200E+00
    -25.606  0.0000E+00  0.1200E+00
    -25.332  0.0000E+00  0.1200E+00
    -25.058  0.0000E+00  0.1200E+00
    -24.784  0.0000E+00  0.1200E+00
    -24.510  0.0000E+00  0.1200E+00
    -24.235  0.0000E+00  0.1200E+00
    -23.961  0.0000E+00  0.1200E+00
    -23.687  0.0000E+00  0.1200E+00
    -23.413  0.0000E+00  0.1200E+00
    -23.139  0.0000E+00  0.1200E+00
    -22.865  0.0000E+00  0.1200E+00
    -22.591  0.0000E+00  0.1200E+00
    -22.316  0.0000E+00  0.1200E+00
    -22.042  0.0000E+00  0.1200E+00
    -21.768  0.0000E+00  0.1200E+00
    -21.494  0.0000E+00  0.1200E+00
    -21.220  0.0000E+00  0.1200E+00
    -20.946  0.0000E+00  0.1200E+00
    -20.671  0.0000E+00  0.1200E+00
    -20.397  0.0000E+00  0.1200E+00
    -20.123  0.0000E+00  0.1200E+00
    -19.849  0.0000E+00  0.1200E+00
    -19.575  0.0000E+00  0.1200E+00
    -19.301  0.0000E+00  0.1200E+00
    -19.026  0.0000E+00  0.1200E+00
    -18.752  0.0000E+00  0.1200E+00
    -18.478  0.0000E+00  0.1200E+00
    -18.204  0.0000E+00  0.1200E+00
    -17.930  0.0000E+00  0.1200E+00
    -17.656  0.0000E+00  0.1200E+00
    -17.382  0.0000E+00  0.1200E+00
    -17.107  0.0000E+00  0.1200E+00
    -16.833  0.0000E+00  0.1200E+00
    -16.559  0.0000E+00  0.1200E+00
    -16.285  0.0000E+00  0.1200E+00
    -16.011  0.0000E+00  0.1200E+00
    -15.737  0.0000E+00  0.1200E+00
    -15.462  0.0000E+00  0.1200E+00
    -15.188  0.0000E+00  0.1200E+00
    -14.914  0.0000E+00  0.1200E+00
    -14.640  0.0000E+00  0.1200E+00
    -14.366  0.0000E+00  0.1200E+00
    -14.092  0.0000E+00  0.1200E+00
    -13.817  0.0000E+00  0.1200E+00
    -13.543  0.0000E+00  0.1200E+00
    -13.269  0.0000E+00  0.1200E+00
    -12.995  0.0000E+00  0.1200E+00
    -12.721  0.0000E+00  0.1200E+00
    -12.447  0.0000E+00  0.1200E+00
    -12.172  0.0000E+00  0.1200E+00
    -11.898  0.0000E+00  0.1200E+00
    -11.624  0.0000E+00  0.1200E+00
    -11.350  0.0000E+00  0.1200E+00
    -11.076  0.0000E+00  0.1200E+00
    -10.802  0.0000E+00  0.1200E+00
    -10.528  0.0000E+00  0.1200E+00
    -10.253  0.0000E+00  0.1200E+00
     -9.979  0.0000E+00  0.1200E+00
     -9.705  0.0000E+00  0.1200E+00
     -9.431  0.0000E+00  0.1200E+00
     -9.157  0.0000E+00  0.1200E+00
     -8.883  0.0000E+00  0.1200E+00
     -8.608  0.0000E+00  0.1200E+00
     -8.334  0.0000E+00  0.1200E+00
     -8.060  0.0000E+00  0.1200E+00
     -7.786  0.0000E+00  0.1200E+00
     -7.512  0.0000E+00  0.1200E+00
     -7.238  0.0000E+00  0.1200E+00
     -6.963  0.0000E+00  0.1200E+00
     -6.689  0.0000E+00  0.1200E+00
     -6.415  0.0000E+00  0.1200E+00
     -6.141  0.0000E+00  0.1200E+00
     -5.867  0.0000E+00  0.1200E+00
     -5.593  0.0000E+00  0.1200E+00
     -5.319  0.0000E+00  0.1200E+00
     -5.044  0.0000E+00  0.1200E+00
     -4.770  0.0000E+00  0.1200E+00
     -4.496  0.0000E+00  0.1200E+00
     -4.222  0.0000E+00  0.1200E+00
     -3.948  0.0000E+00  0.1200E+00
     -3.674  0.0000E+00  0.1200E+00
     -3.399  0.0000E+00  0.1200E+00
     -3.125  0.0000E+00  0.1200E+00
     -2.851  0.0000E+00  0.1200E+00
     -2.577  0.0000E+00  0.1200E+00
     -2.303  0.0000E+00  0.1200E+00
     -2.029  0.0000E+00  0.1200E+00
     -1.754  0.0000E+00  0.1200E+00
     -1.480  0.0000E+00  0.1200E+00
     -1.206  0.0000E+00  0.1200E+00
     -0.932  0.0000E+00  0.1200E+00
     -0.658  0.0000E+00  0.1200E+00
     -0.384  0.0000E+00  0.1200E+00
     -0.110  0.0000E+00  0.1200E+00
      0.165  0.0000E+00  0.1200E+00
      0.439  0.0000E+00  0.1200E+00
      0.713  0.0000E+00  0.1200E+00
      0.987  0.0000E+00  0.1200E+00
      1.261  0.0000E+00  0.1200E+00
      1.535  0.0000E+00  0.1200E+00
      1.810  0.2153E-07  0.1200E+00
      2.084  0.1989E-03  0.1201E+00
      2.358  0.5599E-03  0.1202E+00
      2.632  0.1338E-02  0.1206E+00
      2.906  0.1007E-02  0.1209E+00
      3.180  0.1538E-02  0.1213E+00
      3.455  0.1733E-02  0.1217E+00
      3.729  0.2508E-02  0.1224E+00
      4.003  0.1240E-02  0.1228E+00
      4.277  0.3078E-02  0.1236E+00
      4.551  0.3898E-02  0.1247E+00
      4.825  0.6972E-02  0.1266E+00
      5.099  0.9915E-02  0.1293E+00
      5.374  0.1767E-01  0.1342E+00
      5.648  0.2380E-01  0.1407E+00
      5.922  0.1927E-01  0.1460E+00
      6.196  0.2134E-01  0.1518E+00
      6.470  0.2044E-01  0.1574E+00
      6.744  0.3056E-01  0.1658E+00
      7.019  0.3069E-01  0.1742E+00
      7.293  0.2364E-01  0.1807E+00
      7.567  0.3076E-01  0.1891E+00
      7.841  0.2289E-01  0.1954E+00
      8.115  0.2314E-01  0.2017E+00
      8.389  0.3182E-01  0.2105E+00
      8.664  0.3197E-01  0.2192E+00
      8.938  0.3624E-01  0.2292E+00
      9.212  0.2435E-01  0.2359E+00
      9.486  0.4187E-01  0.2473E+00
      9.760  0.2917E-01  0.2553E+00
     10.034  0.2319E-01  0.2617E+00
     10.308  0.1952E-01  0.2670E+00
     10.583  0.2210E-01  0.2731E+00
     10.857  0.2207E-01  0.2791E+00
     11.131  0.2583E-01  0.2862E+00
     11.405  0.2133E-01  0.2921E+00
     11.679  0.2140E-01  0.2979E+00
     11.953  0.2628E-01  0.3052E+00
     12.228  0.4521E-01  0.3175E+00
     12.502  0.3018E-01  0.3258E+00
     12.776  0.2325E-01  0.3322E+00
     13.050  0.9537E-02  0.3348E+00
     13.324  0.4579E-02  0.3361E+00
     13.598  0.2522E-02  0.3368E+00
     13.873  0.1888E-02  0.3373E+00
     14.147  0.2890E-02  0.3381E+00
     14.421  0.8915E-02  0.3405E+00
     14.695  0.1001E-01  0.3433E+00
     14.969  0.6362E-02  0.3450E+00
     15.243  0.1381E-02  0.3454E+00
     15.517  0.2759E-02  0.3461E+00
     15.792  0.7076E-02  0.3481E+00
     16.066  0.2214E-02  0.3487E+00
     16.340  0.7705E-02  0.3508E+00
     16.614  0.4041E-02  0.3519E+00
     16.888  0.3816E-02  0.3529E+00
     17.162  0.7224E-02  0.3549E+00
     17.437  0.6643E-02  0.3567E+00
     17.711  0.4902E-02  0.3581E+00
     17.985  0.3695E-02  0.3591E+00
     18.259  0.1763E-02  0.3596E+00
     18.533  0.1825E-02  0.3601E+00
     18.807  0.3264E-02  0.3610E+00
     19.082  0.5641E-02  0.3625E+00
     19.356  0.1208E-01  0.3658E+00
     19.630  0.8612E-02  0.3682E+00
     19.904  0.8749E-02  0.3706E+00
     20.178  0.5208E-02  0.3720E+00
     20.452  0.8373E-02  0.3743E+00
     20.727  0.7225E-02  0.3763E+00
     21.001  0.3637E-02  0.3773E+00
     21.275  0.8518E-02  0.3796E+00
     21.549  0.7825E-02  0.3818E+00
     21.823  0.7315E-02  0.3838E+00
     22.097  0.9987E-02  0.3865E+00
     22.371  0.3426E-02  0.3875E+00
     22.646  0.3987E-02  0.3886E+00
     22.920  0.8170E-02  0.3908E+00
     23.194  0.9734E-02  0.3935E+00
     23.468  0.5239E-02  0.3949E+00
     23.742  0.5824E-02  0.3965E+00
     24.016  0.3956E-02  0.3976E+00
     24.291  0.8686E-02  0.4000E+00
     24.565  0.3549E-02  0.4009E+00
     24.839  0.5956E-02  0.4026E+00
     25.113  0.1113E-01  0.4056E+00
     25.387  0.1110E-01  0.4087E+00
     25.661  0.8500E-02  0.4110E+00
     25.936  0.9785E-02  0.4137E+00
     26.210  0.5099E-02  0.4151E+00
     26.484  0.6634E-02  0.4169E+00
     26.758  0.1492E-01  0.4210E+00
     27.032  0.2479E-01  0.4278E+00
     27.306  0.1374E-01  0.4316E+00
     27.580  0.1565E-01  0.4358E+00
     27.855  0.1028E-01  0.4387E+00
     28.129  0.1484E-01  0.4427E+00
     28.403  0.9041E-02  0.4452E+00
     28.677  0.1612E-01  0.4496E+00
     28.951  0.2100E-01  0.4554E+00
     29.225  0.1620E-01  0.4598E+00
     29.500  0.6233E-02  0.4615E+00
     29.774  0.1317E-01  0.4651E+00
     30.048  0.9617E-02  0.4678E+00
     30.322  0.8652E-02  0.4702E+00
     30.596  0.7851E-02  0.4723E+00
     30.870  0.6368E-02  0.4741E+00
     31.145  0.1206E-02  0.4744E+00
     31.419  0.6623E-02  0.4762E+00
     31.693  0.3907E-02  0.4773E+00
     31.967  0.1940E-02  0.4778E+00
     32.241  0.3373E-02  0.4787E+00
     32.515  0.3321E-02  0.4796E+00
     32.789  0.6011E-03  0.4798E+00
     33.064  0.1808E-03  0.4798E+00
     33.338  0.3661E-03  0.4799E+00
     33.612  0.2323E-06  0.4800E+00
     33.886  0.4382E-06  0.4800E+00
     34.160  0.1819E-03  0.4800E+00
     34.434  0.0000E+00  0.4800E+00
     34.709  0.0000E+00  0.4800E+00
     34.983  0.0000E+00  0.4800E+00
     35.257  0.0000E+00  0.4800E+00
     35.531  0.0000E+00  0.4800E+00
     35.805  0.0000E+00  0.4800E+00
     36.079  0.0000E+00  0.4800E+00
     36.354  0.0000E+00  0.4800E+00
     36.628  0.0000E+00  0.4800E+00
     36.902  0.0000E+00  0.4800E+00
     37.176  0.0000E+00  0.4800E+00
     37.450  0.0000E+00  0.4800E+00
     37.724  0.0000E+00  0.4800E+00
     37.72432897    -44.52319104  301     12.30960618      1.00000000
    -44.523  0.0000E+00  0.0000E+00  0.0000E+00  0.0000E+00  0.0000E+00  0.0000E+00  0.0000E+00  0.0000E+00  0.0000E+00
    -44.249  0.0000E+00  0.0000E+00  0.0000E+00  0.0000E+00  0.0000E+00  0.0000E+00  0.0000E+00  0.0000E+00  0.0000E+00
    -43.975  0.0000E+00  0.0000E+00  0.0000E+00  0.0000E+00  0.0000E+00  0.0000E+00  0.0000E+00  0.0000E+00  0.0000E+00
    -43.701  0.0000E+00  0.0000E+00  0.0000E+00  0.0000E+00  0.0000E+00  0.0000E+00  0.0000E+00  0.0000E+00  0.0000E+00
    -43.427  0.0000E+00  0.0000E+00  0.0000E+00  0.0000E+00  0.0000E+00  0.0000E+00  0.0000E+00  0.0000E+00  0.0000E+00
    -43.152  0.0000E+00  0.0000E+00  0.0000E+00  0.0000E+00  0.0000E+00  0.0000E+00  0.0000E+00  0.0000E+00  0.0000E+00
    -42.878  0.0000E+00  0.0000E+00  0.0000E+00  0.0000E+00  0.0000E+00  0.0000E+00  0.0000E+00  0.0000E+00  0.0000E+00
    -42.604  0.0000E+00  0.0000E+00  0.0000E+00  0.0000E+00  0.0000E+00  0.0000E+00  0.0000E+00  0.0000E+00  0.0000E+00
    -42.330  0.0000E+00  0.0000E+00  0.0000E+00  0.0000E+00  0.0000E+00  0.0000E+00  0.0000E+00  0.0000E+00  0.0000E+00
    -42.056  0.0000E+00  0.0000E+00  0.0000E+00  0.0000E+00  0.0000E+00  0.0000E+00  0.0000E+00  0.0000E+00  0.0000E+00
    -41.782  0.0000E+00  0.0000E+00  0.0000E+00  0.0000E+00  0.0000E+00  0.0000E+00  0.0000E+00  0.0000E+00  0.0000E+00
    -41.507  0.0000E+00  0.0000E+00  0.0000E+00  0.0000E+00  0.0000E+00  0.0000E+00  0.0000E+00  0.0000E+00  0.0000E+00
    -41.233  0.0000E+00  0.0000E+00  0.0000E+00  0.0000E+00  0.0000E+00  0.0000E+00  0.0000E+00  0.0000E+00  0.0000E+00
    -40.959  0.2699E-12  0.1820E-07  0.9358E-09  0.1820E-07  0.2977E-13  0.1788E-13  0.3032E-12  0.1788E-13  0.2977E-13
    -40.685  0.7209E-04  0.1270E+01  0.7444E-01  0.1270E+01  0.3648E-04  0.3517E-05  0.4168E-04  0.3517E-05  0.3648E-04
    -40.411  0.3383E-03  0.3464E+01  0.1181E+01  0.3464E+01  0.1828E-03  0.2990E-04  0.1416E-03  0.2990E-04  0.1828E-03
    -40.137  0.7677E-04  0.2489E+01  0.5873E+01  0.2489E+01  0.7661E-04  0.7261E-04  0.8923E-04  0.7261E-04  0.7661E-04
    -39.862  0.2996E-06  0.4373E-03  0.9630E-01  0.4373E-03  0.1850E-07  0.3358E-06  0.3771E-06  0.3358E-06  0.1850E-07
    -39.588  0.0000E+00  0.0000E+00  0.0000E+00  0.0000E+00  0.0000E+00  0.0000E+00  0.0000E+00  0.0000E+00  0.0000E+00
    -39.314  0.0000E+00  0.0000E+00  0.0000E+00  0.0000E+00  0.0000E+00  0.0000E+00  0.0000E+00  0.0000E+00  0.0000E+00
    -39.040  0.0000E+00  0.0000E+00  0.0000E+00  0.0000E+00  0.0000E+00  0.0000E+00  0.0000E+00  0.0000E+00  0.0000E+00
    -38.766  0.0000E+00  0.0000E+00  0.0000E+00  0.0000E+00  0.0000E+00  0.0000E+00  0.0000E+00  0.0000E+00  0.0000E+00
    -38.492  0.0000E+00  0.0000E+00  0.0000E+00  0.0000E+00  0.0000E+00  0.0000E+00  0.0000E+00  0.0000E+00  0.0000E+00
    -38.218  0.0000E+00  0.0000E+00  0.0000E+00  0.0000E+00  0.0000E+00  0.0000E+00  0.0000E+00  0.0000E+00  0.0000E+00
    -37.943  0.0000E+00  0.0000E+00  0.0000E+00  0.0000E+00  0.0000E+00  0.0000E+00  0.0000E+00  0.0000E+00  0.0000E+00
    -37.669  0.0000E+00  0.0000E+00  0.0000E+00  0.0000E+00  0.0000E+00  0.0000E+00  0.0000E+00  0.0000E+00  0.0000E+00
    -37.395  0.0000E+00  0.0000E+00  0.0000E+00  0.0000E+00  0.0000E+00  0.0000E+00  0.0000E+00  0.0000E+00  0.0000E+00
    -37.121  0.0000E+00  0.0000E+00  0.0000E+00  0.0000E+00  0.0000E+00  0.0000E+00  0.0000E+00  0.0000E+00  0.0000E+00
    -36.847  0.0000E+00  0.0000E+00  0.0000E+00  0.0000E+00  0.0000E+00  0.0000E+00  0.0000E+00  0.0000E+00  0.0000E+00
    -36.573  0.0000E+00  0.0000E+00  0.0000E+00  0.0000E+00  0.0000E+00  0.0000E+00  0.0000E+00  0.0000E+00  0.0000E+00
    -36.298  0.0000E+00  0.0000E+00  0.0000E+00  0.0000E+00  0.0000E+00  0.0000E+00  0.0000E+00  0.0000E+00  0.0000E+00
    -36.024  0.0000E+00  0.0000E+00  0.0000E+00  0.0000E+00  0.0000E+00  0.0000E+00  0.0000E+00  0.0000E+00  0.0000E+00
    -35.750  0.0000E+00  0.0000E+00  0.0000E+00  0.0000E+00  0.0000E+00  0.0000E+00  0.0000E+00  0.0000E+00  0.0000E+00
    -35.476  0.0000E+00  0.0000E+00  0.0000E+00  0.0000E+00  0.0000E+00  0.0000E+00  0.0000E+00  0.0000E+00  0.0000E+00
    -35.202  0.0000E+00  0.0000E+00  0.0000E+00  0.0000E+00  0.0000E+00  0.0000E+00  0.0000E+00  0.0000E+00  0.0000E+00
    -34.928  0.0000E+00  0.0000E+00  0.0000E+00  0.0000E+00  0.0000E+00  0.0000E+00  0.0000E+00  0.0000E+00  0.0000E+00
    -34.653  0.0000E+00  0.0000E+00  0.0000E+00  0.0000E+00  0.0000E+00  0.0000E+00  0.0000E+00  0.0000E+00  0.0000E+00
    -34.379  0.0000E+00  0.0000E+00  0.0000E+00  0.0000E+00  0.0000E+00  0.0000E+00  0.0000E+00  0.0000E+00  0.0000E+00
    -34.105  0.0000E+00  0.0000E+00  0.0000E+00  0.0000E+00  0.0000E+00  0.0000E+00  0.0000E+00  0.0000E+00  0.0000E+00
    -33.831  0.0000E+00  0.0000E+00  0.0000E+00  0.0000E+00  0.0000E+00  0.0000E+00  0.0000E+00  0.0000E+00  0.0000E+00
    -33.557  0.0000E+00  0.0000E+00  0.0000E+00  0.0000E+00  0.0000E+00  0.0000E+00  0.0000E+00  0.0000E+00  0.0000E+00
    -33.283  0.0000E+00  0.0000E+00  0.0000E+00  0.0000E+00  0.0000E+00  0.0000E+00  0.0000E+00  0.0000E+00  0.0000E+00
    -33.009  0.0000E+00  0.0000E+00  0.0000E+00  0.0000E+00  0.0000E+00  0.0000E+00  0.0000E+00  0.0000E+00  0.0000E+00
    -32.734  0.0000E+00  0.0000E+00  0.0000E+00  0.0000E+00  0.0000E+00  0.0000E+00  0.0000E+00  0.0000E+00  0.0000E+00
    -32.460  0.0000E+00  0.0000E+00  0.0000E+00  0.0000E+00  0.0000E+00  0.0000E+00  0.0000E+00  0.0000E+00  0.0000E+00
    -32.186  0.0000E+00  0.0000E+00  0.0000E+00  0.0000E+00  0.0000E+00  0.0000E+00  0.0000E+00  0.0000E+00  0.0000E+00
    -31.912  0.0000E+00  0.0000E+00  0.0000E+00  0.0000E+00  0.0000E+00  0.0000E+00  0.0000E+00  0.0000E+00  0.0000E+00
    -31.638  0.0000E+00  0.0000E+00  0.0000E+00  0.0000E+00  0.0000E+00  0.0000E+00  0.0000E+00  0.0000E+00  0.0000E+00
    -31.364  0.0000E+00  0.0000E+00  0.0000E+00  0.0000E+00  0.0000E+00  0.0000E+00  0.0000E+00  0.0000E+00  0.0000E+00
    -31.089  0.0000E+00  0.0000E+00  0.0000E+00  0.0000E+00  0.0000E+00  0.0000E+00  0.0000E+00  0.0000E+00  0.0000E+00
    -30.815  0.0000E+00  0.0000E+00  0.0000E+00  0.0000E+00  0.0000E+00  0.0000E+00  0.0000E+00  0.0000E+00  0.0000E+00
    -30.541  0.0000E+00  0.0000E+00  0.0000E+00  0.0000E+00  0.0000E+00  0.0000E+00  0.0000E+00  0.0000E+00  0.0000E+00
    -30.267  0.0000E+00  0.0000E+00  0.0000E+00  0.0000E+00  0.0000E+00  0.0000E+00  0.0000E+00  0.0000E+00  0.0000E+00
    -29.993  0.0000E+00  0.0000E+00  0.0000E+00  0.0000E+00  0.0000E+00  0.0000E+00  0.0000E+00  0.0000E+00  0.0000E+00
    -29.719  0.0000E+00  0.0000E+00  0.0000E+00  0.0000E+00  0.0000E+00  0.0000E+00  0.0000E+00  0.0000E+00  0.0000E+00
    -29.444  0.0000E+00  0.0000E+00  0.0000E+00  0.0000E+00  0.0000E+00  0.0000E+00  0.0000E+00  0.0000E+00  0.0000E+00
    -29.170  0.0000E+00  0.0000E+00  0.0000E+00  0.0000E+00  0.0000E+00  0.0000E+00  0.0000E+00  0.0000E+00  0.0000E+00
    -28.896  0.0000E+00  0.0000E+00  0.0000E+00  0.0000E+00  0.0000E+00  0.0000E+00  0.0000E+00  0.0000E+00  0.0000E+00
    -28.622  0.0000E+00  0.0000E+00  0.0000E+00  0.0000E+00  0.0000E+00  0.0000E+00  0.0000E+00  0.0000E+00  0.0000E+00
    -28.348  0.0000E+00  0.0000E+00  0.0000E+00  0.0000E+00  0.0000E+00  0.0000E+00  0.0000E+00  0.0000E+00  0.0000E+00
    -28.074  0.0000E+00  0.0000E+00  0.0000E+00  0.0000E+00  0.0000E+00  0.0000E+00  0.0000E+00  0.0000E+00  0.0000E+00
    -27.800  0.0000E+00  0.0000E+00  0.0000E+00  0.0000E+00  0.0000E+00  0.0000E+00  0.0000E+00  0.0000E+00  0.0000E+00
    -27.525  0.0000E+00  0.0000E+00  0.0000E+00  0.0000E+00  0.0000E+00  0.0000E+00  0.0000E+00  0.0000E+00  0.0000E+00
    -27.251  0.0000E+00  0.0000E+00  0.0000E+00  0.0000E+00  0.0000E+00  0.0000E+00  0.0000E+00  0.0000E+00  0.0000E+00
    -26.977  0.0000E+00  0.0000E+00  0.0000E+00  0.0000E+00  0.0000E+00  0.0000E+00  0.0000E+00  0.0000E+00  0.0000E+00
    -26.703  0.0000E+00  0.0000E+00  0.0000E+00  0.0000E+00  0.0000E+00  0.0000E+00  0.0000E+00  0.0000E+00  0.0000E+00
    -26.429  0.0000E+00  0.0000E+00  0.0000E+00  0.0000E+00  0.0000E+00  0.0000E+00  0.0000E+00  0.0000E+00  0.0000E+00
    -26.155  0.0000E+00  0.0000E+00  0.0000E+00  0.0000E+00  0.0000E+00  0.0000E+00  0.0000E+00  0.0000E+00  0.0000E+00
    -25.880  0.0000E+00  0.0000E+00  0.0000E+00  0.0000E+00  0.0000E+00  0.0000E+00  0.0000E+00  0.0000E+00  0.0000E+00
    -25.606  0.0000E+00  0.0000E+00  0.0000E+00  0.0000E+00  0.0000E+00  0.0000E+00  0.0000E+00  0.0000E+00  0.0000E+00
    -25.332  0.0000E+00  0.0000E+00  0.0000E+00  0.0000E+00  0.0000E+00  0.0000E+00  0.0000E+00  0.0000E+00  0.0000E+00
    -25.058  0.0000E+00  0.0000E+00  0.0000E+00  0.0000E+00  0.0000E+00  0.0000E+00  0.0000E+00  0.0000E+00  0.0000E+00
    -24.784  0.0000E+00  0.0000E+00  0.0000E+00  0.0000E+00  0.0000E+00  0.0000E+00  0.0000E+00  0.0000E+00  0.0000E+00
    -24.510  0.0000E+00  0.0000E+00  0.0000E+00  0.0000E+00  0.0000E+00  0.0000E+00  0.0000E+00  0.0000E+00  0.0000E+00
    -24.235  0.0000E+00  0.0000E+00  0.0000E+00  0.0000E+00  0.0000E+00  0.0000E+00  0.0000E+00  0.0000E+00  0.0000E+00
    -23.961  0.0000E+00  0.0000E+00  0.0000E+00  0.0000E+00  0.0000E+00  0.0000E+00  0.0000E+00  0.0000E+00  0.0000E+00
    -23.687  0.0000E+00  0.0000E+00  0.0000E+00  0.0000E+00  0.0000E+00  0.0000E+00  0.0000E+00  0.0000E+00  0.0000E+00
    -23.413  0.0000E+00  0.0000E+00  0.0000E+00  0.0000E+00  0.0000E+00  0.0000E+00  0.0000E+00  0.0000E+00  0.0000E+00
    -23.139  0.0000E+00  0.0000E+00  0.0000E+00  0.0000E+00  0.0000E+00  0.0000E+00  0.0000E+00  0.0000E+00  0.0000E+00
    -22.865  0.0000E+00  0.0000E+00  0.0000E+00  0.0000E+00  0.0000E+00  0.0000E+00  0.0000E+00  0.0000E+00  0.0000E+00
    -22.591  0.0000E+00  0.0000E+00  0.0000E+00  0.0000E+00  0.0000E+00  0.0000E+00  0.0000E+00  0.0000E+00  0.0000E+00
    -22.316  0.0000E+00  0.0000E+00  0.0000E+00  0.0000E+00  0.0000E+00  0.0000E+00  0.0000E+00  0.0000E+00  0.0000E+00
    -22.042  0.0000E+00  0.0000E+00  0.0000E+00  0.0000E+00  0.0000E+00  0.0000E+00  0.0000E+00  0.0000E+00  0.0000E+00
    -21.768  0.0000E+00  0.0000E+00  0.0000E+00  0.0000E+00  0.0000E+00  0.0000E+00  0.0000E+00  0.0000E+00  0.0000E+00
    -21.494  0.0000E+00  0.0000E+00  0.0000E+00  0.0000E+00  0.0000E+00  0.0000E+00  0.0000E+00  0.0000E+00  0.0000E+00
    -21.220  0.0000E+00  0.0000E+00  0.0000E+00  0.0000E+00  0.0000E+00  0.0000E+00  0.0000E+00  0.0000E+00  0.0000E+00
    -20.946  0.0000E+00  0.0000E+00  0.0000E+00  0.0000E+00  0.0000E+00  0.0000E+00  0.0000E+00  0.0000E+00  0.0000E+00
    -20.671  0.0000E+00  0.0000E+00  0.0000E+00  0.0000E+00  0.0000E+00  0.0000E+00  0.0000E+00  0.0000E+00  0.0000E+00
    -20.397  0.0000E+00  0.0000E+00  0.0000E+00  0.0000E+00  0.0000E+00  0.0000E+00  0.0000E+00  0.0000E+00  0.0000E+00
    -20.123  0.0000E+00  0.0000E+00  0.0000E+00  0.0000E+00  0.0000E+00  0.0000E+00  0.0000E+00  0.0000E+00  0.0000E+00
    -19.849  0.0000E+00  0.0000E+00  0.0000E+00  0.0000E+00  0.0000E+00  0.0000E+00  0.0000E+00  0.0000E+00  0.0000E+00
    -19.575  0.0000E+00  0.0000E+00  0.0000E+00  0.0000E+00  0.0000E+00  0.0000E+00  0.0000E+00  0.0000E+00  0.0000E+00
    -19.301  0.0000E+00  0.0000E+00  0.0000E+00  0.0000E+00  0.0000E+00  0.0000E+00  0.0000E+00  0.0000E+00  0.0000E+00
    -19.026  0.0000E+00  0.0000E+00  0.0000E+00  0.0000E+00  0.0000E+00  0.0000E+00  0.0000E+00  0.0000E+00  0.0000E+00
    -18.752  0.0000E+00  0.0000E+00  0.0000E+00  0.0000E+00  0.0000E+00  0.0000E+00  0.0000E+00  0.0000E+00  0.0000E+00
    -18.478  0.0000E+00  0.0000E+00  0.0000E+00  0.0000E+00  0.0000E+00  0.0000E+00  0.0000E+00  0.0000E+00  0.0000E+00
    -18.204  0.0000E+00  0.0000E+00  0.0000E+00  0.0000E+00  0.0000E+00  0.0000E+00  0.0000E+00  0.0000E+00  0.0000E+00
    -17.930  0.0000E+00  0.0000E+00  0.0000E+00  0.0000E+00  0.0000E+00  0.0000E+00  0.0000E+00  0.0000E+00  0.0000E+00
    -17.656  0.0000E+00  0.0000E+00  0.0000E+00  0.0000E+00  0.0000E+00  0.0000E+00  0.0000E+00  0.0000E+00  0.0000E+00
    -17.382  0.0000E+00  0.0000E+00  0.0000E+00  0.0000E+00  0.0000E+00  0.0000E+00  0.0000E+00  0.0000E+00  0.0000E+00
    -17.107  0.0000E+00  0.0000E+00  0.0000E+00  0.0000E+00  0.0000E+00  0.0000E+00  0.0000E+00  0.0000E+00  0.0000E+00
    -16.833  0.0000E+00  0.0000E+00  0.0000E+00  0.0000E+00  0.0000E+00  0.0000E+00  0.0000E+00  0.0000E+00  0.0000E+00
    -16.559  0.0000E+00  0.0000E+00  0.0000E+00  0.0000E+00  0.0000E+00  0.0000E+00  0.0000E+00  0.0000E+00  0.0000E+00
    -16.285  0.0000E+00  0.0000E+00  0.0000E+00  0.0000E+00  0.0000E+00  0.0000E+00  0.0000E+00  0.0000E+00  0.0000E+00
    -16.011  0.0000E+00  0.0000E+00  0.0000E+00  0.0000E+00  0.0000E+00  0.0000E+00  0.0000E+00  0.0000E+00  0.0000E+00
    -15.737  0.0000E+00  0.0000E+00  0.0000E+00  0.0000E+00  0.0000E+00  0.0000E+00  0.0000E+00  0.0000E+00  0.0000E+00
    -15.462  0.0000E+00  0.0000E+00  0.0000E+00  0.0000E+00  0.0000E+00  0.0000E+00  0.0000E+00  0.0000E+00  0.0000E+00
    -15.188  0.0000E+00  0.0000E+00  0.0000E+00  0.0000E+00  0.0000E+00  0.0000E+00  0.0000E+00  0.0000E+00  0.0000E+00
    -14.914  0.0000E+00  0.0000E+00  0.0000E+00  0.0000E+00  0.0000E+00  0.0000E+00  0.0000E+00  0.0000E+00  0.0000E+00
    -14.640  0.0000E+00  0.0000E+00  0.0000E+00  0.0000E+00  0.0000E+00  0.0000E+00  0.0000E+00  0.0000E+00  0.0000E+00
    -14.366  0.0000E+00  0.0000E+00  0.0000E+00  0.0000E+00  0.0000E+00  0.0000E+00  0.0000E+00  0.0000E+00  0.0000E+00
    -14.092  0.0000E+00  0.0000E+00  0.0000E+00  0.0000E+00  0.0000E+00  0.0000E+00  0.0000E+00  0.0000E+00  0.0000E+00
    -13.817  0.0000E+00  0.0000E+00  0.0000E+00  0.0000E+00  0.0000E+00  0.0000E+00  0.0000E+00  0.0000E+00  0.0000E+00
    -13.543  0.0000E+00  0.0000E+00  0.0000E+00  0.0000E+00  0.0000E+00  0.0000E+00  0.0000E+00  0.0000E+00  0.0000E+00
    -13.269  0.0000E+00  0.0000E+00  0.0000E+00  0.0000E+00  0.0000E+00  0.0000E+00  0.0000E+00  0.0000E+00  0.0000E+00
    -12.995  0.0000E+00  0.0000E+00  0.0000E+00  0.0000E+00  0.0000E+00  0.0000E+00  0.0000E+00  0.0000E+00  0.0000E+00
    -12.721  0.0000E+00  0.0000E+00  0.0000E+00  0.0000E+00  0.0000E+00  0.0000E+00  0.0000E+00  0.0000E+00  0.0000E+00
    -12.447  0.0000E+00  0.0000E+00  0.0000E+00  0.0000E+00  0.0000E+00  0.0000E+00  0.0000E+00  0.0000E+00  0.0000E+00
    -12.172  0.0000E+00  0.0000E+00  0.0000E+00  0.0000E+00  0.0000E+00  0.0000E+00  0.0000E+00  0.0000E+00  0.0000E+00
    -11.898  0.0000E+00  0.0000E+00  0.0000E+00  0.0000E+00  0.0000E+00  0.0000E+00  0.0000E+00  0.0000E+00  0.0000E+00
    -11.624  0.0000E+00  0.0000E+00  0.0000E+00  0.0000E+00  0.0000E+00  0.0000E+00  0.0000E+00  0.0000E+00  0.0000E+00
    -11.350  0.0000E+00  0.0000E+00  0.0000E+00  0.0000E+00  0.0000E+00  0.0000E+00  0.0000E+00  0.0000E+00  0.0000E+00
    -11.076  0.0000E+00  0.0000E+00  0.0000E+00  0.0000E+00  0.0000E+00  0.0000E+00  0.0000E+00  0.0000E+00  0.0000E+00
    -10.802  0.0000E+00  0.0000E+00  0.0000E+00  0.0000E+00  0.0000E+00  0.0000E+00  0.0000E+00  0.0000E+00  0.0000E+00
    -10.528  0.0000E+00  0.0000E+00  0.0000E+00  0.0000E+00  0.0000E+00  0.0000E+00  0.0000E+00  0.0000E+00  0.0000E+00
    -10.253  0.0000E+00  0.0000E+00  0.0000E+00  0.0000E+00  0.0000E+00  0.0000E+00  0.0000E+00  0.0000E+00  0.0000E+00
     -9.979  0.0000E+00  0.0000E+00  0.0000E+00  0.0000E+00  0.0000E+00  0.0000E+00  0.0000E+00  0.0000E+00  0.0000E+00
     -9.705  0.0000E+00  0.0000E+00  0.0000E+00  0.0000E+00  0.0000E+00  0.0000E+00  0.0000E+00  0.0000E+00  0.0000E+00
     -9.431  0.0000E+00  0.0000E+00  0.0000E+00  0.0000E+00  0.0000E+00  0.0000E+00  0.0000E+00  0.0000E+00  0.0000E+00
     -9.157  0.0000E+00  0.0000E+00  0.0000E+00  0.0000E+00  0.0000E+00  0.0000E+00  0.0000E+00  0.0000E+00  0.0000E+00
     -8.883  0.0000E+00  0.0000E+00  0.0000E+00  0.0000E+00  0.0000E+00  0.0000E+00  0.0000E+00  0.0000E+00  0.0000E+00
     -8.608  0.0000E+00  0.0000E+00  0.0000E+00  0.0000E+00  0.0000E+00  0.0000E+00  0.0000E+00  0.0000E+00  0.0000E+00
     -8.334  0.0000E+00  0.0000E+00  0.0000E+00  0.0000E+00  0.0000E+00  0.0000E+00  0.0000E+00  0.0000E+00  0.0000E+00
     -8.060  0.0000E+00  0.0000E+00  0.0000E+00  0.0000E+00  0.0000E+00  0.0000E+00  0.0000E+00  0.0000E+00  0.0000E+00
     -7.786  0.0000E+00  0.0000E+00  0.0000E+00  0.0000E+00  0.0000E+00  0.0000E+00  0.0000E+00  0.0000E+00  0.0000E+00
     -7.512  0.0000E+00  0.0000E+00  0.0000E+00  0.0000E+00  0.0000E+00  0.0000E+00  0.0000E+00  0.0000E+00  0.0000E+00
     -7.238  0.0000E+00  0.0000E+00  0.0000E+00  0.0000E+00  0.0000E+00  0.0000E+00  0.0000E+00  0.0000E+00  0.0000E+00
     -6.963  0.0000E+00  0.0000E+00  0.0000E+00  0.0000E+00  0.0000E+00  0.0000E+00  0.0000E+00  0.0000E+00  0.0000E+00
     -6.689  0.0000E+00  0.0000E+00  0.0000E+00  0.0000E+00  0.0000E+00  0.0000E+00  0.0000E+00  0.0000E+00  0.0000E+00
     -6.415  0.0000E+00  0.0000E+00  0.0000E+00  0.0000E+00  0.0000E+00  0.0000E+00  0.0000E+00  0.0000E+00  0.0000E+00
     -6.141  0.0000E+00  0.0000E+00  0.0000E+00  0.0000E+00  0.0000E+00  0.0000E+00  0.0000E+00  0.0000E+00  0.0000E+00
     -5.867  0.0000E+00  0.0000E+00  0.0000E+00  0.0000E+00  0.0000E+00  0.0000E+00  0.0000E+00  0.0000E+00  0.0000E+00
     -5.593  0.0000E+00  0.0000E+00  0.0000E+00  0.0000E+00  0.0000E+00  0.0000E+00  0.0000E+00  0.0000E+00  0.0000E+00
     -5.319  0.0000E+00  0.0000E+00  0.0000E+00  0.0000E+00  0.0000E+00  0.0000E+00  0.0000E+00  0.0000E+00  0.0000E+00
     -5.044  0.0000E+00  0.0000E+00  0.0000E+00  0.0000E+00  0.0000E+00  0.0000E+00  0.0000E+00  0.0000E+00  0.0000E+00
     -4.770  0.0000E+00  0.0000E+00  0.0000E+00  0.0000E+00  0.0000E+00  0.0000E+00  0.0000E+00  0.0000E+00  0.0000E+00
     -4.496  0.0000E+00  0.0000E+00  0.0000E+00  0.0000E+00  0.0000E+00  0.0000E+00  0.0000E+00  0.0000E+00  0.0000E+00
     -4.222  0.0000E+00  0.0000E+00  0.0000E+00  0.0000E+00  0.0000E+00  0.0000E+00  0.0000E+00  0.0000E+00  0.0000E+00
     -3.948  0.0000E+00  0.0000E+00  0.0000E+00  0.0000E+00  0.0000E+00  0.0000E+00  0.0000E+00  0.0000E+00  0.0000E+00
     -3.674  0.0000E+00  0.0000E+00  0.0000E+00  0.0000E+00  0.0000E+00  0.0000E+00  0.0000E+00  0.0000E+00  0.0000E+00
     -3.399  0.0000E+00  0.0000E+00  0.0000E+00  0.0000E+00  0.0000E+00  0.0000E+00  0.0000E+00  0.0000E+00  0.0000E+00
     -3.125  0.0000E+00  0.0000E+00  0.0000E+00  0.0000E+00  0.0000E+00  0.0000E+00  0.0000E+00  0.0000E+00  0.0000E+00
     -2.851  0.0000E+00  0.0000E+00  0.0000E+00  0.0000E+00  0.0000E+00  0.0000E+00  0.0000E+00  0.0000E+00  0.0000E+00
     -2.577  0.0000E+00  0.0000E+00  0.0000E+00  0.0000E+00  0.0000E+00  0.0000E+00  0.0000E+00  0.0000E+00  0.0000E+00
     -2.303  0.0000E+00  0.0000E+00  0.0000E+00  0.0000E+00  0.0000E+00  0.0000E+00  0.0000E+00  0.0000E+00  0.0000E+00
     -2.029  0.0000E+00  0.0000E+00  0.0000E+00  0.0000E+00  0.0000E+00  0.0000E+00  0.0000E+00  0.0000E+00  0.0000E+00
     -1.754  0.0000E+00  0.0000E+00  0.0000E+00  0.0000E+00  0.0000E+00  0.0000E+00  0.0000E+00  0.0000E+00  0.0000E+00