    2    2  100    1
  0.1486952E+02  0.2706303E-09  0.2706303E-09  0.4688606E-09  0.5000000E-15
  1.000000000000000E-004
  CAR 
 Pt-hcc                                  
     32     70     24
 
  0.0000000E+00  0.0000000E+00  0.0000000E+00  0.1250000E-02
      1        -40.566336   1.000000
      2        -40.310481   1.000000
      3        -40.310480   1.000000
      4        -40.261004   1.000000
      5        -40.261003   1.000000
      6        -40.149622   1.000000
      7          1.933184   1.000000
      8          4.638556   1.000000
      9          7.987784   1.000000
     10          8.539540   1.000000
     11          8.539541   1.000000
     12          8.948067   1.000000
     13          8.948067   1.000000
     14         10.319255   1.000000
     15         10.319256   1.000000
     16         11.338852   1.000000
     17         12.077188   1.000000
     18         12.077189   1.000000
     19         17.418567   0.000000
     20         27.286243   0.000000
     21         27.990681   0.000000
     22         29.562971   0.000000
     23         33.985805   0.000000
     24         33.985805   0.000000
 
  0.1000000E+00  0.6938894E-17  0.0000000E+00  0.7500000E-02
      1        -40.551164   1.000000
      2        -40.355981   1.000000
      3        -40.323424   1.000000
      4        -40.306547   1.000000
      5        -40.269627   1.000000
      6        -40.152294   1.000000
      7          2.316142   1.000000
      8          4.987606   1.000000
      9          7.912553   1.000000
     10          8.549061   1.000000
     11          8.782206   1.000000
     12          8.840662   1.000000
     13          9.235402   1.000000
     14          9.648566   1.000000
     15         10.129092   1.000000
     16         10.269149   1.000000
     17         12.149725   0.999997
     18         13.874599   0.000000
     19         17.372963   0.000000
     20         27.828033   0.000000
     21         28.550041   0.000000
     22         30.049387   0.000000
     23         32.211505   0.000000
     24         32.402285   0.000000
 
  0.2000000E+00  0.1387779E-16  0.0000000E+00  0.7500000E-02
      1        -40.509852   1.000000
      2        -40.474290   1.000000
      3        -40.425389   1.000000
      4        -40.357565   1.000000
      5        -40.293991   1.000000
      6        -40.163321   1.000000
      7          3.353162   1.000000
      8          5.744870   1.000000
      9          7.661275   1.000000
     10          8.166151   1.000000
     11          8.241276   1.000000
     12          9.232527   1.000000
     13          9.694969   1.000000
     14          9.708472   1.000000
     15          9.717534   1.000000
     16         10.042708   1.000000
     17         12.265269   0.895089
     18         16.170970   0.000000
     19         17.272787   0.000000
     20         26.806616   0.000000
     21         29.169047   0.000000
     22         29.927559   0.000000
     23         30.554358   0.000000
     24         30.718570   0.000000
 
  0.3000000E+00  0.0000000E+00  0.0000000E+00  0.7500000E-02
      1        -40.619595   1.000000
      2        -40.569526   1.000000
      3        -40.452207   1.000000
      4        -40.398225   1.000000
      5        -40.324528   1.000000
      6        -40.183867   1.000000
      7          4.595735   1.000000
      8          5.847027   1.000000
      9          7.017789   1.000000
     10          7.953392   1.000000
     11          8.351652   1.000000
     12          9.160286   1.000000
     13          9.277401   1.000000
     14         10.492891   1.000000
     15         10.929268   1.000000
     16         11.192552   1.000000
     17         12.328204   0.299430
     18         17.344470   0.000000
     19         18.486960   0.000000
     20         23.080738   0.000000
     21         27.429768   0.000000
     22         27.623188   0.000000
     23         29.941004   0.000000
     24         30.699063   0.000000
 
  0.4000000E+00  0.0000000E+00  0.0000000E+00  0.7500000E-02
      1        -40.736138   1.000000
      2        -40.683431   1.000000
      3        -40.430508   1.000000
      4        -40.393676   1.000000
      5        -40.349840   1.000000
      6        -40.211766   1.000000
      7          5.233253   1.000000
      8          5.507811   1.000000
      9          6.303901   1.000000
     10          8.521848   1.000000
     11          8.754885   1.000000
     12          8.971982   1.000000
     13          9.219213   1.000000
     14         12.132632   1.000000
     15         12.332254   0.260899
     16         12.342988   0.172537
     17         12.525770   0.000000
     18         18.079944   0.000000
     19         19.375618   0.000000
     20         20.507134   0.000000
     21         25.356890   0.000000
     22         25.393294   0.000000
     23         26.341580   0.000000
     24         29.443972   0.000000
 
  0.5000000E+00  0.0000000E+00  0.0000000E+00  0.3750000E-02
      1        -40.781481   1.000000
      2        -40.725514   1.000000
      3        -40.442482   1.000000
      4        -40.364731   1.000000
      5        -40.359337   1.000000
      6        -40.229402   1.000000
      7          5.273815   1.000000
      8          5.405902   1.000000
      9          6.061819   1.000000
     10          8.607968   1.000000
     11          8.862982   1.000000
     12          9.095320   1.000000
     13          9.419963   1.000000
     14         12.342641   0.175061
     15         12.643620   0.000000
     16         12.870437   0.000000
     17         14.701225   0.000000
     18         16.271183   0.000000
     19         19.896663   0.000000
     20         21.456452   0.000000
     21         22.384141   0.000000
     22         24.548018   0.000000
     23         25.774549   0.000000
     24         28.828670   0.000000
 
  0.1000000E+00  0.1000000E+00  0.0000000E+00  0.7500000E-02
      1        -40.523105   1.000000
      2        -40.429946   1.000000
      3        -40.397965   1.000000
      4        -40.339641   1.000000
      5        -40.292894   1.000000
      6        -40.159584   1.000000
      7          3.035709   1.000000
      8          5.594707   1.000000
      9          7.614189   1.000000
     10          8.457533   1.000000
     11          8.603145   1.000000
     12          8.790411   1.000000
     13          9.478525   1.000000
     14          9.481276   1.000000
     15          9.878538   1.000000
     16         10.191446   1.000000
     17         12.175699   0.999924
     18         15.568822   0.000000
     19         17.302160   0.000000
     20         28.037667   0.000000
     21         28.931262   0.000000
     22         29.499856   0.000000
     23         30.579987   0.000000
     24         31.526053   0.000000
 
  0.2000000E+00  0.1000000E+00  0.0000000E+00  0.1500000E-01
      1        -40.551868   1.000000
      2        -40.519821   1.000000
      3        -40.473151   1.000000
      4        -40.386702   1.000000
      5        -40.329454   1.000000
      6        -40.175377   1.000000
      7          4.259026   1.000000
      8          6.225623   1.000000
      9          7.423277   1.000000
     10          7.465080   1.000000
     11          8.165121   1.000000
     12          8.936030   1.000000
     13          9.461537   1.000000
     14          9.789425   1.000000
     15         10.637079   1.000000
     16         11.088388   1.000000
     17         12.179417   0.999884
     18         17.310382   0.000000
     19         17.766935   0.000000
     20         25.001633   0.000000
     21         26.878552   0.000000
     22         28.662299   0.000000
     23         30.720995   0.000000
     24         31.692093   0.000000
 
  0.3000000E+00  0.1000000E+00  0.0000000E+00  0.1500000E-01
      1        -40.678247   1.000000
      2        -40.634020   1.000000
      3        -40.435696   1.000000
      4        -40.413975   1.000000
      5        -40.364411   1.000000
      6        -40.201118   1.000000
      7          5.331127   1.000000
      8          5.948581   1.000000
      9          6.620790   1.000000
     10          7.971603   1.000000
     11          8.612762   1.000000
     12          8.652300   1.000000
     13          9.251586   1.000000
     14         10.667208   1.000000
     15         11.832973   1.000000
     16         12.166573   0.999974
     17         12.648030   0.000000
     18         17.872300   0.000000
     19         19.985107   0.000000
     20         21.088074   0.000000
     21         24.674602   0.000000
     22         27.234644   0.000000
     23         28.085074   0.000000
     24         29.877211   0.000000
 
  0.4000000E+00  0.1000000E+00  0.0000000E+00  0.1500000E-01
      1        -40.756588   1.000000
      2        -40.702571   1.000000
      3        -40.465299   1.000000
      4        -40.386284   1.000000
      5        -40.365208   1.000000
      6        -40.229118   1.000000
      7          5.587029   1.000000
      8          5.702119   1.000000
      9          6.179918   1.000000
     10          8.554979   1.000000
     11          8.811266   1.000000
     12          8.823423   1.000000
     13          9.187005   1.000000
     14         12.029604   1.000000
     15         12.148140   0.999998
     16         12.453482   0.000024
     17         14.463223   0.000000
     18         17.560340   0.000000
     19         19.578446   0.000000
     20         21.681939   0.000000
     21         22.474180   0.000000
     22         24.894910   0.000000
     23         26.287278   0.000000
     24         28.753598   0.000000
 
  0.2000000E+00  0.2000000E+00  0.0000000E+00  0.7500000E-02
      1        -40.624324   1.000000
      2        -40.621561   1.000000
      3        -40.441825   1.000000
      4        -40.420789   1.000000
      5        -40.392188   1.000000
      6        -40.197735   1.000000
      7          5.518654   1.000000
      8          6.841356   1.000000
      9          6.868224   1.000000
     10          6.931225   1.000000
     11          8.401356   1.000000
     12          8.404577   1.000000
     13          9.462126   1.000000
     14          9.855710   1.000000
     15         11.814173   1.000000
     16         11.979243   1.000000
     17         12.735494   0.000000
     18         17.868725   0.000000
     19         19.877173   0.000000
     20         22.537059   0.000000
     21         23.429597   0.000000
     22         28.024194   0.000000
     23         29.691220   0.000000
     24         30.023781   0.000000
 
  0.3000000E+00  0.2000000E+00  0.0000000E+00  0.1500000E-01
      1        -40.700089   1.000000
      2        -40.662949   1.000000
      3        -40.505614   1.000000
      4        -40.445056   1.000000
      5        -40.365773   1.000000
      6        -40.228500   1.000000
      7          6.302419   1.000000
      8          6.416647   1.000000
      9          6.490743   1.000000
     10          7.744196   1.000000
     11          8.244534   1.000000
     12          8.928005   1.000000
     13          8.998001   1.000000
     14         10.726901   1.000000
     15         11.826413   1.000000
     16         12.303439   0.569243
     17         14.540020   0.000000
     18         18.877683   0.000000
     19         19.793414   0.000000
     20         21.368300   0.000000
     21         22.041138   0.000000
     22         26.624582   0.000000
     23         27.357933   0.000000
     24         28.554123   0.000000
 
  0.4000000E+00  0.2000000E+00  0.0000000E+00  0.7500000E-02
      1        -40.727698   1.000000
      2        -40.673378   1.000000
      3        -40.536323   1.000000
      4        -40.465156   1.000000
      5        -40.334349   1.000000
      6        -40.250721   1.000000
      7          6.266169   1.000000
      8          6.323644   1.000000
      9          6.416716   1.000000
     10          8.359995   1.000000
     11          8.395914   1.000000
     12          8.516158   1.000000
     13          9.287715   1.000000
     14         11.566576   1.000000
     15         11.770443   1.000000
     16         12.093118   1.000000
     17         16.157641   0.000000
     18         16.760079   0.000000
     19         20.039433   0.000000
     20         21.768879   0.000000
     21         23.268665   0.000000
     22         24.436935   0.000000
     23         26.767472   0.000000
     24         27.885560   0.000000
 
  0.3000000E+00  0.3000000E+00  0.0000000E+00  0.7500000E-02
      1        -40.682659   1.000000
      2        -40.641386   1.000000
      3        -40.583359   1.000000
      4        -40.530916   1.000000
      5        -40.317044   1.000000
      6        -40.264495   1.000000
      7          6.363501   1.000000
      8          6.873278   1.000000
      9          7.141137   1.000000
     10          7.616458   1.000000
     11          8.193884   1.000000
     12          8.489091   1.000000
     13          9.388741   1.000000
     14         11.124925   1.000000
     15         11.585619   1.000000
     16         11.914165   1.000000
     17         16.205583   0.000000
     18         17.462634   0.000000
     19         18.881926   0.000000
     20         22.696389   0.000000
     21         24.261081   0.000000
     22         25.567731   0.000000
     23         26.464850   0.000000
     24         26.752371   0.000000
 
  0.0000000E+00  0.0000000E+00  0.1250000E+00  0.2500000E-02
      1        -40.550643   1.000000
      2        -40.308543   1.000000
      3        -40.308542   1.000000
      4        -40.262836   1.000000
      5        -40.262835   1.000000
      6        -40.165232   1.000000
      7          2.075630   1.000000
      8          4.623695   1.000000
      9          7.950594   1.000000
     10          8.517920   1.000000
     11          8.517921   1.000000
     12          8.904756   1.000000
     13          8.904756   1.000000
     14         10.428760   1.000000
     15         10.428760   1.000000
     16         10.721396   1.000000
     17         12.048416   1.000000
     18         12.048416   1.000000
     19         18.285356   0.000000
     20         26.833084   0.000000
     21         28.553239   0.000000
     22         29.258076   0.000000
     23         33.223887   0.000000
     24         33.223887   0.000000
 
  0.1000000E+00  0.6938894E-17  0.1250000E+00  0.1500000E-01
      1        -40.537430   1.000000
      2        -40.353260   1.000000
      3        -40.321342   1.000000
      4        -40.309750   1.000000
      5        -40.271744   1.000000
      6        -40.166727   1.000000
      7          2.455563   1.000000
      8          4.979208   1.000000
      9          7.915711   1.000000
     10          8.452128   1.000000
     11          8.664473   1.000000
     12          8.808857   1.000000
     13          9.186952   1.000000
     14          9.591492   1.000000
     15         10.258365   1.000000
     16         10.285572   1.000000
     17         12.108345   1.000000
     18         13.351832   0.000000
     19         18.357560   0.000000
     20         27.413605   0.000000
     21         29.044367   0.000000
     22         29.753441   0.000000
     23         31.488443   0.000000
     24         32.293326   0.000000
 
  0.2000000E+00  0.1387779E-16  0.1250000E+00  0.1500000E-01
      1        -40.511561   1.000000
      2        -40.458803   1.000000
      3        -40.428783   1.000000
      4        -40.355210   1.000000
      5        -40.296422   1.000000
      6        -40.174454   1.000000
      7          3.474896   1.000000
      8          5.760281   1.000000
      9          7.695186   1.000000
     10          7.900512   1.000000
     11          8.237238   1.000000
     12          9.101027   1.000000
     13          9.512148   1.000000
     14          9.896719   1.000000
     15          9.959228   1.000000
     16         10.091225   1.000000
     17         12.198662   0.999149
     18         15.000232   0.000000
     19         18.718391   0.000000
     20         26.894355   0.000000
     21         28.990561   0.000000
     22         30.033032   0.000000
     23         30.083886   0.000000
     24         31.205644   0.000000
 
  0.3000000E+00  0.0000000E+00  0.1250000E+00  0.1500000E-01
      1        -40.623162   1.000000
      2        -40.574693   1.000000
      3        -40.436128   1.000000
      4        -40.395443   1.000000
      5        -40.327390   1.000000
      6        -40.191141   1.000000
      7          4.645782   1.000000
      8          5.880413   1.000000
      9          7.004227   1.000000
     10          7.766720   1.000000
     11          8.378765   1.000000
     12          9.283866   1.000000
     13          9.345464   1.000000
     14         10.551243   1.000000
     15         10.952872   1.000000
     16         11.138104   1.000000
     17         12.250098   0.953827
     18         16.174597   0.000000
     19         19.660629   0.000000
     20         23.372603   0.000000
     21         27.529413   0.000000
     22         27.687214   0.000000
     23         29.376262   0.000000
     24         31.223181   0.000000
 
  0.4000000E+00  0.0000000E+00  0.1250000E+00  0.1500000E-01
      1        -40.738236   1.000000
      2        -40.688721   1.000000
      3        -40.427561   1.000000
      4        -40.383171   1.000000
      5        -40.352879   1.000000
      6        -40.215549   1.000000
      7          5.157235   1.000000
      8          5.510141   1.000000
      9          6.484921   1.000000
     10          7.820470   1.000000
     11          9.007320   1.000000
     12          9.065102   1.000000
     13          9.806401   1.000000
     14         12.046200   1.000000
     15         12.149248   0.999997
     16         12.430834   0.000303
     17         12.447758   0.000047
     18         17.178005   0.000000
     19         19.414378   0.000000
     20         21.360354   0.000000
     21         25.053107   0.000000
     22         25.694189   0.000000
     23         26.707488   0.000000
     24         29.649441   0.000000
 
  0.5000000E+00  0.0000000E+00  0.1250000E+00  0.7500000E-02
      1        -40.782897   1.000000
      2        -40.730668   1.000000
      3        -40.439293   1.000000
      4        -40.362846   1.000000
      5        -40.356056   1.000000
      6        -40.231207   1.000000
      7          5.220849   1.000000
      8          5.307570   1.000000
      9          6.319368   1.000000
     10          7.885434   1.000000
     11          8.961589   1.000000
     12          9.171467   1.000000
     13         10.284561   1.000000
     14         12.141427   0.999999
     15         12.665865   0.000000
     16         12.863219   0.000000
     17         14.430526   0.000000
     18         16.140286   0.000000
     19         19.777524   0.000000
     20         20.595618   0.000000
     21         23.502352   0.000000
     22         24.865123   0.000000
     23         25.915251   0.000000
     24         29.106104   0.000000
 
  0.1000000E+00  0.1000000E+00  0.1250000E+00  0.1500000E-01
      1        -40.514860   1.000000
      2        -40.423001   1.000000
      3        -40.400147   1.000000
      4        -40.339239   1.000000
      5        -40.295214   1.000000
      6        -40.171351   1.000000
      7          3.165798   1.000000
      8          5.602376   1.000000
      9          7.648813   1.000000
     10          8.136914   1.000000
     11          8.538159   1.000000
     12          8.778593   1.000000
     13          9.401855   1.000000
     14          9.641393   1.000000
     15          9.968283   1.000000
     16         10.274392   1.000000
     17         12.119722   1.000000
     18         14.618267   0.000000
     19         18.580806   0.000000
     20         27.942354   0.000000
     21         28.980087   0.000000
     22         29.504096   0.000000
     23         30.128966   0.000000
     24         31.777857   0.000000
 
  0.2000000E+00  0.1000000E+00  0.1250000E+00  0.3000000E-01
      1        -40.558850   1.000000
      2        -40.524006   1.000000
      3        -40.452985   1.000000
      4        -40.385274   1.000000
      5        -40.331886   1.000000
      6        -40.183898   1.000000
      7          4.352037   1.000000
      8          6.266065   1.000000
      9          7.277751   1.000000
     10          7.496046   1.000000
     11          8.124393   1.000000
     12          8.836047   1.000000
     13          9.616230   1.000000
     14          9.779713   1.000000
     15         10.759125   1.000000
     16         11.029828   1.000000
     17         12.122736   1.000000
     18         15.893441   0.000000
     19         19.334966   0.000000
     20         25.189920   0.000000
     21         27.012164   0.000000
     22         28.653823   0.000000
     23         30.219575   0.000000
     24         32.219385   0.000000
 
  0.3000000E+00  0.1000000E+00  0.1250000E+00  0.3000000E-01
      1        -40.680502   1.000000
      2        -40.638794   1.000000
      3        -40.434741   1.000000
      4        -40.400499   1.000000
      5        -40.366865   1.000000
      6        -40.205776   1.000000
      7          5.301660   1.000000
      8          5.987371   1.000000
      9          6.702789   1.000000
     10          7.660124   1.000000
     11          8.600189   1.000000
     12          9.008224   1.000000
     13          9.268663   1.000000
     14         10.684184   1.000000
     15         11.885399   1.000000
     16         11.951377   1.000000
     17         12.718412   0.000000
     18         17.021114   0.000000
     19         20.258547   0.000000
     20         21.875047   0.000000
     21         24.819258   0.000000
     22         26.994258   0.000000
     23         28.124670   0.000000
     24         30.119965   0.000000
 
  0.4000000E+00  0.1000000E+00  0.1250000E+00  0.3000000E-01
      1        -40.757998   1.000000
      2        -40.707824   1.000000
      3        -40.463382   1.000000
      4        -40.389927   1.000000
      5        -40.355191   1.000000
      6        -40.230200   1.000000
      7          5.466344   1.000000
      8          5.656578   1.000000
      9          6.477666   1.000000
     10          7.823262   1.000000
     11          8.676637   1.000000
     12          9.305898   1.000000
     13          9.726942   1.000000
     14         11.908674   1.000000
     15         12.035740   1.000000
     16         12.501650   0.000000
     17         14.407205   0.000000
     18         17.322913   0.000000
     19         19.264360   0.000000
     20         21.614042   0.000000
     21         22.949461   0.000000
     22         25.163802   0.000000
     23         26.498885   0.000000
     24         28.877886   0.000000
 
  0.2000000E+00  0.2000000E+00  0.1250000E+00  0.1500000E-01
      1        -40.626844   1.000000
      2        -40.625714   1.000000
      3        -40.442060   1.000000
      4        -40.412081   1.000000
      5        -40.389497   1.000000
      6        -40.202221   1.000000
      7          5.548101   1.000000
      8          6.670943   1.000000
      9          6.950217   1.000000
     10          7.047790   1.000000
     11          8.390013   1.000000
     12          8.412918   1.000000
     13          9.332135   1.000000
     14         10.019616   1.000000
     15         11.737782   1.000000
     16         11.938093   1.000000
     17         12.818502   0.000000
     18         17.040859   0.000000
     19         20.496846   0.000000
     20         23.022737   0.000000
     21         23.607479   0.000000
     22         27.935725   0.000000
     23         28.837788   0.000000
     24         30.715493   0.000000
 
  0.3000000E+00  0.2000000E+00  0.1250000E+00  0.3000000E-01
      1        -40.701024   1.000000
      2        -40.667665   1.000000
      3        -40.506068   1.000000
      4        -40.449513   1.000000
      5        -40.354259   1.000000
      6        -40.229150   1.000000
      7          6.099718   1.000000
      8          6.501000   1.000000
      9          6.688728   1.000000
     10          7.513188   1.000000
     11          8.407063   1.000000
     12          8.819120   1.000000
     13          9.145156   1.000000
     14         10.793121   1.000000
     15         11.598188   1.000000
     16         12.419996   0.000897
     17         14.587379   0.000000
     18         18.926026   0.000000
     19         19.078591   0.000000
     20         21.467126   0.000000
     21         22.873460   0.000000
     22         26.118748   0.000000
     23         27.381005   0.000000
     24         28.727213   0.000000
 
  0.4000000E+00  0.2000000E+00  0.1250000E+00  0.1500000E-01
      1        -40.727872   1.000000
      2        -40.678328   1.000000
      3        -40.536535   1.000000
      4        -40.469317   1.000000
      5        -40.325614   1.000000
      6        -40.248774   1.000000
      7          6.019605   1.000000
      8          6.373752   1.000000
      9          6.787860   1.000000
     10          7.751081   1.000000
     11          8.247786   1.000000
     12          9.026666   1.000000
     13          9.466894   1.000000
     14         11.533740   1.000000
     15         11.594998   1.000000
     16         12.178288   0.999898
     17         16.235425   0.000000
     18         16.792029   0.000000
     19         20.172683   0.000000
     20         21.455981   0.000000
     21         22.431963   0.000000
     22         25.518667   0.000000
     23         27.007952   0.000000
     24         27.268254   0.000000
 
  0.3000000E+00  0.3000000E+00  0.1250000E+00  0.1500000E-01
      1        -40.681230   1.000000
      2        -40.646185   1.000000
      3        -40.585891   1.000000
      4        -40.535032   1.000000
      5        -40.309153   1.000000
      6        -40.261447   1.000000
      7          6.405230   1.000000
      8          6.847854   1.000000
      9          7.171748   1.000000
     10          7.483752   1.000000
     11          8.340578   1.000000
     12          8.383585   1.000000
     13          9.397780   1.000000
     14         11.226290   1.000000
     15         11.347236   1.000000
     16         12.020356   1.000000
     17         16.307570   0.000000
     18         17.611787   0.000000
     19         19.161095   0.000000
     20         21.799167   0.000000
     21         24.515572   0.000000
     22         24.561010   0.000000
     23         26.507674   0.000000
     24         27.786856   0.000000
 
  0.0000000E+00  0.0000000E+00  0.2500000E+00  0.2500000E-02
      1        -40.506332   1.000000
      2        -40.302869   1.000000
      3        -40.302868   1.000000
      4        -40.267826   1.000000
      5        -40.267825   1.000000
      6        -40.211124   1.000000
      7          2.484036   1.000000
      8          4.540098   1.000000
      9          7.864673   1.000000
     10          8.483948   1.000000
     11          8.483948   1.000000
     12          8.794169   1.000000
     13          8.794170   1.000000
     14          9.536611   1.000000
     15         10.712427   1.000000
     16         10.712427   1.000000
     17         11.947345   1.000000
     18         11.947346   1.000000
     19         20.232306   0.000000
     20         26.352195   0.000000
     21         28.605673   0.000000
     22         29.005423   0.000000
     23         32.615132   0.000000
     24         32.615132   0.000000
 
  0.1000000E+00  0.6938894E-17  0.2500000E+00  0.1500000E-01
      1        -40.497910   1.000000
      2        -40.344958   1.000000
      3        -40.319125   1.000000
      4        -40.315733   1.000000
      5        -40.277536   1.000000
      6        -40.206579   1.000000
      7          2.856517   1.000000
      8          4.911211   1.000000
      9          7.896962   1.000000
     10          8.283382   1.000000
     11          8.363407   1.000000
     12          8.759203   1.000000
     13          9.069164   1.000000
     14          9.175080   1.000000
     15         10.578379   1.000000
     16         10.579444   1.000000
     17         11.973596   1.000000
     18         12.618408   0.000000
     19         20.373498   0.000000
     20         26.925950   0.000000
     21         29.098608   0.000000
     22         29.442811   0.000000
     23         31.203710   0.000000
     24         32.151290   0.000000
 
  0.2000000E+00  0.1387779E-16  0.2500000E+00  0.1500000E-01
      1        -40.507971   1.000000
      2        -40.444146   1.000000
      3        -40.416844   1.000000
      4        -40.347851   1.000000
      5        -40.303047   1.000000
      6        -40.206059   1.000000
      7          3.826812   1.000000
      8          5.750848   1.000000
      9          7.489667   1.000000
     10          7.816504   1.000000
     11          7.986974   1.000000
     12          8.886170   1.000000
     13          9.422201   1.000000
     14          9.820173   1.000000
     15         10.424089   1.000000
     16         10.446310   1.000000
     17         12.002038   1.000000
     18         13.712979   0.000000
     19         20.787881   0.000000
     20         27.145431   0.000000
     21         28.568685   0.000000
     22         29.403663   0.000000
     23         30.560448   0.000000
     24         31.448006   0.000000
 
  0.3000000E+00  0.0000000E+00  0.2500000E+00  0.1500000E-01
      1        -40.627997   1.000000
      2        -40.587589   1.000000
      3        -40.396066   1.000000
      4        -40.387312   1.000000
      5        -40.335207   1.000000
      6        -40.213080   1.000000
      7          4.801318   1.000000