Automatically generated mesh
     210
Reciprocal lattice
    0.00000000000000    0.00000000000000    0.00000000000000             1
    0.06250000000000   -0.00000000000000    0.00000000000000             6
    0.12500000000000   -0.00000000000000    0.00000000000000             6
    0.18750000000000   -0.00000000000000    0.00000000000000             6
    0.25000000000000   -0.00000000000000    0.00000000000000             6
    0.31250000000000    0.00000000000000    0.00000000000000             6
    0.37500000000000   -0.00000000000000    0.00000000000000             6
    0.43750000000000   -0.00000000000000    0.00000000000000             6
    0.50000000000000   -0.00000000000000    0.00000000000000             3
    0.06250000000000    0.06250000000000    0.00000000000000             6
    0.12500000000000    0.06250000000000    0.00000000000000            12
    0.18750000000000    0.06250000000000    0.00000000000000            12
    0.25000000000000    0.06250000000000    0.00000000000000            12
    0.31250000000000    0.06250000000000    0.00000000000000            12
    0.37500000000000    0.06250000000000    0.00000000000000            12
    0.43750000000000    0.06250000000000    0.00000000000000            12
    0.12500000000000    0.12500000000000    0.00000000000000             6
    0.18750000000000    0.12500000000000    0.00000000000000            12
    0.25000000000000    0.12500000000000    0.00000000000000            12
    0.31250000000000    0.12500000000000    0.00000000000000            12
    0.37500000000000    0.12500000000000    0.00000000000000            12
    0.43750000000000    0.12500000000000    0.00000000000000             6
    0.18750000000000    0.18750000000000    0.00000000000000             6
    0.25000000000000    0.18750000000000    0.00000000000000            12
    0.31250000000000    0.18750000000000    0.00000000000000            12
    0.37500000000000    0.18750000000000    0.00000000000000            12
    0.25000000000000    0.25000000000000    0.00000000000000             6
    0.31250000000000    0.25000000000000    0.00000000000000            12
    0.37500000000000    0.25000000000000    0.00000000000000             6
    0.31250000000000    0.31250000000000    0.00000000000000             6
    0.00000000000000    0.00000000000000    0.08333333333334             2
    0.06250000000000   -0.00000000000000    0.08333333333334            12
    0.12500000000000   -0.00000000000000    0.08333333333334            12
    0.18750000000000   -0.00000000000000    0.08333333333334            12
    0.25000000000000   -0.00000000000000    0.08333333333334            12
    0.31250000000000    0.00000000000000    0.08333333333334            12
    0.37500000000000   -0.00000000000000    0.08333333333334            12
    0.43750000000000   -0.00000000000000    0.08333333333334            12
    0.50000000000000   -0.00000000000000    0.08333333333334             6
    0.06250000000000    0.06250000000000    0.08333333333334            12
    0.12500000000000    0.06250000000000    0.08333333333334            24
    0.18750000000000    0.06250000000000    0.08333333333334            24
    0.25000000000000    0.06250000000000    0.08333333333334            24
    0.31250000000000    0.06250000000000    0.08333333333334            24
    0.37500000000000    0.06250000000000    0.08333333333334            24
    0.43750000000000    0.06250000000000    0.08333333333334            24
    0.12500000000000    0.12500000000000    0.08333333333334            12
    0.18750000000000    0.12500000000000    0.08333333333334            24
    0.25000000000000    0.12500000000000    0.08333333333334            24
    0.31250000000000    0.12500000000000    0.08333333333334            24
    0.37500000000000    0.12500000000000    0.08333333333334            24
    0.43750000000000    0.12500000000000    0.08333333333334            12
    0.18750000000000    0.18750000000000    0.08333333333334            12
    0.25000000000000    0.18750000000000    0.08333333333334            24
    0.31250000000000    0.18750000000000    0.08333333333334            24
    0.37500000000000    0.18750000000000    0.08333333333334            24
    0.25000000000000    0.25000000000000    0.08333333333334            12
    0.31250000000000    0.25000000000000    0.08333333333334            24
    0.37500000000000    0.25000000000000    0.08333333333334            12
    0.31250000000000    0.31250000000000    0.08333333333334            12
    0.00000000000000    0.00000000000000    0.16666666666666             2
    0.06250000000000   -0.00000000000000    0.16666666666666            12
    0.12500000000000   -0.00000000000000    0.16666666666666            12
    0.18750000000000   -0.00000000000000    0.16666666666666            12
    0.25000000000000   -0.00000000000000    0.16666666666666            12
    0.31250000000000    0.00000000000000    0.16666666666666            12
    0.37500000000000   -0.00000000000000    0.16666666666666            12
    0.43750000000000   -0.00000000000000    0.16666666666666            12
    0.50000000000000   -0.00000000000000    0.16666666666666             6
    0.06250000000000    0.06250000000000    0.16666666666666            12
    0.12500000000000    0.06250000000000    0.16666666666666            24
    0.18750000000000    0.06250000000000    0.16666666666666            24
    0.25000000000000    0.06250000000000    0.16666666666666            24
    0.31250000000000    0.06250000000000    0.16666666666666            24
    0.37500000000000    0.06250000000000    0.16666666666666            24
    0.43750000000000    0.06250000000000    0.16666666666666            24
    0.12500000000000    0.12500000000000    0.16666666666666            12
    0.18750000000000    0.12500000000000    0.16666666666666            24
    0.25000000000000    0.12500000000000    0.16666666666666            24
    0.31250000000000    0.12500000000000    0.16666666666666            24
    0.37500000000000    0.12500000000000    0.16666666666666            24
    0.43750000000000    0.12500000000000    0.16666666666666            12
    0.18750000000000    0.18750000000000    0.16666666666666            12
    0.25000000000000    0.18750000000000    0.16666666666666            24
    0.31250000000000    0.18750000000000    0.16666666666666            24
    0.37500000000000    0.18750000000000    0.16666666666666            24
    0.25000000000000    0.25000000000000    0.16666666666666            12
    0.31250000000000    0.25000000000000    0.16666666666666            24
    0.37500000000000    0.25000000000000    0.16666666666666            12
    0.31250000000000    0.31250000000000    0.16666666666666            12
    0.00000000000000    0.00000000000000    0.25000000000000             2
    0.06250000000000   -0.00000000000000    0.25000000000000            12
    0.12500000000000   -0.00000000000000    0.25000000000000            12
    0.18750000000000   -0.00000000000000    0.25000000000000            12
    0.25000000000000   -0.00000000000000    0.25000000000000            12
    0.31250000000000    0.00000000000000    0.25000000000000            12
    0.37500000000000   -0.00000000000000    0.25000000000000            12
    0.43750000000000   -0.00000000000000    0.25000000000000            12
    0.50000000000000   -0.00000000000000    0.25000000000000             6
    0.06250000000000    0.06250000000000    0.25000000000000            12
    0.12500000000000    0.06250000000000    0.25000000000000            24
    0.18750000000000    0.06250000000000    0.25000000000000            24
    0.25000000000000    0.06250000000000    0.25000000000000            24
    0.31250000000000    0.06250000000000    0.25000000000000            24
    0.37500000000000    0.06250000000000    0.25000000000000            24
    0.43750000000000    0.06250000000000    0.25000000000000            24
    0.12500000000000    0.12500000000000    0.25000000000000            12
    0.18750000000000    0.12500000000000    0.25000000000000            24
    0.25000000000000    0.12500000000000    0.25000000000000            24
    0.31250000000000    0.12500000000000    0.25000000000000            24
    0.37500000000000    0.12500000000000    0.25000000000000            24
    0.43750000000000    0.12500000000000    0.25000000000000            12
    0.18750000000000    0.18750000000000    0.25000000000000            12
    0.25000000000000    0.18750000000000    0.25000000000000            24
    0.31250000000000    0.18750000000000    0.25000000000000            24
    0.37500000000000    0.18750000000000    0.25000000000000            24
    0.25000000000000    0.25000000000000    0.25000000000000            12
    0.31250000000000    0.25000000000000    0.25000000000000            24
    0.37500000000000    0.25000000000000    0.25000000000000            12
    0.31250000000000    0.31250000000000    0.25000000000000            12
    0.00000000000000    0.00000000000000    0.33333333333334             2
    0.06250000000000   -0.00000000000000    0.33333333333334            12
    0.12500000000000   -0.00000000000000    0.33333333333334            12
    0.18750000000000   -0.00000000000000    0.33333333333334            12
    0.25000000000000   -0.00000000000000    0.33333333333334            12
    0.31250000000000    0.00000000000000    0.33333333333334            12
    0.37500000000000   -0.00000000000000    0.33333333333334            12
    0.43750000000000   -0.00000000000000    0.33333333333334            12
    0.50000000000000   -0.00000000000000    0.33333333333334             6
    0.06250000000000    0.06250000000000    0.33333333333334            12
    0.12500000000000    0.06250000000000    0.33333333333334            24
    0.18750000000000    0.06250000000000    0.33333333333334            24
    0.25000000000000    0.06250000000000    0.33333333333334            24
    0.31250000000000    0.06250000000000    0.33333333333334            24
    0.37500000000000    0.06250000000000    0.33333333333334            24
    0.43750000000000    0.06250000000000    0.33333333333334            24
    0.12500000000000    0.12500000000000    0.33333333333334            12
    0.18750000000000    0.12500000000000    0.33333333333334            24
    0.25000000000000    0.12500000000000    0.33333333333334            24
    0.31250000000000    0.12500000000000    0.33333333333334            24
    0.37500000000000    0.12500000000000    0.33333333333334            24
    0.43750000000000    0.12500000000000    0.33333333333334            12
    0.18750000000000    0.18750000000000    0.33333333333334            12
    0.25000000000000    0.18750000000000    0.33333333333334            24
    0.31250000000000    0.18750000000000    0.33333333333334            24
    0.37500000000000    0.18750000000000    0.33333333333334            24
    0.25000000000000    0.25000000000000    0.33333333333334            12
    0.31250000000000    0.25000000000000    0.33333333333334            24
    0.37500000000000    0.25000000000000    0.33333333333334            12
    0.31250000000000    0.31250000000000    0.33333333333334            12
    0.00000000000000    0.00000000000000    0.41666666666666             2
    0.06250000000000   -0.00000000000000    0.41666666666666            12
    0.12500000000000   -0.00000000000000    0.41666666666666            12
    0.18750000000000   -0.00000000000000    0.41666666666666            12
    0.25000000000000   -0.00000000000000    0.41666666666666            12
    0.31250000000000    0.00000000000000    0.41666666666666            12
    0.37500000000000   -0.00000000000000    0.41666666666666            12
    0.43750000000000   -0.00000000000000    0.41666666666666            12
    0.50000000000000   -0.00000000000000    0.41666666666666             6
    0.06250000000000    0.06250000000000    0.41666666666666            12
    0.12500000000000    0.06250000000000    0.41666666666666            24
    0.18750000000000    0.06250000000000    0.41666666666666            24
    0.25000000000000    0.06250000000000    0.41666666666666            24
    0.31250000000000    0.06250000000000    0.41666666666666            24
    0.37500000000000    0.06250000000000    0.41666666666666            24
    0.43750000000000    0.06250000000000    0.41666666666666            24
    0.12500000000000    0.12500000000000    0.41666666666666            12
    0.18750000000000    0.12500000000000    0.41666666666666            24
    0.25000000000000    0.12500000000000    0.41666666666666            24
    0.31250000000000    0.12500000000000    0.41666666666666            24
    0.37500000000000    0.12500000000000    0.41666666666666            24
    0.43750000000000    0.12500000000000    0.41666666666666            12
    0.18750000000000    0.18750000000000    0.41666666666666            12
    0.25000000000000    0.18750000000000    0.41666666666666            24
    0.31250000000000    0.18750000000000    0.41666666666666            24
    0.37500000000000    0.18750000000000    0.41666666666666            24
    0.25000000000000    0.25000000000000    0.41666666666666            12
    0.31250000000000    0.25000000000000    0.41666666666666            24
    0.37500000000000    0.25000000000000    0.41666666666666            12
    0.31250000000000    0.31250000000000    0.41666666666666            12
    0.00000000000000    0.00000000000000    0.50000000000000             1
    0.06250000000000   -0.00000000000000    0.50000000000000             6
    0.12500000000000   -0.00000000000000    0.50000000000000             6
    0.18750000000000   -0.00000000000000    0.50000000000000             6
    0.25000000000000   -0.00000000000000    0.50000000000000             6
    0.31250000000000    0.00000000000000    0.50000000000000             6
    0.37500000000000   -0.00000000000000    0.50000000000000             6
    0.43750000000000   -0.00000000000000    0.50000000000000             6
    0.50000000000000   -0.00000000000000    0.50000000000000             3
    0.06250000000000    0.06250000000000    0.50000000000000             6
    0.12500000000000    0.06250000000000    0.50000000000000            12
    0.18750000000000    0.06250000000000    0.50000000000000            12
    0.25000000000000    0.06250000000000    0.50000000000000            12
    0.31250000000000    0.06250000000000    0.50000000000000            12
    0.37500000000000    0.06250000000000    0.50000000000000            12
    0.43750000000000    0.06250000000000    0.50000000000000            12
    0.12500000000000    0.12500000000000    0.50000000000000             6
    0.18750000000000    0.12500000000000    0.50000000000000            12
    0.25000000000000    0.12500000000000    0.50000000000000            12
    0.31250000000000    0.12500000000000    0.50000000000000            12
    0.37500000000000    0.12500000000000    0.50000000000000            12
    0.43750000000000    0.12500000000000    0.50000000000000             6
    0.18750000000000    0.18750000000000    0.50000000000000             6
    0.25000000000000    0.18750000000000    0.50000000000000            12
    0.31250000000000    0.18750000000000    0.50000000000000            12
    0.37500000000000    0.18750000000000    0.50000000000000            12
    0.25000000000000    0.25000000000000    0.50000000000000             6
    0.31250000000000    0.25000000000000    0.50000000000000            12
    0.37500000000000    0.25000000000000    0.50000000000000             6
    0.31250000000000    0.31250000000000    0.50000000000000             6
