 vasp.6.3.2 27Jun22 (build Aug 12 2022 00:53:59) complex                        
  
 executed on               tv2STD date 2024.11.30  15:36:38
 running   24 mpi-ranks, with    1 threads/rank
 distrk:  each k-point on   24 cores,    1 groups
 distr:  one band on NCORE=   6 cores,    4 groups


--------------------------------------------------------------------------------------------------------


 INCAR:
   SYSTEM = Co-hcc
   NWRITE = 2    write-flag
   ISTART = 0    job   : 0-new, 1-cont, 2-samecut
   ICHARG = 2    charge: 0-wave, 1-file, 2-atom, >10-const
   INIWAV = 1    electr: 0-lowe 1-rand  2-diag
   ENCUT = 400     energy cutoff in eV
   PREC = Accurate      normal | accurate
   ADDGRID = .FALSE.  (use fine grid)
   NELM = 100     number of ELM steps
   EDIFF = 1E-06    energy stopping-criterion for ELM
   LREAL = .F.      real-space projection (.FALSE., .TRUE., On, Auto)
   ALGO = Normal     Normal, Fast, Very_Fast
   LWAVE = .FALSE.
   LCHARG = .FALSE.
   NSW = 0       max number of geometry steps
   IBRION = -1     ionic relax: 0-MD, 1-quasi-Newton, 2-CG, 3-Damped MD
   EDIFFG = -0.02  force (eV/A) stopping-criterion for geometry steps
   ISIF = 2     (1:force\=y stress\=trace only ions\=y shape\=n volume\=n)
   ISYM = 1     (1-use symmetry, 0-no symmetry)
   ISMEAR = 0     (-1-Fermi, 1-Methfessel/Paxton)
   SIGMA = 0.05   broadening in eV
   NPAR = 4
   ISPIN = 2
   MAGMOM = 2*3

 POTCAR:    PAW_PBE Co 02Aug2007                  
 POTCAR:    PAW_PBE Co 02Aug2007                  
   SHA256 =  0e690c60710354995174544f52f9f2c30879afabeffe3b3fbd4001cb294e56d4 Co/POTCAR             
   COPYR  = (c) Copyright 02Aug2007 Georg Kresse                                                    
   COPYR  = This file is part of the software VASP. Any use, copying, and all other rights are regul
   COPYR  = If you do not have a valid VASP license, you may not use, copy or distribute this file. 
   VRHFIN =Co: d8 s1                                                                                
   LEXCH  = PE                                                                                      
   EATOM  =   813.3670 eV,   59.7808 Ry                                                             
                                                                                                    
   TITEL  = PAW_PBE Co 02Aug2007                                                                    
   LULTRA =        F    use ultrasoft PP ?                                                          
   IUNSCR =        1    unscreen: 0-lin 1-nonlin 2-no                                               
   RPACOR =    2.000    partial core radius                                                         
   POMASS =   58.933; ZVAL   =    9.000    mass and valenz                                          
   RCORE  =    2.300    outmost cutoff radius                                                       
   RWIGS  =    2.460; RWIGS  =    1.302    wigner-seitz radius (au A)                               
   ENMAX  =  267.968; ENMIN  =  200.976 eV                                                          
   RCLOC  =    1.203    cutoff for local pot                                                        
   LCOR   =        T    correct aug charges                                                         
   LPAW   =        T    paw PP                                                                      
   EAUG   =  477.818                                                                                
   DEXC   =    0.000                                                                                
   RMAX   =    2.360    core radius for proj-oper                                                   
   RAUG   =    1.300    factor for augmentation sphere                                              
   RDEP   =    2.393    radius for radial grids                                                     
   RDEPT  =    1.864    core radius for aug-charge                                                  
                                                                                                    
   Atomic configuration                                                                             
    9 entries                                                                                       
     n  l   j            E        occ.                                                              
     1  0  0.50     -7587.6674   2.0000                                                             
     2  0  0.50      -893.6084   2.0000                                                             
     2  1  1.50      -764.5805   6.0000                                                             
     3  0  0.50       -97.5973   2.0000                                                             
     3  1  1.50       -60.9648   6.0000                                                             
     3  2  2.50        -4.2382   8.0000                                                             
     4  0  0.50        -4.3746   1.0000                                                             
     4  1  1.50        -4.0817   0.0000                                                             
     4  3  2.50        -1.3606   0.0000                                                             
   Description                                                                                      
     l       E           TYP  RCUT    TYP  RCUT                                                     
     2     -4.2382362     23  2.300                                                                 
     2     -5.5988188     23  2.300                                                                 
     0     -4.3745797     23  2.300                                                                 
     0      5.7660125     23  2.300                                                                 
     1     -2.7211652     23  2.300                                                                 
     1     16.9860234     23  2.300                                                                 
  local pseudopotential read in
  partial core-charges read in
  partial kinetic energy density read in
  atomic valenz-charges read in
  non local Contribution for L=           2  read in
    real space projection operators read in
  non local Contribution for L=           2  read in
    real space projection operators read in
  non local Contribution for L=           0  read in
    real space projection operators read in
  non local Contribution for L=           0  read in
    real space projection operators read in
  non local Contribution for L=           1  read in
    real space projection operators read in
  non local Contribution for L=           1  read in
    real space projection operators read in
    PAW grid and wavefunctions read in
 
   number of l-projection  operators is LMAX  =           6
   number of lm-projection operators is LMMAX =          18
 
  PAW_PBE Co 02Aug2007                  :
 energy of atom  1       EATOM= -813.3670
 kinetic energy error for atom=    0.0093 (will be added to EATOM!!)
 
 
 POSCAR: Co
  positions in cartesian coordinates
  No initial velocities read in
 exchange correlation table for  LEXCH =        8
   RHO(1)=    0.500       N(1)  =     2000
   RHO(2)=  100.500       N(2)  =     4000
 


--------------------------------------------------------------------------------------------------------


 ion  position               nearest neighbor table
   1  0.000  0.000  0.000-
   2  0.333  0.667  0.500-
 
  LATTYP: Found a hexagonal cell.
 ALAT       =     2.4700000000
 C/A-ratio  =     3.2753036437
  
  Lattice vectors:
  
 A1 = (   2.4700000000,   0.0000000000,   0.0000000000)
 A2 = (  -1.2350000000,   2.1390827473,   0.0000000000)
 A3 = (   0.0000000000,   0.0000000000,   8.0900000000)


Analysis of symmetry for initial positions (statically):
=====================================================================
 Subroutine PRICEL returns:
 Original cell was already a primitive cell.
 

 Routine SETGRP: Setting up the symmetry group for a 
 hexagonal supercell.


 Subroutine GETGRP returns: Found 24 space group operations
 (whereof 12 operations were pure point group operations)
 out of a pool of 24 trial point group operations.


The static configuration has the point symmetry D_3h.
 The point group associated with its full space group is D_6h.


Analysis of symmetry for dynamics (positions and initial velocities):
=====================================================================
 Subroutine PRICEL returns:
 Original cell was already a primitive cell.
 

 Routine SETGRP: Setting up the symmetry group for a 
 hexagonal supercell.


 Subroutine GETGRP returns: Found 24 space group operations
 (whereof 12 operations were pure point group operations)
 out of a pool of 24 trial point group operations.


The dynamic configuration has the point symmetry D_3h.
 The point group associated with its full space group is D_6h.


Analysis of structural, dynamic, and magnetic symmetry:
=====================================================================
 Subroutine PRICEL returns:
 Original cell was already a primitive cell.
 

 Routine SETGRP: Setting up the symmetry group for a 
 hexagonal supercell.


 Subroutine GETGRP returns: Found 24 space group operations
 (whereof 12 operations were pure point group operations)
 out of a pool of 24 trial point group operations.


The overall configuration has the point symmetry D_3h.
 The point group associated with its full space group is D_6h.


 Subroutine INISYM returns: Found 24 space group operations
 (whereof 12 operations are pure point group operations),
 and found     1 'primitive' translations


----------------------------------------------------------------------------------------

                                     Primitive cell                                     

  volume of cell :      42.7438

  direct lattice vectors                    reciprocal lattice vectors
     2.470000000  0.000000000  0.000000000     0.404858300  0.233745048  0.000000000
    -1.235000000  2.139082747  0.000000000     0.000000000  0.467490097  0.000000000
     0.000000000  0.000000000  8.090000000     0.000000000  0.000000000  0.123609394

  length of vectors
     2.470000000  2.470000000  8.090000000     0.467490097  0.467490097  0.123609394

  position of ions in fractional coordinates (direct lattice)
     0.000000000  0.000000000  0.000000000
     0.333333333  0.666666667  0.500000000

  ion indices of the primitive-cell ions
   primitive index   ion index
                 1           1
                 2           2

----------------------------------------------------------------------------------------

 
 
 KPOINTS: Automatic mesh                          

Automatic generation of k-mesh.
 Grid dimensions read from file:
 generate k-points for:   16   16   12

 Generating k-lattice:

  Cartesian coordinates                     Fractional coordinates (reciprocal lattice)
     0.025303644  0.014609066  0.000000000     0.062500000  0.000000000  0.000000000
     0.000000000  0.029218131  0.000000000     0.000000000  0.062500000  0.000000000
     0.000000000  0.000000000  0.010300783     0.000000000  0.000000000  0.083333333

  Length of vectors
     0.029218131  0.029218131  0.010300783

  Shift w.r.t. Gamma in fractional coordinates (k-lattice)
     0.000000000  0.000000000  0.000000000

 
 Subroutine IBZKPT returns following result:
 ===========================================
 
 Found    210 irreducible k-points:
 
 Following reciprocal coordinates:
            Coordinates               Weight
  0.000000  0.000000  0.000000      1.000000
  0.062500 -0.000000  0.000000      6.000000
  0.125000 -0.000000  0.000000      6.000000
  0.187500 -0.000000  0.000000      6.000000
  0.250000 -0.000000  0.000000      6.000000
  0.312500  0.000000  0.000000      6.000000
  0.375000 -0.000000  0.000000      6.000000
  0.437500 -0.000000  0.000000      6.000000
  0.500000 -0.000000  0.000000      3.000000
  0.062500  0.062500  0.000000      6.000000
  0.125000  0.062500  0.000000     12.000000
  0.187500  0.062500  0.000000     12.000000
  0.250000  0.062500  0.000000     12.000000
  0.312500  0.062500  0.000000     12.000000
  0.375000  0.062500  0.000000     12.000000
  0.437500  0.062500  0.000000     12.000000
  0.125000  0.125000  0.000000      6.000000
  0.187500  0.125000  0.000000     12.000000
  0.250000  0.125000  0.000000     12.000000
  0.312500  0.125000  0.000000     12.000000
  0.375000  0.125000  0.000000     12.000000
  0.437500  0.125000  0.000000      6.000000
  0.187500  0.187500  0.000000      6.000000
  0.250000  0.187500  0.000000     12.000000
  0.312500  0.187500  0.000000     12.000000
  0.375000  0.187500  0.000000     12.000000
  0.250000  0.250000  0.000000      6.000000
  0.312500  0.250000  0.000000     12.000000
  0.375000  0.250000  0.000000      6.000000
  0.312500  0.312500  0.000000      6.000000
  0.000000  0.000000  0.083333      2.000000
  0.062500 -0.000000  0.083333     12.000000
  0.125000 -0.000000  0.083333     12.000000
  0.187500 -0.000000  0.083333     12.000000
  0.250000 -0.000000  0.083333     12.000000
  0.312500  0.000000  0.083333     12.000000
  0.375000 -0.000000  0.083333     12.000000
  0.437500 -0.000000  0.083333     12.000000
  0.500000 -0.000000  0.083333      6.000000
  0.062500  0.062500  0.083333     12.000000
  0.125000  0.062500  0.083333     24.000000
  0.187500  0.062500  0.083333     24.000000
  0.250000  0.062500  0.083333     24.000000
  0.312500  0.062500  0.083333     24.000000
  0.375000  0.062500  0.083333     24.000000
  0.437500  0.062500  0.083333     24.000000
  0.125000  0.125000  0.083333     12.000000
  0.187500  0.125000  0.083333     24.000000
  0.250000  0.125000  0.083333     24.000000
  0.312500  0.125000  0.083333     24.000000
  0.375000  0.125000  0.083333     24.000000
  0.437500  0.125000  0.083333     12.000000
  0.187500  0.187500  0.083333     12.000000
  0.250000  0.187500  0.083333     24.000000
  0.312500  0.187500  0.083333     24.000000
  0.375000  0.187500  0.083333     24.000000
  0.250000  0.250000  0.083333     12.000000
  0.312500  0.250000  0.083333     24.000000
  0.375000  0.250000  0.083333     12.000000
  0.312500  0.312500  0.083333     12.000000
  0.000000  0.000000  0.166667      2.000000
  0.062500 -0.000000  0.166667     12.000000
  0.125000 -0.000000  0.166667     12.000000
  0.187500 -0.000000  0.166667     12.000000
  0.250000 -0.000000  0.166667     12.000000
  0.312500  0.000000  0.166667     12.000000
  0.375000 -0.000000  0.166667     12.000000
  0.437500 -0.000000  0.166667     12.000000
  0.500000 -0.000000  0.166667      6.000000
  0.062500  0.062500  0.166667     12.000000
  0.125000  0.062500  0.166667     24.000000
  0.187500  0.062500  0.166667     24.000000
  0.250000  0.062500  0.166667     24.000000
  0.312500  0.062500  0.166667     24.000000
  0.375000  0.062500  0.166667     24.000000
  0.437500  0.062500  0.166667     24.000000
  0.125000  0.125000  0.166667     12.000000
  0.187500  0.125000  0.166667     24.000000
  0.250000  0.125000  0.166667     24.000000
  0.312500  0.125000  0.166667     24.000000
  0.375000  0.125000  0.166667     24.000000
  0.437500  0.125000  0.166667     12.000000
  0.187500  0.187500  0.166667     12.000000
  0.250000  0.187500  0.166667     24.000000
  0.312500  0.187500  0.166667     24.000000
  0.375000  0.187500  0.166667     24.000000
  0.250000  0.250000  0.166667     12.000000
  0.312500  0.250000  0.166667     24.000000
  0.375000  0.250000  0.166667     12.000000
  0.312500  0.312500  0.166667     12.000000
  0.000000  0.000000  0.250000      2.000000
  0.062500 -0.000000  0.250000     12.000000
  0.125000 -0.000000  0.250000     12.000000
  0.187500 -0.000000  0.250000     12.000000
  0.250000 -0.000000  0.250000     12.000000
  0.312500  0.000000  0.250000     12.000000
  0.375000 -0.000000  0.250000     12.000000
  0.437500 -0.000000  0.250000     12.000000
  0.500000 -0.000000  0.250000      6.000000
  0.062500  0.062500  0.250000     12.000000
  0.125000  0.062500  0.250000     24.000000
  0.187500  0.062500  0.250000     24.000000
  0.250000  0.062500  0.250000     24.000000
  0.312500  0.062500  0.250000     24.000000
  0.375000  0.062500  0.250000     24.000000
  0.437500  0.062500  0.250000     24.000000
  0.125000  0.125000  0.250000     12.000000
  0.187500  0.125000  0.250000     24.000000
  0.250000  0.125000  0.250000     24.000000
  0.312500  0.125000  0.250000     24.000000
  0.375000  0.125000  0.250000     24.000000
  0.437500  0.125000  0.250000     12.000000
  0.187500  0.187500  0.250000     12.000000
  0.250000  0.187500  0.250000     24.000000
  0.312500  0.187500  0.250000     24.000000
  0.375000  0.187500  0.250000     24.000000
  0.250000  0.250000  0.250000     12.000000
  0.312500  0.250000  0.250000     24.000000
  0.375000  0.250000  0.250000     12.000000
  0.312500  0.312500  0.250000     12.000000
  0.000000  0.000000  0.333333      2.000000
  0.062500 -0.000000  0.333333     12.000000
  0.125000 -0.000000  0.333333     12.000000
  0.187500 -0.000000  0.333333     12.000000
  0.250000 -0.000000  0.333333     12.000000
  0.312500  0.000000  0.333333     12.000000
  0.375000 -0.000000  0.333333     12.000000
  0.437500 -0.000000  0.333333     12.000000
  0.500000 -0.000000  0.333333      6.000000
  0.062500  0.062500  0.333333     12.000000
  0.125000  0.062500  0.333333     24.000000
  0.187500  0.062500  0.333333     24.000000
  0.250000  0.062500  0.333333     24.000000
  0.312500  0.062500  0.333333     24.000000
  0.375000  0.062500  0.333333     24.000000
  0.437500  0.062500  0.333333     24.000000
  0.125000  0.125000  0.333333     12.000000
  0.187500  0.125000  0.333333     24.000000
  0.250000  0.125000  0.333333     24.000000
  0.312500  0.125000  0.333333     24.000000
  0.375000  0.125000  0.333333     24.000000
  0.437500  0.125000  0.333333     12.000000
  0.187500  0.187500  0.333333     12.000000
  0.250000  0.187500  0.333333     24.000000
  0.312500  0.187500  0.333333     24.000000
  0.375000  0.187500  0.333333     24.000000
  0.250000  0.250000  0.333333     12.000000
  0.312500  0.250000  0.333333     24.000000
  0.375000  0.250000  0.333333     12.000000
  0.312500  0.312500  0.333333     12.000000
  0.000000  0.000000  0.416667      2.000000
  0.062500 -0.000000  0.416667     12.000000
  0.125000 -0.000000  0.416667     12.000000
  0.187500 -0.000000  0.416667     12.000000
  0.250000 -0.000000  0.416667     12.000000
  0.312500  0.000000  0.416667     12.000000
  0.375000 -0.000000  0.416667     12.000000
  0.437500 -0.000000  0.416667     12.000000
  0.500000 -0.000000  0.416667      6.000000
  0.062500  0.062500  0.416667     12.000000
  0.125000  0.062500  0.416667     24.000000
  0.187500  0.062500  0.416667     24.000000
  0.250000  0.062500  0.416667     24.000000
  0.312500  0.062500  0.416667     24.000000
  0.375000  0.062500  0.416667     24.000000
  0.437500  0.062500  0.416667     24.000000
  0.125000  0.125000  0.416667     12.000000
  0.187500  0.125000  0.416667     24.000000
  0.250000  0.125000  0.416667     24.000000
  0.312500  0.125000  0.416667     24.000000
  0.375000  0.125000  0.416667     24.000000
  0.437500  0.125000  0.416667     12.000000
  0.187500  0.187500  0.416667     12.000000
  0.250000  0.187500  0.416667     24.000000
  0.312500  0.187500  0.416667     24.000000
  0.375000  0.187500  0.416667     24.000000
  0.250000  0.250000  0.416667     12.000000
  0.312500  0.250000  0.416667     24.000000
  0.375000  0.250000  0.416667     12.000000
  0.312500  0.312500  0.416667     12.000000
  0.000000  0.000000  0.500000      1.000000
  0.062500 -0.000000  0.500000      6.000000
  0.125000 -0.000000  0.500000      6.000000
  0.187500 -0.000000  0.500000      6.000000
  0.250000 -0.000000  0.500000      6.000000
  0.312500  0.000000  0.500000      6.000000
  0.375000 -0.000000  0.500000      6.000000
  0.437500 -0.000000  0.500000      6.000000
  0.500000 -0.000000  0.500000      3.000000
  0.062500  0.062500  0.500000      6.000000
  0.125000  0.062500  0.500000     12.000000
  0.187500  0.062500  0.500000     12.000000
  0.250000  0.062500  0.500000     12.000000
  0.312500  0.062500  0.500000     12.000000
  0.375000  0.062500  0.500000     12.000000
  0.437500  0.062500  0.500000     12.000000
  0.125000  0.125000  0.500000      6.000000
  0.187500  0.125000  0.500000     12.000000
  0.250000  0.125000  0.500000     12.000000
  0.312500  0.125000  0.500000     12.000000
  0.375000  0.125000  0.500000     12.000000
  0.437500  0.125000  0.500000      6.000000
  0.187500  0.187500  0.500000      6.000000
  0.250000  0.187500  0.500000     12.000000
  0.312500  0.187500  0.500000     12.000000
  0.375000  0.187500  0.500000     12.000000
  0.250000  0.250000  0.500000      6.000000
  0.312500  0.250000  0.500000     12.000000
  0.375000  0.250000  0.500000      6.000000
  0.312500  0.312500  0.500000      6.000000
 
 Following cartesian coordinates:
            Coordinates               Weight
  0.000000  0.000000  0.000000      1.000000
  0.025304  0.014609  0.000000      6.000000
  0.050607  0.029218  0.000000      6.000000
  0.075911  0.043827  0.000000      6.000000
  0.101215  0.058436  0.000000      6.000000
  0.126518  0.073045  0.000000      6.000000
  0.151822  0.087654  0.000000      6.000000
  0.177126  0.102263  0.000000      6.000000
  0.202429  0.116873  0.000000      3.000000
  0.025304  0.043827  0.000000      6.000000
  0.050607  0.058436  0.000000     12.000000
  0.075911  0.073045  0.000000     12.000000
  0.101215  0.087654  0.000000     12.000000
  0.126518  0.102263  0.000000     12.000000
  0.151822  0.116873  0.000000     12.000000
  0.177126  0.131482  0.000000     12.000000
  0.050607  0.087654  0.000000      6.000000
  0.075911  0.102263  0.000000     12.000000
  0.101215  0.116873  0.000000     12.000000
  0.126518  0.131482  0.000000     12.000000
  0.151822  0.146091  0.000000     12.000000
  0.177126  0.160700  0.000000      6.000000
  0.075911  0.131482  0.000000      6.000000
  0.101215  0.146091  0.000000     12.000000
  0.126518  0.160700  0.000000     12.000000
  0.151822  0.175309  0.000000     12.000000
  0.101215  0.175309  0.000000      6.000000
  0.126518  0.189918  0.000000     12.000000
  0.151822  0.204527  0.000000      6.000000
  0.126518  0.219136  0.000000      6.000000
  0.000000  0.000000  0.010301      2.000000
  0.025304  0.014609  0.010301     12.000000
  0.050607  0.029218  0.010301     12.000000
  0.075911  0.043827  0.010301     12.000000
  0.101215  0.058436  0.010301     12.000000
  0.126518  0.073045  0.010301     12.000000
  0.151822  0.087654  0.010301     12.000000
  0.177126  0.102263  0.010301     12.000000
  0.202429  0.116873  0.010301      6.000000
  0.025304  0.043827  0.010301     12.000000
  0.050607  0.058436  0.010301     24.000000
  0.075911  0.073045  0.010301     24.000000
  0.101215  0.087654  0.010301     24.000000
  0.126518  0.102263  0.010301     24.000000
  0.151822  0.116873  0.010301     24.000000
  0.177126  0.131482  0.010301     24.000000
  0.050607  0.087654  0.010301     12.000000
  0.075911  0.102263  0.010301     24.000000
  0.101215  0.116873  0.010301     24.000000
  0.126518  0.131482  0.010301     24.000000
  0.151822  0.146091  0.010301     24.000000
  0.177126  0.160700  0.010301     12.000000
  0.075911  0.131482  0.010301     12.000000
  0.101215  0.146091  0.010301     24.000000
  0.126518  0.160700  0.010301     24.000000
  0.151822  0.175309  0.010301     24.000000
  0.101215  0.175309  0.010301     12.000000
  0.126518  0.189918  0.010301     24.000000
  0.151822  0.204527  0.010301     12.000000
  0.126518  0.219136  0.010301     12.000000
  0.000000  0.000000  0.020602      2.000000
  0.025304  0.014609  0.020602     12.000000
  0.050607  0.029218  0.020602     12.000000
  0.075911  0.043827  0.020602     12.000000
  0.101215  0.058436  0.020602     12.000000
  0.126518  0.073045  0.020602     12.000000
  0.151822  0.087654  0.020602     12.000000
  0.177126  0.102263  0.020602     12.000000
  0.202429  0.116873  0.020602      6.000000
  0.025304  0.043827  0.020602     12.000000
  0.050607  0.058436  0.020602     24.000000
  0.075911  0.073045  0.020602     24.000000
  0.101215  0.087654  0.020602     24.000000
  0.126518  0.102263  0.020602     24.000000
  0.151822  0.116873  0.020602     24.000000
  0.177126  0.131482  0.020602     24.000000
  0.050607  0.087654  0.020602     12.000000
  0.075911  0.102263  0.020602     24.000000
  0.101215  0.116873  0.020602     24.000000
  0.126518  0.131482  0.020602     24.000000
  0.151822  0.146091  0.020602     24.000000
  0.177126  0.160700  0.020602     12.000000
  0.075911  0.131482  0.020602     12.000000
  0.101215  0.146091  0.020602     24.000000
  0.126518  0.160700  0.020602     24.000000
  0.151822  0.175309  0.020602     24.000000
  0.101215  0.175309  0.020602     12.000000
  0.126518  0.189918  0.020602     24.000000
  0.151822  0.204527  0.020602     12.000000
  0.126518  0.219136  0.020602     12.000000
  0.000000  0.000000  0.030902      2.000000
  0.025304  0.014609  0.030902     12.000000
  0.050607  0.029218  0.030902     12.000000
  0.075911  0.043827  0.030902     12.000000
  0.101215  0.058436  0.030902     12.000000
  0.126518  0.073045  0.030902     12.000000
  0.151822  0.087654  0.030902     12.000000
  0.177126  0.102263  0.030902     12.000000
  0.202429  0.116873  0.030902      6.000000
  0.025304  0.043827  0.030902     12.000000
  0.050607  0.058436  0.030902     24.000000
  0.075911  0.073045  0.030902     24.000000
  0.101215  0.087654  0.030902     24.000000
  0.126518  0.102263  0.030902     24.000000
  0.151822  0.116873  0.030902     24.000000
  0.177126  0.131482  0.030902     24.000000
  0.050607  0.087654  0.030902     12.000000
  0.075911  0.102263  0.030902     24.000000
  0.101215  0.116873  0.030902     24.000000
  0.126518  0.131482  0.030902     24.000000
  0.151822  0.146091  0.030902     24.000000
  0.177126  0.160700  0.030902     12.000000
  0.075911  0.131482  0.030902     12.000000
  0.101215  0.146091  0.030902     24.000000
  0.126518  0.160700  0.030902     24.000000
  0.151822  0.175309  0.030902     24.000000
  0.101215  0.175309  0.030902     12.000000
  0.126518  0.189918  0.030902     24.000000
  0.151822  0.204527  0.030902     12.000000
  0.126518  0.219136  0.030902     12.000000
  0.000000  0.000000  0.041203      2.000000
  0.025304  0.014609  0.041203     12.000000
  0.050607  0.029218  0.041203     12.000000
  0.075911  0.043827  0.041203     12.000000
  0.101215  0.058436  0.041203     12.000000
  0.126518  0.073045  0.041203     12.000000
  0.151822  0.087654  0.041203     12.000000
  0.177126  0.102263  0.041203     12.000000
  0.202429  0.116873  0.041203      6.000000
  0.025304  0.043827  0.041203     12.000000
  0.050607  0.058436  0.041203     24.000000
  0.075911  0.073045  0.041203     24.000000
  0.101215  0.087654  0.041203     24.000000
  0.126518  0.102263  0.041203     24.000000
  0.151822  0.116873  0.041203     24.000000
  0.177126  0.131482  0.041203     24.000000
  0.050607  0.087654  0.041203     12.000000
  0.075911  0.102263  0.041203     24.000000
  0.101215  0.116873  0.041203     24.000000
  0.126518  0.131482  0.041203     24.000000
  0.151822  0.146091  0.041203     24.000000
  0.177126  0.160700  0.041203     12.000000
  0.075911  0.131482  0.041203     12.000000
  0.101215  0.146091  0.041203     24.000000
  0.126518  0.160700  0.041203     24.000000
  0.151822  0.175309  0.041203     24.000000
  0.101215  0.175309  0.041203     12.000000
  0.126518  0.189918  0.041203     24.000000
  0.151822  0.204527  0.041203     12.000000
  0.126518  0.219136  0.041203     12.000000
  0.000000  0.000000  0.051504      2.000000
  0.025304  0.014609  0.051504     12.000000
  0.050607  0.029218  0.051504     12.000000
  0.075911  0.043827  0.051504     12.000000
  0.101215  0.058436  0.051504     12.000000
  0.126518  0.073045  0.051504     12.000000
  0.151822  0.087654  0.051504     12.000000
  0.177126  0.102263  0.051504     12.000000
  0.202429  0.116873  0.051504      6.000000
  0.025304  0.043827  0.051504     12.000000
  0.050607  0.058436  0.051504     24.000000
  0.075911  0.073045  0.051504     24.000000
  0.101215  0.087654  0.051504     24.000000
  0.126518  0.102263  0.051504     24.000000
  0.151822  0.116873  0.051504     24.000000
  0.177126  0.131482  0.051504     24.000000
  0.050607  0.087654  0.051504     12.000000
  0.075911  0.102263  0.051504     24.000000
  0.101215  0.116873  0.051504     24.000000
  0.126518  0.131482  0.051504     24.000000
  0.151822  0.146091  0.051504     24.000000
  0.177126  0.160700  0.051504     12.000000
  0.075911  0.131482  0.051504     12.000000
  0.101215  0.146091  0.051504     24.000000
  0.126518  0.160700  0.051504     24.000000
  0.151822  0.175309  0.051504     24.000000
  0.101215  0.175309  0.051504     12.000000
  0.126518  0.189918  0.051504     24.000000
  0.151822  0.204527  0.051504     12.000000
  0.126518  0.219136  0.051504     12.000000
  0.000000  0.000000  0.061805      1.000000
  0.025304  0.014609  0.061805      6.000000
  0.050607  0.029218  0.061805      6.000000
  0.075911  0.043827  0.061805      6.000000
  0.101215  0.058436  0.061805      6.000000
  0.126518  0.073045  0.061805      6.000000
  0.151822  0.087654  0.061805      6.000000
  0.177126  0.102263  0.061805      6.000000
  0.202429  0.116873  0.061805      3.000000
  0.025304  0.043827  0.061805      6.000000
  0.050607  0.058436  0.061805     12.000000
  0.075911  0.073045  0.061805     12.000000
  0.101215  0.087654  0.061805     12.000000
  0.126518  0.102263  0.061805     12.000000
  0.151822  0.116873  0.061805     12.000000
  0.177126  0.131482  0.061805     12.000000
  0.050607  0.087654  0.061805      6.000000
  0.075911  0.102263  0.061805     12.000000
  0.101215  0.116873  0.061805     12.000000
  0.126518  0.131482  0.061805     12.000000
  0.151822  0.146091  0.061805     12.000000
  0.177126  0.160700  0.061805      6.000000
  0.075911  0.131482  0.061805      6.000000
  0.101215  0.146091  0.061805     12.000000
  0.126518  0.160700  0.061805     12.000000
  0.151822  0.175309  0.061805     12.000000
  0.101215  0.175309  0.061805      6.000000
  0.126518  0.189918  0.061805     12.000000
  0.151822  0.204527  0.061805      6.000000
  0.126518  0.219136  0.061805      6.000000
 


--------------------------------------------------------------------------------------------------------




 Dimension of arrays:
   k-points           NKPTS =    210   k-points in BZ     NKDIM =    210   number of bands    NBANDS=     16
   number of dos      NEDOS =    301   number of ions     NIONS =      2
   non local maximal  LDIM  =      6   non local SUM 2l+1 LMDIM =     18
   total plane-waves  NPLWV =  13824
   max r-space proj   IRMAX =      1   max aug-charges    IRDMAX=  12953
   dimension x,y,z NGX =    16 NGY =   16 NGZ =   54
   dimension x,y,z NGXF=    32 NGYF=   32 NGZF=  108
   support grid    NGXF=    32 NGYF=   32 NGZF=  108
   ions per type =               2
   NGX,Y,Z   is equivalent  to a cutoff of  10.77, 10.77, 11.10 a.u.
   NGXF,Y,Z  is equivalent  to a cutoff of  21.54, 21.54, 22.19 a.u.

 SYSTEM =  Co-hcc                                  
 POSCAR =  Co                                      

 Startparameter for this run:
   NWRITE =      2    write-flag & timer
   PREC   = accura    normal or accurate (medium, high low for compatibility)
   ISTART =      0    job   : 0-new  1-cont  2-samecut
   ICHARG =      2    charge: 1-file 2-atom 10-const
   ISPIN  =      2    spin polarized calculation?
   LNONCOLLINEAR =      F non collinear calculations
   LSORBIT =      F    spin-orbit coupling
   INIWAV =      1    electr: 0-lowe 1-rand  2-diag
   LASPH  =      F    aspherical Exc in radial PAW
 Electronic Relaxation 1
   ENCUT  =  400.0 eV  29.40 Ry    5.42 a.u.   4.03  4.03 13.19*2*pi/ulx,y,z
   ENINI  =  400.0     initial cutoff
   ENAUG  =  477.8 eV  augmentation charge cutoff
   NELM   =    100;   NELMIN=  2; NELMDL= -5     # of ELM steps 
   EDIFF  = 0.1E-05   stopping-criterion for ELM
   LREAL  =      F    real-space projection
   NLSPLINE    = F    spline interpolate recip. space projectors
   LCOMPAT=      F    compatible to vasp.4.4
   GGA_COMPAT  = T    GGA compatible to vasp.4.4-vasp.4.6
   LMAXPAW     = -100 max onsite density
   LMAXMIX     =    2 max onsite mixed and CHGCAR
   VOSKOWN=      0    Vosko Wilk Nusair interpolation
   ROPT   =    0.00000
 Ionic relaxation
   EDIFFG = -.2E-01   stopping-criterion for IOM
   NSW    =      0    number of steps for IOM
   NBLOCK =      1;   KBLOCK =      1    inner block; outer block 
   IBRION =     -1    ionic relax: 0-MD 1-quasi-New 2-CG
   NFREE  =      0    steps in history (QN), initial steepest desc. (CG)
   ISIF   =      2    stress and relaxation
   IWAVPR =     10    prediction:  0-non 1-charg 2-wave 3-comb
   ISYM   =      1    0-nonsym 1-usesym 2-fastsym
   LCORR  =      T    Harris-Foulkes like correction to forces

   POTIM  = 0.5000    time-step for ionic-motion
   TEIN   =    0.0    initial temperature
   TEBEG  =    0.0;   TEEND  =   0.0 temperature during run
   SMASS  =  -3.00    Nose mass-parameter (am)
   estimated Nose-frequenzy (Omega)   =  0.10E-29 period in steps = 0.13E+47 mass=  -0.139E-27a.u.
   SCALEE = 1.0000    scale energy and forces
   NPACO  =    256;   APACO  = 10.0  distance and # of slots for P.C.
   PSTRESS=    0.0 pullay stress

  Mass of Ions in am
   POMASS =  58.93
  Ionic Valenz
   ZVAL   =   9.00
  Atomic Wigner-Seitz radii
   RWIGS  =  -1.00
  virtual crystal weights 
   VCA    =   1.00
   NELECT =      18.0000    total number of electrons
   NUPDOWN=      -1.0000    fix difference up-down

 DOS related values:
   EMIN   =  10.00;   EMAX   =-10.00  energy-range for DOS
   EFERMI =   0.00
   ISMEAR =     0;   SIGMA  =   0.05  broadening in eV -4-tet -1-fermi 0-gaus

 Electronic relaxation 2 (details)
   IALGO  =     38    algorithm
   LDIAG  =      T    sub-space diagonalisation (order eigenvalues)
   LSUBROT=      F    optimize rotation matrix (better conditioning)
   TURBO    =      0    0=normal 1=particle mesh
   IRESTART =      0    0=no restart 2=restart with 2 vectors
   NREBOOT  =      0    no. of reboots
   NMIN     =      0    reboot dimension
   EREF     =   0.00    reference energy to select bands
   IMIX   =      4    mixing-type and parameters
     AMIX     =   0.40;   BMIX     =  1.00
     AMIX_MAG =   1.60;   BMIX_MAG =  1.00
     AMIN     =   0.10
     WC   =   100.;   INIMIX=   1;  MIXPRE=   1;  MAXMIX= -45

 Intra band minimization:
   WEIMIN = 0.0000     energy-eigenvalue tresh-hold
   EBREAK =  0.16E-07  absolut break condition
   DEPER  =   0.30     relativ break condition  

   TIME   =   0.40     timestep for ELM

  volume/ion in A,a.u.               =      21.37       144.22
  Fermi-wavevector in a.u.,A,eV,Ry     =   1.227085  2.318854 20.486804  1.505738
  Thomas-Fermi vector in A             =   2.362062
 
 Write flags
   LWAVE        =      F    write WAVECAR
   LDOWNSAMPLE  =      F    k-point downsampling of WAVECAR
   LCHARG       =      F    write CHGCAR
   LVTOT        =      F    write LOCPOT, total local potential
   LVHAR        =      F    write LOCPOT, Hartree potential only
   LELF         =      F    write electronic localiz. function (ELF)
   LORBIT       =      0    0 simple, 1 ext, 2 COOP (PROOUT), +10 PAW based schemes


 Dipole corrections
   LMONO  =      F    monopole corrections only (constant potential shift)
   LDIPOL =      F    correct potential (dipole corrections)
   IDIPOL =      0    1-x, 2-y, 3-z, 4-all directions 
   EPSILON=  1.0000000 bulk dielectric constant

 Exchange correlation treatment:
   GGA     =    --    GGA type
   LEXCH   =     8    internal setting for exchange type
   LIBXC   =     F    Libxc                    
   VOSKOWN =     0    Vosko Wilk Nusair interpolation
   LHFCALC =     F    Hartree Fock is set to
   LHFONE  =     F    Hartree Fock one center treatment
   AEXX    =    0.0000 exact exchange contribution

 Linear response parameters
   LEPSILON=     F    determine dielectric tensor
   LRPA    =     F    only Hartree local field effects (RPA)
   LNABLA  =     F    use nabla operator in PAW spheres
   LVEL    =     F    velocity operator in full k-point grid
   CSHIFT  =0.1000    complex shift for real part using Kramers Kronig
   OMEGAMAX=  -1.0    maximum frequency
   DEG_THRESHOLD= 0.2000000E-02 threshold for treating states as degnerate
   RTIME   =   -0.100 relaxation time in fs
  (WPLASMAI=    0.000 imaginary part of plasma frequency in eV, 0.658/RTIME)
   DFIELD  = 0.0000000 0.0000000 0.0000000 field for delta impulse in time
 
  Optional k-point grid parameters
   LKPOINTS_OPT  =     F    use optional k-point grid
   KPOINTS_OPT_MODE=     1    mode for optional k-point grid
 
 Orbital magnetization related:
   ORBITALMAG=     F  switch on orbital magnetization
   LCHIMAG   =     F  perturbation theory with respect to B field
   DQ        =  0.001000  dq finite difference perturbation B field
   LLRAUG    =     F  two centre corrections for induced B field



--------------------------------------------------------------------------------------------------------


 Static calculation
 charge density and potential will be updated during run
 spin polarized calculation
 Variant of blocked Davidson
 Davidson routine will perform the subspace rotation
 perform sub-space diagonalisation
    after iterative eigenvector-optimisation
 modified Broyden-mixing scheme, WC =      100.0
 initial mixing is a Kerker type mixing with AMIX =  0.4000 and BMIX =      1.0000
 Hartree-type preconditioning will be used
 using additional bands            7
 reciprocal scheme for non local part
 use partial core corrections
 calculate Harris-corrections to forces 
   (improved forces if not selfconsistent)
 use gradient corrections 
 use of overlap-Matrix (Vanderbilt PP)
 Gauss-broadening in eV      SIGMA  =   0.05


--------------------------------------------------------------------------------------------------------


  energy-cutoff  :      400.00
  volume of cell :       42.74
      direct lattice vectors                 reciprocal lattice vectors
     2.470000000  0.000000000  0.000000000     0.404858300  0.233745048  0.000000000
    -1.235000000  2.139082747  0.000000000     0.000000000  0.467490097  0.000000000
     0.000000000  0.000000000  8.090000000     0.000000000  0.000000000  0.123609394

  length of vectors
     2.470000000  2.470000000  8.090000000     0.467490097  0.467490097  0.123609394


 
 k-points in units of 2pi/SCALE and weight: Automatic mesh                          
   0.00000000  0.00000000  0.00000000       0.000
   0.02530364  0.01460907  0.00000000       0.002
   0.05060729  0.02921813  0.00000000       0.002
   0.07591093  0.04382720  0.00000000       0.002
   0.10121457  0.05843626  0.00000000       0.002
   0.12651822  0.07304533  0.00000000       0.002
   0.15182186  0.08765439  0.00000000       0.002
   0.17712551  0.10226346  0.00000000       0.002
   0.20242915  0.11687252  0.00000000       0.001
   0.02530364  0.04382720  0.00000000       0.002
   0.05060729  0.05843626  0.00000000       0.004
   0.07591093  0.07304533  0.00000000       0.004
   0.10121457  0.08765439  0.00000000       0.004
   0.12651822  0.10226346  0.00000000       0.004
   0.15182186  0.11687252  0.00000000       0.004
   0.17712551  0.13148159  0.00000000       0.004
   0.05060729  0.08765439  0.00000000       0.002
   0.07591093  0.10226346  0.00000000       0.004
   0.10121457  0.11687252  0.00000000       0.004
   0.12651822  0.13148159  0.00000000       0.004
   0.15182186  0.14609066  0.00000000       0.004
   0.17712551  0.16069972  0.00000000       0.002
   0.07591093  0.13148159  0.00000000       0.002
   0.10121457  0.14609066  0.00000000       0.004
   0.12651822  0.16069972  0.00000000       0.004
   0.15182186  0.17530879  0.00000000       0.004
   0.10121457  0.17530879  0.00000000       0.002
   0.12651822  0.18991785  0.00000000       0.004
   0.15182186  0.20452692  0.00000000       0.002
   0.12651822  0.21913598  0.00000000       0.002
   0.00000000  0.00000000  0.01030078       0.001
   0.02530364  0.01460907  0.01030078       0.004
   0.05060729  0.02921813  0.01030078       0.004
   0.07591093  0.04382720  0.01030078       0.004
   0.10121457  0.05843626  0.01030078       0.004
   0.12651822  0.07304533  0.01030078       0.004
   0.15182186  0.08765439  0.01030078       0.004
   0.17712551  0.10226346  0.01030078       0.004
   0.20242915  0.11687252  0.01030078       0.002
   0.02530364  0.04382720  0.01030078       0.004
   0.05060729  0.05843626  0.01030078       0.008
   0.07591093  0.07304533  0.01030078       0.008
   0.10121457  0.08765439  0.01030078       0.008
   0.12651822  0.10226346  0.01030078       0.008
   0.15182186  0.11687252  0.01030078       0.008
   0.17712551  0.13148159  0.01030078       0.008
   0.05060729  0.08765439  0.01030078       0.004
   0.07591093  0.10226346  0.01030078       0.008
   0.10121457  0.11687252  0.01030078       0.008
   0.12651822  0.13148159  0.01030078       0.008
   0.15182186  0.14609066  0.01030078       0.008
   0.17712551  0.16069972  0.01030078       0.004
   0.07591093  0.13148159  0.01030078       0.004
   0.10121457  0.14609066  0.01030078       0.008
   0.12651822  0.16069972  0.01030078       0.008
   0.15182186  0.17530879  0.01030078       0.008
   0.10121457  0.17530879  0.01030078       0.004
   0.12651822  0.18991785  0.01030078       0.008
   0.15182186  0.20452692  0.01030078       0.004
   0.12651822  0.21913598  0.01030078       0.004
   0.00000000  0.00000000  0.02060157       0.001
   0.02530364  0.01460907  0.02060157       0.004
   0.05060729  0.02921813  0.02060157       0.004
   0.07591093  0.04382720  0.02060157       0.004
   0.10121457  0.05843626  0.02060157       0.004
   0.12651822  0.07304533  0.02060157       0.004
   0.15182186  0.08765439  0.02060157       0.004
   0.17712551  0.10226346  0.02060157       0.004
   0.20242915  0.11687252  0.02060157       0.002
   0.02530364  0.04382720  0.02060157       0.004
   0.05060729  0.05843626  0.02060157       0.008
   0.07591093  0.07304533  0.02060157       0.008
   0.10121457  0.08765439  0.02060157       0.008
   0.12651822  0.10226346  0.02060157       0.008
   0.15182186  0.11687252  0.02060157       0.008
   0.17712551  0.13148159  0.02060157       0.008
   0.05060729  0.08765439  0.02060157       0.004
   0.07591093  0.10226346  0.02060157       0.008
   0.10121457  0.11687252  0.02060157       0.008
   0.12651822  0.13148159  0.02060157       0.008
   0.15182186  0.14609066  0.02060157       0.008
   0.17712551  0.16069972  0.02060157       0.004
   0.07591093  0.13148159  0.02060157       0.004
   0.10121457  0.14609066  0.02060157       0.008
   0.12651822  0.16069972  0.02060157       0.008
   0.15182186  0.17530879  0.02060157       0.008
   0.10121457  0.17530879  0.02060157       0.004
   0.12651822  0.18991785  0.02060157       0.008
   0.15182186  0.20452692  0.02060157       0.004
   0.12651822  0.21913598  0.02060157       0.004
   0.00000000  0.00000000  0.03090235       0.001
   0.02530364  0.01460907  0.03090235       0.004
   0.05060729  0.02921813  0.03090235       0.004
   0.07591093  0.04382720  0.03090235       0.004
   0.10121457  0.05843626  0.03090235       0.004
   0.12651822  0.07304533  0.03090235       0.004
   0.15182186  0.08765439  0.03090235       0.004
   0.17712551  0.10226346  0.03090235       0.004
   0.20242915  0.11687252  0.03090235       0.002
   0.02530364  0.04382720  0.03090235       0.004
   0.05060729  0.05843626  0.03090235       0.008
   0.07591093  0.07304533  0.03090235       0.008
   0.10121457  0.08765439  0.03090235       0.008
   0.12651822  0.10226346  0.03090235       0.008
   0.15182186  0.11687252  0.03090235       0.008
   0.17712551  0.13148159  0.03090235       0.008
   0.05060729  0.08765439  0.03090235       0.004
   0.07591093  0.10226346  0.03090235       0.008
   0.10121457  0.11687252  0.03090235       0.008
   0.12651822  0.13148159  0.03090235       0.008
   0.15182186  0.14609066  0.03090235       0.008
   0.17712551  0.16069972  0.03090235       0.004
   0.07591093  0.13148159  0.03090235       0.004
   0.10121457  0.14609066  0.03090235       0.008
   0.12651822  0.16069972  0.03090235       0.008
   0.15182186  0.17530879  0.03090235       0.008
   0.10121457  0.17530879  0.03090235       0.004
   0.12651822  0.18991785  0.03090235       0.008
   0.15182186  0.20452692  0.03090235       0.004
   0.12651822  0.21913598  0.03090235       0.004
   0.00000000  0.00000000  0.04120313       0.001
   0.02530364  0.01460907  0.04120313       0.004
   0.05060729  0.02921813  0.04120313       0.004
   0.07591093  0.04382720  0.04120313       0.004
   0.10121457  0.05843626  0.04120313       0.004
   0.12651822  0.07304533  0.04120313       0.004
   0.15182186  0.08765439  0.04120313       0.004
   0.17712551  0.10226346  0.04120313       0.004
   0.20242915  0.11687252  0.04120313       0.002
   0.02530364  0.04382720  0.04120313       0.004
   0.05060729  0.05843626  0.04120313       0.008
   0.07591093  0.07304533  0.04120313       0.008
   0.10121457  0.08765439  0.04120313       0.008
   0.12651822  0.10226346  0.04120313       0.008
   0.15182186  0.11687252  0.04120313       0.008
   0.17712551  0.13148159  0.04120313       0.008
   0.05060729  0.08765439  0.04120313       0.004
   0.07591093  0.10226346  0.04120313       0.008
   0.10121457  0.11687252  0.04120313       0.008
   0.12651822  0.13148159  0.04120313       0.008
   0.15182186  0.14609066  0.04120313       0.008
   0.17712551  0.16069972  0.04120313       0.004
   0.07591093  0.13148159  0.04120313       0.004
   0.10121457  0.14609066  0.04120313       0.008
   0.12651822  0.16069972  0.04120313       0.008
   0.15182186  0.17530879  0.04120313       0.008
   0.10121457  0.17530879  0.04120313       0.004
   0.12651822  0.18991785  0.04120313       0.008
   0.15182186  0.20452692  0.04120313       0.004
   0.12651822  0.21913598  0.04120313       0.004
   0.00000000  0.00000000  0.05150391       0.001
   0.02530364  0.01460907  0.05150391       0.004
   0.05060729  0.02921813  0.05150391       0.004
   0.07591093  0.04382720  0.05150391       0.004
   0.10121457  0.05843626  0.05150391       0.004
   0.12651822  0.07304533  0.05150391       0.004
   0.15182186  0.08765439  0.05150391       0.004
   0.17712551  0.10226346  0.05150391       0.004
   0.20242915  0.11687252  0.05150391       0.002
   0.02530364  0.04382720  0.05150391       0.004
   0.05060729  0.05843626  0.05150391       0.008
   0.07591093  0.07304533  0.05150391       0.008
   0.10121457  0.08765439  0.05150391       0.008
   0.12651822  0.10226346  0.05150391       0.008
   0.15182186  0.11687252  0.05150391       0.008
   0.17712551  0.13148159  0.05150391       0.008
   0.05060729  0.08765439  0.05150391       0.004
   0.07591093  0.10226346  0.05150391       0.008
   0.10121457  0.11687252  0.05150391       0.008
   0.12651822  0.13148159  0.05150391       0.008
   0.15182186  0.14609066  0.05150391       0.008
   0.17712551  0.16069972  0.05150391       0.004
   0.07591093  0.13148159  0.05150391       0.004
   0.10121457  0.14609066  0.05150391       0.008
   0.12651822  0.16069972  0.05150391       0.008
   0.15182186  0.17530879  0.05150391       0.008
   0.10121457  0.17530879  0.05150391       0.004
   0.12651822  0.18991785  0.05150391       0.008
   0.15182186  0.20452692  0.05150391       0.004
   0.12651822  0.21913598  0.05150391       0.004
   0.00000000  0.00000000  0.06180470       0.000
   0.02530364  0.01460907  0.06180470       0.002
   0.05060729  0.02921813  0.06180470       0.002
   0.07591093  0.04382720  0.06180470       0.002
   0.10121457  0.05843626  0.06180470       0.002
   0.12651822  0.07304533  0.06180470       0.002
   0.15182186  0.08765439  0.06180470       0.002
   0.17712551  0.10226346  0.06180470       0.002
   0.20242915  0.11687252  0.06180470       0.001
   0.02530364  0.04382720  0.06180470       0.002
   0.05060729  0.05843626  0.06180470       0.004
   0.07591093  0.07304533  0.06180470       0.004
   0.10121457  0.08765439  0.06180470       0.004
   0.12651822  0.10226346  0.06180470       0.004
   0.15182186  0.11687252  0.06180470       0.004
   0.17712551  0.13148159  0.06180470       0.004
   0.05060729  0.08765439  0.06180470       0.002
   0.07591093  0.10226346  0.06180470       0.004
   0.10121457  0.11687252  0.06180470       0.004
   0.12651822  0.13148159  0.06180470       0.004
   0.15182186  0.14609066  0.06180470       0.004
   0.17712551  0.16069972  0.06180470       0.002
   0.07591093  0.13148159  0.06180470       0.002
   0.10121457  0.14609066  0.06180470       0.004
   0.12651822  0.16069972  0.06180470       0.004
   0.15182186  0.17530879  0.06180470       0.004
   0.10121457  0.17530879  0.06180470       0.002
   0.12651822  0.18991785  0.06180470       0.004
   0.15182186  0.20452692  0.06180470       0.002
   0.12651822  0.21913598  0.06180470       0.002
 
 k-points in reciprocal lattice and weights: Automatic mesh                          
   0.00000000  0.00000000  0.00000000       0.000
   0.06250000 -0.00000000  0.00000000       0.002
   0.12500000 -0.00000000  0.00000000       0.002
   0.18750000 -0.00000000  0.00000000       0.002
   0.25000000 -0.00000000  0.00000000       0.002
   0.31250000  0.00000000  0.00000000       0.002
   0.37500000 -0.00000000  0.00000000       0.002
   0.43750000 -0.00000000  0.00000000       0.002
   0.50000000 -0.00000000  0.00000000       0.001
   0.06250000  0.06250000  0.00000000       0.002
   0.12500000  0.06250000  0.00000000       0.004
   0.18750000  0.06250000  0.00000000       0.004
   0.25000000  0.06250000  0.00000000       0.004
   0.31250000  0.06250000  0.00000000       0.004
   0.37500000  0.06250000  0.00000000       0.004
   0.43750000  0.06250000  0.00000000       0.004
   0.12500000  0.12500000  0.00000000       0.002
   0.18750000  0.12500000  0.00000000       0.004
   0.25000000  0.12500000  0.00000000       0.004
   0.31250000  0.12500000  0.00000000       0.004
   0.37500000  0.12500000  0.00000000       0.004
   0.43750000  0.12500000  0.00000000       0.002
   0.18750000  0.18750000  0.00000000       0.002
   0.25000000  0.18750000  0.00000000       0.004
   0.31250000  0.18750000  0.00000000       0.004
   0.37500000  0.18750000  0.00000000       0.004
   0.25000000  0.25000000  0.00000000       0.002
   0.31250000  0.25000000  0.00000000       0.004
   0.37500000  0.25000000  0.00000000       0.002
   0.31250000  0.31250000  0.00000000       0.002
   0.00000000  0.00000000  0.08333333       0.001
   0.06250000 -0.00000000  0.08333333       0.004
   0.12500000 -0.00000000  0.08333333       0.004
   0.18750000 -0.00000000  0.08333333       0.004
   0.25000000 -0.00000000  0.08333333       0.004
   0.31250000  0.00000000  0.08333333       0.004
   0.37500000 -0.00000000  0.08333333       0.004
   0.43750000 -0.00000000  0.08333333       0.004
   0.50000000 -0.00000000  0.08333333       0.002
   0.06250000  0.06250000  0.08333333       0.004
   0.12500000  0.06250000  0.08333333       0.008
   0.18750000  0.06250000  0.08333333       0.008
   0.25000000  0.06250000  0.08333333       0.008
   0.31250000  0.06250000  0.08333333       0.008
   0.37500000  0.06250000  0.08333333       0.008
   0.43750000  0.06250000  0.08333333       0.008
   0.12500000  0.12500000  0.08333333       0.004
   0.18750000  0.12500000  0.08333333       0.008
   0.25000000  0.12500000  0.08333333       0.008
   0.31250000  0.12500000  0.08333333       0.008
   0.37500000  0.12500000  0.08333333       0.008
   0.43750000  0.12500000  0.08333333       0.004
   0.18750000  0.18750000  0.08333333       0.004
   0.25000000  0.18750000  0.08333333       0.008
   0.31250000  0.18750000  0.08333333       0.008
   0.37500000  0.18750000  0.08333333       0.008
   0.25000000  0.25000000  0.08333333       0.004
   0.31250000  0.25000000  0.08333333       0.008
   0.37500000  0.25000000  0.08333333       0.004
   0.31250000  0.31250000  0.08333333       0.004
   0.00000000  0.00000000  0.16666667       0.001
   0.06250000 -0.00000000  0.16666667       0.004
   0.12500000 -0.00000000  0.16666667       0.004
   0.18750000 -0.00000000  0.16666667       0.004
   0.25000000 -0.00000000  0.16666667       0.004
   0.31250000  0.00000000  0.16666667       0.004
   0.37500000 -0.00000000  0.16666667       0.004
   0.43750000 -0.00000000  0.16666667       0.004
   0.50000000 -0.00000000  0.16666667       0.002
   0.06250000  0.06250000  0.16666667       0.004
   0.12500000  0.06250000  0.16666667       0.008
   0.18750000  0.06250000  0.16666667       0.008
   0.25000000  0.06250000  0.16666667       0.008
   0.31250000  0.06250000  0.16666667       0.008
   0.37500000  0.06250000  0.16666667       0.008
   0.43750000  0.06250000  0.16666667       0.008
   0.12500000  0.12500000  0.16666667       0.004
   0.18750000  0.12500000  0.16666667       0.008
   0.25000000  0.12500000  0.16666667       0.008
   0.31250000  0.12500000  0.16666667       0.008
   0.37500000  0.12500000  0.16666667       0.008
   0.43750000  0.12500000  0.16666667       0.004
   0.18750000  0.18750000  0.16666667       0.004
   0.25000000  0.18750000  0.16666667       0.008
   0.31250000  0.18750000  0.16666667       0.008
   0.37500000  0.18750000  0.16666667       0.008
   0.25000000  0.25000000  0.16666667       0.004
   0.31250000  0.25000000  0.16666667       0.008
   0.37500000  0.25000000  0.16666667       0.004
   0.31250000  0.31250000  0.16666667       0.004
   0.00000000  0.00000000  0.25000000       0.001
   0.06250000 -0.00000000  0.25000000       0.004
   0.12500000 -0.00000000  0.25000000       0.004
   0.18750000 -0.00000000  0.25000000       0.004
   0.25000000 -0.00000000  0.25000000       0.004
   0.31250000  0.00000000  0.25000000       0.004
   0.37500000 -0.00000000  0.25000000       0.004
   0.43750000 -0.00000000  0.25000000       0.004
   0.50000000 -0.00000000  0.25000000       0.002
   0.06250000  0.06250000  0.25000000       0.004
   0.12500000  0.06250000  0.25000000       0.008
   0.18750000  0.06250000  0.25000000       0.008
   0.25000000  0.06250000  0.25000000       0.008
   0.31250000  0.06250000  0.25000000       0.008
   0.37500000  0.06250000  0.25000000       0.008
   0.43750000  0.06250000  0.25000000       0.008
   0.12500000  0.12500000  0.25000000       0.004
   0.18750000  0.12500000  0.25000000       0.008
   0.25000000  0.12500000  0.25000000       0.008
   0.31250000  0.12500000  0.25000000       0.008
   0.37500000  0.12500000  0.25000000       0.008
   0.43750000  0.12500000  0.25000000       0.004
   0.18750000  0.18750000  0.25000000       0.004
   0.25000000  0.18750000  0.25000000       0.008
   0.31250000  0.18750000  0.25000000       0.008
   0.37500000  0.18750000  0.25000000       0.008
   0.25000000  0.25000000  0.25000000       0.004
   0.31250000  0.25000000  0.25000000       0.008
   0.37500000  0.25000000  0.25000000       0.004
   0.31250000  0.31250000  0.25000000       0.004
   0.00000000  0.00000000  0.33333333       0.001
   0.06250000 -0.00000000  0.33333333       0.004
   0.12500000 -0.00000000  0.33333333       0.004
   0.18750000 -0.00000000  0.33333333       0.004
   0.25000000 -0.00000000  0.33333333       0.004
   0.31250000  0.00000000  0.33333333       0.004
   0.37500000 -0.00000000  0.33333333       0.004
   0.43750000 -0.00000000  0.33333333       0.004
   0.50000000 -0.00000000  0.33333333       0.002
   0.06250000  0.06250000  0.33333333       0.004
   0.12500000  0.06250000  0.33333333       0.008
   0.18750000  0.06250000  0.33333333       0.008
   0.25000000  0.06250000  0.33333333       0.008
   0.31250000  0.06250000  0.33333333       0.008
   0.37500000  0.06250000  0.33333333       0.008
   0.43750000  0.06250000  0.33333333       0.008
   0.12500000  0.12500000  0.33333333       0.004
   0.18750000  0.12500000  0.33333333       0.008
   0.25000000  0.12500000  0.33333333       0.008
   0.31250000  0.12500000  0.33333333       0.008
   0.37500000  0.12500000  0.33333333       0.008
   0.43750000  0.12500000  0.33333333       0.004
   0.18750000  0.18750000  0.33333333       0.004
   0.25000000  0.18750000  0.33333333       0.008
   0.31250000  0.18750000  0.33333333       0.008
   0.37500000  0.18750000  0.33333333       0.008
   0.25000000  0.25000000  0.33333333       0.004
   0.31250000  0.25000000  0.33333333       0.008
   0.37500000  0.25000000  0.33333333       0.004
   0.31250000  0.31250000  0.33333333       0.004
   0.00000000  0.00000000  0.41666667       0.001
   0.06250000 -0.00000000  0.41666667       0.004
   0.12500000 -0.00000000  0.41666667       0.004
   0.18750000 -0.00000000  0.41666667       0.004
   0.25000000 -0.00000000  0.41666667       0.004
   0.31250000  0.00000000  0.41666667       0.004
   0.37500000 -0.00000000  0.41666667       0.004
   0.43750000 -0.00000000  0.41666667       0.004
   0.50000000 -0.00000000  0.41666667       0.002
   0.06250000  0.06250000  0.41666667       0.004
   0.12500000  0.06250000  0.41666667       0.008
   0.18750000  0.06250000  0.41666667       0.008
   0.25000000  0.06250000  0.41666667       0.008
   0.31250000  0.06250000  0.41666667       0.008
   0.37500000  0.06250000  0.41666667       0.008
   0.43750000  0.06250000  0.41666667       0.008
   0.12500000  0.12500000  0.41666667       0.004
   0.18750000  0.12500000  0.41666667       0.008
   0.25000000  0.12500000  0.41666667       0.008
   0.31250000  0.12500000  0.41666667       0.008
   0.37500000  0.12500000  0.41666667       0.008
   0.43750000  0.12500000  0.41666667       0.004
   0.18750000  0.18750000  0.41666667       0.004
   0.25000000  0.18750000  0.41666667       0.008
   0.31250000  0.18750000  0.41666667       0.008
   0.37500000  0.18750000  0.41666667       0.008
   0.25000000  0.25000000  0.41666667       0.004
   0.31250000  0.25000000  0.41666667       0.008
   0.37500000  0.25000000  0.41666667       0.004
   0.31250000  0.31250000  0.41666667       0.004
   0.00000000  0.00000000  0.50000000       0.000
   0.06250000 -0.00000000  0.50000000       0.002
   0.12500000 -0.00000000  0.50000000       0.002
   0.18750000 -0.00000000  0.50000000       0.002
   0.25000000 -0.00000000  0.50000000       0.002
   0.31250000  0.00000000  0.50000000       0.002
   0.37500000 -0.00000000  0.50000000       0.002
   0.43750000 -0.00000000  0.50000000       0.002
   0.50000000 -0.00000000  0.50000000       0.001
   0.06250000  0.06250000  0.50000000       0.002
   0.12500000  0.06250000  0.50000000       0.004
   0.18750000  0.06250000  0.50000000       0.004
   0.25000000  0.06250000  0.50000000       0.004
   0.31250000  0.06250000  0.50000000       0.004
   0.37500000  0.06250000  0.50000000       0.004
   0.43750000  0.06250000  0.50000000       0.004
   0.12500000  0.12500000  0.50000000       0.002
   0.18750000  0.12500000  0.50000000       0.004
   0.25000000  0.12500000  0.50000000       0.004
   0.31250000  0.12500000  0.50000000       0.004
   0.37500000  0.12500000  0.50000000       0.004
   0.43750000  0.12500000  0.50000000       0.002
   0.18750000  0.18750000  0.50000000       0.002
   0.25000000  0.18750000  0.50000000       0.004
   0.31250000  0.18750000  0.50000000       0.004
   0.37500000  0.18750000  0.50000000       0.004
   0.25000000  0.25000000  0.50000000       0.002
   0.31250000  0.25000000  0.50000000       0.004
   0.37500000  0.25000000  0.50000000       0.002
   0.31250000  0.31250000  0.50000000       0.002
 
 position of ions in fractional coordinates (direct lattice) 
   0.00000000  0.00000000  0.00000000
   0.33333333  0.66666667  0.50000000
 
 position of ions in cartesian coordinates  (Angst):
   0.00000000  0.00000000  0.00000000
   0.00000000  1.42605516  4.04500000
 


--------------------------------------------------------------------------------------------------------


 k-point   1 :   0.0000 0.0000 0.0000  plane waves:     741
 k-point   2 :   0.0625-0.0000 0.0000  plane waves:     741
 k-point   3 :   0.1250-0.0000 0.0000  plane waves:     755
 k-point   4 :   0.1875-0.0000 0.0000  plane waves:     773
 k-point   5 :   0.2500-0.0000 0.0000  plane waves:     773
 k-point   6 :   0.3125 0.0000 0.0000  plane waves:     783
 k-point   7 :   0.3750-0.0000 0.0000  plane waves:     777
 k-point   8 :   0.4375-0.0000 0.0000  plane waves:     783
 k-point   9 :   0.5000-0.0000 0.0000  plane waves:     766
 k-point  10 :   0.0625 0.0625 0.0000  plane waves:     752
 k-point  11 :   0.1250 0.0625 0.0000  plane waves:     759
 k-point  12 :   0.1875 0.0625 0.0000  plane waves:     767
 k-point  13 :   0.2500 0.0625 0.0000  plane waves:     777
 k-point  14 :   0.3125 0.0625 0.0000  plane waves:     777
 k-point  15 :   0.3750 0.0625 0.0000  plane waves:     789
 k-point  16 :   0.4375 0.0625 0.0000  plane waves:     789
 k-point  17 :   0.1250 0.1250 0.0000  plane waves:     764
 k-point  18 :   0.1875 0.1250 0.0000  plane waves:     778
 k-point  19 :   0.2500 0.1250 0.0000  plane waves:     781
 k-point  20 :   0.3125 0.1250 0.0000  plane waves:     785
 k-point  21 :   0.3750 0.1250 0.0000  plane waves:     791
 k-point  22 :   0.4375 0.1250 0.0000  plane waves:     794
 k-point  23 :   0.1875 0.1875 0.0000  plane waves:     780
 k-point  24 :   0.2500 0.1875 0.0000  plane waves:     782
 k-point  25 :   0.3125 0.1875 0.0000  plane waves:     783
 k-point  26 :   0.3750 0.1875 0.0000  plane waves:     783
 k-point  27 :   0.2500 0.2500 0.0000  plane waves:     786
 k-point  28 :   0.3125 0.2500 0.0000  plane waves:     772
 k-point  29 :   0.3750 0.2500 0.0000  plane waves:     776
 k-point  30 :   0.3125 0.3125 0.0000  plane waves:     776
 k-point  31 :   0.0000 0.0000 0.0833  plane waves:     741
 k-point  32 :   0.0625-0.0000 0.0833  plane waves:     744
 k-point  33 :   0.1250-0.0000 0.0833  plane waves:     757
 k-point  34 :   0.1875-0.0000 0.0833  plane waves:     767
 k-point  35 :   0.2500-0.0000 0.0833  plane waves:     774
 k-point  36 :   0.3125 0.0000 0.0833  plane waves:     782
 k-point  37 :   0.3750-0.0000 0.0833  plane waves:     778
 k-point  38 :   0.4375-0.0000 0.0833  plane waves:     776
 k-point  39 :   0.5000-0.0000 0.0833  plane waves:     772
 k-point  40 :   0.0625 0.0625 0.0833  plane waves:     748
 k-point  41 :   0.1250 0.0625 0.0833  plane waves:     761
 k-point  42 :   0.1875 0.0625 0.0833  plane waves:     769
 k-point  43 :   0.2500 0.0625 0.0833  plane waves:     777
 k-point  44 :   0.3125 0.0625 0.0833  plane waves:     778
 k-point  45 :   0.3750 0.0625 0.0833  plane waves:     785
 k-point  46 :   0.4375 0.0625 0.0833  plane waves:     786
 k-point  47 :   0.1250 0.1250 0.0833  plane waves:     767
 k-point  48 :   0.1875 0.1250 0.0833  plane waves:     776
 k-point  49 :   0.2500 0.1250 0.0833  plane waves:     778
 k-point  50 :   0.3125 0.1250 0.0833  plane waves:     790
 k-point  51 :   0.3750 0.1250 0.0833  plane waves:     789
 k-point  52 :   0.4375 0.1250 0.0833  plane waves:     786
 k-point  53 :   0.1875 0.1875 0.0833  plane waves:     781
 k-point  54 :   0.2500 0.1875 0.0833  plane waves:     779
 k-point  55 :   0.3125 0.1875 0.0833  plane waves:     786
 k-point  56 :   0.3750 0.1875 0.0833  plane waves:     784
 k-point  57 :   0.2500 0.2500 0.0833  plane waves:     784
 k-point  58 :   0.3125 0.2500 0.0833  plane waves:     774
 k-point  59 :   0.3750 0.2500 0.0833  plane waves:     777
 k-point  60 :   0.3125 0.3125 0.0833  plane waves:     776
 k-point  61 :   0.0000 0.0000 0.1667  plane waves:     741
 k-point  62 :   0.0625-0.0000 0.1667  plane waves:     747
 k-point  63 :   0.1250-0.0000 0.1667  plane waves:     751
 k-point  64 :   0.1875-0.0000 0.1667  plane waves:     767
 k-point  65 :   0.2500-0.0000 0.1667  plane waves:     773
 k-point  66 :   0.3125 0.0000 0.1667  plane waves:     777
 k-point  67 :   0.3750-0.0000 0.1667  plane waves:     774
 k-point  68 :   0.4375-0.0000 0.1667  plane waves:     771
 k-point  69 :   0.5000-0.0000 0.1667  plane waves:     778
 k-point  70 :   0.0625 0.0625 0.1667  plane waves:     746
 k-point  71 :   0.1250 0.0625 0.1667  plane waves:     763
 k-point  72 :   0.1875 0.0625 0.1667  plane waves:     768
 k-point  73 :   0.2500 0.0625 0.1667  plane waves:     777
 k-point  74 :   0.3125 0.0625 0.1667  plane waves:     779
 k-point  75 :   0.3750 0.0625 0.1667  plane waves:     782
 k-point  76 :   0.4375 0.0625 0.1667  plane waves:     781
 k-point  77 :   0.1250 0.1250 0.1667  plane waves:     772
 k-point  78 :   0.1875 0.1250 0.1667  plane waves:     778
 k-point  79 :   0.2500 0.1250 0.1667  plane waves:     782
 k-point  80 :   0.3125 0.1250 0.1667  plane waves:     785
 k-point  81 :   0.3750 0.1250 0.1667  plane waves:     787
 k-point  82 :   0.4375 0.1250 0.1667  plane waves:     785
 k-point  83 :   0.1875 0.1875 0.1667  plane waves:     780
 k-point  84 :   0.2500 0.1875 0.1667  plane waves:     777
 k-point  85 :   0.3125 0.1875 0.1667  plane waves:     782
 k-point  86 :   0.3750 0.1875 0.1667  plane waves:     787
 k-point  87 :   0.2500 0.2500 0.1667  plane waves:     783
 k-point  88 :   0.3125 0.2500 0.1667  plane waves:     777
 k-point  89 :   0.3750 0.2500 0.1667  plane waves:     781
 k-point  90 :   0.3125 0.3125 0.1667  plane waves:     776
 k-point  91 :   0.0000 0.0000 0.2500  plane waves:     746
 k-point  92 :   0.0625-0.0000 0.2500  plane waves:     750
 k-point  93 :   0.1250-0.0000 0.2500  plane waves:     749
 k-point  94 :   0.1875-0.0000 0.2500  plane waves:     766
 k-point  95 :   0.2500-0.0000 0.2500  plane waves:     778
 k-point  96 :   0.3125 0.0000 0.2500  plane waves:     778
 k-point  97 :   0.3750-0.0000 0.2500  plane waves:     772
 k-point  98 :   0.4375-0.0000 0.2500  plane waves:     781
 k-point  99 :   0.5000-0.0000 0.2500  plane waves:     776
 k-point 100 :   0.0625 0.0625 0.2500  plane waves:     748
 k-point 101 :   0.1250 0.0625 0.2500  plane waves:     760
 k-point 102 :   0.1875 0.0625 0.2500  plane waves:     769
 k-point 103 :   0.2500 0.0625 0.2500  plane waves:     778
 k-point 104 :   0.3125 0.0625 0.2500  plane waves:     783
 k-point 105 :   0.3750 0.0625 0.2500  plane waves:     784
 k-point 106 :   0.4375 0.0625 0.2500  plane waves:     779
 k-point 107 :   0.1250 0.1250 0.2500  plane waves:     774
 k-point 108 :   0.1875 0.1250 0.2500  plane waves:     778
 k-point 109 :   0.2500 0.1250 0.2500  plane waves:     779
 k-point 110 :   0.3125 0.1250 0.2500  plane waves:     781
 k-point 111 :   0.3750 0.1250 0.2500  plane waves:     784
 k-point 112 :   0.4375 0.1250 0.2500  plane waves:     780
 k-point 113 :   0.1875 0.1875 0.2500  plane waves:     781
 k-point 114 :   0.2500 0.1875 0.2500  plane waves:     782
 k-point 115 :   0.3125 0.1875 0.2500  plane waves:     784
 k-point 116 :   0.3750 0.1875 0.2500  plane waves:     785
 k-point 117 :   0.2500 0.2500 0.2500  plane waves:     778
 k-point 118 :   0.3125 0.2500 0.2500  plane waves:     784
 k-point 119 :   0.3750 0.2500 0.2500  plane waves:     784
 k-point 120 :   0.3125 0.3125 0.2500  plane waves:     779
 k-point 121 :   0.0000 0.0000 0.3333  plane waves:     752
 k-point 122 :   0.0625-0.0000 0.3333  plane waves:     750
 k-point 123 :   0.1250-0.0000 0.3333  plane waves:     753
 k-point 124 :   0.1875-0.0000 0.3333  plane waves:     766
 k-point 125 :   0.2500-0.0000 0.3333  plane waves:     777
 k-point 126 :   0.3125 0.0000 0.3333  plane waves:     776
 k-point 127 :   0.3750-0.0000 0.3333  plane waves:     780
 k-point 128 :   0.4375-0.0000 0.3333  plane waves:     773
 k-point 129 :   0.5000-0.0000 0.3333  plane waves:     768
 k-point 130 :   0.0625 0.0625 0.3333  plane waves:     749
 k-point 131 :   0.1250 0.0625 0.3333  plane waves:     761
 k-point 132 :   0.1875 0.0625 0.3333  plane waves:     768
 k-point 133 :   0.2500 0.0625 0.3333  plane waves:     776
 k-point 134 :   0.3125 0.0625 0.3333  plane waves:     784
 k-point 135 :   0.3750 0.0625 0.3333  plane waves:     781
 k-point 136 :   0.4375 0.0625 0.3333  plane waves:     779
 k-point 137 :   0.1250 0.1250 0.3333  plane waves:     772
 k-point 138 :   0.1875 0.1250 0.3333  plane waves:     774
 k-point 139 :   0.2500 0.1250 0.3333  plane waves:     782
 k-point 140 :   0.3125 0.1250 0.3333  plane waves:     782
 k-point 141 :   0.3750 0.1250 0.3333  plane waves:     779
 k-point 142 :   0.4375 0.1250 0.3333  plane waves:     776
 k-point 143 :   0.1875 0.1875 0.3333  plane waves:     779
 k-point 144 :   0.2500 0.1875 0.3333  plane waves:     785
 k-point 145 :   0.3125 0.1875 0.3333  plane waves:     786
 k-point 146 :   0.3750 0.1875 0.3333  plane waves:     783
 k-point 147 :   0.2500 0.2500 0.3333  plane waves:     778
 k-point 148 :   0.3125 0.2500 0.3333  plane waves:     785
 k-point 149 :   0.3750 0.2500 0.3333  plane waves:     784
 k-point 150 :   0.3125 0.3125 0.3333  plane waves:     777
 k-point 151 :   0.0000 0.0000 0.4167  plane waves:     770
 k-point 152 :   0.0625-0.0000 0.4167  plane waves:     753
 k-point 153 :   0.1250-0.0000 0.4167  plane waves:     759
 k-point 154 :   0.1875-0.0000 0.4167  plane waves:     760
 k-point 155 :   0.2500-0.0000 0.4167  plane waves:     772
 k-point 156 :   0.3125 0.0000 0.4167  plane waves:     769
 k-point 157 :   0.3750-0.0000 0.4167  plane waves:     784
 k-point 158 :   0.4375-0.0000 0.4167  plane waves:     771
 k-point 159 :   0.5000-0.0000 0.4167  plane waves:     768
 k-point 160 :   0.0625 0.0625 0.4167  plane waves:     752
 k-point 161 :   0.1250 0.0625 0.4167  plane waves:     765
 k-point 162 :   0.1875 0.0625 0.4167  plane waves:     770
 k-point 163 :   0.2500 0.0625 0.4167  plane waves:     773
 k-point 164 :   0.3125 0.0625 0.4167  plane waves:     784
 k-point 165 :   0.3750 0.0625 0.4167  plane waves:     782
 k-point 166 :   0.4375 0.0625 0.4167  plane waves:     778
 k-point 167 :   0.1250 0.1250 0.4167  plane waves:     772
 k-point 168 :   0.1875 0.1250 0.4167  plane waves:     777
 k-point 169 :   0.2500 0.1250 0.4167  plane waves:     783
 k-point 170 :   0.3125 0.1250 0.4167  plane waves:     786
 k-point 171 :   0.3750 0.1250 0.4167  plane waves:     782
 k-point 172 :   0.4375 0.1250 0.4167  plane waves:     778
 k-point 173 :   0.1875 0.1875 0.4167  plane waves:     780
 k-point 174 :   0.2500 0.1875 0.4167  plane waves:     787
 k-point 175 :   0.3125 0.1875 0.4167  plane waves:     788
 k-point 176 :   0.3750 0.1875 0.4167  plane waves:     784
 k-point 177 :   0.2500 0.2500 0.4167  plane waves:     787
 k-point 178 :   0.3125 0.2500 0.4167  plane waves:     786
 k-point 179 :   0.3750 0.2500 0.4167  plane waves:     779
 k-point 180 :   0.3125 0.3125 0.4167  plane waves:     778
 k-point 181 :   0.0000 0.0000 0.5000  plane waves:     770
 k-point 182 :   0.0625-0.0000 0.5000  plane waves:     760
 k-point 183 :   0.1250-0.0000 0.5000  plane waves:     752
 k-point 184 :   0.1875-0.0000 0.5000  plane waves:     764
 k-point 185 :   0.2500-0.0000 0.5000  plane waves:     764
 k-point 186 :   0.3125 0.0000 0.5000  plane waves:     776
 k-point 187 :   0.3750-0.0000 0.5000  plane waves:     784
 k-point 188 :   0.4375-0.0000 0.5000  plane waves:     768
 k-point 189 :   0.5000-0.0000 0.5000  plane waves:     768
 k-point 190 :   0.0625 0.0625 0.5000  plane waves:     756
 k-point 191 :   0.1250 0.0625 0.5000  plane waves:     760
 k-point 192 :   0.1875 0.0625 0.5000  plane waves:     770
 k-point 193 :   0.2500 0.0625 0.5000  plane waves:     778
 k-point 194 :   0.3125 0.0625 0.5000  plane waves:     780
 k-point 195 :   0.3750 0.0625 0.5000  plane waves:     782
 k-point 196 :   0.4375 0.0625 0.5000  plane waves:     776
 k-point 197 :   0.1250 0.1250 0.5000  plane waves:     774
 k-point 198 :   0.1875 0.1250 0.5000  plane waves:     776
 k-point 199 :   0.2500 0.1250 0.5000  plane waves:     786
 k-point 200 :   0.3125 0.1250 0.5000  plane waves:     782
 k-point 201 :   0.3750 0.1250 0.5000  plane waves:     786
 k-point 202 :   0.4375 0.1250 0.5000  plane waves:     774
 k-point 203 :   0.1875 0.1875 0.5000  plane waves:     780
 k-point 204 :   0.2500 0.1875 0.5000  plane waves:     790
 k-point 205 :   0.3125 0.1875 0.5000  plane waves:     788
 k-point 206 :   0.3750 0.1875 0.5000  plane waves:     782
 k-point 207 :   0.2500 0.2500 0.5000  plane waves:     792
 k-point 208 :   0.3125 0.2500 0.5000  plane waves:     786
 k-point 209 :   0.3750 0.2500 0.5000  plane waves:     780
 k-point 210 :   0.3125 0.3125 0.5000  plane waves:     776

 maximum and minimum number of plane-waves per node :       139      115

 maximum number of plane-waves:       794
 maximum index in each direction: 
   IXMAX=    4   IYMAX=    4   IZMAX=   13
   IXMIN=   -4   IYMIN=   -4   IZMIN=  -13


 parallel 3D FFT for wavefunctions:
    minimum data exchange during FFTs selected (reduces bandwidth)
 parallel 3D FFT for charge:
    minimum data exchange during FFTs selected (reduces bandwidth)


 total amount of memory used by VASP MPI-rank0    39344. kBytes
=======================================================================

   base      :      30000. kBytes
   nonl-proj :       4116. kBytes
   fftplans  :        291. kBytes
   grid      :        713. kBytes
   one-center:         31. kBytes
   wavefun   :       4193. kBytes
 
     INWAV:  cpu time      0.0000: real time      0.0005
 Broyden mixing: mesh for mixing (old mesh)
   NGX =  9   NGY =  9   NGZ = 27
  (NGX  = 32   NGY  = 32   NGZ  =108)
  gives a total of   2187 points

 initial charge density was supplied:
 charge density of overlapping atoms calculated
 number of electron      18.0000000 magnetization       6.0000000
 keeping initial charge density in first step


--------------------------------------------------------------------------------------------------------


 Maximum index for augmentation-charges         1022 (set IRDMAX)


--------------------------------------------------------------------------------------------------------


 First call to EWALD:  gamma=   0.507
 Maximum number of real-space cells 4x 4x 1
 Maximum number of reciprocal cells 2x 2x 6

    FEWALD:  cpu time      0.0015: real time      0.0015


--------------------------------------- Iteration      1(   1)  ---------------------------------------


    POTLOK:  cpu time      0.0090: real time      0.0091
    SETDIJ:  cpu time      0.0058: real time      0.0058
     EDDAV:  cpu time      1.3551: real time      1.3624
       DOS:  cpu time      0.0041: real time      0.0041
    --------------------------------------------
      LOOP:  cpu time      1.3739: real time      1.3814

 eigenvalue-minimisations  : 13456
 total energy-change (2. order) : 0.7769320E+02  (-0.6608234E+03)
 number of electron      18.0000000 magnetization       6.0000000
 augmentation part       18.0000000 magnetization       6.0000000

 Free energy of the ion-electron system (eV)
  ---------------------------------------------------
  alpha Z        PSCENC =        39.63868225
  Ewald energy   TEWEN  =     -1054.56880693
  -Hartree energ DENC   =      -595.60964206
  -exchange      EXHF   =         0.00000000
  -V(xc)+E(xc)   XCENC  =        33.36921587
  PAW double counting   =      1439.98163886    -1545.88690193
  entropy T*S    EENTRO =        -0.00351994
  eigenvalues    EBANDS =       134.05707004
  atomic energy  EATOM  =      1626.71546820
  Solvation  Ediel_sol  =         0.00000000
  ---------------------------------------------------
  free energy    TOTEN  =        77.69320436 eV

  energy without entropy =       77.69672430  energy(sigma->0) =       77.69496433


--------------------------------------------------------------------------------------------------------




--------------------------------------- Iteration      1(   2)  ---------------------------------------


     EDDAV:  cpu time      1.3309: real time      1.3382
       DOS:  cpu time      0.0042: real time      0.0042
    --------------------------------------------
      LOOP:  cpu time      1.3351: real time      1.3424

 eigenvalue-minimisations  : 13520
 total energy-change (2. order) :-0.8816460E+02  (-0.8141442E+02)
 number of electron      18.0000000 magnetization       6.0000000
 augmentation part       18.0000000 magnetization       6.0000000

 Free energy of the ion-electron system (eV)
  ---------------------------------------------------
  alpha Z        PSCENC =        39.63868225
  Ewald energy   TEWEN  =     -1054.56880693
  -Hartree energ DENC   =      -595.60964206
  -exchange      EXHF   =         0.00000000
  -V(xc)+E(xc)   XCENC  =        33.36921587
  PAW double counting   =      1439.98163886    -1545.88690193
  entropy T*S    EENTRO =        -0.00365259
  eigenvalues    EBANDS =        45.89260425
  atomic energy  EATOM  =      1626.71546820
  Solvation  Ediel_sol  =         0.00000000
  ---------------------------------------------------
  free energy    TOTEN  =       -10.47139408 eV

  energy without entropy =      -10.46774149  energy(sigma->0) =      -10.46956778


--------------------------------------------------------------------------------------------------------




--------------------------------------- Iteration      1(   3)  ---------------------------------------


     EDDAV:  cpu time      1.5717: real time      1.5806
       DOS:  cpu time      0.0043: real time      0.0043
    --------------------------------------------
      LOOP:  cpu time      1.5759: real time      1.5849

 eigenvalue-minimisations  : 16448
 total energy-change (2. order) :-0.2208286E+01  (-0.2176974E+01)
 number of electron      18.0000000 magnetization       6.0000000
 augmentation part       18.0000000 magnetization       6.0000000

 Free energy of the ion-electron system (eV)
  ---------------------------------------------------
  alpha Z        PSCENC =        39.63868225
  Ewald energy   TEWEN  =     -1054.56880693
  -Hartree energ DENC   =      -595.60964206
  -exchange      EXHF   =         0.00000000
  -V(xc)+E(xc)   XCENC  =        33.36921587
  PAW double counting   =      1439.98163886    -1545.88690193
  entropy T*S    EENTRO =        -0.00351294
  eigenvalues    EBANDS =        43.68417827
  atomic energy  EATOM  =      1626.71546820
  Solvation  Ediel_sol  =         0.00000000
  ---------------------------------------------------
  free energy    TOTEN  =       -12.67968041 eV

  energy without entropy =      -12.67616746  energy(sigma->0) =      -12.67792394


--------------------------------------------------------------------------------------------------------




--------------------------------------- Iteration      1(   4)  ---------------------------------------


     EDDAV:  cpu time      1.6897: real time      1.6981
       DOS:  cpu time      0.0040: real time      0.0040
    --------------------------------------------
      LOOP:  cpu time      1.6937: real time      1.7022

 eigenvalue-minimisations  : 18336
 total energy-change (2. order) :-0.3584768E-01  (-0.3583435E-01)
 number of electron      18.0000000 magnetization       6.0000000
 augmentation part       18.0000000 magnetization       6.0000000

 Free energy of the ion-electron system (eV)
  ---------------------------------------------------
  alpha Z        PSCENC =        39.63868225
  Ewald energy   TEWEN  =     -1054.56880693
  -Hartree energ DENC   =      -595.60964206
[...]
      2       0.7269      1.00000
      3       1.7683      1.00000
      4       1.7683      1.00000
      5       2.6131      1.00000
      6       2.6131      1.00000
      7       3.2636      0.00157
      8       3.2636      0.00157
      9       3.3805      0.00000
     10       3.3805      0.00000
     11       5.1740      0.00000
     12       5.1740      0.00000
     13      10.0963      0.00000
     14      10.0963      0.00000
     15      13.6815      0.00000
     16      13.6815      0.00000

 k-point   201 :       0.3750    0.1250    0.5000
  band No.  band energies     occupation 
      1       0.6775      1.00000
      2       0.6775      1.00000
      3       1.7096      1.00000
      4       1.7096      1.00000
      5       3.1963      0.14699
      6       3.1963      0.14697
      7       3.2992      0.00004
      8       3.2992      0.00004
      9       3.4231      0.00000
     10       3.4231      0.00000
     11       6.1707      0.00000
     12       6.1708      0.00000
     13      11.0057      0.00000
     14      11.0057      0.00000
     15      12.0806      0.00000
     16      12.0806      0.00000

 k-point   202 :       0.4375    0.1250    0.5000
  band No.  band energies     occupation 
      1       0.6476      1.00000
      2       0.6476      1.00000
      3       1.6883      1.00000
      4       1.6883      1.00000
      5       3.2696      0.00089
      6       3.2696      0.00089
      7       3.4093      0.00000
      8       3.4093      0.00000
      9       3.4780      0.00000
     10       3.4780      0.00000
     11       6.8398      0.00000
     12       6.8398      0.00000
     13      10.3249      0.00000
     14      10.3249      0.00000
     15      12.6374      0.00000
     16      12.6374      0.00000

 k-point   203 :       0.1875    0.1875    0.5000
  band No.  band energies     occupation 
      1       0.7105      1.00000
      2       0.7105      1.00000
      3       1.6343      1.00000
      4       1.6343      1.00000
      5       1.9565      1.00000
      6       1.9565      1.00000
      7       3.0555      0.99831
      8       3.0555      0.99831
      9       3.4323      0.00000
     10       3.4323      0.00000
     11       4.4514      0.00000
     12       4.4514      0.00000
     13       8.7475      0.00000
     14       8.7475      0.00000
     15      17.1553      0.00000
     16      17.1553      0.00000

 k-point   204 :       0.2500    0.1875    0.5000
  band No.  band energies     occupation 
      1       1.1725      1.00000
      2       1.1725      1.00000
      3       1.7486      1.00000
      4       1.7486      1.00000
      5       1.9568      1.00000
      6       1.9568      1.00000
      7       3.2288      0.02442
      8       3.2288      0.02442
      9       3.2744      0.00056
     10       3.2744      0.00056
     11       5.2827      0.00000
     12       5.2827      0.00000
     13       9.9532      0.00000
     14       9.9532      0.00000
     15      15.2383      0.00000
     16      15.2383      0.00000

 k-point   205 :       0.3125    0.1875    0.5000
  band No.  band energies     occupation 
      1       1.0907      1.00000
      2       1.0907      1.00000
      3       1.8411      1.00000
      4       1.8411      1.00000
      5       2.4506      1.00000
      6       2.4506      1.00000
      7       3.1128      0.90511
      8       3.1128      0.90511
      9       3.3782      0.00000
     10       3.3782      0.00000
     11       6.3832      0.00000
     12       6.3832      0.00000
     13      11.2650      0.00000
     14      11.2650      0.00000
     15      12.9802      0.00000
     16      12.9802      0.00000

 k-point   206 :       0.3750    0.1875    0.5000
  band No.  band energies     occupation 
      1       1.0117      1.00000
      2       1.0117      1.00000
      3       1.8415      1.00000
      4       1.8415      1.00000
      5       2.8350      1.00000
      6       2.8350      1.00000
      7       3.0307      0.99986
      8       3.0307      0.99986
      9       3.4226      0.00000
     10       3.4226      0.00000
     11       7.5801      0.00000
     12       7.5801      0.00000
     13      10.8774      0.00000
     14      10.8774      0.00000
     15      12.9334      0.00000
     16      12.9334      0.00000

 k-point   207 :       0.2500    0.2500    0.5000
  band No.  band energies     occupation 
      1       1.5003      1.00000
      2       1.5003      1.00000
      3       1.8216      1.00000
      4       1.8216      1.00000
      5       2.0040      1.00000
      6       2.0040      1.00000
      7       3.0235      0.99994
      8       3.0235      0.99994
      9       3.3710      0.00000
     10       3.3710      0.00000
     11       6.4454      0.00000
     12       6.4454      0.00000
     13      11.2710      0.00000
     14      11.2710      0.00000
     15      14.3437      0.00000
     16      14.3437      0.00000

 k-point   208 :       0.3125    0.2500    0.5000
  band No.  band energies     occupation 
      1       1.4472      1.00000
      2       1.4472      1.00000
      3       1.9873      1.00000
      4       1.9873      1.00000
      5       2.2656      1.00000
      6       2.2656      1.00000
      7       2.8179      1.00000
      8       2.8179      1.00000
      9       3.4276      0.00000
     10       3.4276      0.00000
     11       7.8617      0.00000
     12       7.8617      0.00000
     13      12.0922      0.00000
     14      12.0922      0.00000
     15      12.9580      0.00000
     16      12.9580      0.00000

 k-point   209 :       0.3750    0.2500    0.5000
  band No.  band energies     occupation 
      1       1.4149      1.00000
      2       1.4149      1.00000
      3       2.0408      1.00000
      4       2.0408      1.00000
      5       2.4041      1.00000
      6       2.4041      1.00000
      7       2.7281      1.00000
      8       2.7281      1.00000
      9       3.4365      0.00000
     10       3.4365      0.00000
     11       8.9506      0.00000
     12       8.9506      0.00000
     13      10.8514      0.00000
     14      10.8514      0.00000
     15      13.9542      0.00000
     16      13.9542      0.00000

 k-point   210 :       0.3125    0.3125    0.5000
  band No.  band energies     occupation 
      1       1.7384      1.00000
      2       1.7384      1.00000
      3       2.0617      1.00000
      4       2.0617      1.00000
      5       2.2123      1.00000
      6       2.2123      1.00000
      7       2.5291      1.00000
      8       2.5291      1.00000
      9       3.4407      0.00000
     10       3.4407      0.00000
     11       9.5310      0.00000
     12       9.5310      0.00000
     13      11.4290      0.00000
     14      11.4290      0.00000
     15      12.5352      0.00000
     16      12.5352      0.00000


--------------------------------------------------------------------------------------------------------


 soft charge-density along one line, spin component           1
         0         1         2         3         4         5         6         7         8         9
 total charge-density along one line
 
 soft charge-density along one line, spin component           2
         0         1         2         3         4         5         6         7         8         9
 total charge-density along one line
 
 pseudopotential strength for first ion, spin component:           1
 -5.439   0.000   0.000  -0.000   0.000  -5.899   0.000   0.000
  0.000  -5.618   0.000  -0.000   0.000   0.000  -6.072   0.000
  0.000   0.000  -5.690   0.000  -0.000   0.000   0.000  -6.141
 -0.000  -0.000   0.000  -5.618  -0.000  -0.000  -0.000   0.000
  0.000   0.000  -0.000  -0.000  -5.439   0.000   0.000  -0.000
 -5.899   0.000   0.000  -0.000   0.000  -6.306   0.000   0.000
  0.000  -6.072   0.000  -0.000   0.000   0.000  -6.473   0.000
  0.000   0.000  -6.141   0.000  -0.000   0.000   0.000  -6.540
 -0.000  -0.000   0.000  -6.072  -0.000  -0.000  -0.000   0.000
  0.000   0.000  -0.000  -0.000  -5.899   0.000   0.000  -0.000
  0.000   0.000   0.027   0.000  -0.000   0.000   0.000   0.026
  0.000   0.000   0.047   0.000  -0.000   0.000   0.000   0.047
 -0.000  -0.000  -0.000   0.000   0.000  -0.000  -0.000  -0.000
  0.000   0.000  -0.000  -0.000   0.000   0.000   0.000  -0.000
  0.000   0.000   0.000   0.000  -0.000   0.000   0.000   0.000
 -0.000  -0.000  -0.000   0.000   0.000  -0.000  -0.000  -0.000
  0.000   0.000  -0.000  -0.000   0.000   0.000   0.000  -0.000
  0.000   0.000   0.000   0.000  -0.000   0.000   0.000   0.000
 pseudopotential strength for first ion, spin component:           2
 -4.039  -0.000   0.000   0.000   0.000  -4.559  -0.000   0.000
 -0.000  -4.042  -0.000  -0.000  -0.000  -0.000  -4.562  -0.000
  0.000  -0.000  -4.055  -0.000  -0.000   0.000  -0.000  -4.574
  0.000  -0.000  -0.000  -4.042   0.000   0.000  -0.000  -0.000
  0.000  -0.000  -0.000   0.000  -4.039   0.000  -0.000  -0.000
 -4.559  -0.000   0.000   0.000   0.000  -5.023  -0.000   0.000
 -0.000  -4.562  -0.000  -0.000  -0.000  -0.000  -5.026  -0.000
  0.000  -0.000  -4.574  -0.000  -0.000   0.000  -0.000  -5.038
  0.000  -0.000  -0.000  -4.562   0.000   0.000  -0.000  -0.000
  0.000  -0.000  -0.000   0.000  -4.559   0.000  -0.000  -0.000
  0.000  -0.000  -0.001  -0.000  -0.000   0.000  -0.000  -0.002
  0.000  -0.000  -0.002  -0.000  -0.000   0.000  -0.000  -0.004
  0.000  -0.000   0.000   0.000   0.000   0.000  -0.000   0.000
  0.000  -0.000  -0.000   0.000   0.000   0.000  -0.000  -0.000
  0.000   0.000  -0.000   0.000   0.000   0.000   0.000  -0.000
  0.000  -0.000   0.000   0.000   0.000   0.000  -0.000   0.000
  0.000  -0.000  -0.000   0.000   0.000   0.000  -0.000  -0.000
  0.000   0.000  -0.000   0.000   0.000   0.000   0.000  -0.000
 total augmentation occupancy for first ion, spin component:           1
  2.415   0.000   0.000  -0.000   0.000  -1.040  -0.000  -0.000  -0.000   0.000   0.000  -0.000   0.000  -0.000   0.000  -0.000
  0.000   2.655   0.000  -0.000   0.000   0.000  -0.873  -0.000   0.000   0.000  -0.000  -0.000   0.000   0.000   0.000   0.000
  0.000   0.000   3.035  -0.000  -0.000  -0.000  -0.000  -1.239   0.000   0.000   0.728   0.047  -0.000   0.000   0.000  -0.000
  0.000  -0.000   0.000   2.655   0.000  -0.000   0.000   0.000  -0.873   0.000  -0.000  -0.000   0.000   0.000   0.000   0.000
  0.000   0.000  -0.000   0.000   2.415  -0.000   0.000   0.000   0.000  -1.040  -0.000   0.000   0.000   0.000   0.000  -0.000
 -1.040   0.000  -0.000   0.000  -0.000   1.253   0.000   0.000   0.000   0.000  -0.000   0.000  -0.000   0.000  -0.000   0.000
  0.000  -0.873  -0.000   0.000   0.000   0.000   0.612  -0.000  -0.000   0.000   0.000   0.000  -0.000   0.000  -0.000  -0.000
 -0.000   0.000  -1.239   0.000   0.000   0.000   0.000   0.922  -0.000  -0.000  -0.942   0.036   0.000   0.000  -0.000  -0.000
  0.000   0.000   0.000  -0.873  -0.000   0.000  -0.000   0.000   0.612   0.000   0.000   0.000   0.000   0.000  -0.000  -0.000
 -0.000   0.000   0.000   0.000  -1.040   0.000  -0.000  -0.000   0.000   1.253   0.000  -0.000  -0.000   0.000  -0.000   0.000
  0.000   0.000   0.728  -0.000  -0.000  -0.000   0.000  -0.942   0.000   0.000   1.781  -0.104   0.000   0.000   0.000  -0.000
 -0.000   0.000   0.047  -0.000   0.000   0.000   0.000   0.036   0.000  -0.000  -0.104   0.018   0.000   0.000   0.000  -0.000
  0.000   0.000   0.000   0.000   0.000  -0.000  -0.000   0.000  -0.000  -0.000   0.000   0.000   0.226  -0.000   0.000  -0.017
  0.000   0.000   0.000   0.000   0.000   0.000   0.000   0.000   0.000   0.000   0.000   0.000  -0.000   0.062   0.000  -0.000
  0.000   0.000   0.000   0.000   0.000  -0.000  -0.000  -0.000   0.000  -0.000   0.000   0.000  -0.000   0.000   0.226   0.000
 -0.000   0.000   0.000   0.000  -0.000   0.000   0.000  -0.000   0.000   0.000   0.000   0.000  -0.017  -0.000  -0.000   0.001
  0.000   0.000   0.000   0.000  -0.000   0.000  -0.000   0.000   0.000  -0.000   0.000   0.000   0.000  -0.004   0.000  -0.000
 -0.000   0.000  -0.000   0.000  -0.000   0.000   0.000   0.000  -0.000   0.000   0.000   0.000  -0.000   0.000  -0.017  -0.000
 total augmentation occupancy for first ion, spin component:           2
  1.798  -0.000   0.000  -0.000   0.000  -0.820  -0.000   0.000   0.000  -0.000  -0.000   0.000  -0.000  -0.000  -0.000   0.000
  0.000   2.119  -0.000  -0.000   0.000  -0.000  -0.964  -0.000   0.000   0.000  -0.000   0.000   0.000   0.000   0.000   0.000
  0.000  -0.000   2.009   0.000  -0.000   0.000   0.000  -0.856   0.000   0.000   0.007   0.107   0.000   0.000  -0.000   0.000
  0.000  -0.000   0.000   2.119   0.000   0.000   0.000   0.000  -0.964   0.000   0.000  -0.000   0.000   0.000  -0.000   0.000
  0.000  -0.000  -0.000   0.000   1.798  -0.000   0.000   0.000   0.000  -0.820   0.000  -0.000  -0.000  -0.000   0.000   0.000
 -0.820   0.000   0.000  -0.000  -0.000   0.166  -0.000  -0.000   0.000   0.000   0.000  -0.000   0.000   0.000   0.000  -0.000
  0.000  -0.964  -0.000   0.000   0.000   0.000   0.300   0.000  -0.000  -0.000   0.000   0.000  -0.000   0.000   0.000   0.000
  0.000   0.000  -0.856   0.000   0.000  -0.000   0.000   0.247   0.000   0.000   0.086  -0.064   0.000   0.000   0.000  -0.000
  0.000   0.000   0.000  -0.964   0.000   0.000  -0.000  -0.000   0.300   0.000   0.000   0.000   0.000  -0.000  -0.000   0.000
 -0.000   0.000   0.000   0.000  -0.820  -0.000  -0.000   0.000   0.000   0.166  -0.000   0.000   0.000   0.000   0.000  -0.000
 -0.000   0.000   0.007   0.000   0.000   0.000  -0.000   0.086   0.000  -0.000  -0.205   0.074   0.000   0.000  -0.000   0.000
  0.000   0.000   0.107  -0.000  -0.000  -0.000   0.000  -0.064   0.000   0.000   0.074  -0.002   0.000   0.000  -0.000   0.000
 -0.000   0.000   0.000  -0.000  -0.000   0.000   0.000  -0.000   0.000   0.000   0.000   0.000  -0.014  -0.000   0.000   0.002
 -0.000   0.000   0.000   0.000   0.000   0.000   0.000   0.000  -0.000   0.000   0.000   0.000  -0.000  -0.017   0.000   0.000
 -0.000   0.000  -0.000   0.000   0.000   0.000   0.000   0.000  -0.000   0.000  -0.000  -0.000   0.000   0.000  -0.014   0.000
  0.000   0.000  -0.000   0.000   0.000  -0.000   0.000  -0.000   0.000  -0.000   0.000   0.000   0.002   0.000   0.000  -0.000
  0.000   0.000   0.000   0.000  -0.000  -0.000  -0.000   0.000   0.000   0.000   0.000   0.000  -0.000   0.001   0.000  -0.000
  0.000  -0.000   0.000   0.000  -0.000  -0.000  -0.000  -0.000   0.000  -0.000   0.000   0.000   0.000   0.000   0.002   0.000


------------------------ aborting loop because EDIFF is reached ----------------------------------------


    CHARGE:  cpu time      0.0599: real time      0.0601
    FORLOC:  cpu time      0.0002: real time      0.0002
    FORNL :  cpu time      0.0691: real time      0.0692
    STRESS:  cpu time      0.1922: real time      0.1928
    FORCOR:  cpu time      0.0071: real time      0.0071
    FORHAR:  cpu time      0.0007: real time      0.0007
    MIXING:  cpu time      0.0004: real time      0.0004
    OFIELD:  cpu time      0.0000: real time      0.0000

  FORCE on cell =-STRESS in cart. coord.  units (eV):
  Direction    XX          YY          ZZ          XY          YZ          ZX
  --------------------------------------------------------------------------------------
  Alpha Z    39.63868    39.63868    39.63868
  Ewald     -59.61202   -59.61202  -935.34508    -0.00000     0.00000     0.00000
  Hartree   384.00260   384.00260  -199.71520    -0.00000    -0.00000    -0.00000
  E(xc)     -90.96820   -90.96820   -91.22584     0.00000    -0.00000    -0.00000
  Local    -723.38904  -723.38916   739.85224    -0.00010     0.00000    -0.00000
  n-local   -11.34469   -11.62938   -15.75833   -10.60309    -0.06318    -0.04314
  augment   313.21658   313.21670   310.70253     0.00010    -0.00000    -0.00000
  Kinetic   147.36655   142.97844   150.47175     8.68863     0.01022     0.05448
  Fock        0.00000     0.00000     0.00000     0.00000     0.00000     0.00000
  -------------------------------------------------------------------------------------
  Total      -3.42594    -3.42594    -1.37925    -0.00000     0.00000     0.00000
  in kB    -128.41543  -128.41543   -51.69896    -0.00000     0.00000     0.00000
  external pressure =     -102.84 kB  Pullay stress =        0.00 kB


 VOLUME and BASIS-vectors are now :
 -----------------------------------------------------------------------------
  energy-cutoff  :      400.00
  volume of cell :       42.74
      direct lattice vectors                 reciprocal lattice vectors
     2.470000000  0.000000000  0.000000000     0.404858300  0.233745048  0.000000000
    -1.235000000  2.139082747  0.000000000     0.000000000  0.467490097  0.000000000
     0.000000000  0.000000000  8.090000000     0.000000000  0.000000000  0.123609394

  length of vectors
     2.470000000  2.470000000  8.090000000     0.467490097  0.467490097  0.123609394


 FORCES acting on ions
    electron-ion (+dipol)            ewald-force                    non-local-force                 convergence-correction
 -----------------------------------------------------------------------------------------------
   -.480E-05 0.277E-05 0.278E-14   -.208E-13 0.254E-14 -.503E-13   0.813E-19 0.000E+00 0.000E+00   0.450E-11 -.260E-11 -.898E-13
   -.384E-05 0.222E-05 -.713E-12   -.268E-13 0.108E-13 0.503E-13   -.108E-18 0.000E+00 0.000E+00   -.122E-10 0.705E-11 0.146E-12
 -----------------------------------------------------------------------------------------------
   -.864E-05 0.499E-05 -.710E-12   -.476E-13 0.133E-13 0.000E+00   -.271E-19 0.000E+00 0.000E+00   -.769E-11 0.445E-11 0.560E-13
 
 
 POSITION                                       TOTAL-FORCE (eV/Angst)
 -----------------------------------------------------------------------------------
      0.00000      0.00000      0.00000        -0.000000      0.000000      0.000000
      0.00000      1.42606      4.04500         0.000000     -0.000000      0.000000
 -----------------------------------------------------------------------------------
    total drift:                               -0.000009      0.000005     -0.000000


--------------------------------------------------------------------------------------------------------



  FREE ENERGIE OF THE ION-ELECTRON SYSTEM (eV)
  ---------------------------------------------------
  free  energy   TOTEN  =       -11.24099522 eV

  energy  without entropy=      -11.23640853  energy(sigma->0) =      -11.23870187
 


--------------------------------------------------------------------------------------------------------


    POTLOK:  cpu time      0.0126: real time      0.0126


--------------------------------------------------------------------------------------------------------


     LOOP+:  cpu time     24.7583: real time     24.8896
    4ORBIT:  cpu time      0.0000: real time      0.0000

 total amount of memory used by VASP MPI-rank0    39344. kBytes
=======================================================================

   base      :      30000. kBytes
   nonl-proj :       4116. kBytes
   fftplans  :        291. kBytes
   grid      :        713. kBytes
   one-center:         31. kBytes
   wavefun   :       4193. kBytes
 
  
  
 General timing and accounting informations for this job:
 ========================================================
  
                  Total CPU time used (sec):       25.815
                            User time (sec):       25.341
                          System time (sec):        0.473
                         Elapsed time (sec):       27.607
  
                   Maximum memory used (kb):      223660.
                   Average memory used (kb):          N/A
  
                          Minor page faults:        40078
                          Major page faults:           78
                 Voluntary context switches:         2251
