Pt-hcc                                  
   1.00000000000000     
     2.587794    0.000000    0.000000
    -1.293897    2.241095    0.000000
     0.000000    0.000000    4.483292
   Pt
     2
Direct
  0.000000  0.000000  0.000000
  0.333333  0.666667  0.500000
 
   36   36   64
  227.86      227.56      226.05      221.81      213.00      198.24      177.34      151.54      123.30      95.592    
  71.108      51.562      37.411      27.990      21.937      17.960      15.509      14.203      13.796      14.203    
  15.509      17.960      21.937      27.990      37.411      51.562      71.108      95.592      123.30      151.54    
  177.34      198.24      213.00      221.81      226.05      227.56      227.56      227.56      226.64      223.74    
  217.11      205.14      187.05      163.40      136.11      107.96      81.843      59.964      43.372      31.898    
  24.462      19.608      16.483      14.666      13.839      13.839      14.666      16.483      19.608      24.462    
  31.898      43.372      59.964      81.843      107.96      136.11      163.40      187.05      205.14      217.11    
  223.74      226.64      226.05      226.65      226.05      223.74      218.37      208.38      192.69      171.33    
  145.63      117.98      91.220      67.815      49.283      35.943      27.074      21.327      17.532      15.194    
  13.948      13.560      13.948      15.194      17.532      21.327      27.074      35.943      49.283      67.815    
  91.220      117.98      145.63      171.33      192.69      208.38      218.37      223.74      221.81      223.76    
  223.76      221.81      217.11      208.38      194.53      175.27      151.44      124.98      98.468      74.410    
  54.614      39.808      29.646      23.014      18.600      15.761      14.109      13.358      13.358      14.109    
  15.761      18.600      23.014      29.646      39.808      54.614      74.410      98.468      124.98      151.44    
  175.27      194.53      208.38      217.11      213.00      217.14      218.42      217.14      213.00      205.14    
  192.69      175.27      153.39      128.57      103.03      79.155      58.850      43.130      31.981      24.564    
  19.618      16.329      14.303      13.224      12.887      13.224      14.303      16.329      19.618      24.564    
  31.981      43.130      58.850      79.155      103.03      128.57      153.39      175.27      192.69      205.14    
  198.24      205.18      208.45      208.45      205.18      198.24      187.05      171.33      151.44      128.57    
  104.59      81.633      61.573      45.566      33.858      25.873      20.510      16.854      14.507      13.140    
  12.518      12.518      13.140      14.507      16.854      20.510      25.873      33.858      45.566      61.573    
  81.633      104.59      128.57      151.44      171.33      187.05      177.34      187.09      192.77      194.62    
  192.77      187.09      177.34      163.40      145.63      124.98      103.03      81.633      62.511      46.854    
  35.076      26.828      21.206      17.295      14.696      13.093      12.235      11.967      12.235      13.093    
  14.696      17.295      21.206      26.828      35.076      46.854      62.511      81.633      103.03      124.98    
  145.63      163.40      151.54      163.43      171.39      175.35      175.35      171.39      163.43      151.54    
  136.11      117.98      98.468      79.155      61.573      46.854      35.499      27.333      21.648      17.612    
  14.848      13.069      12.026      11.549      11.549      12.026      13.069      14.848      17.612      21.648    
  27.333      35.499      46.854      61.573      79.155      98.468      117.98      136.11      123.30      136.12    
  145.65      151.49      153.45      151.49      145.65      136.12      123.30      107.96      91.220      74.410    
  58.850      45.566      35.076      27.333      21.800      17.779      14.947      13.057      11.881      11.246    
  11.046      11.246      11.881      13.057      14.947      17.779      21.800      27.333      35.076      45.566    
  58.850      74.410      91.220      107.96      95.592      107.95      117.97      124.98      128.57      128.57    
  124.98      117.97      107.95      95.592      81.843      67.815      54.614      43.130      33.858      26.828    
  21.648      17.779      14.981      13.053      11.796      11.049      10.702      10.702      11.049      11.796    
  13.053      14.981      17.779      21.648      26.828      33.858      43.130      54.614      67.815      81.843    
  71.108      81.810      91.167      98.408      102.97      104.53      102.97      98.408      91.167      81.810    
  71.108      59.964      49.283      39.808      31.981      25.873      21.206      17.612      14.947      13.053    
  11.767      10.951      10.501      10.358      10.501      10.951      11.767      13.053      14.947      17.612    
  21.206      25.873      31.981      39.808      49.283      59.964      51.562      59.920      67.736      74.307    
  79.039      81.512      81.512      79.039      74.307      67.736      59.920      51.562      43.372      35.943    
  29.646      24.564      20.510      17.295      14.848      13.057      11.796      10.951      10.435      10.191    
  10.191      10.435      10.951      11.796      13.057      14.848      17.295      20.510      24.564      29.646    
  35.943      43.372      37.411      43.325      49.192      54.487      58.698      61.406      62.339      61.406    
  58.698      54.487      49.192      43.325      37.411      31.898      27.074      23.014      19.618      16.854    
  14.696      13.069      11.881      11.049      10.501      10.191      10.090      10.191      10.501      11.049    
  11.881      13.069      14.696      16.854      19.618      23.014      27.074      31.898      27.990      31.855    
  35.854      39.677      42.965      45.377      46.654      46.654      45.377      42.965      39.677      35.854    
  31.855      27.990      24.462      21.327      18.600      16.329      14.507      13.093      12.026      11.246    
  10.702      10.358      10.191      10.191      10.358      10.702      11.246      12.026      13.093      14.507    
  16.329      18.600      21.327      24.462      21.937      24.425      26.996      29.526      31.825      33.673    
  34.873      35.289      34.873      33.673      31.825      29.526      26.996      24.425      21.937      19.608    
  17.532      15.761      14.303      13.140      12.235      11.549      11.046      10.702      10.501      10.435    
  10.501      10.702      11.046      11.549      12.235      13.140      14.303      15.761      17.532      19.608    
  17.960      19.578      21.263      22.914      24.429      25.709      26.643      27.137      27.137      26.643    
  25.709      24.429      22.914      21.263      19.578      17.960      16.483      15.194      14.109      13.224    
  12.518      11.967      11.549      11.246      11.049      10.951      10.951      11.049      11.246      11.549    
  11.967      12.518      13.224      14.109      15.194      16.483      15.509      16.460      17.482      18.521    
  19.509      20.375      21.051      21.480      21.627      21.480      21.051      20.375      19.509      18.521    
  17.482      16.460      15.509      14.666      13.948      13.358      12.887      12.518      12.235      12.026    
  11.881      11.796      11.767      11.796      11.881      12.026      12.235      12.518      12.887      13.358    
  13.948      14.666      14.203      14.647      15.154      15.698      16.244      16.749      17.173      17.478    
  17.637      17.637      17.478      17.173      16.749      16.244      15.698      15.154      14.647      14.203    
  13.839      13.560      13.358      13.224      13.140      13.093      13.069      13.057      13.053      13.053    
  13.057      13.069      13.093      13.140      13.224      13.358      13.560      13.839      13.796      13.823    
  13.915      14.059      14.237      14.426      14.602      14.745      14.837      14.869      14.837      14.745    
  14.602      14.426      14.237      14.059      13.915      13.823      13.796      13.839      13.948      14.109    
  14.303      14.507      14.696      14.848      14.947      14.981      14.947      14.848      14.696      14.507    
  14.303      14.109      13.948      13.839      14.203      13.823      13.528      13.315      13.169      13.076    
  13.021      12.991      12.975      12.969      12.969      12.975      12.991      13.021      13.076      13.169    
  13.315      13.528      13.823      14.203      14.666      15.194      15.761      16.329      16.854      17.295    
  17.612      17.779      17.779      17.612      17.295      16.854      16.329      15.761      15.194      14.666    
  15.509      14.647      13.915      13.315      12.836      12.462      12.177      11.966      11.820      11.734    
  11.705      11.734      11.820      11.966      12.177      12.462      12.836      13.315      13.915      14.647    
  15.509      16.483      17.532      18.600      19.618      20.510      21.206      21.648      21.800      21.648    
  21.206      20.510      19.618      18.600      17.532      16.483      17.960      16.460      15.154      14.059    
  13.169      12.462      11.913      11.497      11.197      11.001      10.905      10.905      11.001      11.197    
  11.497      11.913      12.462      13.169      14.059      15.154      16.460      17.960      19.608      21.327    
  23.014      24.564      25.873      26.828      27.333      27.333      26.828      25.873      24.564      23.014    
  21.327      19.608      21.937      19.578      17.482      15.698      14.237      13.076      12.177      11.497    
  11.001      10.663      10.465      10.400      10.465      10.663      11.001      11.497      12.177      13.076    
  14.237      15.698      17.482      19.578      21.937      24.462      27.074      29.646      31.981      33.858    
  35.076      35.499      35.076      33.858      31.981      29.646      27.074      24.462      27.990      24.425    
  21.263      18.521      16.244      14.426      13.021      11.966      11.197      10.663      10.325      10.161    
  10.161      10.325      10.663      11.197      11.966      13.021      14.426      16.244      18.521      21.263    
  24.425      27.990      31.898      35.943      39.808      43.130      45.566      46.854      46.854      45.566    
  43.130      39.808      35.943      31.898      37.411      31.855      26.996      22.914      19.509      16.749    
  14.602      12.991      11.820      11.001      10.465      10.161      10.063      10.161      10.465      11.001    
  11.820      12.991      14.602      16.749      19.509      22.914      26.996      31.855      37.411      43.372    
  49.283      54.614      58.850      61.573      62.511      61.573      58.850      54.614      49.283      43.372    
  51.562      43.325      35.854      29.526      24.429      20.375      17.173      14.745      12.975      11.734    
  10.905      10.400      10.161      10.161      10.400      10.905      11.734      12.975      14.745      17.173    
  20.375      24.429      29.526      35.854      43.325      51.562      59.964      67.815      74.410      79.155    
  81.633      81.633      79.155      74.410      67.815      59.964      71.108      59.920      49.192      39.677    
  31.825      25.709      21.051      17.478      14.837      12.969      11.705      10.905      10.465      10.325    
  10.465      10.905      11.705      12.969      14.837      17.478      21.051      25.709      31.825      39.677    
  49.192      59.920      71.108      81.843      91.220      98.468      103.03      104.59      103.03      98.468    
  91.220      81.843      95.592      81.810      67.736      54.487      42.965      33.673      26.643      21.480    
  17.637      14.869      12.969      11.734      11.001      10.663      10.663      11.001      11.734      12.969    
  14.869      17.637      21.480      26.643      33.673      42.965      54.487      67.736      81.810      95.592    
  107.96      117.98      124.98      128.57      128.57      124.98      117.98      107.96      123.30      107.95    
  91.167      74.307      58.698      45.377      34.873      27.137      21.627      17.637      14.837      12.975    
  11.820      11.197      11.001      11.197      11.820      12.975      14.837      17.637      21.627      27.137    
  34.873      45.377      58.698      74.307      91.167      107.95      123.30      136.11      145.63      151.44    
  153.39      151.44      145.63      136.11      151.54      136.12      117.97      98.408      79.039      61.406    
  46.654      35.289      27.137      21.480      17.478      14.745      12.991      11.966      11.497      11.497    
  11.966      12.991      14.745      17.478      21.480      27.137      35.289      46.654      61.406      79.039    
  98.408      117.97      136.12      151.54      163.40      171.33      175.27      175.27      171.33      163.40    
  177.34      163.43      145.65      124.98      102.97      81.512      62.339      46.654      34.873      26.643    
  21.051      17.173      14.602      13.021      12.177      11.913      12.177      13.021      14.602      17.173    
  21.051      26.643      34.873      46.654      62.339      81.512      102.97      124.98      145.65      163.43    
  177.34      187.05      192.69      194.53      192.69      187.05      198.24      187.09      171.39      151.49    
  128.57      104.53      81.512      61.406      45.377      33.673      25.709      20.375      16.749      14.426    
  13.076      12.462      12.462      13.076      14.426      16.749      20.375      25.709      33.673      45.377    
  61.406      81.512      104.53      128.57      151.49      171.39      187.09      198.24      205.14      208.38    
  208.38      205.14      213.00      205.18      192.77      175.35      153.45      128.57      102.97      79.039    
  58.698      42.965      31.825      24.429      19.509      16.244      14.237      13.169      12.836      13.169    
  14.237      16.244      19.509      24.429      31.825      42.965      58.698      79.039      102.97      128.57    
  153.45      175.35      192.77      205.18      213.00      217.11      218.37      217.11      221.81      217.14    
  208.45      194.62      175.35      151.49      124.98      98.408      74.307      54.487      39.677      29.526    
  22.914      18.521      15.698      14.059      13.315      13.315      14.059      15.698      18.521      22.914    
  29.526      39.677      54.487      74.307      98.408      124.98      151.49      175.35      194.62      208.45    
  217.14      221.81      223.74      223.74      226.05      223.76      218.42      208.45      192.77      171.39    
  145.65      117.97      91.167      67.736      49.192      35.854      26.996      21.263      17.482      15.154    
  13.915      13.528      13.915      15.154      17.482      21.263      26.996      35.854      49.192      67.736    
  91.167      117.97      145.65      171.39      192.77      208.45      218.42      223.76      226.05      226.64    
  227.56      226.65      223.76      217.14      205.18      187.09      163.43      136.12      107.95      81.810    
  59.920      43.325      31.855      24.425      19.578      16.460      14.647      13.823      13.823      14.647    
  16.460      19.578      24.425      31.855      43.325      59.920      81.810      107.95      136.12      163.43    
  187.09      205.18      217.14      223.76      226.65      227.56      227.73      227.35      225.65      221.12    
  211.99      196.96      175.89      150.06      121.91      94.410      70.184      50.899      36.968      27.703    
  21.738      17.814      15.396      14.108      13.706      14.108      15.396      17.814      21.738      27.703    
  36.968      50.899      70.184      94.410      121.91      150.06      175.89      196.96      211.99      221.12    
  225.65      227.35      227.35      227.35      226.30      223.15      216.23      203.97      185.66      161.92    
  134.66      106.68      80.795      59.180      42.831      31.545      24.228      19.439      16.355      14.562    
  13.748      13.748      14.562      16.355      19.439      24.228      31.545      42.831      59.180      80.795    
  106.68      134.66      161.92      185.66      203.97      216.23      223.15      226.30      225.65      226.31    
  225.65      223.15      217.53      207.27      191.36      169.86      144.15      116.62      90.074      66.927    
  48.649      35.520      26.798      21.133      17.389      15.082      13.853      13.470      13.853      15.082    
  17.389      21.133      26.798      35.520      48.649      66.927      90.074      116.62      144.15      169.86    
  191.36      207.27      217.53      223.15      221.12      223.17      223.17      221.12      216.23      207.27    
  193.22      173.82      149.96      123.58      97.255      73.441      53.901      39.320      29.326      22.797    
  18.441      15.639      14.010      13.269      13.269      14.010      15.639      18.441      22.797      29.326    
  39.320      53.901      73.441      97.255      123.58      149.96      173.82      193.22      207.27      216.23    
  211.99      216.27      217.58      216.27      211.99      203.97      191.36      173.82      151.91      127.16    
  101.78      78.131      58.077      42.587      31.621      24.323      19.443      16.198      14.200      13.134    
  12.802      13.134      14.200      16.198      19.443      24.323      31.621      42.587      58.077      78.131    
  101.78      127.15      151.91      173.82      191.36      203.97      196.96      204.02      207.34      207.34    
  204.02      196.96      185.66      169.86      149.96      127.16      103.32      80.582      60.762      44.984    
  33.465      25.611      20.322      16.715      14.399      13.050      12.435      12.435      13.050      14.399    
  16.715      20.322      25.611      33.465      44.984      60.762      80.582      103.32      127.15      149.96    
  169.86      185.66      175.89      185.71      191.44      193.31      191.44      185.71      175.89      161.92    
  144.15      123.58      101.78      80.582      61.688      46.252      34.663      26.550      21.008      17.149    
  14.584      13.001      12.155      11.890      12.155      13.001      14.584      17.149      21.008      26.550    
  34.663      46.252      61.688      80.582      101.78      123.58      144.15      161.92      150.06      161.95    
  169.93      173.91      173.91      169.93      161.95      150.06      134.66      116.62      97.255      78.131    
  60.762      46.252      35.078      27.047      21.445      17.461      14.733      12.976      11.947      11.475    
  11.475      11.947      12.976      14.733      17.461      21.445      27.047      35.078      46.252      60.762    
  78.131      97.255      116.62      134.66      121.91      134.68      144.19      150.01      151.97      150.01    
  144.19      134.68      121.91      106.68      90.074      73.441      58.077      44.984      34.663      27.047    
  21.594      17.625      14.829      12.964      11.802      11.175      10.977      11.175      11.802      12.964    
  14.829      17.625      21.594      27.047      34.663      44.984      58.077      73.441      90.074      106.68    
  94.410      106.67      116.62      123.59      127.17      127.17      123.59      116.62      106.67      94.410    
  80.795      66.927      53.901      42.587      33.465      26.550      21.445      17.625      14.863      12.959    
  11.717      10.978      10.636      10.636      10.978      11.717      12.959      14.863      17.625      21.445    
  26.550      33.465      42.587      53.901      66.927      80.795      70.184      80.768      90.033      97.211    
  101.74      103.28      101.74      97.211      90.033      80.768      70.184      59.180      48.649      39.320    
  31.621      25.611      21.008      17.461      14.829      12.959      11.689      10.881      10.436      10.294    
  10.436      10.881      11.689      12.959      14.829      17.461      21.008      25.611      31.621      39.320    
  48.649      59.180      50.899      59.142      66.860      73.354      78.035      80.482      80.482      78.035    
  73.354      66.859      59.142      50.899      42.831      35.520      29.326      24.323      20.322      17.149    
  14.733      12.964      11.717      10.881      10.370      10.129      10.129      10.370      10.881      11.717    
  12.964      14.733      17.149      20.322      24.323      29.326      35.520      42.831      36.968      42.789    
  48.569      53.789      57.944      60.617      61.538      60.617      57.944      53.789      48.569      42.789    
  36.968      31.545      26.798      22.797      19.443      16.715      14.584      12.976      11.802      10.978    
  10.436      10.129      10.029      10.129      10.436      10.978      11.802      12.976      14.584      16.715    
  19.443      22.797      26.798      31.545      27.703      31.506      35.441      39.203      42.440      44.817    
  46.075      46.075      44.817      42.440      39.203      35.441      31.506      27.703      24.228      21.133    
  18.441      16.198      14.399      13.001      11.947      11.175      10.636      10.294      10.129      10.129    
  10.294      10.636      11.175      11.947      13.001      14.399      16.198      18.441      21.133      24.228    
  21.738      24.195      26.729      29.220      31.481      33.300      34.481      34.891      34.481      33.300    
  31.481      29.220      26.729      24.195      21.738      19.439      17.389      15.639      14.200      13.050    
  12.155      11.475      10.977      10.636      10.436      10.370      10.436      10.636      10.977      11.475    
  12.155      13.050      14.200      15.639      17.389      19.439      17.814      19.412      21.077      22.709    
  24.204      25.466      26.386      26.873      26.873      26.386      25.466      24.204      22.709      21.077    
  19.413      17.814      16.355      15.082      14.010      13.134      12.435      11.890      11.475      11.175    
  10.978      10.881      10.881      10.978      11.175      11.475      11.890      12.435      13.134      14.010    
  15.082      16.355      15.396      16.335      17.345      18.372      19.349      20.205      20.873      21.298    
  21.444      21.298      20.873      20.205      19.349      18.372      17.345      16.335      15.396      14.562    
  13.853      13.269      12.802      12.435      12.155      11.947      11.802      11.717      11.689      11.717    
  11.802      11.947      12.155      12.435      12.802      13.269      13.853      14.562      14.108      14.547    
  15.048      15.587      16.126      16.626      17.044      17.346      17.504      17.504      17.346      17.044    
  16.626      16.126      15.587      15.048      14.547      14.108      13.748      13.470      13.269      13.134    
  13.050      13.001      12.976      12.964      12.959      12.959      12.964      12.976      13.001      13.050    
  13.134      13.269      13.470      13.748      13.706      13.734      13.826      13.970      14.146      14.333    
  14.507      14.648      14.740      14.772      14.740      14.648      14.507      14.333      14.146      13.970    
  13.826      13.734      13.706      13.748      13.853      14.010      14.200      14.399      14.584      14.733    
  14.829      14.863      14.829      14.733      14.584      14.399      14.200      14.010      13.853      13.748    
  14.108      13.734      13.445      13.235      13.092      13.000      12.946      12.916      12.901      12.895    
  12.895      12.901      12.916      12.946      13.000      13.092      13.235      13.445      13.734      14.108    
  14.562      15.082      15.639      16.198      16.715      17.149      17.461      17.625      17.625      17.461    
  17.149      16.715      16.198      15.639      15.082      14.562      15.396      14.547      13.826      13.235    
  12.763      12.394      12.112      11.904      11.760      11.674      11.646      11.674      11.760      11.904    
  12.112      12.394      12.763      13.235      13.826      14.547      15.396      16.355      17.389      18.441    
  19.443      20.322      21.008      21.445      21.594      21.445      21.008      20.322      19.443      18.441    
  17.389      16.355      17.814      16.335      15.048      13.970      13.092      12.394      11.852      11.441    
  11.144      10.951      10.855      10.855      10.951      11.144      11.441      11.852      12.394      13.092    
  13.970      15.048      16.335      17.814      19.439      21.133      22.797      24.323      25.611      26.550    
  27.047      27.047      26.550      25.611      24.323      22.797      21.133      19.439      21.738      19.412    
  17.345      15.587      14.146      13.000      12.112      11.441      10.950      10.615      10.420      10.355    
  10.420      10.615      10.950      11.441      12.112      13.000      14.146      15.587      17.345      19.413    
  21.738      24.228      26.798      29.326      31.621      33.465      34.663      35.078      34.663      33.465    
  31.621      29.326      26.798      24.228      27.703      24.195      21.077      18.372      16.126      14.333    
  12.946      11.904      11.144      10.615      10.281      10.119      10.119      10.281      10.615      11.144    
  11.904      12.946      14.333      16.126      18.372      21.077      24.195      27.703      31.545      35.520    
  39.320      42.587      44.984      46.252      46.252      44.984      42.587      39.320      35.520      31.545    
  36.968      31.506      26.729      22.709      19.349      16.626      14.507      12.916      11.760      10.951    
  10.420      10.119      10.022      10.119      10.420      10.951      11.760      12.916      14.507      16.626    
  19.349      22.709      26.729      31.506      36.968      42.831      48.649      53.901      58.077      60.762    
  61.688      60.762      58.077      53.901      48.649      42.831      50.899      42.789      35.441      29.220    
  24.204      20.205      17.044      14.648      12.901      11.674      10.855      10.355      10.119      10.119    
  10.355      10.855      11.674      12.901      14.648      17.044      20.205      24.204      29.220      35.441    
  42.789      50.899      59.180      66.927      73.441      78.131      80.582      80.582      78.131      73.441    
  66.927      59.180      70.184      59.142      48.569      39.203      31.481      25.466      20.873      17.346    
  14.740      12.895      11.646      10.855      10.420      10.281      10.420      10.855      11.646      12.895    
  14.740      17.346      20.873      25.466      31.481      39.203      48.569      59.142      70.184      80.795    
  90.074      97.255      101.78      103.32      101.78      97.255      90.074      80.795      94.410      80.768    
  66.860      53.789      42.440      33.300      26.386      21.298      17.504      14.772      12.895      11.674    
  10.951      10.615      10.615      10.951      11.674      12.895      14.772      17.504      21.298      26.386    
  33.300      42.440      53.789      66.859      80.768      94.410      106.68      116.62      123.58      127.16    
  127.16      123.58      116.62      106.68      121.91      106.67      90.033      73.354      57.944      44.817    
  34.481      26.873      21.444      17.504      14.740      12.901      11.760      11.144      10.950      11.144    
  11.760      12.901      14.740      17.504      21.444      26.873      34.481      44.817      57.944      73.354    
  90.033      106.67      121.91      134.66      144.15      149.96      151.91      149.96      144.15      134.66    
  150.06      134.68      116.62      97.211      78.035      60.617      46.075      34.891      26.873      21.298    
  17.346      14.648      12.916      11.904      11.441      11.441      11.904      12.916      14.648      17.346    
  21.298      26.873      34.891      46.075      60.617      78.035      97.211      116.62      134.68      150.06    
  161.92      169.86      173.82      173.82      169.86      161.92      175.89      161.95      144.19      123.59    
  101.74      80.482      61.538      46.075      34.481      26.386      20.873      17.044      14.507      12.946    
  12.112      11.852      12.112      12.946      14.507      17.044      20.873      26.386      34.481      46.075    
  61.538      80.482      101.74      123.59      144.19      161.95      175.89      185.66      191.36      193.22    
  191.36      185.66      196.96      185.71      169.93      150.01      127.17      103.28      80.482      60.617    
  44.817      33.300      25.466      20.205      16.626      14.333      13.000      12.394      12.394      13.000    
  14.333      16.626      20.205      25.466      33.300      44.817      60.617      80.482      103.28      127.17    
  150.01      169.93      185.71      196.96      203.97      207.27      207.27      203.97      211.99      204.02    