Pt-hcc                                  
   1.00000000000000     
     2.587794    0.000000    0.000000
    -1.293897    2.241095    0.000000
     0.000000    0.000000    4.483292
   Pt
     2
Direct
  0.000000  0.000000  0.000000
  0.333333  0.666667  0.500000
 
   36   36   64
 0.22786312945E+03 0.22755817122E+03 0.22605320807E+03 0.22181481244E+03 0.21299580811E+03
 0.19823593857E+03 0.17733646760E+03 0.15154096216E+03 0.12329792508E+03 0.95591508176E+02
 0.71107913232E+02 0.51561979474E+02 0.37410813950E+02 0.27990088466E+02 0.21936518599E+02
 0.17959910569E+02 0.15508701095E+02 0.14203160886E+02 0.13796128831E+02 0.14203161127E+02
 0.15508701419E+02 0.17959910747E+02 0.21936518475E+02 0.27990088069E+02 0.37410813512E+02
 0.51561979347E+02 0.71107913736E+02 0.95591509437E+02 0.12329792695E+03 0.15154096424E+03
 0.17733646940E+03 0.19823593968E+03 0.21299580841E+03 0.22181481209E+03 0.22605320745E+03
 0.22755817078E+03 0.22755817078E+03 0.22755816238E+03 0.22664470801E+03 0.22373531202E+03
 0.21710893237E+03 0.20513911360E+03 0.18704978512E+03 0.16340212806E+03 0.13610944735E+03
 0.10796131710E+03 0.81843479869E+02 0.59963981023E+02 0.43371724753E+02 0.31898380682E+02
 0.24462288971E+02 0.19608274647E+02 0.16483148706E+02 0.14665519782E+02 0.13839400819E+02
 0.13839399452E+02 0.14665516504E+02 0.16483145541E+02 0.19608273665E+02 0.24462291101E+02
 0.31898385100E+02 0.43371729282E+02 0.59963983341E+02 0.81843479026E+02 0.10796131449E+03
 0.13610944657E+03 0.16340213362E+03 0.18704980032E+03 0.20513913873E+03 0.21710896383E+03
 0.22373534305E+03 0.22664473084E+03 0.22605320745E+03 0.22665336013E+03 0.22605318211E+03
 0.22373529972E+03 0.21836665325E+03 0.20837813963E+03 0.19269385243E+03 0.17133114401E+03
 0.14562640028E+03 0.11798103336E+03 0.91219519531E+02 0.67815110825E+02 0.49283082453E+02
 0.35943299253E+02 0.27074247007E+02 0.21327243672E+02 0.17532382033E+02 0.15193953113E+02
 0.13948108409E+02 0.13559559263E+02 0.13948103924E+02 0.15193946876E+02 0.17532377984E+02
 0.21327244714E+02 0.27074253253E+02 0.35943307751E+02 0.49283088675E+02 0.67815111240E+02
 0.91219513996E+02 0.11798102607E+03 0.14562639853E+03 0.17133115524E+03 0.19269388057E+03
 0.20837818254E+03 0.21836670254E+03 0.22373534305E+03 0.22181481209E+03 0.22375770406E+03
 0.22375769188E+03 0.22181477943E+03 0.21710892083E+03 0.20837814170E+03 0.19453354906E+03
 0.17527306357E+03 0.15144265990E+03 0.12498313867E+03 0.98467687147E+02 0.74409712236E+02
 0.54614100999E+02 0.39808229638E+02 0.29645975159E+02 0.23014092516E+02 0.18600423297E+02
 0.15760760220E+02 0.14109315084E+02 0.13358309830E+02 0.13358307032E+02 0.14109308367E+02
 0.15760753677E+02 0.18600421174E+02 0.23014096748E+02 0.29645984097E+02 0.39808238645E+02
 0.54614104812E+02 0.74409707935E+02 0.98467676269E+02 0.12498312731E+03 0.15144265641E+03
 0.17527307499E+03 0.19453357748E+03 0.20837818254E+03 0.21710896383E+03 0.21299580841E+03
 0.21714440094E+03 0.21841587091E+03 0.21714438909E+03 0.21299578937E+03 0.20513911980E+03
 0.19269386872E+03 0.17527307410E+03 0.15339418619E+03 0.12857178687E+03 0.10303264234E+03
 0.79154672000E+02 0.58850382751E+02 0.43129681170E+02 0.31981234007E+02 0.24563685734E+02
 0.19617799957E+02 0.16328560054E+02 0.14303444857E+02 0.13223644289E+02 0.12886581554E+02
 0.13223639782E+02 0.14303438445E+02 0.16328555547E+02 0.19617800290E+02 0.24563691247E+02
 0.31981242022E+02 0.43129687114E+02 0.58850382366E+02 0.79154663614E+02 0.10303262800E+03
 0.12857177185E+03 0.15339417682E+03 0.17527307499E+03 0.19269388057E+03 0.20513913873E+03
 0.19823593968E+03 0.20518127535E+03 0.20844718638E+03 0.20844718798E+03 0.20518128041E+03
 0.19823594881E+03 0.18704981384E+03 0.17133117252E+03 0.15144267558E+03 0.12857179012E+03
 0.10458948315E+03 0.81633247998E+02 0.61572835214E+02 0.45565591837E+02 0.33858041858E+02
 0.25872727341E+02 0.20509694131E+02 0.16854390144E+02 0.14507040556E+02 0.13140307680E+02
 0.12517587896E+02 0.12517586384E+02 0.13140303900E+02 0.14507036429E+02 0.16854387796E+02
 0.20509694841E+02 0.25872730794E+02 0.33858046129E+02 0.45565594068E+02 0.61572832717E+02
 0.81633239343E+02 0.10458946867E+03 0.12857177185E+03 0.15144265641E+03 0.17133115524E+03
 0.18704980032E+03 0.17733646940E+03 0.18708874306E+03 0.19276659075E+03 0.19461953180E+03
 0.19276660575E+03 0.18708876979E+03 0.17733650228E+03 0.16340216639E+03 0.14562642598E+03
 0.12498314650E+03 0.10303263858E+03 0.81633243085E+02 0.62511278588E+02 0.46854067291E+02
 0.35076435692E+02 0.26827888282E+02 0.21205516358E+02 0.17295023245E+02 0.14695941477E+02
 0.13092962801E+02 0.12235228845E+02 0.11966787143E+02 0.12235228275E+02 0.13092961606E+02
 0.14695939707E+02 0.17295021230E+02 0.21205514736E+02 0.26827887748E+02 0.35076436494E+02
 0.46854068751E+02 0.62511278814E+02 0.81633239343E+02 0.10303262800E+03 0.12498312731E+03
 0.14562639853E+03 0.16340213362E+03 0.15154096424E+03 0.16342793529E+03 0.17138801000E+03
 0.17535049400E+03 0.17535050383E+03 0.17138803666E+03 0.16342797127E+03 0.15154100007E+03
 0.13610947410E+03 0.11798104096E+03 0.98467678866E+02 0.79154658129E+02 0.61572824921E+02
 0.46854063458E+02 0.35498854721E+02 0.27332885450E+02 0.21647905152E+02 0.17612456895E+02
 0.14848296130E+02 0.13068500668E+02 0.12026154559E+02 0.11548628204E+02 0.11548629213E+02
 0.12026156805E+02 0.13068502270E+02 0.14848295342E+02 0.17612453304E+02 0.21647900226E+02
 0.27332881965E+02 0.35498855260E+02 0.46854068751E+02 0.61572832717E+02 0.79154663614E+02
 0.98467676269E+02 0.11798102607E+03 0.13610944657E+03 0.12329792695E+03 0.13611542649E+03
 0.14565118677E+03 0.15148630284E+03 0.15344557834E+03 0.15148631758E+03 0.14565121084E+03
 0.13611545131E+03 0.12329794410E+03 0.10796131895E+03 0.91219505791E+02 0.74409691781E+02
 0.58850365214E+02 0.45565582101E+02 0.35076432769E+02 0.27332885466E+02 0.21799655471E+02
 0.17778609150E+02 0.14946958472E+02 0.13057221772E+02 0.11881316530E+02 0.11246058730E+02
 0.11046023360E+02 0.11246062570E+02 0.11881321805E+02 0.13057225039E+02 0.14946957270E+02
 0.17778603626E+02 0.21799648631E+02 0.27332881965E+02 0.35076436494E+02 0.45565594068E+02
 0.58850382366E+02 0.74409707935E+02 0.91219513996E+02 0.10796131449E+03 0.95591509437E+02
 0.10794597023E+03 0.11796604722E+03 0.12497658594E+03 0.12857252077E+03 0.12857252396E+03
 0.12497659353E+03 0.11796605433E+03 0.10794597122E+03 0.95591500688E+02 0.81843460641E+02
 0.67815087211E+02 0.54614081283E+02 0.43129670004E+02 0.33858038630E+02 0.26827889159E+02
 0.21647906682E+02 0.17778609891E+02 0.14981080410E+02 0.13053019593E+02 0.11795766676E+02
 0.11048504653E+02 0.10702091036E+02 0.10702093711E+02 0.11048511229E+02 0.11795773566E+02
 0.13053022989E+02 0.14981078368E+02 0.17778603626E+02 0.21647900226E+02 0.26827887748E+02
 0.33858046129E+02 0.43129687114E+02 0.54614104812E+02 0.67815111240E+02 0.81843479026E+02
 0.71107913736E+02 0.81810408490E+02 0.91167277331E+02 0.98408111792E+02 0.10297225186E+03
 0.10452954021E+03 0.10297224889E+03 0.98408104722E+02 0.91167264668E+02 0.81810389678E+02
 0.71107890018E+02 0.59963957915E+02 0.49283065830E+02 0.39808222416E+02 0.31981234419E+02
 0.25872731154E+02 0.21205519959E+02 0.17612459006E+02 0.14946959766E+02 0.13053020580E+02
 0.11767422642E+02 0.10950694433E+02 0.10501037740E+02 0.10357822866E+02 0.10501042524E+02
 0.10950701724E+02 0.11767428966E+02 0.13053022989E+02 0.14946957270E+02 0.17612453304E+02
 0.21205514736E+02 0.25872730794E+02 0.31981242022E+02 0.39808238645E+02 0.49283088675E+02
 0.59963983341E+02 0.51561979347E+02 0.59920112060E+02 0.67736340157E+02 0.74307371366E+02
 0.79039095618E+02 0.81512104737E+02 0.81512100606E+02 0.79039083805E+02 0.74307353509E+02
 0.67736318801E+02 0.59920090226E+02 0.51561960081E+02 0.43371715075E+02 0.35943300010E+02
 0.29645982608E+02 0.24563694560E+02 0.20509700415E+02 0.17295026301E+02 0.14848297826E+02
 0.13057223983E+02 0.11795769571E+02 0.10950696458E+02 0.10434816490E+02 0.10190864135E+02
 0.10190865813E+02 0.10434820828E+02 0.10950701724E+02 0.11795773566E+02 0.13057225039E+02
 0.14848295342E+02 0.17295021230E+02 0.20509694841E+02 0.24563691247E+02 0.29645984097E+02
 0.35943307751E+02 0.43371729282E+02 0.37410813512E+02 0.43324768308E+02 0.49192318629E+02
 0.54487469720E+02 0.58698225412E+02 0.61405812282E+02 0.62339425979E+02 0.61405803665E+02
 0.58698210669E+02 0.54487453034E+02 0.49192304443E+02 0.43324760023E+02 0.37410812514E+02
 0.31898390503E+02 0.27074262568E+02 0.23014107079E+02 0.19617808927E+02 0.16854393399E+02
 0.14695942092E+02 0.13068502221E+02 0.11881320501E+02 0.11048509667E+02 0.10501041324E+02
 0.10190865193E+02 0.10090434634E+02 0.10190865813E+02 0.10501042524E+02 0.11048511229E+02
 0.11881321805E+02 0.13068502270E+02 0.14695939707E+02 0.16854387796E+02 0.19617800290E+02
 0.23014096748E+02 0.27074253253E+02 0.31898385100E+02 0.27990088069E+02 0.31854570606E+02
 0.35854098227E+02 0.39677268295E+02 0.42964762721E+02 0.45377114633E+02 0.46653627077E+02
 0.46653623899E+02 0.45377106643E+02 0.42964753840E+02 0.39677263240E+02 0.35854100556E+02
 0.31854581286E+02 0.27990105155E+02 0.24462310789E+02 0.21327262557E+02 0.18600433950E+02
 0.16328562400E+02 0.14507038497E+02 0.13092961430E+02 0.12026156812E+02 0.11246064028E+02
 0.10702096387E+02 0.10357825439E+02 0.10190865193E+02 0.10190864135E+02 0.10357822866E+02
 0.10702093711E+02 0.11246062570E+02 0.12026156805E+02 0.13092961606E+02 0.14507036429E+02
 0.16328555547E+02 0.18600421174E+02 0.21327244714E+02 0.24462291101E+02 0.21936518475E+02
 0.24425119158E+02 0.26995772768E+02 0.29526301208E+02 0.31824805195E+02 0.33672924817E+02
 0.34873196050E+02 0.35289432345E+02 0.34873193511E+02 0.33672922211E+02 0.31824806250E+02
 0.29526309135E+02 0.26995788577E+02 0.24425141073E+02 0.21936542326E+02 0.19608294525E+02
 0.17532392299E+02 0.15760760295E+02 0.14303438938E+02 0.13140301732E+02 0.12235226957E+02
 0.11548630850E+02 0.11046027851E+02 0.10702096387E+02 0.10501041324E+02 0.10434816490E+02
 0.10501037740E+02 0.10702091036E+02 0.11046023360E+02 0.11548629213E+02 0.12235228275E+02
 0.13140303900E+02 0.14303438445E+02 0.15760753677E+02 0.17532377984E+02 0.19608273665E+02
 0.17959910747E+02 0.19578442071E+02 0.21263070239E+02 0.22913885973E+02 0.24429156875E+02
 0.25709037775E+02 0.26643093825E+02 0.27137039584E+02 0.27137039299E+02 0.26643093871E+02
 0.25709040430E+02 0.24429164477E+02 0.22913899486E+02 0.21263088396E+02 0.19578461553E+02
 0.17959927440E+02 0.16483156003E+02 0.15193949735E+02 0.14109304953E+02 0.13223633447E+02
 0.12517580972E+02 0.11966785459E+02 0.11548630850E+02 0.11246064028E+02 0.11048509667E+02
 0.10950696458E+02 0.10950694433E+02 0.11048504653E+02 0.11246058730E+02 0.11548628204E+02
 0.11966787143E+02 0.12517586384E+02 0.13223639782E+02 0.14109308367E+02 0.15193946876E+02
 0.16483145541E+02 0.15508701419E+02 0.16459654852E+02 0.17481742871E+02 0.18520686427E+02
 0.19509329957E+02 0.20375433423E+02 0.21050843540E+02 0.21480152147E+02 0.21627399984E+02
 0.21480152396E+02 0.21050844952E+02 0.20375437205E+02 0.19509336709E+02 0.18520695529E+02
 0.17481752307E+02 0.16459661783E+02 0.15508703322E+02 0.14665512313E+02 0.13948094591E+02
 0.13358295247E+02 0.12886570743E+02 0.12517580972E+02 0.12235226957E+02 0.12026156812E+02
 0.11881320501E+02 0.11795769571E+02 0.11767422642E+02 0.11795766676E+02 0.11881316530E+02
 0.12026154559E+02 0.12235228845E+02 0.12517587896E+02 0.12886581554E+02 0.13358307032E+02
 0.13948103924E+02 0.14665516504E+02 0.14203161127E+02 0.14646556018E+02 0.15153954539E+02
 0.15698454548E+02 0.16243984463E+02 0.16749219661E+02 0.17172625779E+02 0.17477678500E+02
 0.17637363504E+02 0.17637363478E+02 0.17477678560E+02 0.17172626149E+02 0.16749220376E+02
 0.16243985021E+02 0.15698453789E+02 0.15153951047E+02 0.14646548640E+02 0.14203149565E+02
 0.13839384643E+02 0.13559543253E+02 0.13358295247E+02 0.13223633447E+02 0.13140301732E+02
 0.13092961430E+02 0.13068502221E+02 0.13057223983E+02 0.13053020580E+02 0.13053019593E+02
 0.13057221772E+02 0.13068500668E+02 0.13092962801E+02 0.13140307680E+02 0.13223644289E+02
 0.13358309830E+02 0.13559559263E+02 0.13839399452E+02 0.13796128831E+02 0.13822770588E+02
 0.13914782720E+02 0.14059363325E+02 0.14237380443E+02 0.14426105627E+02 0.14602254981E+02
 0.14744823743E+02 0.14837336529E+02 0.14869361707E+02 0.14837336669E+02 0.14744823581E+02
 0.14602253730E+02 0.14426102333E+02 0.14237374235E+02 0.14059353723E+02 0.13914769767E+02
 0.13822755036E+02 0.13796112075E+02 0.13839384643E+02 0.13948094591E+02 0.14109304953E+02
 0.14303438938E+02 0.14507038497E+02 0.14695942092E+02 0.14848297826E+02 0.14946959766E+02
 0.14981080410E+02 0.14946958472E+02 0.14848296130E+02 0.14695941477E+02 0.14507040556E+02
 0.14303444857E+02 0.14109315084E+02 0.13948108409E+02 0.13839400819E+02 0.14203160886E+02
 0.13822768977E+02 0.13528494095E+02 0.13314692094E+02 0.13169084660E+02 0.13076313100E+02
 0.13021112168E+02 0.12990545155E+02 0.12975091674E+02 0.12968771946E+02 0.12968772653E+02
 0.12975093209E+02 0.12990546054E+02 0.13021110624E+02 0.13076307730E+02 0.13169075091E+02
 0.13314679111E+02 0.13528479513E+02 0.13822755036E+02 0.14203149565E+02 0.14665512313E+02
 0.15193949735E+02 0.15760760295E+02 0.16328562400E+02 0.16854393399E+02 0.17295026301E+02
 0.17612459006E+02 0.17778609891E+02 0.17778609150E+02 0.17612456895E+02 0.17295023245E+02
 0.16854390144E+02 0.16328560054E+02 0.15760760220E+02 0.15193953113E+02 0.14665519782E+02
 0.15508701095E+02 0.14646552164E+02 0.13914777893E+02 0.13314689217E+02 0.12835902455E+02
 0.12462209412E+02 0.12176790853E+02 0.11965776663E+02 0.11819772509E+02 0.11733608842E+02
 0.11705074639E+02 0.11733611899E+02 0.11819776918E+02 0.11965779775E+02 0.12176790314E+02
 0.12462204234E+02 0.12835893526E+02 0.13314679111E+02 0.13914769767E+02 0.14646548640E+02
 0.15508703322E+02 0.16483156003E+02 0.17532392299E+02 0.18600433950E+02 0.19617808927E+02
 0.20509700415E+02 0.21205519959E+02 0.21647906682E+02 0.21799655471E+02 0.21647905152E+02
 0.21205516358E+02 0.20509694131E+02 0.19617799957E+02 0.18600423297E+02 0.17532382033E+02
 0.16483148706E+02 0.17959910569E+02 0.16459651158E+02 0.15153947822E+02 0.14059356404E+02
 0.13169080263E+02 0.12462208111E+02 0.11912846738E+02 0.11497112158E+02 0.11197029305E+02
 0.11001420485E+02 0.10904662902E+02 0.10904665268E+02 0.11001426469E+02 0.11197036058E+02
 0.11497116528E+02 0.11912846799E+02 0.12462204234E+02 0.13169075091E+02 0.14059353723E+02
 0.15153951047E+02 0.16459661783E+02 0.17959927440E+02 0.19608294525E+02 0.21327262557E+02
 0.23014107079E+02 0.24563694560E+02 0.25872731154E+02 0.26827889159E+02 0.27332885466E+02
 0.27332885450E+02 0.26827888282E+02 0.25872727341E+02 0.24563685734E+02 0.23014092516E+02
 0.21327243672E+02 0.19608274647E+02 0.21936518599E+02 0.19578440995E+02 0.17481738507E+02
 0.15698447761E+02 0.14237374135E+02 0.13076309798E+02 0.12176790869E+02 0.11497113521E+02
 0.11001167935E+02 0.10662561632E+02 0.10464891962E+02 0.10399825837E+02 0.10464896444E+02
 0.10662568497E+02 0.11001174099E+02 0.11497116528E+02 0.12176790314E+02 0.13076307730E+02
 0.14237374235E+02 0.15698453789E+02 0.17481752307E+02 0.19578461553E+02 0.21936542326E+02
 0.24462310789E+02 0.27074262568E+02 0.29645982608E+02 0.31981234419E+02 0.33858038630E+02
 0.35076432769E+02 0.35498854721E+02 0.35076435692E+02 0.33858041858E+02 0.31981234007E+02
 0.29645975159E+02 0.27074247007E+02 0.24462288971E+02 0.27990088466E+02 0.24425121784E+02
 0.21263071373E+02 0.18520684139E+02 0.16243979907E+02 0.14426101876E+02 0.13021111756E+02
 0.11965779762E+02 0.11197033703E+02 0.10662564473E+02 0.10324968414E+02 0.10161419421E+02
 0.10161420940E+02 0.10324972159E+02 0.10662568497E+02 0.11197036058E+02 0.11965779775E+02
 0.13021110624E+02 0.14426102333E+02 0.16243985021E+02 0.18520695529E+02 0.21263088396E+02
 0.24425141073E+02 0.27990105155E+02 0.31898390503E+02 0.35943300010E+02 0.39808222416E+02
 0.43129670004E+02 0.45565582101E+02 0.46854063458E+02 0.46854067291E+02 0.45565591837E+02
 0.43129681170E+02 0.39808229638E+02 0.35943299253E+02 0.31898380682E+02 0.37410813950E+02
 0.31854575905E+02 0.26995779562E+02 0.22913890243E+02 0.19509330029E+02 0.16749217217E+02
 0.14602253618E+02 0.12990547587E+02 0.11819778627E+02 0.11001427522E+02 0.10464896749E+02
 0.10161420905E+02 0.10063234534E+02 0.10161420940E+02 0.10464896444E+02 0.11001426469E+02
 0.11819776918E+02 0.12990546054E+02 0.14602253730E+02 0.16749220376E+02 0.19509336709E+02
 0.22913899486E+02 0.26995788577E+02 0.31854581286E+02 0.37410812514E+02 0.43371715075E+02
 0.49283065830E+02 0.54614081283E+02 0.58850365214E+02 0.61572824921E+02 0.62511278588E+02
 0.61572835214E+02 0.58850382751E+02 0.54614100999E+02 0.49283082453E+02 0.43371724753E+02
 0.51561979474E+02 0.43324773571E+02 0.35854107546E+02 0.29526310485E+02 0.24429162033E+02
 0.20375433441E+02 0.17172623350E+02 0.14744823179E+02 0.12975095636E+02 0.11733616380E+02
 0.10904670347E+02 0.10399829769E+02 0.10161420905E+02 0.10161419421E+02 0.10399825837E+02
 0.10904665268E+02 0.11733611899E+02 0.12975093209E+02 0.14744823581E+02 0.17172626149E+02
 0.20375437205E+02 0.24429164477E+02 0.29526309135E+02 0.35854100556E+02 0.43324760023E+02
 0.51561960081E+02 0.59963957915E+02 0.67815087211E+02 0.74409691781E+02 0.79154658129E+02
 0.81633243085E+02 0.81633247998E+02 0.79154672000E+02 0.74409712236E+02 0.67815110825E+02
 0.59963981023E+02 0.71107913232E+02 0.59920114340E+02 0.49192325603E+02 0.39677277990E+02
 0.31824813064E+02 0.25709040182E+02 0.21050840624E+02 0.17477674170E+02 0.14837335467E+02
 0.12968776012E+02 0.11705081464E+02 0.10904670347E+02 0.10464896749E+02 0.10324968414E+02
 0.10464891962E+02 0.10904662902E+02 0.11705074639E+02 0.12968772653E+02 0.14837336669E+02
 0.17477678560E+02 0.21050844952E+02 0.25709040430E+02 0.31824806250E+02 0.39677263240E+02
 0.49192304443E+02 0.59920090226E+02 0.71107890018E+02 0.81843460641E+02 0.91219505791E+02
 0.98467678866E+02 0.10303263858E+03 0.10458948315E+03 0.10303264234E+03 0.98467687147E+02
 0.91219519531E+02 0.81843479869E+02 0.95591508176E+02 0.81810406409E+02 0.67736340903E+02
 0.54487474563E+02 0.42964769111E+02 0.33672928248E+02 0.26643091521E+02 0.21480145568E+02
 0.17637357346E+02 0.14869360162E+02 0.12968776012E+02 0.11733616380E+02 0.11001427522E+02
 0.10662564473E+02 0.10662561632E+02 0.11001420485E+02 0.11733608842E+02 0.12968771946E+02
 0.14869361707E+02 0.17637363478E+02 0.21480152396E+02 0.26643093871E+02 0.33672922211E+02
 0.42964753840E+02 0.54487453034E+02 0.67736318801E+02 0.81810389678E+02 0.95591500688E+02
 0.10796131895E+03 0.11798104096E+03 0.12498314650E+03 0.12857179012E+03 0.12857178687E+03
 0.12498313867E+03 0.11798103336E+03 0.10796131710E+03 0.12329792508E+03 0.10794596517E+03
 0.91167271522E+02 0.74307368373E+02 0.58698226366E+02 0.45377116879E+02 0.34873195318E+02
 0.27137033979E+02 0.21627391781E+02 0.17637357346E+02 0.14837335467E+02 0.12975095636E+02
 0.11819778627E+02 0.11197033703E+02 0.11001167935E+02 0.11197029305E+02 0.11819772509E+02
 0.12975091674E+02 0.14837336529E+02 0.17637363504E+02 0.21627399984E+02 0.27137039299E+02
 0.34873193511E+02 0.45377106643E+02 0.58698210669E+02 0.74307353509E+02 0.91167264668E+02
 0.10794597122E+03 0.12329794410E+03 0.13610947410E+03 0.14562642598E+03 0.15144267558E+03
 0.15339418619E+03 0.15144265990E+03 0.14562640028E+03 0.13610944735E+03 0.15154096216E+03
 0.13611542253E+03 0.11796603912E+03 0.98408102396E+02 0.79039089531E+02 0.61405811089E+02
 0.46653627940E+02 0.35289430931E+02 0.27137033979E+02 0.21480145568E+02 0.17477674170E+02
 0.14744823179E+02 0.12990547587E+02 0.11965779762E+02 0.11497113521E+02 0.11497112158E+02
 0.11965776663E+02 0.12990545155E+02 0.14744823743E+02 0.17477678500E+02 0.21480152147E+02
 0.27137039584E+02 0.35289432345E+02 0.46653623899E+02 0.61405803665E+02 0.79039083805E+02
 0.98408104722E+02 0.11796605433E+03 0.13611545131E+03 0.15154100007E+03 0.16340216639E+03
 0.17133117252E+03 0.17527307410E+03 0.17527306357E+03 0.17133114401E+03 0.16340212806E+03
 0.17733646760E+03 0.16342793771E+03 0.14565118400E+03 0.12497657611E+03 0.10297224053E+03
 0.81512098663E+02 0.62339426898E+02 0.46653627940E+02 0.34873195318E+02 0.26643091521E+02
 0.21050840624E+02 0.17172623350E+02 0.14602253618E+02 0.13021111756E+02 0.12176790869E+02
 0.11912846738E+02 0.12176790853E+02 0.13021112168E+02 0.14602254981E+02 0.17172625779E+02
 0.21050843540E+02 0.26643093825E+02 0.34873196050E+02 0.46653627077E+02 0.62339425979E+02
 0.81512100606E+02 0.10297224889E+03 0.12497659353E+03 0.14565121084E+03 0.16342797127E+03
 0.17733650228E+03 0.18704981384E+03 0.19269386872E+03 0.19453354906E+03 0.19269385243E+03
 0.18704978512E+03 0.19823593857E+03 0.18708875596E+03 0.17138802041E+03 0.15148630083E+03
 0.12857250899E+03 0.10452952908E+03 0.81512098663E+02 0.61405811089E+02 0.45377116879E+02
 0.33672928248E+02 0.25709040182E+02 0.20375433441E+02 0.16749217217E+02 0.14426101876E+02
 0.13076309798E+02 0.12462208111E+02 0.12462209412E+02 0.13076313100E+02 0.14426105627E+02
 0.16749219661E+02 0.20375433423E+02 0.25709037775E+02 0.33672924817E+02 0.45377114633E+02
 0.61405812282E+02 0.81512104737E+02 0.10452954021E+03 0.12857252396E+03 0.15148631758E+03
 0.17138803666E+03 0.18708876979E+03 0.19823594881E+03 0.20513911980E+03 0.20837814170E+03
 0.20837813963E+03 0.20513911360E+03 0.21299580811E+03 0.20518129949E+03 0.19276661861E+03
 0.17535050674E+03 0.15344557183E+03 0.12857250899E+03 0.10297224053E+03 0.79039089531E+02
 0.58698226366E+02 0.42964769111E+02 0.31824813064E+02 0.24429162033E+02 0.19509330029E+02
 0.16243979907E+02 0.14237374135E+02 0.13169080263E+02 0.12835902455E+02 0.13169084660E+02
 0.14237380443E+02 0.16243984463E+02 0.19509329957E+02 0.24429156875E+02 0.31824805195E+02
 0.42964762721E+02 0.58698225412E+02 0.79039095618E+02 0.10297225186E+03 0.12857252077E+03
 0.15344557834E+03 0.17535050383E+03 0.19276660575E+03 0.20518128041E+03 0.21299578937E+03
 0.21710892083E+03 0.21836665325E+03 0.21710893237E+03 0.22181481244E+03 0.21714443270E+03
 0.20844722967E+03 0.19461956131E+03 0.17535050674E+03 0.15148630083E+03 0.12497657611E+03
 0.98408102396E+02 0.74307368373E+02 0.54487474563E+02 0.39677277990E+02 0.29526310485E+02
 0.22913890243E+02 0.18520684139E+02 0.15698447761E+02 0.14059356404E+02 0.13314689217E+02
 0.13314692094E+02 0.14059363325E+02 0.15698454548E+02 0.18520686427E+02 0.22913885973E+02
 0.29526301208E+02 0.39677268295E+02 0.54487469720E+02 0.74307371366E+02 0.98408111792E+02
 0.12497658594E+03 0.15148630284E+03 0.17535049400E+03 0.19461953180E+03 0.20844718798E+03
 0.21714438909E+03 0.22181477943E+03 0.22373529972E+03 0.22373531202E+03 0.22605320807E+03
 0.22375773617E+03 0.21841592107E+03 0.20844722967E+03 0.19276661861E+03 0.17138802041E+03
 0.14565118400E+03 0.11796603912E+03 0.91167271522E+02 0.67736340903E+02 0.49192325603E+02
 0.35854107546E+02 0.26995779562E+02 0.21263071373E+02 0.17481738507E+02 0.15153947822E+02
 0.13914777893E+02 0.13528494095E+02 0.13914782720E+02 0.15153954539E+02 0.17481742871E+02
 0.21263070239E+02 0.26995772768E+02 0.35854098227E+02 0.49192318629E+02 0.67736340157E+02
 0.91167277331E+02 0.11796604722E+03 0.14565118677E+03 0.17138801000E+03 0.19276659075E+03
 0.20844718638E+03 0.21841587091E+03 0.22375769188E+03 0.22605318211E+03 0.22664470801E+03
 0.22755817122E+03 0.22665338404E+03 0.22375773617E+03 0.21714443270E+03 0.20518129949E+03
 0.18708875596E+03 0.16342793771E+03 0.13611542253E+03 0.10794596517E+03 0.81810406409E+02
 0.59920114340E+02 0.43324773571E+02 0.31854575905E+02 0.24425121784E+02 0.19578440995E+02
 0.16459651158E+02 0.14646552164E+02 0.13822768977E+02 0.13822770588E+02 0.14646556018E+02
 0.16459654852E+02 0.19578442071E+02 0.24425119158E+02 0.31854570606E+02 0.43324768308E+02
 0.59920112060E+02 0.81810408490E+02 0.10794597023E+03 0.13611542649E+03 0.16342793529E+03
 0.18708874306E+03 0.20518127535E+03 0.21714440094E+03 0.22375770406E+03 0.22665336013E+03
 0.22755816238E+03 0.22772599934E+03 0.22735014648E+03 0.22564694636E+03 0.22112397561E+03
 0.21199429440E+03 0.19696467730E+03 0.17589439426E+03 0.15006106969E+03 0.12191475907E+03
 0.94410187937E+02 0.70184268805E+02 0.50898660092E+02 0.36967805521E+02 0.27703374987E+02
 0.21738150682E+02 0.17813780020E+02 0.15395686368E+02 0.14107940882E+02 0.13706463627E+02
 0.14107941119E+02 0.15395686684E+02 0.17813780190E+02 0.21738150551E+02 0.27703374579E+02
 0.36967805064E+02 0.50898659939E+02 0.70184269274E+02 0.94410189153E+02 0.12191476089E+03
 0.15006107172E+03 0.17589439602E+03 0.19696467840E+03 0.21199429470E+03 0.22112397528E+03
 0.22564694576E+03 0.22735014604E+03 0.22735014604E+03 0.22735013814E+03 0.22630190327E+03
 0.22315097668E+03 0.21622755165E+03 0.20396962645E+03 0.18566438327E+03 0.16191926306E+03
 0.13466478422E+03 0.10667521074E+03 0.80795220554E+02 0.59180227568E+02 0.42830616248E+02
 0.31545015009E+02 0.24228399761E+02 0.19438515284E+02 0.16355247179E+02 0.14562353925E+02
 0.13747516030E+02 0.13747514707E+02 0.14562350746E+02 0.16355244085E+02 0.19438514271E+02
 0.24228401736E+02 0.31545019209E+02 0.42830620602E+02 0.59180229850E+02 0.80795219824E+02
 0.10667520829E+03 0.13466478343E+03 0.16191926819E+03 0.18566439745E+03 0.20396965000E+03
 0.21622758120E+03 0.22315100586E+03 0.22630192475E+03 0.22564694576E+03 0.22631106440E+03
 0.22564692193E+03 0.22315096514E+03 0.21752915191E+03 0.20726910152E+03 0.19135705582E+03
 0.16986284780E+03 0.14415197319E+03 0.11662426526E+03 0.90074161093E+02 0.66927377641E+02
 0.48649238474E+02 0.35520477570E+02 0.26798469829E+02 0.21133329001E+02 0.17388593186E+02
 0.15081797260E+02 0.13852909393E+02 0.13469647917E+02 0.13852905050E+02 0.15081791203E+02
 0.17388589209E+02 0.21133329916E+02 0.26798475779E+02 0.35520485756E+02 0.48649244563E+02
 0.66927378222E+02 0.90074155954E+02 0.11662425832E+03 0.14415197133E+03 0.16986285809E+03
 0.19135708202E+03 0.20726914169E+03 0.21752919816E+03 0.22315100586E+03 0.22112397528E+03
 0.22317478049E+03 0.22317476907E+03 0.22112394467E+03 0.21622754095E+03 0.20726910357E+03
 0.19321560805E+03 0.17381775767E+03 0.14995744924E+03 0.12358493513E+03 0.97254787941E+02
 0.73440915447E+02 0.53900840288E+02 0.39320263030E+02 0.29326342011E+02 0.22796963563E+02
 0.18440711417E+02 0.15639102397E+02 0.14009987353E+02 0.13269127992E+02 0.13269125295E+02
 0.14009980871E+02 0.15639096062E+02 0.18440709319E+02 0.22796967591E+02 0.29326350621E+02
 0.39320271810E+02 0.53900844187E+02 0.73440911614E+02 0.97254777746E+02 0.12358492429E+03
 0.14995744565E+03 0.17381776803E+03 0.19321563441E+03 0.20726914169E+03 0.21622758120E+03
 0.21199429470E+03 0.21626553913E+03 0.21758179168E+03 0.21626552813E+03 0.21199427706E+03
 0.20396963254E+03 0.19135707126E+03 0.17381776755E+03 0.15190671164E+03 0.12715500419E+03
 0.10178061997E+03 0.78131050456E+02 0.58076897497E+02 0.42587214182E+02 0.31621008627E+02
 0.24323313993E+02 0.19443216896E+02 0.16197552824E+02 0.14199576331E+02 0.13134212453E+02
 0.12801635189E+02 0.13134208140E+02 0.14199570191E+02 0.16197548504E+02 0.19443217213E+02
 0.24323319302E+02 0.31621016399E+02 0.42587220068E+02 0.58076897413E+02 0.78131042757E+02
 0.10178060653E+03 0.12715498994E+03 0.15190670257E+03 0.17381776803E+03 0.19135708202E+03
 0.20396965000E+03 0.19696467840E+03 0.20401541677E+03 0.20734378980E+03 0.20734379139E+03
 0.20401542175E+03 0.19696468728E+03 0.18566441045E+03 0.16986287455E+03 0.14995746376E+03
 0.12715500709E+03 0.10332473073E+03 0.80582148020E+02 0.60761989659E+02 0.44984150972E+02
 0.33465181250E+02 0.25611118373E+02 0.20322348491E+02 0.16714891080E+02 0.14398678425E+02
 0.13049990879E+02 0.12435412987E+02 0.12435411565E+02 0.13049987324E+02 0.14398674542E+02
 0.16714888873E+02 0.20322349173E+02 0.25611121665E+02 0.33465185353E+02 0.44984153209E+02
 0.60761987485E+02 0.80582140058E+02 0.10332471725E+03 0.12715498994E+03 0.14995744565E+03
 0.16986285809E+03 0.18566439745E+03 0.17589439602E+03 0.18570792094E+03 0.19143750428E+03
 0.19331041500E+03 0.19143751847E+03 0.18570794618E+03 0.17589442700E+03 0.16191929896E+03
 0.14415199696E+03 0.12358494207E+03 0.10178061619E+03 0.80582143368E+02 0.61687797794E+02
 0.46252367975E+02 0.34662504404E+02 0.26550182883E+02 0.21008409370E+02 0.17148540635E+02
 0.14583579272E+02 0.13001481123E+02 0.12154736263E+02 0.11889690525E+02 0.12154735793E+02
 0.13001480091E+02 0.14583577661E+02 0.17148538708E+02 0.21008407714E+02 0.26550182194E+02
 0.34662504989E+02 0.46252369278E+02 0.61687798077E+02 0.80582140058E+02 0.10178060653E+03
 0.12358492429E+03 0.14415197133E+03 0.16191926819E+03 0.15006107172E+03 0.16195034835E+03
 0.16992908954E+03 0.17390681012E+03 0.17390681932E+03 0.16992911450E+03 0.16195038196E+03
 0.15006110506E+03 0.13466480886E+03 0.11662427183E+03 0.97254779759E+02 0.78131037350E+02
 0.60761980145E+02 0.46252364530E+02 0.35077649733E+02 0.27046527209E+02 0.21444686926E+02
 0.17461022179E+02 0.14732803972E+02 0.12975883214E+02 0.11946608348E+02 0.11474929939E+02
 0.11474930946E+02 0.11946610596E+02 0.12975884848E+02 0.14732803244E+02 0.17461018641E+02
 0.21444681957E+02 0.27046523507E+02 0.35077649845E+02 0.46252369278E+02 0.60761987485E+02
 0.78131042757E+02 0.97254777746E+02 0.11662425832E+03 0.13466478343E+03 0.12191476089E+03
 0.13467645629E+03 0.14418727454E+03 0.15001485115E+03 0.15197300828E+03 0.15001486478E+03
 0.14418729675E+03 0.13467647906E+03 0.12191477639E+03 0.10667521188E+03 0.90074147785E+02
 0.73440896212E+02 0.58076881338E+02 0.44984142263E+02 0.34662501956E+02 0.27046527304E+02
 0.21594358510E+02 0.17624609624E+02 0.14829480500E+02 0.12963728105E+02 0.11802261658E+02
 0.11174522554E+02 0.10976797536E+02 0.11174526274E+02 0.11802266774E+02 0.12963731281E+02
 0.14829479324E+02 0.17624604189E+02 0.21594351660E+02 0.27046523507E+02 0.34662504989E+02
 0.44984153209E+02 0.58076897413E+02 0.73440911614E+02 0.90074155954E+02 0.10667520829E+03
 0.94410189153E+02 0.10666570199E+03 0.11662038842E+03 0.12359350787E+03 0.12717304053E+03
 0.12717304338E+03 0.12359351461E+03 0.11662039454E+03 0.10666570233E+03 0.94410180431E+02