   2   2   1   0
  0.1300041E+02  0.2587794E-09  0.2587794E-09  0.4483293E-09  0.5000000E-15
  1.000000000000000E-004
  CAR 
 Pt-hcc                                  
     42.14783387    -42.49186240  301     15.21147936      1.00000000
    -42.492  0.0000E+00  0.0000E+00
    -42.210  0.0000E+00  0.0000E+00
    -41.928  0.0000E+00  0.0000E+00
    -41.645  0.0000E+00  0.0000E+00
    -41.363  0.0000E+00  0.0000E+00
    -41.081  0.0000E+00  0.0000E+00
    -40.799  0.0000E+00  0.0000E+00
    -40.517  0.0000E+00  0.0000E+00
    -40.235  0.0000E+00  0.0000E+00
    -39.953  0.0000E+00  0.0000E+00
    -39.671  0.0000E+00  0.0000E+00
    -39.388  0.0000E+00  0.0000E+00
    -39.106  0.0000E+00  0.0000E+00
    -38.824  0.2563E-09  0.7230E-10
    -38.542  0.2619E-01  0.7388E-02
    -38.260  0.9563E-01  0.3437E-01
    -37.978  0.1457E+00  0.7547E-01
    -37.696  0.1566E+00  0.1197E+00
    -37.413  0.1180E-02  0.1200E+00
    -37.131  0.0000E+00  0.1200E+00
    -36.849  0.0000E+00  0.1200E+00
    -36.567  0.0000E+00  0.1200E+00
    -36.285  0.0000E+00  0.1200E+00
    -36.003  0.0000E+00  0.1200E+00
    -35.721  0.0000E+00  0.1200E+00
    -35.439  0.0000E+00  0.1200E+00
    -35.156  0.0000E+00  0.1200E+00
    -34.874  0.0000E+00  0.1200E+00
    -34.592  0.0000E+00  0.1200E+00
    -34.310  0.0000E+00  0.1200E+00
    -34.028  0.0000E+00  0.1200E+00
    -33.746  0.0000E+00  0.1200E+00
    -33.464  0.0000E+00  0.1200E+00
    -33.181  0.0000E+00  0.1200E+00
    -32.899  0.0000E+00  0.1200E+00
    -32.617  0.0000E+00  0.1200E+00
    -32.335  0.0000E+00  0.1200E+00
    -32.053  0.0000E+00  0.1200E+00
    -31.771  0.0000E+00  0.1200E+00
    -31.489  0.0000E+00  0.1200E+00
    -31.207  0.0000E+00  0.1200E+00
    -30.924  0.0000E+00  0.1200E+00
    -30.642  0.0000E+00  0.1200E+00
    -30.360  0.0000E+00  0.1200E+00
    -30.078  0.0000E+00  0.1200E+00
    -29.796  0.0000E+00  0.1200E+00
    -29.514  0.0000E+00  0.1200E+00
    -29.232  0.0000E+00  0.1200E+00
    -28.950  0.0000E+00  0.1200E+00
    -28.667  0.0000E+00  0.1200E+00
    -28.385  0.0000E+00  0.1200E+00
    -28.103  0.0000E+00  0.1200E+00
    -27.821  0.0000E+00  0.1200E+00
    -27.539  0.0000E+00  0.1200E+00
    -27.257  0.0000E+00  0.1200E+00
    -26.975  0.0000E+00  0.1200E+00
    -26.692  0.0000E+00  0.1200E+00
    -26.410  0.0000E+00  0.1200E+00
    -26.128  0.0000E+00  0.1200E+00
    -25.846  0.0000E+00  0.1200E+00
    -25.564  0.0000E+00  0.1200E+00
    -25.282  0.0000E+00  0.1200E+00
    -25.000  0.0000E+00  0.1200E+00
    -24.718  0.0000E+00  0.1200E+00
    -24.435  0.0000E+00  0.1200E+00
    -24.153  0.0000E+00  0.1200E+00
    -23.871  0.0000E+00  0.1200E+00
    -23.589  0.0000E+00  0.1200E+00
    -23.307  0.0000E+00  0.1200E+00
    -23.025  0.0000E+00  0.1200E+00
    -22.743  0.0000E+00  0.1200E+00
    -22.460  0.0000E+00  0.1200E+00
    -22.178  0.0000E+00  0.1200E+00
    -21.896  0.0000E+00  0.1200E+00
    -21.614  0.0000E+00  0.1200E+00
    -21.332  0.0000E+00  0.1200E+00
    -21.050  0.0000E+00  0.1200E+00
    -20.768  0.0000E+00  0.1200E+00
    -20.486  0.0000E+00  0.1200E+00
    -20.203  0.0000E+00  0.1200E+00
    -19.921  0.0000E+00  0.1200E+00
    -19.639  0.0000E+00  0.1200E+00
    -19.357  0.0000E+00  0.1200E+00
    -19.075  0.0000E+00  0.1200E+00
    -18.793  0.0000E+00  0.1200E+00
    -18.511  0.0000E+00  0.1200E+00
    -18.228  0.0000E+00  0.1200E+00
    -17.946  0.0000E+00  0.1200E+00
    -17.664  0.0000E+00  0.1200E+00
    -17.382  0.0000E+00  0.1200E+00
    -17.100  0.0000E+00  0.1200E+00
    -16.818  0.0000E+00  0.1200E+00
    -16.536  0.0000E+00  0.1200E+00
    -16.254  0.0000E+00  0.1200E+00
    -15.971  0.0000E+00  0.1200E+00
    -15.689  0.0000E+00  0.1200E+00
    -15.407  0.0000E+00  0.1200E+00
    -15.125  0.0000E+00  0.1200E+00
    -14.843  0.0000E+00  0.1200E+00
    -14.561  0.0000E+00  0.1200E+00
    -14.279  0.0000E+00  0.1200E+00
    -13.996  0.0000E+00  0.1200E+00
    -13.714  0.0000E+00  0.1200E+00
    -13.432  0.0000E+00  0.1200E+00
    -13.150  0.0000E+00  0.1200E+00
    -12.868  0.0000E+00  0.1200E+00
    -12.586  0.0000E+00  0.1200E+00
    -12.304  0.0000E+00  0.1200E+00
    -12.022  0.0000E+00  0.1200E+00
    -11.739  0.0000E+00  0.1200E+00
    -11.457  0.0000E+00  0.1200E+00
    -11.175  0.0000E+00  0.1200E+00
    -10.893  0.0000E+00  0.1200E+00
    -10.611  0.0000E+00  0.1200E+00
    -10.329  0.0000E+00  0.1200E+00
    -10.047  0.0000E+00  0.1200E+00
     -9.765  0.0000E+00  0.1200E+00
     -9.482  0.0000E+00  0.1200E+00
     -9.200  0.0000E+00  0.1200E+00
     -8.918  0.0000E+00  0.1200E+00
     -8.636  0.0000E+00  0.1200E+00
     -8.354  0.0000E+00  0.1200E+00
     -8.072  0.0000E+00  0.1200E+00
     -7.790  0.0000E+00  0.1200E+00
     -7.507  0.0000E+00  0.1200E+00
     -7.225  0.0000E+00  0.1200E+00
     -6.943  0.0000E+00  0.1200E+00
     -6.661  0.0000E+00  0.1200E+00
     -6.379  0.0000E+00  0.1200E+00
     -6.097  0.0000E+00  0.1200E+00
     -5.815  0.0000E+00  0.1200E+00
     -5.533  0.0000E+00  0.1200E+00
     -5.250  0.0000E+00  0.1200E+00
     -4.968  0.0000E+00  0.1200E+00
     -4.686  0.0000E+00  0.1200E+00
     -4.404  0.0000E+00  0.1200E+00
     -4.122  0.0000E+00  0.1200E+00
     -3.840  0.0000E+00  0.1200E+00
     -3.558  0.0000E+00  0.1200E+00
     -3.275  0.0000E+00  0.1200E+00
     -2.993  0.0000E+00  0.1200E+00
     -2.711  0.0000E+00  0.1200E+00
     -2.429  0.0000E+00  0.1200E+00
     -2.147  0.0000E+00  0.1200E+00
     -1.865  0.0000E+00  0.1200E+00
     -1.583  0.0000E+00  0.1200E+00
     -1.301  0.0000E+00  0.1200E+00
     -1.018  0.0000E+00  0.1200E+00
     -0.736  0.0000E+00  0.1200E+00
     -0.454  0.0000E+00  0.1200E+00
     -0.172  0.0000E+00  0.1200E+00
      0.110  0.0000E+00  0.1200E+00
      0.392  0.0000E+00  0.1200E+00
      0.674  0.0000E+00  0.1200E+00
      0.957  0.0000E+00  0.1200E+00
      1.239  0.0000E+00  0.1200E+00
      1.521  0.0000E+00  0.1200E+00
      1.803  0.0000E+00  0.1200E+00
      2.085  0.0000E+00  0.1200E+00
      2.367  0.0000E+00  0.1200E+00
      2.649  0.0000E+00  0.1200E+00
      2.931  0.0000E+00  0.1200E+00
      3.214  0.2975E-04  0.1200E+00
      3.496  0.2358E-03  0.1201E+00
      3.778  0.6145E-03  0.1202E+00
      4.060  0.1158E-02  0.1206E+00
      4.342  0.1005E-02  0.1209E+00
      4.624  0.1193E-02  0.1212E+00
      4.906  0.1260E-02  0.1216E+00
      5.188  0.3105E-02  0.1224E+00
      5.471  0.1233E-02  0.1228E+00
      5.753  0.2154E-02  0.1234E+00
      6.035  0.4781E-02  0.1247E+00
      6.317  0.5911E-02  0.1264E+00
      6.599  0.1121E-01  0.1296E+00
      6.881  0.2084E-01  0.1354E+00
      7.163  0.1917E-01  0.1408E+00
      7.446  0.2427E-01  0.1477E+00
      7.728  0.1437E-01  0.1518E+00
      8.010  0.2035E-01  0.1575E+00
      8.292  0.2258E-01  0.1639E+00
      8.574  0.2810E-01  0.1718E+00
      8.856  0.1828E-01  0.1769E+00
      9.138  0.2310E-01  0.1835E+00
      9.420  0.2586E-01  0.1908E+00
      9.703  0.1872E-01  0.1960E+00
      9.985  0.1859E-01  0.2013E+00
     10.267  0.2611E-01  0.2087E+00
     10.549  0.2630E-01  0.2161E+00
     10.831  0.2812E-01  0.2240E+00
     11.113  0.2663E-01  0.2315E+00
     11.395  0.2107E-01  0.2375E+00
     11.678  0.3516E-01  0.2474E+00
     11.960  0.2489E-01  0.2544E+00
     12.242  0.2226E-01  0.2607E+00
     12.524  0.1196E-01  0.2641E+00
     12.806  0.1803E-01  0.2691E+00
     13.088  0.1713E-01  0.2740E+00
     13.370  0.1840E-01  0.2792E+00
     13.652  0.2145E-01  0.2852E+00
     13.935  0.1847E-01  0.2904E+00
     14.217  0.1660E-01  0.2951E+00
     14.499  0.1689E-01  0.2999E+00
     14.781  0.2173E-01  0.3060E+00
     15.063  0.3664E-01  0.3163E+00
     15.345  0.2699E-01  0.3240E+00
     15.627  0.1642E-01  0.3286E+00
     15.910  0.1749E-01  0.3335E+00
     16.192  0.6625E-02  0.3354E+00
     16.474  0.3765E-02  0.3365E+00
     16.756  0.1584E-02  0.3369E+00
     17.038  0.2104E-02  0.3375E+00
     17.320  0.3437E-02  0.3385E+00
     17.602  0.5616E-02  0.3401E+00
     17.884  0.7650E-02  0.3422E+00
     18.167  0.8036E-02  0.3445E+00
     18.449  0.3174E-02  0.3454E+00
     18.731  0.2059E-02  0.3460E+00
     19.013  0.6873E-02  0.3479E+00
     19.295  0.7559E-03  0.3481E+00
     19.577  0.3898E-02  0.3492E+00
     19.859  0.7044E-02  0.3512E+00
     20.142  0.2950E-02  0.3520E+00
     20.424  0.3007E-02  0.3529E+00
     20.706  0.7726E-02  0.3551E+00
     20.988  0.3716E-02  0.3561E+00
     21.270  0.7456E-02  0.3582E+00
     21.552  0.3172E-02  0.3591E+00
     21.834  0.1672E-02  0.3596E+00
     22.116  0.5899E-03  0.3597E+00
     22.399  0.3290E-02  0.3607E+00
     22.681  0.5801E-02  0.3623E+00
     22.963  0.2255E-02  0.3629E+00
     23.245  0.7645E-02  0.3651E+00
     23.527  0.1411E-01  0.3691E+00
     23.809  0.5998E-02  0.3708E+00
     24.091  0.7069E-02  0.3728E+00
     24.373  0.6285E-02  0.3745E+00
     24.656  0.9168E-02  0.3771E+00
     24.938  0.3291E-02  0.3781E+00
     25.220  0.1003E-01  0.3809E+00
     25.502  0.6801E-02  0.3828E+00
     25.784  0.4710E-02  0.3841E+00
     26.066  0.1021E-01  0.3870E+00
     26.348  0.3806E-02  0.3881E+00
     26.631  0.4680E-02  0.3894E+00
     26.913  0.1081E-01  0.3925E+00
     27.195  0.2586E-02  0.3932E+00
     27.477  0.6766E-02  0.3951E+00
     27.759  0.5235E-02  0.3966E+00
     28.041  0.7842E-02  0.3988E+00
     28.323  0.2970E-02  0.3996E+00
     28.605  0.5227E-02  0.4011E+00
     28.888  0.1103E-01  0.4042E+00
     29.170  0.1222E-01  0.4077E+00
     29.452  0.1031E-01  0.4106E+00
     29.734  0.1229E-01  0.4140E+00
     30.016  0.7207E-02  0.4161E+00
     30.298  0.9345E-02  0.4187E+00
     30.580  0.1881E-01  0.4240E+00
     30.863  0.1530E-01  0.4283E+00
     31.145  0.2068E-01  0.4342E+00
     31.427  0.1151E-01  0.4374E+00
     31.709  0.7306E-02  0.4395E+00
     31.991  0.1479E-01  0.4436E+00
     32.273  0.1910E-01  0.4490E+00
     32.555  0.9346E-02  0.4517E+00
     32.837  0.1195E-01  0.4550E+00
     33.120  0.1709E-01  0.4599E+00
     33.402  0.1158E-01  0.4631E+00
     33.684  0.7903E-02  0.4654E+00
     33.966  0.1269E-01  0.4689E+00
     34.248  0.1021E-01  0.4718E+00
     34.530  0.2807E-02  0.4726E+00
     34.812  0.6759E-02  0.4745E+00
     35.095  0.1851E-02  0.4750E+00
     35.377  0.7568E-02  0.4772E+00
     35.659  0.1728E-02  0.4777E+00
     35.941  0.2816E-02  0.4785E+00
     36.223  0.3150E-02  0.4793E+00
     36.505  0.1710E-02  0.4798E+00
     36.787  0.7369E-04  0.4799E+00
     37.069  0.3544E-03  0.4799E+00
     37.352  0.0000E+00  0.4800E+00
     37.634  0.0000E+00  0.4800E+00
     37.916  0.0000E+00  0.4800E+00
     38.198  0.3434E-06  0.4800E+00
     38.480  0.1769E-03  0.4800E+00
     38.762  0.0000E+00  0.4800E+00
     39.044  0.0000E+00  0.4800E+00
     39.327  0.0000E+00  0.4800E+00
     39.609  0.0000E+00  0.4800E+00
     39.891  0.0000E+00  0.4800E+00
     40.173  0.0000E+00  0.4800E+00
     40.455  0.0000E+00  0.4800E+00
     40.737  0.0000E+00  0.4800E+00
     41.019  0.0000E+00  0.4800E+00
     41.301  0.0000E+00  0.4800E+00
     41.584  0.0000E+00  0.4800E+00
     41.866  0.0000E+00  0.4800E+00
     42.148  0.0000E+00  0.4800E+00
     42.14783387    -42.49186240  301     15.21147936      1.00000000
    -42.492  0.0000E+00  0.0000E+00  0.0000E+00  0.0000E+00  0.0000E+00  0.0000E+00  0.0000E+00  0.0000E+00  0.0000E+00
    -42.210  0.0000E+00  0.0000E+00  0.0000E+00  0.0000E+00  0.0000E+00  0.0000E+00  0.0000E+00  0.0000E+00  0.0000E+00
    -41.928  0.0000E+00  0.0000E+00  0.0000E+00  0.0000E+00  0.0000E+00  0.0000E+00  0.0000E+00  0.0000E+00  0.0000E+00
    -41.645  0.0000E+00  0.0000E+00  0.0000E+00  0.0000E+00  0.0000E+00  0.0000E+00  0.0000E+00  0.0000E+00  0.0000E+00
    -41.363  0.0000E+00  0.0000E+00  0.0000E+00  0.0000E+00  0.0000E+00  0.0000E+00  0.0000E+00  0.0000E+00  0.0000E+00
    -41.081  0.0000E+00  0.0000E+00  0.0000E+00  0.0000E+00  0.0000E+00  0.0000E+00  0.0000E+00  0.0000E+00  0.0000E+00
    -40.799  0.0000E+00  0.0000E+00  0.0000E+00  0.0000E+00  0.0000E+00  0.0000E+00  0.0000E+00  0.0000E+00  0.0000E+00
    -40.517  0.0000E+00  0.0000E+00  0.0000E+00  0.0000E+00  0.0000E+00  0.0000E+00  0.0000E+00  0.0000E+00  0.0000E+00
    -40.235  0.0000E+00  0.0000E+00  0.0000E+00  0.0000E+00  0.0000E+00  0.0000E+00  0.0000E+00  0.0000E+00  0.0000E+00
    -39.953  0.0000E+00  0.0000E+00  0.0000E+00  0.0000E+00  0.0000E+00  0.0000E+00  0.0000E+00  0.0000E+00  0.0000E+00
    -39.671  0.0000E+00  0.0000E+00  0.0000E+00  0.0000E+00  0.0000E+00  0.0000E+00  0.0000E+00  0.0000E+00  0.0000E+00
    -39.388  0.0000E+00  0.0000E+00  0.0000E+00  0.0000E+00  0.0000E+00  0.0000E+00  0.0000E+00  0.0000E+00  0.0000E+00
    -39.106  0.0000E+00  0.0000E+00  0.0000E+00  0.0000E+00  0.0000E+00  0.0000E+00  0.0000E+00  0.0000E+00  0.0000E+00
    -38.824  0.1815E-12  0.6021E-08  0.4791E-09  0.6021E-08  0.4999E-14  0.1555E-13  0.2309E-12  0.1555E-13  0.4999E-14
    -38.542  0.6470E-04  0.6156E+00  0.5069E-01  0.6156E+00  0.3743E-04  0.4836E-05  0.4348E-04  0.4836E-05  0.3743E-04
    -38.260  0.6590E-03  0.2051E+01  0.5963E+00  0.2051E+01  0.2176E-03  0.3251E-04  0.2863E-03  0.3251E-04  0.2176E-03
    -37.978  0.4475E-03  0.2534E+01  0.2146E+01  0.2534E+01  0.3984E-03  0.1499E-03  0.2333E-03  0.1499E-03  0.3984E-03
    -37.696  0.9504E-04  0.1814E+01  0.4165E+01  0.1814E+01  0.1203E-03  0.1082E-03  0.1601E-03  0.1082E-03  0.1203E-03
    -37.413  0.3003E-06  0.4449E-03  0.5794E-01  0.4449E-03  0.2097E-07  0.3127E-06  0.5050E-06  0.3127E-06  0.2097E-07
    -37.131  0.0000E+00  0.0000E+00  0.0000E+00  0.0000E+00  0.0000E+00  0.0000E+00  0.0000E+00  0.0000E+00  0.0000E+00
    -36.849  0.0000E+00  0.0000E+00  0.0000E+00  0.0000E+00  0.0000E+00  0.0000E+00  0.0000E+00  0.0000E+00  0.0000E+00
    -36.567  0.0000E+00  0.0000E+00  0.0000E+00  0.0000E+00  0.0000E+00  0.0000E+00  0.0000E+00  0.0000E+00  0.0000E+00
    -36.285  0.0000E+00  0.0000E+00  0.0000E+00  0.0000E+00  0.0000E+00  0.0000E+00  0.0000E+00  0.0000E+00  0.0000E+00
    -36.003  0.0000E+00  0.0000E+00  0.0000E+00  0.0000E+00  0.0000E+00  0.0000E+00  0.0000E+00  0.0000E+00  0.0000E+00
    -35.721  0.0000E+00  0.0000E+00  0.0000E+00  0.0000E+00  0.0000E+00  0.0000E+00  0.0000E+00  0.0000E+00  0.0000E+00
    -35.439  0.0000E+00  0.0000E+00  0.0000E+00  0.0000E+00  0.0000E+00  0.0000E+00  0.0000E+00  0.0000E+00  0.0000E+00
    -35.156  0.0000E+00  0.0000E+00  0.0000E+00  0.0000E+00  0.0000E+00  0.0000E+00  0.0000E+00  0.0000E+00  0.0000E+00
    -34.874  0.0000E+00  0.0000E+00  0.0000E+00  0.0000E+00  0.0000E+00  0.0000E+00  0.0000E+00  0.0000E+00  0.0000E+00
    -34.592  0.0000E+00  0.0000E+00  0.0000E+00  0.0000E+00  0.0000E+00  0.0000E+00  0.0000E+00  0.0000E+00  0.0000E+00
    -34.310  0.0000E+00  0.0000E+00  0.0000E+00  0.0000E+00  0.0000E+00  0.0000E+00  0.0000E+00  0.0000E+00  0.0000E+00
    -34.028  0.0000E+00  0.0000E+00  0.0000E+00  0.0000E+00  0.0000E+00  0.0000E+00  0.0000E+00  0.0000E+00  0.0000E+00
    -33.746  0.0000E+00  0.0000E+00  0.0000E+00  0.0000E+00  0.0000E+00  0.0000E+00  0.0000E+00  0.0000E+00  0.0000E+00
    -33.464  0.0000E+00  0.0000E+00  0.0000E+00  0.0000E+00  0.0000E+00  0.0000E+00  0.0000E+00  0.0000E+00  0.0000E+00
    -33.181  0.0000E+00  0.0000E+00  0.0000E+00  0.0000E+00  0.0000E+00  0.0000E+00  0.0000E+00  0.0000E+00  0.0000E+00
    -32.899  0.0000E+00  0.0000E+00  0.0000E+00  0.0000E+00  0.0000E+00  0.0000E+00  0.0000E+00  0.0000E+00  0.0000E+00
    -32.617  0.0000E+00  0.0000E+00  0.0000E+00  0.0000E+00  0.0000E+00  0.0000E+00  0.0000E+00  0.0000E+00  0.0000E+00
    -32.335  0.0000E+00  0.0000E+00  0.0000E+00  0.0000E+00  0.0000E+00  0.0000E+00  0.0000E+00  0.0000E+00  0.0000E+00
    -32.053  0.0000E+00  0.0000E+00  0.0000E+00  0.0000E+00  0.0000E+00  0.0000E+00  0.0000E+00  0.0000E+00  0.0000E+00
    -31.771  0.0000E+00  0.0000E+00  0.0000E+00  0.0000E+00  0.0000E+00  0.0000E+00  0.0000E+00  0.0000E+00  0.0000E+00
    -31.489  0.0000E+00  0.0000E+00  0.0000E+00  0.0000E+00  0.0000E+00  0.0000E+00  0.0000E+00  0.0000E+00  0.0000E+00
    -31.207  0.0000E+00  0.0000E+00  0.0000E+00  0.0000E+00  0.0000E+00  0.0000E+00  0.0000E+00  0.0000E+00  0.0000E+00
    -30.924  0.0000E+00  0.0000E+00  0.0000E+00  0.0000E+00  0.0000E+00  0.0000E+00  0.0000E+00  0.0000E+00  0.0000E+00
    -30.642  0.0000E+00  0.0000E+00  0.0000E+00  0.0000E+00  0.0000E+00  0.0000E+00  0.0000E+00  0.0000E+00  0.0000E+00
    -30.360  0.0000E+00  0.0000E+00  0.0000E+00  0.0000E+00  0.0000E+00  0.0000E+00  0.0000E+00  0.0000E+00  0.0000E+00
    -30.078  0.0000E+00  0.0000E+00  0.0000E+00  0.0000E+00  0.0000E+00  0.0000E+00  0.0000E+00  0.0000E+00  0.0000E+00
    -29.796  0.0000E+00  0.0000E+00  0.0000E+00  0.0000E+00  0.0000E+00  0.0000E+00  0.0000E+00  0.0000E+00  0.0000E+00
    -29.514  0.0000E+00  0.0000E+00  0.0000E+00  0.0000E+00  0.0000E+00  0.0000E+00  0.0000E+00  0.0000E+00  0.0000E+00
    -29.232  0.0000E+00  0.0000E+00  0.0000E+00  0.0000E+00  0.0000E+00  0.0000E+00  0.0000E+00  0.0000E+00  0.0000E+00
    -28.950  0.0000E+00  0.0000E+00  0.0000E+00  0.0000E+00  0.0000E+00  0.0000E+00  0.0000E+00  0.0000E+00  0.0000E+00
    -28.667  0.0000E+00  0.0000E+00  0.0000E+00  0.0000E+00  0.0000E+00  0.0000E+00  0.0000E+00  0.0000E+00  0.0000E+00
    -28.385  0.0000E+00  0.0000E+00  0.0000E+00  0.0000E+00  0.0000E+00  0.0000E+00  0.0000E+00  0.0000E+00  0.0000E+00
    -28.103  0.0000E+00  0.0000E+00  0.0000E+00  0.0000E+00  0.0000E+00  0.0000E+00  0.0000E+00  0.0000E+00  0.0000E+00
    -27.821  0.0000E+00  0.0000E+00  0.0000E+00  0.0000E+00  0.0000E+00  0.0000E+00  0.0000E+00  0.0000E+00  0.0000E+00
    -27.539  0.0000E+00  0.0000E+00  0.0000E+00  0.0000E+00  0.0000E+00  0.0000E+00  0.0000E+00  0.0000E+00  0.0000E+00
    -27.257  0.0000E+00  0.0000E+00  0.0000E+00  0.0000E+00  0.0000E+00  0.0000E+00  0.0000E+00  0.0000E+00  0.0000E+00
    -26.975  0.0000E+00  0.0000E+00  0.0000E+00  0.0000E+00  0.0000E+00  0.0000E+00  0.0000E+00  0.0000E+00  0.0000E+00
    -26.692  0.0000E+00  0.0000E+00  0.0000E+00  0.0000E+00  0.0000E+00  0.0000E+00  0.0000E+00  0.0000E+00  0.0000E+00
    -26.410  0.0000E+00  0.0000E+00  0.0000E+00  0.0000E+00  0.0000E+00  0.0000E+00  0.0000E+00  0.0000E+00  0.0000E+00
    -26.128  0.0000E+00  0.0000E+00  0.0000E+00  0.0000E+00  0.0000E+00  0.0000E+00  0.0000E+00  0.0000E+00  0.0000E+00
    -25.846  0.0000E+00  0.0000E+00  0.0000E+00  0.0000E+00  0.0000E+00  0.0000E+00  0.0000E+00  0.0000E+00  0.0000E+00
    -25.564  0.0000E+00  0.0000E+00  0.0000E+00  0.0000E+00  0.0000E+00  0.0000E+00  0.0000E+00  0.0000E+00  0.0000E+00
    -25.282  0.0000E+00  0.0000E+00  0.0000E+00  0.0000E+00  0.0000E+00  0.0000E+00  0.0000E+00  0.0000E+00  0.0000E+00
    -25.000  0.0000E+00  0.0000E+00  0.0000E+00  0.0000E+00  0.0000E+00  0.0000E+00  0.0000E+00  0.0000E+00  0.0000E+00
    -24.718  0.0000E+00  0.0000E+00  0.0000E+00  0.0000E+00  0.0000E+00  0.0000E+00  0.0000E+00  0.0000E+00  0.0000E+00
    -24.435  0.0000E+00  0.0000E+00  0.0000E+00  0.0000E+00  0.0000E+00  0.0000E+00  0.0000E+00  0.0000E+00  0.0000E+00
    -24.153  0.0000E+00  0.0000E+00  0.0000E+00  0.0000E+00  0.0000E+00  0.0000E+00  0.0000E+00  0.0000E+00  0.0000E+00
    -23.871  0.0000E+00  0.0000E+00  0.0000E+00  0.0000E+00  0.0000E+00  0.0000E+00  0.0000E+00  0.0000E+00  0.0000E+00
    -23.589  0.0000E+00  0.0000E+00  0.0000E+00  0.0000E+00  0.0000E+00  0.0000E+00  0.0000E+00  0.0000E+00  0.0000E+00
    -23.307  0.0000E+00  0.0000E+00  0.0000E+00  0.0000E+00  0.0000E+00  0.0000E+00  0.0000E+00  0.0000E+00  0.0000E+00
    -23.025  0.0000E+00  0.0000E+00  0.0000E+00  0.0000E+00  0.0000E+00  0.0000E+00  0.0000E+00  0.0000E+00  0.0000E+00
    -22.743  0.0000E+00  0.0000E+00  0.0000E+00  0.0000E+00  0.0000E+00  0.0000E+00  0.0000E+00  0.0000E+00  0.0000E+00
    -22.460  0.0000E+00  0.0000E+00  0.0000E+00  0.0000E+00  0.0000E+00  0.0000E+00  0.0000E+00  0.0000E+00  0.0000E+00
    -22.178  0.0000E+00  0.0000E+00  0.0000E+00  0.0000E+00  0.0000E+00  0.0000E+00  0.0000E+00  0.0000E+00  0.0000E+00
    -21.896  0.0000E+00  0.0000E+00  0.0000E+00  0.0000E+00  0.0000E+00  0.0000E+00  0.0000E+00  0.0000E+00  0.0000E+00
    -21.614  0.0000E+00  0.0000E+00  0.0000E+00  0.0000E+00  0.0000E+00  0.0000E+00  0.0000E+00  0.0000E+00  0.0000E+00
    -21.332  0.0000E+00  0.0000E+00  0.0000E+00  0.0000E+00  0.0000E+00  0.0000E+00  0.0000E+00  0.0000E+00  0.0000E+00
    -21.050  0.0000E+00  0.0000E+00  0.0000E+00  0.0000E+00  0.0000E+00  0.0000E+00  0.0000E+00  0.0000E+00  0.0000E+00
    -20.768  0.0000E+00  0.0000E+00  0.0000E+00  0.0000E+00  0.0000E+00  0.0000E+00  0.0000E+00  0.0000E+00  0.0000E+00
    -20.486  0.0000E+00  0.0000E+00  0.0000E+00  0.0000E+00  0.0000E+00  0.0000E+00  0.0000E+00  0.0000E+00  0.0000E+00
    -20.203  0.0000E+00  0.0000E+00  0.0000E+00  0.0000E+00  0.0000E+00  0.0000E+00  0.0000E+00  0.0000E+00  0.0000E+00
    -19.921  0.0000E+00  0.0000E+00  0.0000E+00  0.0000E+00  0.0000E+00  0.0000E+00  0.0000E+00  0.0000E+00  0.0000E+00
    -19.639  0.0000E+00  0.0000E+00  0.0000E+00  0.0000E+00  0.0000E+00  0.0000E+00  0.0000E+00  0.0000E+00  0.0000E+00
    -19.357  0.0000E+00  0.0000E+00  0.0000E+00  0.0000E+00  0.0000E+00  0.0000E+00  0.0000E+00  0.0000E+00  0.0000E+00
    -19.075  0.0000E+00  0.0000E+00  0.0000E+00  0.0000E+00  0.0000E+00  0.0000E+00  0.0000E+00  0.0000E+00  0.0000E+00
    -18.793  0.0000E+00  0.0000E+00  0.0000E+00  0.0000E+00  0.0000E+00  0.0000E+00  0.0000E+00  0.0000E+00  0.0000E+00
    -18.511  0.0000E+00  0.0000E+00  0.0000E+00  0.0000E+00  0.0000E+00  0.0000E+00  0.0000E+00  0.0000E+00  0.0000E+00
    -18.228  0.0000E+00  0.0000E+00  0.0000E+00  0.0000E+00  0.0000E+00  0.0000E+00  0.0000E+00  0.0000E+00  0.0000E+00
    -17.946  0.0000E+00  0.0000E+00  0.0000E+00  0.0000E+00  0.0000E+00  0.0000E+00  0.0000E+00  0.0000E+00  0.0000E+00
    -17.664  0.0000E+00  0.0000E+00  0.0000E+00  0.0000E+00  0.0000E+00  0.0000E+00  0.0000E+00  0.0000E+00  0.0000E+00
    -17.382  0.0000E+00  0.0000E+00  0.0000E+00  0.0000E+00  0.0000E+00  0.0000E+00  0.0000E+00  0.0000E+00  0.0000E+00
    -17.100  0.0000E+00  0.0000E+00  0.0000E+00  0.0000E+00  0.0000E+00  0.0000E+00  0.0000E+00  0.0000E+00  0.0000E+00
    -16.818  0.0000E+00  0.0000E+00  0.0000E+00  0.0000E+00  0.0000E+00  0.0000E+00  0.0000E+00  0.0000E+00  0.0000E+00
    -16.536  0.0000E+00  0.0000E+00  0.0000E+00  0.0000E+00  0.0000E+00  0.0000E+00  0.0000E+00  0.0000E+00  0.0000E+00
    -16.254  0.0000E+00  0.0000E+00  0.0000E+00  0.0000E+00  0.0000E+00  0.0000E+00  0.0000E+00  0.0000E+00  0.0000E+00
    -15.971  0.0000E+00  0.0000E+00  0.0000E+00  0.0000E+00  0.0000E+00  0.0000E+00  0.0000E+00  0.0000E+00  0.0000E+00
    -15.689  0.0000E+00  0.0000E+00  0.0000E+00  0.0000E+00  0.0000E+00  0.0000E+00  0.0000E+00  0.0000E+00  0.0000E+00
    -15.407  0.0000E+00  0.0000E+00  0.0000E+00  0.0000E+00  0.0000E+00  0.0000E+00  0.0000E+00  0.0000E+00  0.0000E+00
    -15.125  0.0000E+00  0.0000E+00  0.0000E+00  0.0000E+00  0.0000E+00  0.0000E+00  0.0000E+00  0.0000E+00  0.0000E+00
    -14.843  0.0000E+00  0.0000E+00  0.0000E+00  0.0000E+00  0.0000E+00  0.0000E+00  0.0000E+00  0.0000E+00  0.0000E+00
    -14.561  0.0000E+00  0.0000E+00  0.0000E+00  0.0000E+00  0.0000E+00  0.0000E+00  0.0000E+00  0.0000E+00  0.0000E+00
    -14.279  0.0000E+00  0.0000E+00  0.0000E+00  0.0000E+00  0.0000E+00  0.0000E+00  0.0000E+00  0.0000E+00  0.0000E+00
    -13.996  0.0000E+00  0.0000E+00  0.0000E+00  0.0000E+00  0.0000E+00  0.0000E+00  0.0000E+00  0.0000E+00  0.0000E+00
    -13.714  0.0000E+00  0.0000E+00  0.0000E+00  0.0000E+00  0.0000E+00  0.0000E+00  0.0000E+00  0.0000E+00  0.0000E+00
    -13.432  0.0000E+00  0.0000E+00  0.0000E+00  0.0000E+00  0.0000E+00  0.0000E+00  0.0000E+00  0.0000E+00  0.0000E+00
    -13.150  0.0000E+00  0.0000E+00  0.0000E+00  0.0000E+00  0.0000E+00  0.0000E+00  0.0000E+00  0.0000E+00  0.0000E+00
    -12.868  0.0000E+00  0.0000E+00  0.0000E+00  0.0000E+00  0.0000E+00  0.0000E+00  0.0000E+00  0.0000E+00  0.0000E+00
    -12.586  0.0000E+00  0.0000E+00  0.0000E+00  0.0000E+00  0.0000E+00  0.0000E+00  0.0000E+00  0.0000E+00  0.0000E+00
    -12.304  0.0000E+00  0.0000E+00  0.0000E+00  0.0000E+00  0.0000E+00  0.0000E+00  0.0000E+00  0.0000E+00  0.0000E+00
    -12.022  0.0000E+00  0.0000E+00  0.0000E+00  0.0000E+00  0.0000E+00  0.0000E+00  0.0000E+00  0.0000E+00  0.0000E+00
    -11.739  0.0000E+00  0.0000E+00  0.0000E+00  0.0000E+00  0.0000E+00  0.0000E+00  0.0000E+00  0.0000E+00  0.0000E+00
    -11.457  0.0000E+00  0.0000E+00  0.0000E+00  0.0000E+00  0.0000E+00  0.0000E+00  0.0000E+00  0.0000E+00  0.0000E+00
    -11.175  0.0000E+00  0.0000E+00  0.0000E+00  0.0000E+00  0.0000E+00  0.0000E+00  0.0000E+00  0.0000E+00  0.0000E+00
    -10.893  0.0000E+00  0.0000E+00  0.0000E+00  0.0000E+00  0.0000E+00  0.0000E+00  0.0000E+00  0.0000E+00  0.0000E+00
    -10.611  0.0000E+00  0.0000E+00  0.0000E+00  0.0000E+00  0.0000E+00  0.0000E+00  0.0000E+00  0.0000E+00  0.0000E+00
    -10.329  0.0000E+00  0.0000E+00  0.0000E+00  0.0000E+00  0.0000E+00  0.0000E+00  0.0000E+00  0.0000E+00  0.0000E+00
    -10.047  0.0000E+00  0.0000E+00  0.0000E+00  0.0000E+00  0.0000E+00  0.0000E+00  0.0000E+00  0.0000E+00  0.0000E+00
     -9.765  0.0000E+00  0.0000E+00  0.0000E+00  0.0000E+00  0.0000E+00  0.0000E+00  0.0000E+00  0.0000E+00  0.0000E+00
     -9.482  0.0000E+00  0.0000E+00  0.0000E+00  0.0000E+00  0.0000E+00  0.0000E+00  0.0000E+00  0.0000E+00  0.0000E+00
     -9.200  0.0000E+00  0.0000E+00  0.0000E+00  0.0000E+00  0.0000E+00  0.0000E+00  0.0000E+00  0.0000E+00  0.0000E+00
     -8.918  0.0000E+00  0.0000E+00  0.0000E+00  0.0000E+00  0.0000E+00  0.0000E+00  0.0000E+00  0.0000E+00  0.0000E+00
     -8.636  0.0000E+00  0.0000E+00  0.0000E+00  0.0000E+00  0.0000E+00  0.0000E+00  0.0000E+00  0.0000E+00  0.0000E+00
     -8.354  0.0000E+00  0.0000E+00  0.0000E+00  0.0000E+00  0.0000E+00  0.0000E+00  0.0000E+00  0.0000E+00  0.0000E+00
     -8.072  0.0000E+00  0.0000E+00  0.0000E+00  0.0000E+00  0.0000E+00  0.0000E+00  0.0000E+00  0.0000E+00  0.0000E+00
     -7.790  0.0000E+00  0.0000E+00  0.0000E+00  0.0000E+00  0.0000E+00  0.0000E+00  0.0000E+00  0.0000E+00  0.0000E+00
     -7.507  0.0000E+00  0.0000E+00  0.0000E+00  0.0000E+00  0.0000E+00  0.0000E+00  0.0000E+00  0.0000E+00  0.0000E+00
     -7.225  0.0000E+00  0.0000E+00  0.0000E+00  0.0000E+00  0.0000E+00  0.0000E+00  0.0000E+00  0.0000E+00  0.0000E+00
     -6.943  0.0000E+00  0.0000E+00  0.0000E+00  0.0000E+00  0.0000E+00  0.0000E+00  0.0000E+00  0.0000E+00  0.0000E+00
     -6.661  0.0000E+00  0.0000E+00  0.0000E+00  0.0000E+00  0.0000E+00  0.0000E+00  0.0000E+00  0.0000E+00  0.0000E+00
     -6.379  0.0000E+00  0.0000E+00  0.0000E+00  0.0000E+00  0.0000E+00  0.0000E+00  0.0000E+00  0.0000E+00  0.0000E+00
     -6.097  0.0000E+00  0.0000E+00  0.0000E+00  0.0000E+00  0.0000E+00  0.0000E+00  0.0000E+00  0.0000E+00  0.0000E+00
     -5.815  0.0000E+00  0.0000E+00  0.0000E+00  0.0000E+00  0.0000E+00  0.0000E+00  0.0000E+00  0.0000E+00  0.0000E+00
     -5.533  0.0000E+00  0.0000E+00  0.0000E+00  0.0000E+00  0.0000E+00  0.0000E+00  0.0000E+00  0.0000E+00  0.0000E+00
     -5.250  0.0000E+00  0.0000E+00  0.0000E+00  0.0000E+00  0.0000E+00  0.0000E+00  0.0000E+00  0.0000E+00  0.0000E+00
     -4.968  0.0000E+00  0.0000E+00  0.0000E+00  0.0000E+00  0.0000E+00  0.0000E+00  0.0000E+00  0.0000E+00  0.0000E+00
     -4.686  0.0000E+00  0.0000E+00  0.0000E+00  0.0000E+00  0.0000E+00  0.0000E+00  0.0000E+00  0.0000E+00  0.0000E+00
     -4.404  0.0000E+00  0.0000E+00  0.0000E+00  0.0000E+00  0.0000E+00  0.0000E+00  0.0000E+00  0.0000E+00  0.0000E+00
     -4.122  0.0000E+00  0.0000E+00  0.0000E+00  0.0000E+00  0.0000E+00  0.0000E+00  0.0000E+00  0.0000E+00  0.0000E+00
     -3.840  0.0000E+00  0.0000E+00  0.0000E+00  0.0000E+00  0.0000E+00  0.0000E+00  0.0000E+00  0.0000E+00  0.0000E+00
     -3.558  0.0000E+00  0.0000E+00  0.0000E+00  0.0000E+00  0.0000E+00  0.0000E+00  0.0000E+00  0.0000E+00  0.0000E+00
     -3.275  0.0000E+00  0.0000E+00  0.0000E+00  0.0000E+00  0.0000E+00  0.0000E+00  0.0000E+00  0.0000E+00  0.0000E+00
     -2.993  0.0000E+00  0.0000E+00  0.0000E+00  0.0000E+00  0.0000E+00  0.0000E+00  0.0000E+00  0.0000E+00  0.0000E+00
     -2.711  0.0000E+00  0.0000E+00  0.0000E+00  0.0000E+00  0.0000E+00  0.0000E+00  0.0000E+00  0.0000E+00  0.0000E+00
     -2.429  0.0000E+00  0.0000E+00  0.0000E+00  0.0000E+00  0.0000E+00  0.0000E+00  0.0000E+00  0.0000E+00  0.0000E+00
     -2.147  0.0000E+00  0.0000E+00  0.0000E+00  0.0000E+00  0.0000E+00  0.0000E+00  0.0000E+00  0.0000E+00  0.0000E+00
     -1.865  0.0000E+00  0.0000E+00  0.0000E+00  0.0000E+00  0.0000E+00  0.0000E+00  0.0000E+00  0.0000E+00  0.0000E+00
     -1.583  0.0000E+00  0.0000E+00  0.0000E+00  0.0000E+00  0.0000E+00  0.0000E+00  0.0000E+00  0.0000E+00  0.0000E+00
     -1.301  0.0000E+00  0.0000E+00  0.0000E+00  0.0000E+00  0.0000E+00  0.0000E+00  0.0000E+00  0.0000E+00  0.0000E+00
     -1.018  0.0000E+00  0.0000E+00  0.0000E+00  0.0000E+00  0.0000E+00  0.0000E+00  0.0000E+00  0.0000E+00  0.0000E+00
     -0.736  0.0000E+00  0.0000E+00  0.0000E+00  0.0000E+00  0.0000E+00  0.0000E+00  0.0000E+00  0.0000E+00  0.0000E+00
     -0.454  0.0000E+00  0.0000E+00  0.0000E+00  0.0000E+00  0.0000E+00  0.0000E+00  0.0000E+00  0.0000E+00  0.0000E+00
     -0.172  0.0000E+00  0.0000E+00  0.0000E+00  0.0000E+00  0.0000E+00  0.0000E+00  0.0000E+00  0.0000E+00  0.0000E+00
      0.110  0.0000E+00  0.0000E+00  0.0000E+00  0.0000E+00  0.0000E+00  0.0000E+00  0.0000E+00  0.0000E+00  0.0000E+00
      0.392  0.0000E+00  0.0000E+00  0.0000E+00  0.0000E+00  0.0000E+00  0.0000E+00  0.0000E+00  0.0000E+00  0.0000E+00
      0.674  0.0000E+00  0.0000E+00  0.0000E+00  0.0000E+00  0.0000E+00  0.0000E+00  0.0000E+00  0.0000E+00  0.0000E+00
      0.957  0.0000E+00  0.0000E+00  0.0000E+00  0.0000E+00  0.0000E+00  0.0000E+00  0.0000E+00  0.0000E+00  0.0000E+00
      1.239  0.0000E+00  0.0000E+00  0.0000E+00  0.0000E+00  0.0000E+00  0.0000E+00  0.0000E+00  0.0000E+00  0.0000E+00
      1.521  0.0000E+00  0.0000E+00  0.0000E+00  0.0000E+00  0.0000E+00  0.0000E+00  0.0000E+00  0.0000E+00  0.0000E+00