    2    2  100    1
  0.1300041E+02  0.2587794E-09  0.2587794E-09  0.4483292E-09  0.5000000E-15
  1.000000000000000E-004
  CAR 
 Pt-hcc                                  
     32     70     24
 
  0.0000000E+00  0.0000000E+00  0.0000000E+00  0.1250000E-02
      1        -38.392005   1.000000
      2        -37.867743   1.000000
      3        -37.867742   1.000000
      4        -37.786826   1.000000
      5        -37.786825   1.000000
      6        -37.701395   1.000000
      7          3.228568   1.000000
      8          6.005318   1.000000
      9          9.836764   1.000000
     10         10.525116   1.000000
     11         10.525117   1.000000
     12         11.043380   1.000000
     13         11.043381   1.000000
     14         12.709097   1.000000
     15         12.709098   1.000000
     16         13.617927   1.000000
     17         14.905589   1.000000
     18         14.905589   1.000000
     19         21.340230   0.000000
     20         29.773320   0.000000
     21         30.669386   0.000000
     22         32.343402   0.000000
     23         38.299629   0.000000
     24         38.300575   0.000000
 
  0.1000000E+00  0.6938894E-17  0.0000000E+00  0.7500000E-02
      1        -38.368269   1.000000
      2        -37.942899   1.000000
      3        -37.889551   1.000000
      4        -37.863580   1.000000
      5        -37.801487   1.000000
      6        -37.706956   1.000000
      7          3.668373   1.000000
      8          6.411019   1.000000
      9          9.743216   1.000000
     10         10.528150   1.000000
     11         10.829090   1.000000
     12         10.891072   1.000000
     13         11.393184   1.000000
     14         11.808890   1.000000
     15         12.463864   1.000000
     16         12.589854   1.000000
     17         15.005529   1.000000
     18         16.836294   0.000000
     19         21.271524   0.000000
     20         30.552633   0.000000
     21         31.319200   0.000000
     22         33.106790   0.000000
     23         35.625199   0.000000
     24         36.359261   0.000000
 
  0.2000000E+00  0.1387779E-16  0.0000000E+00  0.7500000E-02
      1        -38.299541   1.000000
      2        -38.136215   1.000000
      3        -38.058692   1.000000
      4        -37.944026   1.000000
      5        -37.840473   1.000000
      6        -37.725023   1.000000
      7          4.836455   1.000000
      8          7.258467   1.000000
      9          9.446587   1.000000
     10         10.020726   1.000000
     11         10.155836   1.000000
     12         11.372503   1.000000
     13         11.921966   1.000000
     14         11.930933   1.000000
     15         11.936510   1.000000
     16         12.384417   1.000000
     17         15.164624   0.907461
     18         19.438288   0.000000
     19         21.085065   0.000000
     20         30.733591   0.000000
     21         31.977849   0.000000
     22         34.032153   0.000000
     23         34.036332   0.000000
     24         34.050289   0.000000
 
  0.3000000E+00  0.2775558E-16  0.0000000E+00  0.7500000E-02
      1        -38.374410   1.000000
      2        -38.291195   1.000000
      3        -38.203940   1.000000
      4        -38.010009   1.000000
      5        -37.889272   1.000000
      6        -37.758612   1.000000
      7          6.148406   1.000000
      8          7.281075   1.000000
      9          8.623688   1.000000
     10          9.825436   1.000000
     11         10.327661   1.000000
     12         11.238149   1.000000
     13         11.393029   1.000000
     14         12.934742   1.000000
     15         13.463021   1.000000
     16         13.812245   1.000000
     17         15.250233   0.136514
     18         21.016761   0.000000
     19         22.002527   0.000000
     20         27.139005   0.000000
     21         30.403562   0.000000
     22         31.277943   0.000000
     23         34.549050   0.000000
     24         34.571914   0.000000
 
  0.4000000E+00 -0.2775558E-16  0.0000000E+00  0.7500000E-02
      1        -38.563579   1.000000
      2        -38.473289   1.000000
      3        -38.106540   1.000000
      4        -38.061619   1.000000
      5        -37.929479   1.000000
      6        -37.804693   1.000000
      7          6.653721   1.000000
      8          6.908697   1.000000
      9          7.747433   1.000000
     10         10.529241   1.000000
     11         10.748231   1.000000
     12         11.015865   1.000000
     13         11.363615   1.000000
     14         14.991558   1.000000
     15         15.254582   0.111400
     16         15.270245   0.048243
     17         15.403931   0.000000
     18         21.586575   0.000000
     19         23.293148   0.000000
     20         24.133917   0.000000
     21         28.932145   0.000000
     22         29.171130   0.000000
     23         29.782104   0.000000
     24         33.573235   0.000000
 
  0.5000000E+00 -0.2775558E-16  0.0000000E+00  0.3750000E-02
      1        -38.635267   1.000000
      2        -38.541438   1.000000
      3        -38.080469   1.000000
      4        -38.057497   1.000000
      5        -37.945008   1.000000
      6        -37.833847   1.000000
      7          6.563639   1.000000
      8          6.863203   1.000000
      9          7.448985   1.000000
     10         10.572649   1.000000
     11         10.881532   1.000000
     12         11.215485   1.000000
     13         11.576266   1.000000
     14         15.270170   0.048454
     15         15.660022   0.000000
     16         15.951109   0.000000
     17         17.939644   0.000000
     18         19.708651   0.000000
     19         23.609318   0.000000
     20         25.071124   0.000000
     21         26.604963   0.000000
     22         27.917007   0.000000
     23         28.699479   0.000000
     24         32.988870   0.000000
 
  0.1000000E+00  0.1000000E+00  0.0000000E+00  0.7500000E-02
      1        -38.321617   1.000000
      2        -38.063000   1.000000
      3        -38.014270   1.000000
      4        -37.915212   1.000000
      5        -37.839330   1.000000
      6        -37.718754   1.000000
      7          4.485940   1.000000
      8          7.110201   1.000000
      9          9.371854   1.000000
     10         10.426391   1.000000
     11         10.551759   1.000000
     12         10.818765   1.000000
     13         11.630354   1.000000
     14         11.672793   1.000000
     15         12.183796   1.000000
     16         12.530581   1.000000
     17         15.041836   0.999999
     18         18.768006   0.000000
     19         21.145932   0.000000
     20         31.417352   0.000000
     21         32.404896   0.000000
     22         33.133865   0.000000
     23         33.688976   0.000000
     24         35.265581   0.000000
 
  0.2000000E+00  0.1000000E+00  0.0000000E+00  0.1500000E-01
      1        -38.263178   1.000000
      2        -38.239198   1.000000
      3        -38.211723   1.000000
      4        -37.991805   1.000000
      5        -37.898396   1.000000
      6        -37.744939   1.000000
      7          5.838876   1.000000
      8          7.775829   1.000000
      9          9.166245   1.000000
     10          9.172366   1.000000
     11         10.080899   1.000000
     12         10.950451   1.000000
     13         11.648203   1.000000
     14         12.030574   1.000000
     15         13.099289   1.000000
     16         13.681385   1.000000
     17         15.050543   0.999997
     18         21.046444   0.000000
     19         21.241841   0.000000
     20         29.072606   0.000000
     21         30.866684   0.000000
     22         31.613614   0.000000
     23         34.067775   0.000000
     24         35.698437   0.000000
 
  0.3000000E+00  0.1000000E+00  0.0000000E+00  0.1500000E-01
      1        -38.469645   1.000000
      2        -38.394003   1.000000
      3        -38.140124   1.000000
      4        -38.070552   1.000000
      5        -37.954312   1.000000
      6        -37.786899   1.000000
      7          6.910249   1.000000
      8          7.391913   1.000000
      9          8.134267   1.000000
     10          9.869693   1.000000
     11         10.560298   1.000000
     12         10.686423   1.000000
     13         11.362351   1.000000
     14         13.143761   1.000000
     15         14.593848   1.000000
     16         15.036764   1.000000
     17         15.609880   0.000000
     18         21.517004   0.000000
     19         23.661921   0.000000
     20         24.998020   0.000000
     21         28.416903   0.000000
     22         30.168247   0.000000
     23         32.530496   0.000000
     24         33.879187   0.000000
 
  0.4000000E+00  0.1000000E+00  0.0000000E+00  0.1500000E-01
      1        -38.595721   1.000000
      2        -38.504979   1.000000
      3        -38.118521   1.000000
      4        -38.058433   1.000000
      5        -37.988406   1.000000
      6        -37.833066   1.000000
      7          6.962413   1.000000
      8          7.213536   1.000000
      9          7.587707   1.000000
     10         10.500321   1.000000
     11         10.816042   1.000000
     12         10.890036   1.000000
     13         11.323981   1.000000
     14         14.850337   1.000000
     15         15.013607   1.000000
     16         15.393790   0.000000
     17         17.728856   0.000000
     18         21.173634   0.000000
     19         23.308640   0.000000
     20         25.408885   0.000000
     21         26.142780   0.000000
     22         28.907755   0.000000
     23         29.348678   0.000000
     24         32.872105   0.000000
 
  0.2000000E+00  0.2000000E+00  0.0000000E+00  0.7500000E-02
      1        -38.381341   1.000000
      2        -38.374723   1.000000
      3        -38.152200   1.000000
      4        -38.081356   1.000000
      5        -38.000017   1.000000
      6        -37.780813   1.000000
      7          7.215103   1.000000
      8          8.403669   1.000000
      9          8.522167   1.000000
     10          8.566380   1.000000
     11         10.290996   1.000000
     12         10.392181   1.000000
     13         11.622788   1.000000
     14         12.127635   1.000000
     15         14.565568   1.000000
     16         14.790380   1.000000
     17         15.714816   0.000000
     18         21.570129   0.000000
     19         23.605213   0.000000
     20         26.418706   0.000000
     21         27.218717   0.000000
     22         31.185163   0.000000
     23         33.783446   0.000000
     24         33.965514   0.000000
 
  0.3000000E+00  0.2000000E+00  0.0000000E+00  0.1500000E-01
      1        -38.503460   1.000000
      2        -38.440858   1.000000
      3        -38.185725   1.000000
      4        -38.085360   1.000000
      5        -38.059875   1.000000
      6        -37.831628   1.000000
      7          7.866651   1.000000
      8          7.944926   1.000000
      9          8.078241   1.000000
     10          9.615828   1.000000
     11         10.107445   1.000000
     12         10.960259   1.000000
     13         11.103734   1.000000
     14         13.210960   1.000000
     15         14.594018   1.000000
     16         15.185142   0.771846
     17         17.865940   0.000000
     18         22.568139   0.000000
     19         23.517435   0.000000
     20         24.897831   0.000000
     21         25.956561   0.000000
     22         30.671433   0.000000
     23         30.867657   0.000000
     24         32.659774   0.000000
 
  0.4000000E+00  0.2000000E+00  0.0000000E+00  0.7500000E-02
      1        -38.548628   1.000000
      2        -38.458035   1.000000
      3        -38.236428   1.000000
      4        -38.117142   1.000000
      5        -38.007881   1.000000
      6        -37.868253   1.000000
      7          7.673588   1.000000
      8          7.847922   1.000000
      9          8.068034   1.000000
     10         10.294865   1.000000
     11         10.346181   1.000000
     12         10.456618   1.000000
     13         11.451473   1.000000
     14         14.261525   1.000000
     15         14.521851   1.000000
     16         14.927176   1.000000
     17         19.537197   0.000000
     18         20.340398   0.000000
     19         23.458909   0.000000
     20         25.653185   0.000000
     21         27.214589   0.000000
     22         28.721003   0.000000
     23         30.394075   0.000000
     24         31.843965   0.000000
 
  0.3000000E+00  0.3000000E+00  0.0000000E+00  0.7500000E-02
      1        -38.475819   1.000000
      2        -38.406683   1.000000
      3        -38.312766   1.000000
      4        -38.225213   1.000000
      5        -37.978226   1.000000
      6        -37.891408   1.000000
      7          7.778305   1.000000
      8          8.579834   1.000000
      9          8.878399   1.000000
     10          9.455586   1.000000
     11         10.051863   1.000000
     12         10.419551   1.000000
     13         11.581060   1.000000
     14         13.705642   1.000000
     15         14.284823   1.000000
     16         14.696254   1.000000
     17         19.659046   0.000000
     18         20.851533   0.000000
     19         22.273333   0.000000
     20         26.832055   0.000000
     21         28.380369   0.000000
     22         29.842467   0.000000
     23         30.991450   0.000000
     24         31.015609   0.000000
 
  0.0000000E+00  0.0000000E+00  0.1250000E+00  0.2500000E-02
      1        -38.367810   1.000000
      2        -37.865082   1.000000
      3        -37.865081   1.000000
      4        -37.789911   1.000000
      5        -37.789910   1.000000
      6        -37.728688   1.000000
      7          3.392743   1.000000
      8          6.003565   1.000000
      9          9.788942   1.000000
     10         10.498286   1.000000
     11         10.498287   1.000000
     12         10.988295   1.000000
     13         10.988296   1.000000
     14         12.846684   1.000000
     15         12.846685   1.000000
     16         12.982863   1.000000
     17         14.872981   1.000000
     18         14.872981   1.000000
     19         22.214906   0.000000
     20         29.302993   0.000000
     21         31.373214   0.000000
     22         31.988689   0.000000
     23         36.923296   0.000000
     24         36.923296   0.000000
 
  0.1000000E+00  0.6938894E-17  0.1250000E+00  0.1500000E-01
      1        -38.344839   1.000000
      2        -37.938494   1.000000
      3        -37.886206   1.000000
      4        -37.870070   1.000000
      5        -37.804993   1.000000
      6        -37.729424   1.000000
      7          3.828402   1.000000
      8          6.417131   1.000000
      9          9.746820   1.000000
     10         10.404654   1.000000
     11         10.676567   1.000000
     12         10.851955   1.000000
     13         11.331586   1.000000
     14         11.748888   1.000000
     15         12.626823   1.000000
     16         12.641290   1.000000
     17         14.956303   1.000000
     18         16.327952   0.000000
     19         22.253750   0.000000
     20         30.077469   0.000000
     21         32.002217   0.000000
     22         32.698330   0.000000
     23         35.119084   0.000000
     24         36.316486   0.000000
 
  0.2000000E+00  0.1387779E-16  0.1250000E+00  0.1500000E-01
      1        -38.288496   1.000000
      2        -38.124232   1.000000
      3        -38.065992   1.000000
      4        -37.940186   1.000000
      5        -37.844261   1.000000
      6        -37.742075   1.000000
      7          4.971543   1.000000
      8          7.290119   1.000000
      9          9.486042   1.000000
     10          9.729550   1.000000
     11         10.127289   1.000000
     12         11.204277   1.000000
     13         11.700822   1.000000
     14         12.185794   1.000000
     15         12.236505   1.000000
     16         12.431885   1.000000
     17         15.080669   0.999892
     18         18.275430   0.000000
     19         22.494388   0.000000
     20         30.775687   0.000000
     21         31.885426   0.000000
     22         33.463436   0.000000
     23         34.174068   0.000000
     24         34.696451   0.000000
 
  0.3000000E+00  0.2775558E-16  0.1250000E+00  0.1500000E-01
      1        -38.384672   1.000000
      2        -38.301591   1.000000
      3        -38.171464   1.000000
      4        -38.005418   1.000000
      5        -37.893851   1.000000
      6        -37.769837   1.000000
      7          6.183327   1.000000
      8          7.328025   1.000000
      9          8.635286   1.000000
     10          9.568371   1.000000
     11         10.360741   1.000000
     12         11.417603   1.000000
     13         11.477456   1.000000
     14         13.000895   1.000000
     15         13.492391   1.000000
     16         13.741766   1.000000
     17         15.150115   0.958687
     18         19.644015   0.000000
     19         23.289525   0.000000
     20         27.482764   0.000000
     21         30.548320   0.000000
     22         31.578553   0.000000
     23         33.567115   0.000000
     24         35.203909   0.000000
 
  0.4000000E+00 -0.2775558E-16  0.1250000E+00  0.1500000E-01
      1        -38.568044   1.000000
      2        -38.483021   1.000000
      3        -38.086597   1.000000
      4        -38.056376   1.000000
      5        -37.934661   1.000000
      6        -37.809809   1.000000
      7          6.568932   1.000000
      8          6.866137   1.000000
      9          8.004204   1.000000
     10          9.642414   1.000000
     11         11.100261   1.000000
     12         11.130346   1.000000
     13         12.050455   1.000000
     14         14.882263   1.000000
     15         15.011855   1.000000
     16         15.290149   0.013037
     17         15.407730   0.000000
     18         20.592142   0.000000
     19         23.275588   0.000000
     20         25.094189   0.000000
     21         29.092225   0.000000
     22         29.294477   0.000000
     23         29.997159   0.000000
     24         33.674535   0.000000
 
  0.5000000E+00 -0.2775558E-16  0.1250000E+00  0.7500000E-02
      1        -38.638902   1.000000
      2        -38.551152   1.000000
      3        -38.075311   1.000000
      4        -38.041475   1.000000
      5        -37.950243   1.000000
      6        -37.835991   1.000000
      7          6.592658   1.000000
      8          6.607875   1.000000
      9          7.801731   1.000000
     10          9.710783   1.000000
     11         11.002867   1.000000
     12         11.299593   1.000000
     13         12.598604   1.000000
     14         15.006252   1.000000
     15         15.687989   0.000000
     16         15.941748   0.000000
     17         17.585383   0.000000
     18         19.532543   0.000000
     19         23.535980   0.000000
     20         24.464367   0.000000
     21         27.461933   0.000000
     22         28.302589   0.000000
     23         28.911094   0.000000
     24         33.203147   0.000000
 
  0.1000000E+00  0.1000000E+00  0.1250000E+00  0.1500000E-01
      1        -38.304219   1.000000
      2        -38.055160   1.000000
      3        -38.018728   1.000000
      4        -37.914924   1.000000
      5        -37.842735   1.000000
      6        -37.736904   1.000000
      7          4.632958   1.000000
      8          7.134148   1.000000
      9          9.415226   1.000000
     10         10.015902   1.000000
     11         10.498045   1.000000
     12         10.797688   1.000000
     13         11.575766   1.000000
     14         11.857681   1.000000
     15         12.276257   1.000000
     16         12.640608   1.000000
     17         14.972718   1.000000
     18         17.826461   0.000000
     19         22.400470   0.000000
     20         31.162863   0.000000
     21         32.698837   0.000000
     22         33.063206   0.000000
     23         33.279927   0.000000
     24         35.445882   0.000000
 
  0.2000000E+00  0.1000000E+00  0.1250000E+00  0.3000000E-01
      1        -38.291659   1.000000
      2        -38.224347   1.000000
      3        -38.183052   1.000000
      4        -37.989841   1.000000
      5        -37.902344   1.000000
      6        -37.757592   1.000000
      7          5.933897   1.000000
      8          7.832004   1.000000
      9          8.964488   1.000000
     10          9.258811   1.000000
     11         10.007151   1.000000
     12         10.862856   1.000000
     13         11.818870   1.000000
     14         12.021963   1.000000
     15         13.251418   1.000000
     16         13.605790   1.000000
     17         14.979074   1.000000
     18         19.351364   0.000000
     19         23.032770   0.000000
     20         29.271405   0.000000
     21         30.972748   0.000000
     22         31.784942   0.000000
     23         33.756751   0.000000
     24         36.136141   0.000000
 
  0.3000000E+00  0.1000000E+00  0.1250000E+00  0.3000000E-01
      1        -38.475270   1.000000
      2        -38.403597   1.000000
      3        -38.119144   1.000000
      4        -38.064650   1.000000
      5        -37.959186   1.000000
      6        -37.793331   1.000000
      7          6.835821   1.000000
      8          7.438839   1.000000
      9          8.277283   1.000000
     10          9.444213   1.000000
     11         10.611070   1.000000
     12         11.084078   1.000000
     13         11.391559   1.000000
     14         13.160196   1.000000
     15         14.662581   1.000000
     16         14.749965   1.000000
     17         15.707916   0.000000
     18         20.560243   0.000000
     19         23.926821   0.000000
     20         25.863087   0.000000
     21         28.631648   0.000000
     22         30.286551   0.000000
     23         32.224454   0.000000
     24         34.140531   0.000000
 
  0.4000000E+00  0.1000000E+00  0.1250000E+00  0.3000000E-01
      1        -38.598930   1.000000
      2        -38.514363   1.000000
      3        -38.118320   1.000000
      4        -38.038602   1.000000
      5        -37.994314   1.000000
      6        -37.833539   1.000000
      7          6.880107   1.000000
      8          7.034412   1.000000
      9          8.007234   1.000000
     10          9.640408   1.000000
     11         10.653733   1.000000
     12         11.460423   1.000000
     13         11.954136   1.000000
     14         14.697846   1.000000
     15         14.857700   1.000000
     16         15.457331   0.000000
     17         17.651182   0.000000
     18         20.831206   0.000000
     19         23.094656   0.000000
     20         25.425069   0.000000
     21         26.592071   0.000000
     22         29.105147   0.000000
     23         29.662738   0.000000
     24         32.995554   0.000000
 
  0.2000000E+00  0.2000000E+00  0.1250000E+00  0.1500000E-01
      1        -38.387191   1.000000
      2        -38.384534   1.000000
      3        -38.126376   1.000000
      4        -38.082272   1.000000
      5        -38.001978   1.000000
      6        -37.787311   1.000000
      7          7.227017   1.000000
      8          8.214940   1.000000
      9          8.582144   1.000000
     10          8.739666   1.000000
     11         10.303204   1.000000
     12         10.394715   1.000000
     13         11.461488   1.000000
     14         12.320634   1.000000
     15         14.475538   1.000000
     16         14.726211   1.000000
     17         15.825948   0.000000
     18         20.642030   0.000000
     19         24.190154   0.000000
     20         27.016428   0.000000
     21         27.434117   0.000000
     22         31.233763   0.000000
     23         33.069919   0.000000
     24         34.619387   0.000000
 
  0.3000000E+00  0.2000000E+00  0.1250000E+00  0.3000000E-01
      1        -38.506096   1.000000
      2        -38.449934   1.000000
      3        -38.188159   1.000000
      4        -38.096342   1.000000
      5        -38.034481   1.000000
      6        -37.831133   1.000000
      7          7.605293   1.000000
      8          8.061533   1.000000
      9          8.320538   1.000000
     10          9.279898   1.000000
     11         10.343909   1.000000
     12         10.847808   1.000000
     13         11.271634   1.000000
     14         13.288657   1.000000
     15         14.295003   1.000000
     16         15.340969   0.000125
     17         17.925183   0.000000
     18         22.568129   0.000000
     19         22.810259   0.000000
     20         25.043164   0.000000
     21         26.807350   0.000000
     22         30.322034   0.000000
     23         30.865299   0.000000
     24         32.935995   0.000000
 
  0.4000000E+00  0.2000000E+00  0.1250000E+00  0.1500000E-01
      1        -38.550454   1.000000
      2        -38.467462   1.000000
      3        -38.238027   1.000000
      4        -38.125206   1.000000
      5        -37.989928   1.000000
      6        -37.863668   1.000000
      7          7.458186   1.000000
      8          7.908562   1.000000
      9          8.427984   1.000000
     10          9.565162   1.000000
     11         10.121071   1.000000
     12         11.115646   1.000000
     13         11.664491   1.000000
     14         14.211423   1.000000
     15         14.296775   1.000000
     16         15.038683   0.999999
     17         19.610901   0.000000
     18         20.367743   0.000000
     19         23.718004   0.000000
     20         25.360076   0.000000
     21         26.372110   0.000000
     22         29.707481   0.000000
     23         30.496222   0.000000
     24         31.589825   0.000000
 
  0.3000000E+00  0.3000000E+00  0.1250000E+00  0.1500000E-01
      1        -38.473870   1.000000
      2        -38.416539   1.000000
      3        -38.318707   1.000000
      4        -38.233092   1.000000
      5        -37.962716   1.000000
      6        -37.884071   1.000000
      7          7.840314   1.000000
      8          8.538017   1.000000
      9          8.894222   1.000000
     10          9.260668   1.000000
     11         10.268661   1.000000
     12         10.303188   1.000000
     13         11.588922   1.000000
     14         13.829869   1.000000
     15         13.973368   1.000000
     16         14.834947   1.000000
     17         19.777825   0.000000
     18         21.010967   0.000000
     19         22.625811   0.000000
     20         25.882110   0.000000
     21         28.693951   0.000000
     22         28.758412   0.000000
     23         30.714639   0.000000
     24         32.015140   0.000000
 
  0.0000000E+00  0.0000000E+00  0.2500000E+00  0.2500000E-02
      1        -38.295112   1.000000
      2        -37.856624   1.000000
      3        -37.856623   1.000000
      4        -37.806285   1.000000
      5        -37.799372   1.000000
      6        -37.799371   1.000000
      7          3.859731   1.000000
      8          5.959666   1.000000
      9          9.680625   1.000000
     10         10.456406   1.000000
     11         10.456406   1.000000
     12         10.847409   1.000000
     13         10.847410   1.000000
     14         11.691066   1.000000
     15         13.203379   1.000000
     16         13.203379   1.000000
     17         14.754503   1.000000
     18         14.754504   1.000000
     19         24.232260   0.000000
     20         28.868973   0.000000
     21         31.239040   0.000000
     22         32.208264   0.000000
     23         36.124281   0.000000
     24         36.124281   0.000000
 
  0.1000000E+00  0.6938894E-17  0.2500000E+00  0.1500000E-01
      1        -38.279060   1.000000
      2        -37.927120   1.000000
      3        -37.894040   1.000000
      4        -37.876909   1.000000
      5        -37.814506   1.000000
      6        -37.787826   1.000000
      7          4.285472   1.000000
      8          6.390993   1.000000
      9          9.720263   1.000000
     10         10.195503   1.000000
     11         10.298842   1.000000
     12         10.790897   1.000000
     13         11.182337   1.000000
     14         11.294586   1.000000
     15         13.025561   1.000000
     16         13.030150   1.000000
     17         14.791832   1.000000
     18         15.538828   0.000000
     19         24.336620   0.000000
     20         29.626632   0.000000
     21         31.922722   0.000000
     22         32.791189   0.000000
     23         34.824251   0.000000
     24         35.906902   0.000000
 
  0.2000000E+00  0.1387779E-16  0.2500000E+00  0.1500000E-01
      1        -38.258011   1.000000
      2        -38.100866   1.000000
      3        -38.073991   1.000000
      4        -37.928934   1.000000
      5        -37.855537   1.000000
      6        -37.790648   1.000000
      7          5.360565   1.000000
      8          7.330144   1.000000
      9          9.233929   1.000000
     10          9.641518   1.000000
     11          9.816719   1.000000
     12         10.952435   1.000000
     13         11.591993   1.000000
     14         12.098372   1.000000
     15         12.835484   1.000000
     16         12.848199   1.000000
     17         14.831315   1.000000
     18         16.832673   0.000000
     19         24.622888   0.000000
     20         30.854987   0.000000
     21         31.834512   0.000000
     22         32.910039   0.000000
     23         34.630553   0.000000
     24         35.152858   0.000000
 
  0.3000000E+00  0.2775558E-16  0.2500000E+00  0.1500000E-01
      1        -38.398092   1.000000
      2        -38.325659   1.000000
      3        -38.099193   1.000000
      4        -37.992093   1.000000
      5        -37.906748   1.000000
      6        -37.803585   1.000000
      7          6.309364   1.000000