 vasp.6.3.2 27Jun22 (build Aug 12 2022 00:53:59) complex                        
  
 executed on               tv2STD date 2024.12.03  01:38:15
 running   24 mpi-ranks, with    1 threads/rank
 distrk:  each k-point on   24 cores,    1 groups
 distr:  one band on NCORE=   1 cores,   24 groups


--------------------------------------------------------------------------------------------------------


 INCAR:
   SYSTEM = Pt-hcc
   NWRITE = 2    write-flag
   ISTART = 0    job   : 0-new, 1-cont, 2-samecut
   ICHARG = 2    charge: 0-wave, 1-file, 2-atom, >10-const
   INIWAV = 1    electr: 0-lowe 1-rand  2-diag
   ENCUT = 450.0     energy cutoff in eV
   PREC = Accurate      normal | accurate
   ADDGRID = .FALSE.  (use fine grid)
   NELM = 100     number of ELM steps
   EDIFF = 1E-06    energy stopping-criterion for ELM
   LREAL = .FALSE.      real-space projection (.FALSE., .TRUE., On, Auto)
   ALGO = Normal     Normal, Fast, Very_Fast
   LWAVE = .TRUE.
   LCHARG = .TRUE.
   NSW = 100       max number of geometry steps
   IBRION = 2     ionic relax: 0-MD, 1-quasi-Newton, 2-CG, 3-Damped MD
   EDIFFG = -0.02  force (eV/A) stopping-criterion for geometry steps
   ISIF = 2     (1:force\=y stress\=trace only ions\=y shape\=n volume\=n)
   ISYM = 1     (1-use symmetry, 0-no symmetry)
   ISMEAR = 0     (-1-Fermi, 1-Methfessel/Paxton)
   SIGMA = 0.05   broadening in eV
   LORBIT = 11

 POTCAR:    PAW_PBE Pt_pv 12Dec2005               
 POTCAR:    PAW_PBE Pt_pv 12Dec2005               
   SHA256 =  e5abf7e8cd8db70d0153315afc5ad66b6e3eeee29cc2d5b91b16730957c1d208 Pt_pv/POTCAR          
   COPYR  = (c) Copyright 12Dec2005 Georg Kresse                                                    
   COPYR  = This file is part of the software VASP. Any use, copying, and all other rights are regul
   COPYR  = If you do not have a valid VASP license, you may not use, copy or distribute this file. 
   VRHFIN =Pt: 5ps1d9                                                                               
   LEXCH  = PE                                                                                      
   EATOM  =  2428.2504 eV,  178.4714 Ry                                                             
                                                                                                    
   TITEL  = PAW_PBE Pt_pv 12Dec2005                                                                 
   LULTRA =        F    use ultrasoft PP ?                                                          
   IUNSCR =        1    unscreen: 0-lin 1-nonlin 2-no                                               
   RPACOR =    2.000    partial core radius                                                         
   POMASS =  195.080; ZVAL   =   16.000    mass and valenz                                          
   RCORE  =    2.200    outmost cutoff radius                                                       
   RWIGS  =    2.200; RWIGS  =    1.164    wigner-seitz radius (au A)                               
   ENMAX  =  294.607; ENMIN  =  220.955 eV                                                          
   ICORE  =        3    local potential                                                             
   LCOR   =        T    correct aug charges                                                         
   LPAW   =        T    paw PP                                                                      
   EAUG   =  527.014                                                                                
   DEXC   =    0.000                                                                                
   RMAX   =    2.247    core radius for proj-oper                                                   
   RAUG   =    1.300    factor for augmentation sphere                                              
   RDEP   =    2.279    radius for radial grids                                                     
   RDEPT  =    1.878    core radius for aug-charge                                                  
                                                                                                    
   Atomic configuration                                                                             
   16 entries                                                                                       
     n  l   j            E        occ.                                                              
     1  0  0.50    -78401.1885   2.0000                                                             
     2  0  0.50    -13770.7750   2.0000                                                             
     2  1  1.50    -11931.0468   6.0000                                                             
     3  0  0.50     -3234.7234   2.0000                                                             
     3  1  1.50     -2699.2216   6.0000                                                             
     3  2  2.50     -2119.5714  10.0000                                                             
     4  0  0.50      -695.1528   2.0000                                                             
     4  1  1.50      -519.6034   6.0000                                                             
     4  2  2.50      -306.6786  10.0000                                                             
     4  3  3.50       -70.1041  14.0000                                                             
     5  0  0.50      -101.7747   2.0000                                                             
     5  1  1.50       -55.9873   6.0000                                                             
     6  1  1.50        -6.8029   0.0000                                                             
     5  2  2.50        -6.1423   9.0000                                                             
     6  0  0.50        -5.6573   1.0000                                                             
     5  3  2.50        -1.3606   0.0000                                                             
   Description                                                                                      
     l       E           TYP  RCUT    TYP  RCUT                                                     
     1    -55.9873477     23  2.000                                                                 
     1     27.2116520     23  2.000                                                                 
     2     -6.1423404     23  2.200                                                                 
     2     -4.6754623     23  2.200                                                                 
     0     -5.6573207     23  2.200                                                                 
     0     47.6203910     23  2.200                                                                 
     3      6.8029130     23  2.200                                                                 
  local pseudopotential read in
  partial core-charges read in
  partial kinetic energy density read in
  atomic valenz-charges read in
  non local Contribution for L=           1  read in
    real space projection operators read in
  non local Contribution for L=           1  read in
    real space projection operators read in
  non local Contribution for L=           2  read in
    real space projection operators read in
  non local Contribution for L=           2  read in
    real space projection operators read in
  non local Contribution for L=           0  read in
    real space projection operators read in
  non local Contribution for L=           0  read in
    real space projection operators read in
    PAW grid and wavefunctions read in
 
   number of l-projection  operators is LMAX  =           6
   number of lm-projection operators is LMMAX =          18
 
  PAW_PBE Pt_pv 12Dec2005               :
 energy of atom  1       EATOM=-2428.2504
 kinetic energy error for atom=    0.0356 (will be added to EATOM!!)
 
 
 POSCAR: Pt
  positions in cartesian coordinates
  No initial velocities read in
 exchange correlation table for  LEXCH =        8
   RHO(1)=    0.500       N(1)  =     2000
   RHO(2)=  100.500       N(2)  =     4000
 


--------------------------------------------------------------------------------------------------------


 ion  position               nearest neighbor table
   1  0.000  0.000  0.000-   2 2.69   2 2.69   2 2.69   2 2.69   2 2.69   2 2.69
   2  0.333  0.667  0.500-   1 2.69   1 2.69   1 2.69   1 2.69   1 2.69   1 2.69
 
  LATTYP: Found a hexagonal cell.
 ALAT       =     2.5877937946
 C/A-ratio  =     1.7324766951
  
  Lattice vectors:
  
 A1 = (   2.5877937946,   0.0000000000,   0.0000000000)
 A2 = (  -1.2938968973,   2.2410951659,   0.0000000000)
 A3 = (   0.0000000000,   0.0000000000,   4.4832924410)


Analysis of symmetry for initial positions (statically):
=====================================================================
 Subroutine PRICEL returns:
 Original cell was already a primitive cell.
 

 Routine SETGRP: Setting up the symmetry group for a 
 hexagonal supercell.


 Subroutine GETGRP returns: Found 24 space group operations
 (whereof 12 operations were pure point group operations)
 out of a pool of 24 trial point group operations.


The static configuration has the point symmetry D_3h.
 The point group associated with its full space group is D_6h.


Analysis of symmetry for dynamics (positions and initial velocities):
=====================================================================
 Subroutine PRICEL returns:
 Original cell was already a primitive cell.
 

 Routine SETGRP: Setting up the symmetry group for a 
 hexagonal supercell.


 Subroutine GETGRP returns: Found 24 space group operations
 (whereof 12 operations were pure point group operations)
 out of a pool of 24 trial point group operations.


The dynamic configuration has the point symmetry D_3h.
 The point group associated with its full space group is D_6h.


 Subroutine INISYM returns: Found 24 space group operations
 (whereof 12 operations are pure point group operations),
 and found     1 'primitive' translations


----------------------------------------------------------------------------------------

                                     Primitive cell                                     

  volume of cell :      26.0008

  direct lattice vectors                    reciprocal lattice vectors
     2.587793795  0.000000000  0.000000000     0.386429553  0.223105207  0.000000000
    -1.293896897  2.241095166  0.000000000     0.000000000  0.446210413  0.000000000
     0.000000000  0.000000000  4.483292441     0.000000000  0.000000000  0.223050362

  length of vectors
     2.587793795  2.587793795  4.483292441     0.446210413  0.446210413  0.223050362

  position of ions in fractional coordinates (direct lattice)
     0.000000000  0.000000000  0.000000000
     0.333333333  0.666666667  0.500000000

  ion indices of the primitive-cell ions
   primitive index   ion index
                 1           1
                 2           2

----------------------------------------------------------------------------------------

 
 
 KPOINTS: Automatic mesh                          

Automatic generation of k-mesh.
 Grid dimensions read from file:
 generate k-points for:   10   10    8

 Generating k-lattice:

  Cartesian coordinates                     Fractional coordinates (reciprocal lattice)
     0.038642955  0.022310521  0.000000000     0.100000000  0.000000000  0.000000000
     0.000000000  0.044621041  0.000000000     0.000000000  0.100000000  0.000000000
     0.000000000  0.000000000  0.027881295     0.000000000  0.000000000  0.125000000

  Length of vectors
     0.044621041  0.044621041  0.027881295

  Shift w.r.t. Gamma in fractional coordinates (k-lattice)
     0.000000000  0.000000000  0.000000000

 
 Subroutine IBZKPT returns following result:
 ===========================================
 
 Found     70 irreducible k-points:
 
 Following reciprocal coordinates:
            Coordinates               Weight
  0.000000  0.000000  0.000000      1.000000
  0.100000  0.000000  0.000000      6.000000
  0.200000  0.000000  0.000000      6.000000
  0.300000  0.000000  0.000000      6.000000
  0.400000 -0.000000  0.000000      6.000000
  0.500000 -0.000000  0.000000      3.000000
  0.100000  0.100000  0.000000      6.000000
  0.200000  0.100000  0.000000     12.000000
  0.300000  0.100000  0.000000     12.000000
  0.400000  0.100000  0.000000     12.000000
  0.200000  0.200000  0.000000      6.000000
  0.300000  0.200000  0.000000     12.000000
  0.400000  0.200000  0.000000      6.000000
  0.300000  0.300000  0.000000      6.000000
  0.000000  0.000000  0.125000      2.000000
  0.100000  0.000000  0.125000     12.000000
  0.200000  0.000000  0.125000     12.000000
  0.300000  0.000000  0.125000     12.000000
  0.400000 -0.000000  0.125000     12.000000
  0.500000 -0.000000  0.125000      6.000000
  0.100000  0.100000  0.125000     12.000000
  0.200000  0.100000  0.125000     24.000000
  0.300000  0.100000  0.125000     24.000000
  0.400000  0.100000  0.125000     24.000000
  0.200000  0.200000  0.125000     12.000000
  0.300000  0.200000  0.125000     24.000000
  0.400000  0.200000  0.125000     12.000000
  0.300000  0.300000  0.125000     12.000000
  0.000000  0.000000  0.250000      2.000000
  0.100000  0.000000  0.250000     12.000000
  0.200000  0.000000  0.250000     12.000000
  0.300000  0.000000  0.250000     12.000000
  0.400000 -0.000000  0.250000     12.000000
  0.500000 -0.000000  0.250000      6.000000
  0.100000  0.100000  0.250000     12.000000
  0.200000  0.100000  0.250000     24.000000
  0.300000  0.100000  0.250000     24.000000
  0.400000  0.100000  0.250000     24.000000
  0.200000  0.200000  0.250000     12.000000
  0.300000  0.200000  0.250000     24.000000
  0.400000  0.200000  0.250000     12.000000
  0.300000  0.300000  0.250000     12.000000
  0.000000  0.000000  0.375000      2.000000
  0.100000  0.000000  0.375000     12.000000
  0.200000  0.000000  0.375000     12.000000
  0.300000  0.000000  0.375000     12.000000
  0.400000 -0.000000  0.375000     12.000000
  0.500000 -0.000000  0.375000      6.000000
  0.100000  0.100000  0.375000     12.000000
  0.200000  0.100000  0.375000     24.000000
  0.300000  0.100000  0.375000     24.000000
  0.400000  0.100000  0.375000     24.000000
  0.200000  0.200000  0.375000     12.000000
  0.300000  0.200000  0.375000     24.000000
  0.400000  0.200000  0.375000     12.000000
  0.300000  0.300000  0.375000     12.000000
  0.000000  0.000000  0.500000      1.000000
  0.100000  0.000000  0.500000      6.000000
  0.200000  0.000000  0.500000      6.000000
  0.300000  0.000000  0.500000      6.000000
  0.400000 -0.000000  0.500000      6.000000
  0.500000 -0.000000  0.500000      3.000000
  0.100000  0.100000  0.500000      6.000000
  0.200000  0.100000  0.500000     12.000000
  0.300000  0.100000  0.500000     12.000000
  0.400000  0.100000  0.500000     12.000000
  0.200000  0.200000  0.500000      6.000000
  0.300000  0.200000  0.500000     12.000000
  0.400000  0.200000  0.500000      6.000000
  0.300000  0.300000  0.500000      6.000000
 
 Following cartesian coordinates:
            Coordinates               Weight
  0.000000  0.000000  0.000000      1.000000
  0.038643  0.022311  0.000000      6.000000
  0.077286  0.044621  0.000000      6.000000
  0.115929  0.066932  0.000000      6.000000
  0.154572  0.089242  0.000000      6.000000
  0.193215  0.111553  0.000000      3.000000
  0.038643  0.066932  0.000000      6.000000
  0.077286  0.089242  0.000000     12.000000
  0.115929  0.111553  0.000000     12.000000
  0.154572  0.133863  0.000000     12.000000
  0.077286  0.133863  0.000000      6.000000
  0.115929  0.156174  0.000000     12.000000
  0.154572  0.178484  0.000000      6.000000
  0.115929  0.200795  0.000000      6.000000
  0.000000  0.000000  0.027881      2.000000
  0.038643  0.022311  0.027881     12.000000
  0.077286  0.044621  0.027881     12.000000
  0.115929  0.066932  0.027881     12.000000
  0.154572  0.089242  0.027881     12.000000
  0.193215  0.111553  0.027881      6.000000
  0.038643  0.066932  0.027881     12.000000
  0.077286  0.089242  0.027881     24.000000
  0.115929  0.111553  0.027881     24.000000
  0.154572  0.133863  0.027881     24.000000
  0.077286  0.133863  0.027881     12.000000
  0.115929  0.156174  0.027881     24.000000
  0.154572  0.178484  0.027881     12.000000
  0.115929  0.200795  0.027881     12.000000
  0.000000  0.000000  0.055763      2.000000
  0.038643  0.022311  0.055763     12.000000
  0.077286  0.044621  0.055763     12.000000
  0.115929  0.066932  0.055763     12.000000
  0.154572  0.089242  0.055763     12.000000
  0.193215  0.111553  0.055763      6.000000
  0.038643  0.066932  0.055763     12.000000
  0.077286  0.089242  0.055763     24.000000
  0.115929  0.111553  0.055763     24.000000
  0.154572  0.133863  0.055763     24.000000
  0.077286  0.133863  0.055763     12.000000
  0.115929  0.156174  0.055763     24.000000
  0.154572  0.178484  0.055763     12.000000
  0.115929  0.200795  0.055763     12.000000
  0.000000  0.000000  0.083644      2.000000
  0.038643  0.022311  0.083644     12.000000
  0.077286  0.044621  0.083644     12.000000
  0.115929  0.066932  0.083644     12.000000
  0.154572  0.089242  0.083644     12.000000
  0.193215  0.111553  0.083644      6.000000
  0.038643  0.066932  0.083644     12.000000
  0.077286  0.089242  0.083644     24.000000
  0.115929  0.111553  0.083644     24.000000
  0.154572  0.133863  0.083644     24.000000
  0.077286  0.133863  0.083644     12.000000
  0.115929  0.156174  0.083644     24.000000
  0.154572  0.178484  0.083644     12.000000
  0.115929  0.200795  0.083644     12.000000
  0.000000  0.000000  0.111525      1.000000
  0.038643  0.022311  0.111525      6.000000
  0.077286  0.044621  0.111525      6.000000
  0.115929  0.066932  0.111525      6.000000
  0.154572  0.089242  0.111525      6.000000
  0.193215  0.111553  0.111525      3.000000
  0.038643  0.066932  0.111525      6.000000
  0.077286  0.089242  0.111525     12.000000
  0.115929  0.111553  0.111525     12.000000
  0.154572  0.133863  0.111525     12.000000
  0.077286  0.133863  0.111525      6.000000
  0.115929  0.156174  0.111525     12.000000
  0.154572  0.178484  0.111525      6.000000
  0.115929  0.200795  0.111525      6.000000
 


--------------------------------------------------------------------------------------------------------




 Dimension of arrays:
   k-points           NKPTS =     70   k-points in BZ     NKDIM =     70   number of bands    NBANDS=     24
   number of dos      NEDOS =    301   number of ions     NIONS =      2
   non local maximal  LDIM  =      6   non local SUM 2l+1 LMDIM =     18
   total plane-waves  NPLWV =  10368
   max r-space proj   IRMAX =      1   max aug-charges    IRDMAX=  13775
   dimension x,y,z NGX =    18 NGY =   18 NGZ =   32
   dimension x,y,z NGXF=    36 NGYF=   36 NGZF=   64
   support grid    NGXF=    36 NGYF=   36 NGZF=   64
   ions per type =               2
   NGX,Y,Z   is equivalent  to a cutoff of  11.56, 11.56, 11.87 a.u.
   NGXF,Y,Z  is equivalent  to a cutoff of  23.13, 23.13, 23.73 a.u.

 SYSTEM =  Pt-hcc                                  
 POSCAR =  Pt                                      

 Startparameter for this run:
   NWRITE =      2    write-flag & timer
   PREC   = accura    normal or accurate (medium, high low for compatibility)
   ISTART =      0    job   : 0-new  1-cont  2-samecut
   ICHARG =      2    charge: 1-file 2-atom 10-const
   ISPIN  =      1    spin polarized calculation?
   LNONCOLLINEAR =      F non collinear calculations
   LSORBIT =      F    spin-orbit coupling
   INIWAV =      1    electr: 0-lowe 1-rand  2-diag
   LASPH  =      F    aspherical Exc in radial PAW
 Electronic Relaxation 1
   ENCUT  =  450.0 eV  33.07 Ry    5.75 a.u.   4.48  4.48  7.75*2*pi/ulx,y,z
   ENINI  =  450.0     initial cutoff
   ENAUG  =  527.0 eV  augmentation charge cutoff
   NELM   =    100;   NELMIN=  2; NELMDL= -5     # of ELM steps 
   EDIFF  = 0.1E-05   stopping-criterion for ELM
   LREAL  =      F    real-space projection
   NLSPLINE    = F    spline interpolate recip. space projectors
   LCOMPAT=      F    compatible to vasp.4.4
   GGA_COMPAT  = T    GGA compatible to vasp.4.4-vasp.4.6
   LMAXPAW     = -100 max onsite density
   LMAXMIX     =    2 max onsite mixed and CHGCAR
   VOSKOWN=      0    Vosko Wilk Nusair interpolation
   ROPT   =    0.00000
 Ionic relaxation
   EDIFFG = -.2E-01   stopping-criterion for IOM
   NSW    =    100    number of steps for IOM
   NBLOCK =      1;   KBLOCK =    100    inner block; outer block 
   IBRION =      2    ionic relax: 0-MD 1-quasi-New 2-CG
   NFREE  =      1    steps in history (QN), initial steepest desc. (CG)
   ISIF   =      2    stress and relaxation
   IWAVPR =     11    prediction:  0-non 1-charg 2-wave 3-comb
   ISYM   =      1    0-nonsym 1-usesym 2-fastsym
   LCORR  =      T    Harris-Foulkes like correction to forces

   POTIM  = 0.5000    time-step for ionic-motion
   TEIN   =    0.0    initial temperature
   TEBEG  =    0.0;   TEEND  =   0.0 temperature during run
   SMASS  =  -3.00    Nose mass-parameter (am)
   estimated Nose-frequenzy (Omega)   =  0.10E-29 period in steps = 0.13E+47 mass=  -0.153E-27a.u.
   SCALEE = 1.0000    scale energy and forces
   NPACO  =    256;   APACO  = 10.0  distance and # of slots for P.C.
   PSTRESS=    0.0 pullay stress

  Mass of Ions in am
   POMASS = 195.08
  Ionic Valenz
   ZVAL   =  16.00
  Atomic Wigner-Seitz radii
   RWIGS  =  -1.00
  virtual crystal weights 
   VCA    =   1.00
   NELECT =      32.0000    total number of electrons
   NUPDOWN=      -1.0000    fix difference up-down

 DOS related values:
   EMIN   =  10.00;   EMAX   =-10.00  energy-range for DOS
   EFERMI =   0.00
   ISMEAR =     0;   SIGMA  =   0.05  broadening in eV -4-tet -1-fermi 0-gaus

 Electronic relaxation 2 (details)
   IALGO  =     38    algorithm
   LDIAG  =      T    sub-space diagonalisation (order eigenvalues)
   LSUBROT=      F    optimize rotation matrix (better conditioning)
   TURBO    =      0    0=normal 1=particle mesh
   IRESTART =      0    0=no restart 2=restart with 2 vectors
   NREBOOT  =      0    no. of reboots
   NMIN     =      0    reboot dimension
   EREF     =   0.00    reference energy to select bands
   IMIX   =      4    mixing-type and parameters
     AMIX     =   0.40;   BMIX     =  1.00
     AMIX_MAG =   1.60;   BMIX_MAG =  1.00
     AMIN     =   0.10
     WC   =   100.;   INIMIX=   1;  MIXPRE=   1;  MAXMIX= -45

 Intra band minimization:
   WEIMIN = 0.0010     energy-eigenvalue tresh-hold
   EBREAK =  0.10E-07  absolut break condition
   DEPER  =   0.30     relativ break condition  

   TIME   =   0.40     timestep for ELM

  volume/ion in A,a.u.               =      13.00        87.73
  Fermi-wavevector in a.u.,A,eV,Ry     =   1.754402  3.315339 41.877737  3.077927
  Thomas-Fermi vector in A             =   2.824350
 
 Write flags
   LWAVE        =      T    write WAVECAR
   LDOWNSAMPLE  =      F    k-point downsampling of WAVECAR
   LCHARG       =      T    write CHGCAR
   LVTOT        =      F    write LOCPOT, total local potential
   LVHAR        =      F    write LOCPOT, Hartree potential only
   LELF         =      F    write electronic localiz. function (ELF)
   LORBIT       =     11    0 simple, 1 ext, 2 COOP (PROOUT), +10 PAW based schemes


 Dipole corrections
   LMONO  =      F    monopole corrections only (constant potential shift)
   LDIPOL =      F    correct potential (dipole corrections)
   IDIPOL =      0    1-x, 2-y, 3-z, 4-all directions 
   EPSILON=  1.0000000 bulk dielectric constant

 Exchange correlation treatment:
   GGA     =    --    GGA type
   LEXCH   =     8    internal setting for exchange type
   LIBXC   =     F    Libxc                    
   VOSKOWN =     0    Vosko Wilk Nusair interpolation
   LHFCALC =     F    Hartree Fock is set to
   LHFONE  =     F    Hartree Fock one center treatment
   AEXX    =    0.0000 exact exchange contribution

 Linear response parameters
   LEPSILON=     F    determine dielectric tensor
   LRPA    =     F    only Hartree local field effects (RPA)
   LNABLA  =     F    use nabla operator in PAW spheres
   LVEL    =     F    velocity operator in full k-point grid
   CSHIFT  =0.1000    complex shift for real part using Kramers Kronig
   OMEGAMAX=  -1.0    maximum frequency
   DEG_THRESHOLD= 0.2000000E-02 threshold for treating states as degnerate
   RTIME   =   -0.100 relaxation time in fs
  (WPLASMAI=    0.000 imaginary part of plasma frequency in eV, 0.658/RTIME)
   DFIELD  = 0.0000000 0.0000000 0.0000000 field for delta impulse in time
 
  Optional k-point grid parameters
   LKPOINTS_OPT  =     F    use optional k-point grid
   KPOINTS_OPT_MODE=     1    mode for optional k-point grid
 
 Orbital magnetization related:
   ORBITALMAG=     F  switch on orbital magnetization
   LCHIMAG   =     F  perturbation theory with respect to B field
   DQ        =  0.001000  dq finite difference perturbation B field
   LLRAUG    =     F  two centre corrections for induced B field



--------------------------------------------------------------------------------------------------------


 conjugate gradient relaxation of ions
 charge density and potential will be updated during run
 non-spin polarized calculation
 Variant of blocked Davidson
 Davidson routine will perform the subspace rotation
 perform sub-space diagonalisation
    after iterative eigenvector-optimisation
 modified Broyden-mixing scheme, WC =      100.0
 initial mixing is a Kerker type mixing with AMIX =  0.4000 and BMIX =      1.0000
 Hartree-type preconditioning will be used
 using additional bands            8
 reciprocal scheme for non local part
 use partial core corrections
 calculate Harris-corrections to forces 
   (improved forces if not selfconsistent)
 use gradient corrections 
 use of overlap-Matrix (Vanderbilt PP)
 Gauss-broadening in eV      SIGMA  =   0.05


--------------------------------------------------------------------------------------------------------


  energy-cutoff  :      450.00
  volume of cell :       26.00
      direct lattice vectors                 reciprocal lattice vectors
     2.587793795  0.000000000  0.000000000     0.386429553  0.223105207  0.000000000
    -1.293896897  2.241095166  0.000000000     0.000000000  0.446210413  0.000000000
     0.000000000  0.000000000  4.483292441     0.000000000  0.000000000  0.223050362

  length of vectors
     2.587793795  2.587793795  4.483292441     0.446210413  0.446210413  0.223050362


 
 k-points in units of 2pi/SCALE and weight: Automatic mesh                          
   0.00000000  0.00000000  0.00000000       0.001
   0.03864296  0.02231052  0.00000000       0.007
   0.07728591  0.04462104  0.00000000       0.007
   0.11592887  0.06693156  0.00000000       0.007
   0.15457182  0.08924208  0.00000000       0.007
   0.19321478  0.11155260  0.00000000       0.004
   0.03864296  0.06693156  0.00000000       0.007
   0.07728591  0.08924208  0.00000000       0.015
   0.11592887  0.11155260  0.00000000       0.015
   0.15457182  0.13386312  0.00000000       0.015
   0.07728591  0.13386312  0.00000000       0.007
   0.11592887  0.15617364  0.00000000       0.015
   0.15457182  0.17848417  0.00000000       0.007
   0.11592887  0.20079469  0.00000000       0.007
   0.00000000  0.00000000  0.02788130       0.003
   0.03864296  0.02231052  0.02788130       0.015
   0.07728591  0.04462104  0.02788130       0.015
   0.11592887  0.06693156  0.02788130       0.015
   0.15457182  0.08924208  0.02788130       0.015
   0.19321478  0.11155260  0.02788130       0.007
   0.03864296  0.06693156  0.02788130       0.015
   0.07728591  0.08924208  0.02788130       0.030
   0.11592887  0.11155260  0.02788130       0.030
   0.15457182  0.13386312  0.02788130       0.030
   0.07728591  0.13386312  0.02788130       0.015
   0.11592887  0.15617364  0.02788130       0.030
   0.15457182  0.17848417  0.02788130       0.015
   0.11592887  0.20079469  0.02788130       0.015
   0.00000000  0.00000000  0.05576259       0.003
   0.03864296  0.02231052  0.05576259       0.015
   0.07728591  0.04462104  0.05576259       0.015
   0.11592887  0.06693156  0.05576259       0.015
   0.15457182  0.08924208  0.05576259       0.015
   0.19321478  0.11155260  0.05576259       0.007
   0.03864296  0.06693156  0.05576259       0.015
   0.07728591  0.08924208  0.05576259       0.030
   0.11592887  0.11155260  0.05576259       0.030
   0.15457182  0.13386312  0.05576259       0.030
   0.07728591  0.13386312  0.05576259       0.015
   0.11592887  0.15617364  0.05576259       0.030
   0.15457182  0.17848417  0.05576259       0.015
   0.11592887  0.20079469  0.05576259       0.015
   0.00000000  0.00000000  0.08364389       0.003
   0.03864296  0.02231052  0.08364389       0.015
   0.07728591  0.04462104  0.08364389       0.015
   0.11592887  0.06693156  0.08364389       0.015
   0.15457182  0.08924208  0.08364389       0.015
   0.19321478  0.11155260  0.08364389       0.007
   0.03864296  0.06693156  0.08364389       0.015
   0.07728591  0.08924208  0.08364389       0.030
   0.11592887  0.11155260  0.08364389       0.030
   0.15457182  0.13386312  0.08364389       0.030
   0.07728591  0.13386312  0.08364389       0.015
   0.11592887  0.15617364  0.08364389       0.030
   0.15457182  0.17848417  0.08364389       0.015
   0.11592887  0.20079469  0.08364389       0.015
   0.00000000  0.00000000  0.11152518       0.001
   0.03864296  0.02231052  0.11152518       0.007
   0.07728591  0.04462104  0.11152518       0.007
   0.11592887  0.06693156  0.11152518       0.007
   0.15457182  0.08924208  0.11152518       0.007
   0.19321478  0.11155260  0.11152518       0.004
   0.03864296  0.06693156  0.11152518       0.007
   0.07728591  0.08924208  0.11152518       0.015
   0.11592887  0.11155260  0.11152518       0.015
   0.15457182  0.13386312  0.11152518       0.015
   0.07728591  0.13386312  0.11152518       0.007
   0.11592887  0.15617364  0.11152518       0.015
   0.15457182  0.17848417  0.11152518       0.007
   0.11592887  0.20079469  0.11152518       0.007
 
 k-points in reciprocal lattice and weights: Automatic mesh                          
   0.00000000  0.00000000  0.00000000       0.001
   0.10000000  0.00000000  0.00000000       0.007
   0.20000000  0.00000000  0.00000000       0.007
   0.30000000  0.00000000  0.00000000       0.007
   0.40000000 -0.00000000  0.00000000       0.007
   0.50000000 -0.00000000  0.00000000       0.004
   0.10000000  0.10000000  0.00000000       0.007
   0.20000000  0.10000000  0.00000000       0.015
   0.30000000  0.10000000  0.00000000       0.015
   0.40000000  0.10000000  0.00000000       0.015
   0.20000000  0.20000000  0.00000000       0.007
   0.30000000  0.20000000  0.00000000       0.015
   0.40000000  0.20000000  0.00000000       0.007
   0.30000000  0.30000000  0.00000000       0.007
   0.00000000  0.00000000  0.12500000       0.003
   0.10000000  0.00000000  0.12500000       0.015
   0.20000000  0.00000000  0.12500000       0.015
   0.30000000  0.00000000  0.12500000       0.015
   0.40000000 -0.00000000  0.12500000       0.015
   0.50000000 -0.00000000  0.12500000       0.007
   0.10000000  0.10000000  0.12500000       0.015
   0.20000000  0.10000000  0.12500000       0.030
   0.30000000  0.10000000  0.12500000       0.030
   0.40000000  0.10000000  0.12500000       0.030
   0.20000000  0.20000000  0.12500000       0.015
   0.30000000  0.20000000  0.12500000       0.030
   0.40000000  0.20000000  0.12500000       0.015
   0.30000000  0.30000000  0.12500000       0.015
   0.00000000  0.00000000  0.25000000       0.003
   0.10000000  0.00000000  0.25000000       0.015
   0.20000000  0.00000000  0.25000000       0.015
   0.30000000  0.00000000  0.25000000       0.015
   0.40000000 -0.00000000  0.25000000       0.015
   0.50000000 -0.00000000  0.25000000       0.007
   0.10000000  0.10000000  0.25000000       0.015
   0.20000000  0.10000000  0.25000000       0.030
   0.30000000  0.10000000  0.25000000       0.030
   0.40000000  0.10000000  0.25000000       0.030
   0.20000000  0.20000000  0.25000000       0.015
   0.30000000  0.20000000  0.25000000       0.030
   0.40000000  0.20000000  0.25000000       0.015
   0.30000000  0.30000000  0.25000000       0.015
   0.00000000  0.00000000  0.37500000       0.003
   0.10000000  0.00000000  0.37500000       0.015
   0.20000000  0.00000000  0.37500000       0.015
   0.30000000  0.00000000  0.37500000       0.015
   0.40000000 -0.00000000  0.37500000       0.015
   0.50000000 -0.00000000  0.37500000       0.007
   0.10000000  0.10000000  0.37500000       0.015
   0.20000000  0.10000000  0.37500000       0.030
   0.30000000  0.10000000  0.37500000       0.030
   0.40000000  0.10000000  0.37500000       0.030
   0.20000000  0.20000000  0.37500000       0.015
   0.30000000  0.20000000  0.37500000       0.030
   0.40000000  0.20000000  0.37500000       0.015
   0.30000000  0.30000000  0.37500000       0.015
   0.00000000  0.00000000  0.50000000       0.001
   0.10000000  0.00000000  0.50000000       0.007
   0.20000000  0.00000000  0.50000000       0.007
   0.30000000  0.00000000  0.50000000       0.007
   0.40000000 -0.00000000  0.50000000       0.007
   0.50000000 -0.00000000  0.50000000       0.004
   0.10000000  0.10000000  0.50000000       0.007
   0.20000000  0.10000000  0.50000000       0.015
   0.30000000  0.10000000  0.50000000       0.015
   0.40000000  0.10000000  0.50000000       0.015
   0.20000000  0.20000000  0.50000000       0.007
   0.30000000  0.20000000  0.50000000       0.015
   0.40000000  0.20000000  0.50000000       0.007
   0.30000000  0.30000000  0.50000000       0.007
 
 position of ions in fractional coordinates (direct lattice) 
   0.00000000  0.00000000  0.00000000
   0.33333333  0.66666667  0.50000000
 
 position of ions in cartesian coordinates  (Angst):
   0.00000000  0.00000000  0.00000000
   0.00000000  1.49406344  2.24164622
 


--------------------------------------------------------------------------------------------------------


 k-point   1 :   0.0000 0.0000 0.0000  plane waves:     549
 k-point   2 :   0.1000 0.0000 0.0000  plane waves:     567
 k-point   3 :   0.2000 0.0000 0.0000  plane waves:     566
 k-point   4 :   0.3000 0.0000 0.0000  plane waves:     576
 k-point   5 :   0.4000-0.0000 0.0000  plane waves:     566
 k-point   6 :   0.5000-0.0000 0.0000  plane waves:     556
 k-point   7 :   0.1000 0.1000 0.0000  plane waves:     569
 k-point   8 :   0.2000 0.1000 0.0000  plane waves:     573
 k-point   9 :   0.3000 0.1000 0.0000  plane waves:     566
 k-point  10 :   0.4000 0.1000 0.0000  plane waves:     560
 k-point  11 :   0.2000 0.2000 0.0000  plane waves:     569
 k-point  12 :   0.3000 0.2000 0.0000  plane waves:     558
 k-point  13 :   0.4000 0.2000 0.0000  plane waves:     564
 k-point  14 :   0.3000 0.3000 0.0000  plane waves:     564
 k-point  15 :   0.0000 0.0000 0.1250  plane waves:     561
 k-point  16 :   0.1000 0.0000 0.1250  plane waves:     565
 k-point  17 :   0.2000 0.0000 0.1250  plane waves:     568
 k-point  18 :   0.3000 0.0000 0.1250  plane waves:     572
 k-point  19 :   0.4000-0.0000 0.1250  plane waves:     565
 k-point  20 :   0.5000-0.0000 0.1250  plane waves:     558
 k-point  21 :   0.1000 0.1000 0.1250  plane waves:     565
 k-point  22 :   0.2000 0.1000 0.1250  plane waves:     568
 k-point  23 :   0.3000 0.1000 0.1250  plane waves:     565
 k-point  24 :   0.4000 0.1000 0.1250  plane waves:     558
 k-point  25 :   0.2000 0.2000 0.1250  plane waves:     565
 k-point  26 :   0.3000 0.2000 0.1250  plane waves:     557
 k-point  27 :   0.4000 0.2000 0.1250  plane waves:     559
 k-point  28 :   0.3000 0.3000 0.1250  plane waves:     563
 k-point  29 :   0.0000 0.0000 0.2500  plane waves:     574
 k-point  30 :   0.1000 0.0000 0.2500  plane waves:     574
 k-point  31 :   0.2000 0.0000 0.2500  plane waves:     571
 k-point  32 :   0.3000 0.0000 0.2500  plane waves:     561
 k-point  33 :   0.4000-0.0000 0.2500  plane waves:     567
 k-point  34 :   0.5000-0.0000 0.2500  plane waves:     566
 k-point  35 :   0.1000 0.1000 0.2500  plane waves:     578
 k-point  36 :   0.2000 0.1000 0.2500  plane waves:     569
 k-point  37 :   0.3000 0.1000 0.2500  plane waves:     559
 k-point  38 :   0.4000 0.1000 0.2500  plane waves:     560
 k-point  39 :   0.2000 0.2000 0.2500  plane waves:     560
 k-point  40 :   0.3000 0.2000 0.2500  plane waves:     555
 k-point  41 :   0.4000 0.2000 0.2500  plane waves:     557
 k-point  42 :   0.3000 0.3000 0.2500  plane waves:     561
 k-point  43 :   0.0000 0.0000 0.3750  plane waves:     592
 k-point  44 :   0.1000 0.0000 0.3750  plane waves:     579
 k-point  45 :   0.2000 0.0000 0.3750  plane waves:     574
 k-point  46 :   0.3000 0.0000 0.3750  plane waves:     563
 k-point  47 :   0.4000-0.0000 0.3750  plane waves:     552
 k-point  48 :   0.5000-0.0000 0.3750  plane waves:     554
 k-point  49 :   0.1000 0.1000 0.3750  plane waves:     578
 k-point  50 :   0.2000 0.1000 0.3750  plane waves:     569
 k-point  51 :   0.3000 0.1000 0.3750  plane waves:     561
 k-point  52 :   0.4000 0.1000 0.3750  plane waves:     555
 k-point  53 :   0.2000 0.2000 0.3750  plane waves:     559
 k-point  54 :   0.3000 0.2000 0.3750  plane waves:     561
 k-point  55 :   0.4000 0.2000 0.3750  plane waves:     562
 k-point  56 :   0.3000 0.3000 0.3750  plane waves:     560
 k-point  57 :   0.0000 0.0000 0.5000  plane waves:     580
 k-point  58 :   0.1000 0.0000 0.5000  plane waves:     578
 k-point  59 :   0.2000 0.0000 0.5000  plane waves:     578
 k-point  60 :   0.3000 0.0000 0.5000  plane waves:     560
 k-point  61 :   0.4000-0.0000 0.5000  plane waves:     554
 k-point  62 :   0.5000-0.0000 0.5000  plane waves:     552
 k-point  63 :   0.1000 0.1000 0.5000  plane waves:     578
 k-point  64 :   0.2000 0.1000 0.5000  plane waves:     566
 k-point  65 :   0.3000 0.1000 0.5000  plane waves:     568
 k-point  66 :   0.4000 0.1000 0.5000  plane waves:     558
 k-point  67 :   0.2000 0.2000 0.5000  plane waves:     564
 k-point  68 :   0.3000 0.2000 0.5000  plane waves:     558
 k-point  69 :   0.4000 0.2000 0.5000  plane waves:     556
 k-point  70 :   0.3000 0.3000 0.5000  plane waves:     556

 maximum and minimum number of plane-waves per node :       592      549

 maximum number of plane-waves:       592
 maximum index in each direction: 
   IXMAX=    4   IYMAX=    4   IZMAX=    7
   IXMIN=   -4   IYMIN=   -4   IZMIN=   -8


 serial   3D FFT for wavefunctions
 parallel 3D FFT for charge:
    minimum data exchange during FFTs selected (reduces bandwidth)


 total amount of memory used by VASP MPI-rank0    37663. kBytes
=======================================================================

   base      :      30000. kBytes
   nonl-proj :       6067. kBytes
   fftplans  :        195. kBytes
   grid      :        645. kBytes
   one-center:         31. kBytes
   wavefun   :        725. kBytes
 
     INWAV:  cpu time      0.0000: real time      0.0003
 Broyden mixing: mesh for mixing (old mesh)
   NGX =  9   NGY =  9   NGZ = 15
  (NGX  = 36   NGY  = 36   NGZ  = 64)
  gives a total of   1215 points

 initial charge density was supplied:
 charge density of overlapping atoms calculated
 number of electron      32.0000000 magnetization 
 keeping initial charge density in first step


--------------------------------------------------------------------------------------------------------


 Maximum index for augmentation-charges          888 (set IRDMAX)


--------------------------------------------------------------------------------------------------------


 First call to EWALD:  gamma=   0.598
 Maximum number of real-space cells 3x 3x 2
 Maximum number of reciprocal cells 2x 2x 4

    FEWALD:  cpu time      0.0015: real time      0.0015


--------------------------------------- Iteration      1(   1)  ---------------------------------------


    POTLOK:  cpu time      0.0042: real time      0.0051
    SETDIJ:  cpu time      0.0023: real time      0.0023
     EDDAV:  cpu time      0.2898: real time      0.2918
       DOS:  cpu time      0.0005: real time      0.0005
    --------------------------------------------
      LOOP:  cpu time      0.2968: real time      0.2997

 eigenvalue-minimisations  :  3432
 total energy-change (2. order) : 0.1316803E+03  (-0.2355983E+04)
 number of electron      32.0000000 magnetization 
 augmentation part       32.0000000 magnetization 

 Free energy of the ion-electron system (eV)
  ---------------------------------------------------
  alpha Z        PSCENC =       369.11429984
  Ewald energy   TEWEN  =     -4525.66927718
  -Hartree energ DENC   =      -692.84645618
  -exchange      EXHF   =         0.00000000
  -V(xc)+E(xc)   XCENC  =       129.50092155
  PAW double counting   =      4131.50523274    -4061.67189606
  entropy T*S    EENTRO =        -0.00198261
  eigenvalues    EBANDS =       -74.68024645
  atomic energy  EATOM  =      4856.42966544
  Solvation  Ediel_sol  =         0.00000000
  ---------------------------------------------------
  free energy    TOTEN  =       131.68026111 eV

  energy without entropy =      131.68224372  energy(sigma->0) =      131.68125241


--------------------------------------------------------------------------------------------------------




--------------------------------------- Iteration      1(   2)  ---------------------------------------


     EDDAV:  cpu time      0.2857: real time      0.2879
       DOS:  cpu time      0.0004: real time      0.0004
    --------------------------------------------
      LOOP:  cpu time      0.2860: real time      0.2883

 eigenvalue-minimisations  :  3408
 total energy-change (2. order) :-0.1421728E+03  (-0.1410369E+03)
 number of electron      32.0000000 magnetization 
 augmentation part       32.0000000 magnetization 

 Free energy of the ion-electron system (eV)
  ---------------------------------------------------
  alpha Z        PSCENC =       369.11429984
  Ewald energy   TEWEN  =     -4525.66927718
  -Hartree energ DENC   =      -692.84645618
  -exchange      EXHF   =         0.00000000
  -V(xc)+E(xc)   XCENC  =       129.50092155
  PAW double counting   =      4131.50523274    -4061.67189606
  entropy T*S    EENTRO =        -0.00296877
  eigenvalues    EBANDS =      -216.85204608
  atomic energy  EATOM  =      4856.42966544
  Solvation  Ediel_sol  =         0.00000000
  ---------------------------------------------------
  free energy    TOTEN  =       -10.49252469 eV

  energy without entropy =      -10.48955591  energy(sigma->0) =      -10.49104030


--------------------------------------------------------------------------------------------------------




--------------------------------------- Iteration      1(   3)  ---------------------------------------


     EDDAV:  cpu time      0.5004: real time      0.5032
       DOS:  cpu time      0.0004: real time      0.0004
    --------------------------------------------
      LOOP:  cpu time      0.5007: real time      0.5036

 eigenvalue-minimisations  :  4728
 total energy-change (2. order) :-0.1024491E+01  (-0.1023648E+01)
 number of electron      32.0000000 magnetization 
 augmentation part       32.0000000 magnetization 

 Free energy of the ion-electron system (eV)
  ---------------------------------------------------
  alpha Z        PSCENC =       369.11429984
  Ewald energy   TEWEN  =     -4525.66927718
  -Hartree energ DENC   =      -692.84645618
  -exchange      EXHF   =         0.00000000
  -V(xc)+E(xc)   XCENC  =       129.50092155
  PAW double counting   =      4131.50523274    -4061.67189606
  entropy T*S    EENTRO =        -0.00265337
  eigenvalues    EBANDS =      -217.87685277
  atomic energy  EATOM  =      4856.42966544
  Solvation  Ediel_sol  =         0.00000000
  ---------------------------------------------------
  free energy    TOTEN  =       -11.51701598 eV

  energy without entropy =      -11.51436260  energy(sigma->0) =      -11.51568929


--------------------------------------------------------------------------------------------------------




--------------------------------------- Iteration      1(   4)  ---------------------------------------


     EDDAV:  cpu time      0.4701: real time      0.4729
       DOS:  cpu time      0.0004: real time      0.0004
    --------------------------------------------
      LOOP:  cpu time      0.4705: real time      0.4733

 eigenvalue-minimisations  :  4536
 total energy-change (2. order) :-0.2529227E-02  (-0.2529202E-02)
 number of electron      32.0000000 magnetization 
 augmentation part       32.0000000 magnetization 

 Free energy of the ion-electron system (eV)
  ---------------------------------------------------
  alpha Z        PSCENC =       369.11429984
  Ewald energy   TEWEN  =     -4525.66927718
  -Hartree energ DENC   =      -692.84645618
  -exchange      EXHF   =         0.00000000
  -V(xc)+E(xc)   XCENC  =       129.50092155
  PAW double counting   =      4131.50523274    -4061.67189606
  entropy T*S    EENTRO =        -0.00265201
  eigenvalues    EBANDS =      -217.87938336
  atomic energy  EATOM  =      4856.42966544
  Solvation  Ediel_sol  =         0.00000000
  ---------------------------------------------------
  free energy    TOTEN  =       -11.51954520 eV

  energy without entropy =      -11.51689320  energy(sigma->0) =      -11.51821920


--------------------------------------------------------------------------------------------------------




--------------------------------------- Iteration      1(   5)  ---------------------------------------


     EDDAV:  cpu time      0.5709: real time      0.5741
       DOS:  cpu time      0.0004: real time      0.0004
    CHARGE:  cpu time      0.0163: real time      0.0163
    MIXING:  cpu time      0.0003: real time      0.0003
    --------------------------------------------
      LOOP:  cpu time      0.5878: real time      0.5911

 eigenvalue-minimisations  :  5016
 total energy-change (2. order) :-0.1995481E-05  (-0.1994338E-05)
 number of electron      32.0000013 magnetization 
 augmentation part        8.0065673 magnetization 

 Broyden mixing:
  rms(total) = 0.31682E+01    rms(broyden)= 0.31681E+01
  rms(prec ) = 0.32930E+01
  weight for this iteration     100.00

 Free energy of the ion-electron system (eV)
  ---------------------------------------------------
  alpha Z        PSCENC =       369.11429984
  Ewald energy   TEWEN  =     -4525.66927718
  -Hartree energ DENC   =      -692.84645618
  -exchange      EXHF   =         0.00000000
  -V(xc)+E(xc)   XCENC  =       129.50092155
  PAW double counting   =      4131.50523274    -4061.67189606
  entropy T*S    EENTRO =        -0.00265200
  eigenvalues    EBANDS =      -217.87938536
  atomic energy  EATOM  =      4856.42966544
  Solvation  Ediel_sol  =         0.00000000
  ---------------------------------------------------
  free energy    TOTEN  =       -11.51954720 eV

  energy without entropy =      -11.51689520  energy(sigma->0) =      -11.51822120


--------------------------------------------------------------------------------------------------------




--------------------------------------- Iteration      1(   6)  ---------------------------------------


    POTLOK:  cpu time      0.0032: real time      0.0034
    SETDIJ:  cpu time      0.0020: real time      0.0020
     EDDAV:  cpu time      0.2955: real time      0.2973
       DOS:  cpu time      0.0004: real time      0.0004
    CHARGE:  cpu time      0.0151: real time      0.0151
    MIXING:  cpu time      0.0004: real time      0.0004
    --------------------------------------------
      LOOP:  cpu time      0.3165: real time      0.3186

 eigenvalue-minimisations  :  3480
 total energy-change (2. order) : 0.5464366E+00  (-0.1593620E+00)
 number of electron      32.0000013 magnetization 
 augmentation part        8.1823069 magnetization 

 Broyden mixing:
  rms(total) = 0.13228E+01    rms(broyden)= 0.13228E+01
  rms(prec ) = 0.13500E+01
  weight for this iteration     100.00

 eigenvalues of (default mixing * dielectric matrix)
  average eigenvalue GAMMA=   1.7058
  1.7058

 Free energy of the ion-electron system (eV)
  ---------------------------------------------------
  alpha Z        PSCENC =       369.11429984
  Ewald energy   TEWEN  =     -4525.66927718
  -Hartree energ DENC   =      -667.39039696
  -exchange      EXHF   =         0.00000000
  -V(xc)+E(xc)   XCENC  =       128.38414728
  PAW double counting   =      4738.26867087    -4672.80432617
  entropy T*S    EENTRO =        -0.00308952
  eigenvalues    EBANDS =      -237.30280421
  atomic energy  EATOM  =      4856.42966544
  Solvation  Ediel_sol  =         0.00000000
  ---------------------------------------------------
  free energy    TOTEN  =       -10.97311062 eV

  energy without entropy =      -10.97002110  energy(sigma->0) =      -10.97156586


--------------------------------------------------------------------------------------------------------




--------------------------------------- Iteration      1(   7)  ---------------------------------------


    POTLOK:  cpu time      0.0029: real time      0.0031
    SETDIJ:  cpu time      0.0019: real time      0.0019
     EDDAV:  cpu time      0.4402: real time      0.4426
       DOS:  cpu time      0.0004: real time      0.0004
    CHARGE:  cpu time      0.0150: real time      0.0151
    MIXING:  cpu time      0.0003: real time      0.0003
    --------------------------------------------
      LOOP:  cpu time      0.4607: real time      0.4633

 eigenvalue-minimisations  :  4416
 total energy-change (2. order) : 0.5289232E-01  (-0.2756168E-01)
 number of electron      32.0000013 magnetization 
 augmentation part        8.2526417 magnetization 

 Broyden mixing:
  rms(total) = 0.26085E+00    rms(broyden)= 0.26084E+00
  rms(prec ) = 0.26971E+00
  weight for this iteration     100.00

 eigenvalues of (default mixing * dielectric matrix)
  average eigenvalue GAMMA=   2.0062
  1.3001  2.7122

 Free energy of the ion-electron system (eV)
  ---------------------------------------------------
  alpha Z        PSCENC =       369.11429984
  Ewald energy   TEWEN  =     -4525.66927718
  -Hartree energ DENC   =      -656.43979968
  -exchange      EXHF   =         0.00000000
  -V(xc)+E(xc)   XCENC  =       127.88661413
  PAW double counting   =      5204.03502570    -5140.87443086
  entropy T*S    EENTRO =        -0.00314291
  eigenvalues    EBANDS =      -245.39917279
  atomic energy  EATOM  =      4856.42966544
  Solvation  Ediel_sol  =         0.00000000
  ---------------------------------------------------
  free energy    TOTEN  =       -10.92021830 eV

  energy without entropy =      -10.91707539  energy(sigma->0) =      -10.91864684


--------------------------------------------------------------------------------------------------------




--------------------------------------- Iteration      1(   8)  ---------------------------------------


    POTLOK:  cpu time      0.0029: real time      0.0031
    SETDIJ:  cpu time      0.0020: real time      0.0020
     EDDAV:  cpu time      0.3133: real time      0.3153
       DOS:  cpu time      0.0004: real time      0.0004
    CHARGE:  cpu time      0.0163: real time      0.0164
    MIXING:  cpu time      0.0008: real time      0.0008
    --------------------------------------------
      LOOP:  cpu time      0.3357: real time      0.3379

 eigenvalue-minimisations  :  3576
 total energy-change (2. order) : 0.4136303E-02  (-0.1968332E-02)
 number of electron      32.0000013 magnetization 
 augmentation part        8.2332281 magnetization 

 Broyden mixing:
  rms(total) = 0.47482E-01    rms(broyden)= 0.47480E-01
  rms(prec ) = 0.48627E-01
  weight for this iteration     100.00

 eigenvalues of (default mixing * dielectric matrix)
  average eigenvalue GAMMA=   1.6143
  1.1970  1.2324  2.4134

 Free energy of the ion-electron system (eV)
  ---------------------------------------------------
  alpha Z        PSCENC =       369.11429984
  Ewald energy   TEWEN  =     -4525.66927718
  -Hartree energ DENC   =      -657.89272295
  -exchange      EXHF   =         0.00000000
  -V(xc)+E(xc)   XCENC  =       127.92985971
  PAW double counting   =      5392.82763901    -5329.82898798
  entropy T*S    EENTRO =        -0.00315324
  eigenvalues    EBANDS =      -243.82340465
  atomic energy  EATOM  =      4856.42966544
  Solvation  Ediel_sol  =         0.00000000
  ---------------------------------------------------
  free energy    TOTEN  =       -10.91608200 eV

  energy without entropy =      -10.91292876  energy(sigma->0) =      -10.91450538


--------------------------------------------------------------------------------------------------------




--------------------------------------- Iteration      1(   9)  ---------------------------------------


    POTLOK:  cpu time      0.0030: real time      0.0032
    SETDIJ:  cpu time      0.0020: real time      0.0020
     EDDAV:  cpu time      0.4157: real time      0.4179
       DOS:  cpu time      0.0004: real time      0.0004
    CHARGE:  cpu time      0.0151: real time      0.0151
    MIXING:  cpu time      0.0003: real time      0.0003
    --------------------------------------------
      LOOP:  cpu time      0.4365: real time      0.4389

 eigenvalue-minimisations  :  4128
 total energy-change (2. order) : 0.2438861E-03  (-0.3007327E-04)
 number of electron      32.0000013 magnetization 
 augmentation part        8.2352275 magnetization 

 Broyden mixing:
  rms(total) = 0.47500E-02    rms(broyden)= 0.47495E-02
  rms(prec ) = 0.52557E-02
  weight for this iteration     100.00

 eigenvalues of (default mixing * dielectric matrix)
  average eigenvalue GAMMA=   1.6861
  2.4889  1.0076  1.2704  1.9773

 Free energy of the ion-electron system (eV)
  ---------------------------------------------------
  alpha Z        PSCENC =       369.11429984
  Ewald energy   TEWEN  =     -4525.66927718
  -Hartree energ DENC   =      -657.85725987
  -exchange      EXHF   =         0.00000000
  -V(xc)+E(xc)   XCENC  =       127.93104266
  PAW double counting   =      5364.69028074    -5301.60340875
  entropy T*S    EENTRO =        -0.00313669
  eigenvalues    EBANDS =      -243.94804430
  atomic energy  EATOM  =      4856.42966544
  Solvation  Ediel_sol  =         0.00000000
  ---------------------------------------------------
  free energy    TOTEN  =       -10.91583811 eV

  energy without entropy =      -10.91270142  energy(sigma->0) =      -10.91426976


--------------------------------------------------------------------------------------------------------




--------------------------------------- Iteration      1(  10)  ---------------------------------------


    POTLOK:  cpu time      0.0029: real time      0.0031
    SETDIJ:  cpu time      0.0020: real time      0.0021
     EDDAV:  cpu time      0.5151: real time      0.5179
       DOS:  cpu time      0.0004: real time      0.0004
    CHARGE:  cpu time      0.0148: real time      0.0149
    MIXING:  cpu time      0.0003: real time      0.0003
    --------------------------------------------
      LOOP:  cpu time      0.5355: real time      0.5386

 eigenvalue-minimisations  :  4800
 total energy-change (2. order) :-0.5007248E-05  (-0.1261929E-05)
 number of electron      32.0000013 magnetization 
 augmentation part        8.2351508 magnetization 

 Broyden mixing:
  rms(total) = 0.59779E-03    rms(broyden)= 0.59733E-03
  rms(prec ) = 0.80851E-03
  weight for this iteration     100.00

 eigenvalues of (default mixing * dielectric matrix)
  average eigenvalue GAMMA=   1.7393
  2.5800  2.1030  0.9842  1.7394  1.2897

 Free energy of the ion-electron system (eV)
  ---------------------------------------------------
  alpha Z        PSCENC =       369.11429984
  Ewald energy   TEWEN  =     -4525.66927718
  -Hartree energ DENC   =      -657.91157739
  -exchange      EXHF   =         0.00000000
  -V(xc)+E(xc)   XCENC  =       127.93317166
  PAW double counting   =      5369.57697417    -5306.45507096
  entropy T*S    EENTRO =        -0.00313046
  eigenvalues    EBANDS =      -243.93089824
  atomic energy  EATOM  =      4856.42966544
  Solvation  Ediel_sol  =         0.00000000
  ---------------------------------------------------
  free energy    TOTEN  =       -10.91584312 eV

  energy without entropy =      -10.91271265  energy(sigma->0) =      -10.91427789


--------------------------------------------------------------------------------------------------------




--------------------------------------- Iteration      1(  11)  ---------------------------------------


    POTLOK:  cpu time      0.0028: real time      0.0030
    SETDIJ:  cpu time      0.0019: real time      0.0020
     EDDAV:  cpu time      0.2715: real time      0.2730
       DOS:  cpu time      0.0004: real time      0.0004
    --------------------------------------------
      LOOP:  cpu time      0.2765: real time      0.2782

 eigenvalue-minimisations  :  2784
 total energy-change (2. order) : 0.5564689E-06  (-0.4737753E-07)
 number of electron      32.0000013 magnetization 
 augmentation part        8.2351508 magnetization 

 Free energy of the ion-electron system (eV)
  ---------------------------------------------------
  alpha Z        PSCENC =       369.11429984
  Ewald energy   TEWEN  =     -4525.66927718
  -Hartree energ DENC   =      -657.92730688
  -exchange      EXHF   =         0.00000000
  -V(xc)+E(xc)   XCENC  =       127.93382918
  PAW double counting   =      5370.39965013    -5307.26568937
  entropy T*S    EENTRO =        -0.00313139
  eigenvalues    EBANDS =      -243.92788233
  atomic energy  EATOM  =      4856.42966544
  Solvation  Ediel_sol  =         0.00000000
  ---------------------------------------------------
  free energy    TOTEN  =       -10.91584256 eV

  energy without entropy =      -10.91271117  energy(sigma->0) =      -10.91427687


--------------------------------------------------------------------------------------------------------




 average (electrostatic) potential at core
  the test charge radii are     0.9952
  (the norm of the test charge is              1.0000)
       1 -86.0716       2 -86.0716
 
 
 
 E-fermi :  15.2115     XC(G=0): -14.9834     alpha+bet :-20.1784

 Fermi energy:        15.2114793623

 k-point     1 :       0.0000    0.0000    0.0000
  band No.  band energies     occupation 
      1     -38.3920      2.00000
      2     -37.8677      2.00000
      3     -37.8677      2.00000
      4     -37.7868      2.00000
      5     -37.7868      2.00000
      6     -37.7014      2.00000
      7       3.2286      2.00000
      8       6.0053      2.00000
      9       9.8368      2.00000
     10      10.5251      2.00000
     11      10.5251      2.00000
     12      11.0434      2.00000
     13      11.0434      2.00000
     14      12.7091      2.00000
     15      12.7091      2.00000
     16      13.6179      2.00000
     17      14.9056      2.00000
     18      14.9056      2.00000
     19      21.3402      0.00000
     20      29.7733      0.00000
     21      30.6694      0.00000
     22      32.3434      0.00000
     23      38.2996      0.00000
     24      38.3006      0.00000

 k-point     2 :       0.1000    0.0000    0.0000
  band No.  band energies     occupation 
      1     -38.3683      2.00000
      2     -37.9429      2.00000
      3     -37.8896      2.00000
      4     -37.8636      2.00000
      5     -37.8015      2.00000
      6     -37.7070      2.00000
      7       3.6684      2.00000
      8       6.4110      2.00000
      9       9.7432      2.00000
     10      10.5281      2.00000
     11      10.8291      2.00000
     12      10.8911      2.00000
     13      11.3932      2.00000
     14      11.8089      2.00000
     15      12.4639      2.00000
     16      12.5899      2.00000
     17      15.0055      2.00000
     18      16.8363      0.00000
     19      21.2715      0.00000
     20      30.5526      0.00000
     21      31.3192      0.00000
     22      33.1068      0.00000
     23      35.6252      0.00000
     24      36.3593      0.00000

 k-point     3 :       0.2000    0.0000    0.0000
  band No.  band energies     occupation 
      1     -38.2995      2.00000
      2     -38.1362      2.00000
      3     -38.0587      2.00000
      4     -37.9440      2.00000
      5     -37.8405      2.00000
      6     -37.7250      2.00000
      7       4.8365      2.00000
      8       7.2585      2.00000
      9       9.4466      2.00000
     10      10.0207      2.00000
     11      10.1558      2.00000
     12      11.3725      2.00000
     13      11.9220      2.00000
     14      11.9309      2.00000
     15      11.9365      2.00000
     16      12.3844      2.00000
     17      15.1646      1.81492
     18      19.4383      0.00000
     19      21.0851      0.00000
     20      30.7336      0.00000
     21      31.9778      0.00000
     22      34.0322      0.00000
     23      34.0363      0.00000
     24      34.0503      0.00000

 k-point     4 :       0.3000    0.0000    0.0000
  band No.  band energies     occupation 
      1     -38.3744      2.00000
      2     -38.2912      2.00000
      3     -38.2039      2.00000
      4     -38.0100      2.00000
      5     -37.8893      2.00000
      6     -37.7586      2.00000
      7       6.1484      2.00000
      8       7.2811      2.00000
      9       8.6237      2.00000
     10       9.8254      2.00000
     11      10.3277      2.00000
     12      11.2381      2.00000
     13      11.3930      2.00000
     14      12.9347      2.00000
     15      13.4630      2.00000
     16      13.8122      2.00000
     17      15.2502      0.27303
     18      21.0168      0.00000
     19      22.0025      0.00000
     20      27.1390      0.00000
     21      30.4036      0.00000
     22      31.2779      0.00000
     23      34.5490      0.00000
     24      34.5719      0.00000

 k-point     5 :       0.4000   -0.0000    0.0000
  band No.  band energies     occupation 
      1     -38.5636      2.00000
      2     -38.4733      2.00000
      3     -38.1065      2.00000
      4     -38.0616      2.00000
      5     -37.9295      2.00000
      6     -37.8047      2.00000
      7       6.6537      2.00000
      8       6.9087      2.00000
      9       7.7474      2.00000
     10      10.5292      2.00000
     11      10.7482      2.00000
     12      11.0159      2.00000
     13      11.3636      2.00000
     14      14.9916      2.00000
     15      15.2546      0.22280
     16      15.2702      0.09649
     17      15.4039      0.00000
     18      21.5866      0.00000
     19      23.2931      0.00000
     20      24.1339      0.00000
     21      28.9321      0.00000
     22      29.1711      0.00000
     23      29.7821      0.00000
     24      33.5732      0.00000

 k-point     6 :       0.5000   -0.0000    0.0000
  band No.  band energies     occupation 
      1     -38.6353      2.00000
      2     -38.5414      2.00000
      3     -38.0805      2.00000
      4     -38.0575      2.00000
      5     -37.9450      2.00000
      6     -37.8338      2.00000
      7       6.5636      2.00000
      8       6.8632      2.00000
      9       7.4490      2.00000
     10      10.5726      2.00000
     11      10.8815      2.00000
     12      11.2155      2.00000
     13      11.5763      2.00000
     14      15.2702      0.09691
     15      15.6600      0.00000
     16      15.9511      0.00000
     17      17.9396      0.00000
     18      19.7087      0.00000
     19      23.6093      0.00000
     20      25.0711      0.00000
     21      26.6050      0.00000
     22      27.9170      0.00000
     23      28.6995      0.00000
     24      32.9889      0.00000

 k-point     7 :       0.1000    0.1000    0.0000
  band No.  band energies     occupation 
      1     -38.3216      2.00000
      2     -38.0630      2.00000
      3     -38.0143      2.00000
      4     -37.9152      2.00000
      5     -37.8393      2.00000
      6     -37.7188      2.00000
      7       4.4859      2.00000
      8       7.1102      2.00000
      9       9.3719      2.00000
     10      10.4264      2.00000
     11      10.5518      2.00000
     12      10.8188      2.00000
     13      11.6304      2.00000
     14      11.6728      2.00000
     15      12.1838      2.00000
     16      12.5306      2.00000
     17      15.0418      2.00000
     18      18.7680      0.00000
     19      21.1459      0.00000
     20      31.4174      0.00000
     21      32.4049      0.00000
     22      33.1339      0.00000
     23      33.6890      0.00000
     24      35.2656      0.00000

 k-point     8 :       0.2000    0.1000    0.0000
  band No.  band energies     occupation 
      1     -38.2632      2.00000
      2     -38.2392      2.00000
      3     -38.2117      2.00000
      4     -37.9918      2.00000
      5     -37.8984      2.00000
      6     -37.7449      2.00000
      7       5.8389      2.00000
      8       7.7758      2.00000
      9       9.1662      2.00000
     10       9.1724      2.00000
     11      10.0809      2.00000
     12      10.9505      2.00000
     13      11.6482      2.00000
     14      12.0306      2.00000
     15      13.0993      2.00000
     16      13.6814      2.00000
     17      15.0505      1.99999
     18      21.0464      0.00000
     19      21.2418      0.00000
     20      29.0726      0.00000
     21      30.8667      0.00000
     22      31.6136      0.00000
     23      34.0678      0.00000
     24      35.6984      0.00000

 k-point     9 :       0.3000    0.1000    0.0000
  band No.  band energies     occupation 
      1     -38.4696      2.00000
      2     -38.3940      2.00000
      3     -38.1401      2.00000
      4     -38.0706      2.00000
      5     -37.9543      2.00000
      6     -37.7869      2.00000
      7       6.9102      2.00000
      8       7.3919      2.00000
      9       8.1343      2.00000
     10       9.8697      2.00000
     11      10.5603      2.00000
     12      10.6864      2.00000
     13      11.3624      2.00000
     14      13.1438      2.00000
     15      14.5938      2.00000
     16      15.0368      2.00000
     17      15.6099      0.00000
     18      21.5170      0.00000
     19      23.6619      0.00000
     20      24.9980      0.00000
     21      28.4169      0.00000
     22      30.1682      0.00000
     23      32.5305      0.00000
     24      33.8792      0.00000

 k-point    10 :       0.4000    0.1000    0.0000
  band No.  band energies     occupation 
      1     -38.5957      2.00000
      2     -38.5050      2.00000
      3     -38.1185      2.00000
      4     -38.0584      2.00000
      5     -37.9884      2.00000
      6     -37.8331      2.00000
      7       6.9624      2.00000
      8       7.2135      2.00000
      9       7.5877      2.00000
     10      10.5003      2.00000
     11      10.8160      2.00000
     12      10.8900      2.00000
     13      11.3240      2.00000
     14      14.8503      2.00000
     15      15.0136      2.00000
     16      15.3938      0.00000
     17      17.7289      0.00000
     18      21.1736      0.00000
     19      23.3086      0.00000
     20      25.4089      0.00000
     21      26.1428      0.00000
     22      28.9078      0.00000
     23      29.3487      0.00000
     24      32.8721      0.00000

 k-point    11 :       0.2000    0.2000    0.0000
  band No.  band energies     occupation 
      1     -38.3813      2.00000
      2     -38.3747      2.00000
      3     -38.1522      2.00000
      4     -38.0814      2.00000
      5     -38.0000      2.00000
      6     -37.7808      2.00000
      7       7.2151      2.00000
      8       8.4037      2.00000
      9       8.5222      2.00000
     10       8.5664      2.00000
     11      10.2910      2.00000
     12      10.3922      2.00000
     13      11.6228      2.00000
     14      12.1276      2.00000
     15      14.5656      2.00000
     16      14.7904      2.00000
     17      15.7148      0.00000
     18      21.5701      0.00000
     19      23.6052      0.00000
     20      26.4187      0.00000
     21      27.2187      0.00000
     22      31.1852      0.00000
     23      33.7834      0.00000
     24      33.9655      0.00000

 k-point    12 :       0.3000    0.2000    0.0000
  band No.  band energies     occupation 
      1     -38.5035      2.00000
      2     -38.4409      2.00000
      3     -38.1857      2.00000
      4     -38.0854      2.00000
      5     -38.0599      2.00000
      6     -37.8316      2.00000
      7       7.8667      2.00000
      8       7.9449      2.00000
      9       8.0782      2.00000
     10       9.6158      2.00000
     11      10.1074      2.00000
     12      10.9603      2.00000
     13      11.1037      2.00000
     14      13.2110      2.00000
     15      14.5940      2.00000
     16      15.1851      1.54369
     17      17.8659      0.00000
     18      22.5681      0.00000
     19      23.5174      0.00000
     20      24.8978      0.00000
     21      25.9566      0.00000
     22      30.6714      0.00000
     23      30.8677      0.00000
     24      32.6598      0.00000

 k-point    13 :       0.4000    0.2000    0.0000
  band No.  band energies     occupation 
      1     -38.5486      2.00000
      2     -38.4580      2.00000
      3     -38.2364      2.00000
      4     -38.1171      2.00000
      5     -38.0079      2.00000
      6     -37.8683      2.00000
      7       7.6736      2.00000
      8       7.8479      2.00000
      9       8.0680      2.00000
     10      10.2949      2.00000
     11      10.3462      2.00000
     12      10.4566      2.00000
     13      11.4515      2.00000
     14      14.2615      2.00000
     15      14.5219      2.00000
     16      14.9272      2.00000
     17      19.5372      0.00000
     18      20.3404      0.00000
     19      23.4589      0.00000
     20      25.6532      0.00000
     21      27.2146      0.00000
     22      28.7210      0.00000
     23      30.3941      0.00000
     24      31.8440      0.00000

 k-point    14 :       0.3000    0.3000    0.0000
  band No.  band energies     occupation 
      1     -38.4758      2.00000
      2     -38.4067      2.00000
      3     -38.3128      2.00000
      4     -38.2252      2.00000
      5     -37.9782      2.00000
      6     -37.8914      2.00000
      7       7.7783      2.00000
      8       8.5798      2.00000
      9       8.8784      2.00000
     10       9.4556      2.00000
     11      10.0519      2.00000
     12      10.4196      2.00000
     13      11.5811      2.00000
     14      13.7056      2.00000
     15      14.2848      2.00000
     16      14.6963      2.00000
     17      19.6590      0.00000
     18      20.8515      0.00000
     19      22.2733      0.00000
     20      26.8321      0.00000
     21      28.3804      0.00000
     22      29.8425      0.00000
     23      30.9915      0.00000
     24      31.0156      0.00000

 k-point    15 :       0.0000    0.0000    0.1250
  band No.  band energies     occupation 
      1     -38.3678      2.00000
      2     -37.8651      2.00000
      3     -37.8651      2.00000
      4     -37.7899      2.00000
      5     -37.7899      2.00000
      6     -37.7287      2.00000
      7       3.3927      2.00000
      8       6.0036      2.00000
      9       9.7889      2.00000
     10      10.4983      2.00000
     11      10.4983      2.00000
     12      10.9883      2.00000
     13      10.9883      2.00000
     14      12.8467      2.00000
     15      12.8467      2.00000
     16      12.9829      2.00000
     17      14.8730      2.00000
     18      14.8730      2.00000
     19      22.2149      0.00000
     20      29.3030      0.00000
     21      31.3732      0.00000
     22      31.9887      0.00000
     23      36.9233      0.00000
     24      36.9233      0.00000

 k-point    16 :       0.1000    0.0000    0.1250
  band No.  band energies     occupation 
      1     -38.3448      2.00000
      2     -37.9385      2.00000
      3     -37.8862      2.00000
      4     -37.8701      2.00000
      5     -37.8050      2.00000
      6     -37.7294      2.00000
      7       3.8284      2.00000
      8       6.4171      2.00000
      9       9.7468      2.00000
     10      10.4047      2.00000
     11      10.6766      2.00000
     12      10.8520      2.00000
     13      11.3316      2.00000
     14      11.7489      2.00000
     15      12.6268      2.00000
     16      12.6413      2.00000
     17      14.9563      2.00000
     18      16.3280      0.00000
     19      22.2537      0.00000
     20      30.0775      0.00000
     21      32.0022      0.00000
     22      32.6983      0.00000
     23      35.1191      0.00000
     24      36.3165      0.00000

 k-point    17 :       0.2000    0.0000    0.1250
  band No.  band energies     occupation 
      1     -38.2885      2.00000
      2     -38.1242      2.00000
      3     -38.0660      2.00000
      4     -37.9402      2.00000
      5     -37.8443      2.00000
      6     -37.7421      2.00000
      7       4.9715      2.00000
      8       7.2901      2.00000
      9       9.4860      2.00000
     10       9.7296      2.00000
     11      10.1273      2.00000
     12      11.2043      2.00000
     13      11.7008      2.00000
     14      12.1858      2.00000
     15      12.2365      2.00000
     16      12.4319      2.00000
     17      15.0807      1.99978
     18      18.2754      0.00000
     19      22.4944      0.00000
     20      30.7757      0.00000
     21      31.8854      0.00000
     22      33.4634      0.00000
     23      34.1741      0.00000
     24      34.6965      0.00000

 k-point    18 :       0.3000    0.0000    0.1250
  band No.  band energies     occupation 
      1     -38.3847      2.00000
      2     -38.3016      2.00000
      3     -38.1715      2.00000
      4     -38.0054      2.00000
      5     -37.8939      2.00000
      6     -37.7698      2.00000
      7       6.1833      2.00000
      8       7.3280      2.00000
      9       8.6353      2.00000
     10       9.5684      2.00000
     11      10.3607      2.00000
     12      11.4176      2.00000
     13      11.4775      2.00000
     14      13.0009      2.00000
     15      13.4924      2.00000
     16      13.7418      2.00000
     17      15.1501      1.91737
     18      19.6440      0.00000
     19      23.2895      0.00000
     20      27.4828      0.00000
     21      30.5483      0.00000
     22      31.5786      0.00000
     23      33.5671      0.00000
     24      35.2039      0.00000

 k-point    19 :       0.4000   -0.0000    0.1250
  band No.  band energies     occupation 
      1     -38.5680      2.00000
      2     -38.4830      2.00000
      3     -38.0866      2.00000
      4     -38.0564      2.00000
      5     -37.9347      2.00000
      6     -37.8098      2.00000
      7       6.5689      2.00000
      8       6.8661      2.00000
      9       8.0042      2.00000
     10       9.6424      2.00000
     11      11.1003      2.00000
     12      11.1303      2.00000
     13      12.0505      2.00000
     14      14.8823      2.00000
     15      15.0119      2.00000
     16      15.2901      0.02607
     17      15.4077      0.00000
     18      20.5921      0.00000
     19      23.2756      0.00000
     20      25.0942      0.00000
     21      29.0922      0.00000
     22      29.2945      0.00000
     23      29.9972      0.00000
     24      33.6745      0.00000

 k-point    20 :       0.5000   -0.0000    0.1250
  band No.  band energies     occupation 
      1     -38.6389      2.00000
      2     -38.5512      2.00000
      3     -38.0753      2.00000
      4     -38.0415      2.00000
      5     -37.9502      2.00000
      6     -37.8360      2.00000
      7       6.5927      2.00000
      8       6.6079      2.00000
      9       7.8017      2.00000
     10       9.7108      2.00000
     11      11.0029      2.00000
     12      11.2996      2.00000
     13      12.5986      2.00000
     14      15.0063      2.00000
     15      15.6880      0.00000
     16      15.9417      0.00000
     17      17.5854      0.00000
     18      19.5325      0.00000
     19      23.5360      0.00000
     20      24.4644      0.00000
     21      27.4619      0.00000
     22      28.3026      0.00000
     23      28.9111      0.00000
     24      33.2031      0.00000

 k-point    21 :       0.1000    0.1000    0.1250
  band No.  band energies     occupation 
      1     -38.3042      2.00000
      2     -38.0552      2.00000
      3     -38.0187      2.00000
      4     -37.9149      2.00000
      5     -37.8427      2.00000
      6     -37.7369      2.00000
      7       4.6330      2.00000
      8       7.1341      2.00000
      9       9.4152      2.00000
     10      10.0159      2.00000
     11      10.4980      2.00000
     12      10.7977      2.00000
     13      11.5758      2.00000
     14      11.8577      2.00000
     15      12.2763      2.00000
     16      12.6406      2.00000
     17      14.9727      2.00000
     18      17.8265      0.00000
     19      22.4005      0.00000
     20      31.1629      0.00000
     21      32.6988      0.00000
     22      33.0632      0.00000
     23      33.2799      0.00000
     24      35.4459      0.00000

 k-point    22 :       0.2000    0.1000    0.1250
  band No.  band energies     occupation 
      1     -38.2917      2.00000
      2     -38.2243      2.00000
      3     -38.1831      2.00000
      4     -37.9898      2.00000
      5     -37.9023      2.00000
      6     -37.7576      2.00000
      7       5.9339      2.00000
      8       7.8320      2.00000
      9       8.9645      2.00000
     10       9.2588      2.00000
     11      10.0072      2.00000
     12      10.8629      2.00000
     13      11.8189      2.00000
     14      12.0220      2.00000
     15      13.2514      2.00000
     16      13.6058      2.00000
     17      14.9791      2.00000
     18      19.3514      0.00000
     19      23.0328      0.00000
     20      29.2714      0.00000
     21      30.9727      0.00000
     22      31.7849      0.00000
     23      33.7568      0.00000
     24      36.1361      0.00000

 k-point    23 :       0.3000    0.1000    0.1250
  band No.  band energies     occupation 
      1     -38.4753      2.00000
      2     -38.4036      2.00000
      3     -38.1191      2.00000
      4     -38.0647      2.00000
      5     -37.9592      2.00000
      6     -37.7933      2.00000
      7       6.8358      2.00000
      8       7.4388      2.00000
      9       8.2773      2.00000
     10       9.4442      2.00000
     11      10.6111      2.00000
     12      11.0841      2.00000
     13      11.3916      2.00000
     14      13.1602      2.00000
     15      14.6626      2.00000
     16      14.7500      2.00000
     17      15.7079      0.00000
     18      20.5602      0.00000
     19      23.9268      0.00000
     20      25.8631      0.00000
     21      28.6316      0.00000
     22      30.2866      0.00000
     23      32.2245      0.00000
     24      34.1405      0.00000

 k-point    24 :       0.4000    0.1000    0.1250
  band No.  band energies     occupation 
      1     -38.5989      2.00000
      2     -38.5144      2.00000
      3     -38.1183      2.00000
      4     -38.0386      2.00000
      5     -37.9943      2.00000
      6     -37.8335      2.00000
      7       6.8801      2.00000
      8       7.0344      2.00000
      9       8.0072      2.00000
     10       9.6404      2.00000
     11      10.6537      2.00000
     12      11.4604      2.00000
[...]
      1     -38.3824      2.00000
      2     -38.3824      2.00000
      3     -37.9494      2.00000
      4     -37.9494      2.00000
      5     -37.9311      2.00000
      6     -37.9311      2.00000
      7       6.9272      2.00000
      8       6.9272      2.00000
      9       8.6415      2.00000
     10       8.6415      2.00000
     11      11.2118      2.00000
     12      11.2118      2.00000
     13      12.5534      2.00000
     14      12.5534      2.00000
     15      14.2191      2.00000
     16      14.2191      2.00000
     17      14.9975      2.00000
     18      14.9975      2.00000
     19      27.8602      0.00000
     20      27.8602      0.00000
     21      31.1642      0.00000
     22      31.1642      0.00000
     23      35.3313      0.00000
     24      35.3313      0.00000

 k-point    61 :       0.4000   -0.0000    0.5000
  band No.  band energies     occupation 
      1     -38.5622      2.00000
      2     -38.5622      2.00000
      3     -37.9951      2.00000
      4     -37.9951      2.00000
      5     -37.9097      2.00000
      6     -37.9097      2.00000
      7       6.6407      2.00000
      8       6.6407      2.00000
      9       8.2747      2.00000
     10       8.2747      2.00000
     11      12.6985      2.00000
     12      12.6985      2.00000
     13      13.1183      2.00000
     14      13.1183      2.00000
     15      15.2540      0.22908
     16      15.2540      0.22908
     17      15.8505      0.00000
     18      15.8505      0.00000
     19      25.1613      0.00000
     20      25.1613      0.00000
     21      30.4189      0.00000
     22      30.4189      0.00000
     23      33.2910      0.00000
     24      33.2910      0.00000

 k-point    62 :       0.5000   -0.0000    0.5000
  band No.  band energies     occupation 
      1     -38.6305      2.00000
      2     -38.6305      2.00000
      3     -38.0129      2.00000
      4     -38.0129      2.00000
      5     -37.9007      2.00000
      6     -37.9007      2.00000
      7       6.4917      2.00000
      8       6.4917      2.00000
      9       8.1276      2.00000
     10       8.1276      2.00000
     11      12.6750      2.00000
     12      12.6750      2.00000
     13      13.8380      2.00000
     14      13.8380      2.00000
     15      15.8258      0.00000
     16      15.8258      0.00000
     17      16.9256      0.00000
     18      16.9256      0.00000
     19      23.2759      0.00000
     20      23.2759      0.00000
     21      30.1849      0.00000
     22      30.1849      0.00000
     23      32.3267      0.00000
     24      32.3267      0.00000

 k-point    63 :       0.1000    0.1000    0.5000
  band No.  band energies     occupation 
      1     -38.1221      2.00000
      2     -38.1221      2.00000
      3     -37.9378      2.00000
      4     -37.9378      2.00000
      5     -37.8809      2.00000
      6     -37.8809      2.00000
      7       6.4148      2.00000
      8       6.4148      2.00000
      9       9.1576      2.00000
     10       9.1576      2.00000
     11      10.1130      2.00000
     12      10.1130      2.00000
     13      11.5173      2.00000
     14      11.5173      2.00000
     15      13.9195      2.00000
     16      13.9195      2.00000
     17      14.4918      2.00000
     18      14.4918      2.00000
     19      28.9744      0.00000
     20      28.9744      0.00000
     21      32.2606      0.00000
     22      32.2606      0.00000
     23      33.8980      0.00000
     24      33.8980      0.00000

 k-point    64 :       0.2000    0.1000    0.5000
  band No.  band energies     occupation 
      1     -38.2892      2.00000
      2     -38.2892      2.00000
      3     -37.9710      2.00000
      4     -37.9710      2.00000
      5     -37.9154      2.00000
      6     -37.9154      2.00000
      7       7.1831      2.00000
      8       7.1831      2.00000
      9       8.8932      2.00000
     10       8.8932      2.00000
     11      10.0382      2.00000
     12      10.0382      2.00000
     13      12.3311      2.00000
     14      12.3311      2.00000
     15      14.1797      2.00000
     16      14.1797      2.00000
     17      14.9111      2.00000
     18      14.9111      2.00000
     19      28.8206      0.00000
     20      28.8206      0.00000
     21      31.7411      0.00000
     22      31.7411      0.00000
     23      33.2730      0.00000
     24      33.2730      0.00000

 k-point    65 :       0.3000    0.1000    0.5000
  band No.  band energies     occupation 
      1     -38.4758      2.00000
      2     -38.4758      2.00000
      3     -38.0274      2.00000
      4     -38.0274      2.00000
      5     -37.9040      2.00000
      6     -37.9040      2.00000
      7       7.0795      2.00000
      8       7.0795      2.00000
      9       8.5962      2.00000
     10       8.5962      2.00000
     11      11.3413      2.00000
     12      11.3413      2.00000
     13      12.4810      2.00000
     14      12.4810      2.00000
     15      15.0518      1.99999
     16      15.0518      1.99999
     17      15.9759      0.00000
     18      15.9759      0.00000
     19      26.7501      0.00000
     20      26.7501      0.00000
     21      30.8514      0.00000
     22      30.8514      0.00000
     23      32.1762      0.00000
     24      32.1762      0.00000

 k-point    66 :       0.4000    0.1000    0.5000
  band No.  band energies     occupation 
      1     -38.5916      2.00000
      2     -38.5916      2.00000
      3     -38.0657      2.00000
      4     -38.0657      2.00000
      5     -37.8898      2.00000
      6     -37.8898      2.00000
      7       6.8363      2.00000
      8       6.8363      2.00000
      9       8.3490      2.00000
     10       8.3490      2.00000
     11      11.9015      2.00000
     12      11.9015      2.00000
     13      13.4254      2.00000
     14      13.4254      2.00000
     15      15.1781      1.65514
     16      15.1781      1.65514
     17      17.9304      0.00000
     18      17.9304      0.00000
     19      23.8945      0.00000
     20      23.8945      0.00000
     21      30.6103      0.00000
     22      30.6103      0.00000
     23      30.9862      0.00000
     24      30.9862      0.00000

 k-point    67 :       0.2000    0.2000    0.5000
  band No.  band energies     occupation 
      1     -38.4182      2.00000
      2     -38.4182      2.00000
      3     -38.0672      2.00000
      4     -38.0672      2.00000
      5     -37.8990      2.00000
      6     -37.8990      2.00000
      7       7.5499      2.00000
      8       7.5499      2.00000
      9       9.1635      2.00000
     10       9.1635      2.00000
     11       9.8976      2.00000
     12       9.8976      2.00000
     13      12.1130      2.00000
     14      12.1130      2.00000
     15      15.2020      1.21129
     16      15.2020      1.21129
     17      16.1253      0.00000
     18      16.1253      0.00000
     19      27.9480      0.00000
     20      27.9480      0.00000
     21      30.3169      0.00000
     22      30.3169      0.00000
     23      31.6969      0.00000
     24      31.6969      0.00000

 k-point    68 :       0.3000    0.2000    0.5000
  band No.  band energies     occupation 
      1     -38.5092      2.00000
      2     -38.5092      2.00000
      3     -38.1623      2.00000
      4     -38.1623      2.00000
      5     -37.8799      2.00000
      6     -37.8799      2.00000
      7       7.5561      2.00000
      8       7.5561      2.00000
      9       8.9689      2.00000
     10       8.9689      2.00000
     11      10.6591      2.00000
     12      10.6591      2.00000
     13      12.0689      2.00000
     14      12.0689      2.00000
     15      15.2880      0.03050
     16      15.2880      0.03050
     17      18.6795      0.00000
     18      18.6795      0.00000
     19      25.2548      0.00000
     20      25.2548      0.00000
     21      28.7992      0.00000
     22      28.7992      0.00000
     23      31.7951      0.00000
     24      31.7951      0.00000

 k-point    69 :       0.4000    0.2000    0.5000
  band No.  band energies     occupation 
      1     -38.5409      2.00000
      2     -38.5409      2.00000
      3     -38.2015      2.00000
      4     -38.2015      2.00000
      5     -37.8722      2.00000
      6     -37.8722      2.00000
      7       7.5356      2.00000
      8       7.5356      2.00000
      9       8.8520      2.00000
     10       8.8520      2.00000
     11      10.7265      2.00000
     12      10.7265      2.00000
     13      12.6655      2.00000
     14      12.6655      2.00000
     15      15.0887      1.99949
     16      15.0887      1.99949
     17      20.4857      0.00000
     18      20.4857      0.00000
     19      23.3226      0.00000
     20      23.3226      0.00000
     21      28.0624      0.00000
     22      28.0624      0.00000
     23      32.1748      0.00000
     24      32.1748      0.00000

 k-point    70 :       0.3000    0.3000    0.5000
  band No.  band energies     occupation 
      1     -38.4690      2.00000
      2     -38.4690      2.00000
      3     -38.3061      2.00000
      4     -38.3061      2.00000
      5     -37.8663      2.00000
      6     -37.8663      2.00000
      7       8.0887      2.00000
      8       8.0887      2.00000
      9       9.1720      2.00000
     10       9.1720      2.00000
     11      10.2472      2.00000
     12      10.2472      2.00000
     13      11.9127      2.00000
     14      11.9127      2.00000
     15      15.0635      1.99997
     16      15.0635      1.99997
     17      21.5561      0.00000
     18      21.5561      0.00000
     19      23.8265      0.00000
     20      23.8265      0.00000
     21      26.2743      0.00000
     22      26.2743      0.00000
     23      33.5855      0.00000
     24      33.5855      0.00000


--------------------------------------------------------------------------------------------------------


 soft charge-density along one line, spin component           1
         0         1         2         3         4         5         6         7         8         9
 total charge-density along one line
 
 pseudopotential strength for first ion, spin component:           1
-30.468  -0.000   0.000   9.515   0.000  -0.000   0.000  -0.000
 -0.000 -30.399  -0.000   0.000   9.445   0.000  -0.000   0.000
  0.000  -0.000 -30.468  -0.000   0.000   9.515   0.000  -0.000
  9.515   0.000  -0.000  16.747  -0.000   0.000  -0.000   0.000
  0.000   9.445   0.000  -0.000  16.771  -0.000   0.000  -0.000
 -0.000   0.000   9.515   0.000  -0.000  16.747  -0.000   0.000
  0.000  -0.000   0.000  -0.000   0.000  -0.000  -2.919  -0.000
 -0.000   0.000  -0.000   0.000  -0.000   0.000  -0.000  -2.872
  0.000  -0.000  -0.000  -0.000   0.000   0.000  -0.000  -0.000
 -0.000  -0.000  -0.000   0.000   0.000   0.000  -0.000   0.000
  0.000  -0.000   0.000  -0.000   0.000  -0.000  -0.000   0.000
  0.000  -0.000   0.000  -0.000   0.000  -0.000  -3.052  -0.000
 -0.000   0.000  -0.000   0.000  -0.000   0.000  -0.000  -2.999
  0.000  -0.000  -0.000  -0.000   0.000   0.000  -0.000  -0.000
 -0.000  -0.000  -0.000   0.000   0.000   0.000  -0.000   0.000
  0.000  -0.000   0.000  -0.000   0.000  -0.000  -0.000   0.000
 -0.000   0.000   0.000  -0.000   0.000   0.000  -0.000   0.000
  0.000  -0.000  -0.000   0.000  -0.000  -0.000   0.000  -0.000
 total augmentation occupancy for first ion, spin component:           1
  2.004   0.000  -0.000  -0.023  -0.000   0.000   0.000  -0.000  -0.000   0.000   0.005  -0.000   0.000   0.000   0.000  -0.005
  0.000   2.003  -0.000   0.000  -0.021  -0.000   0.000   0.000   0.000   0.000  -0.000   0.000   0.000   0.000   0.000  -0.000
 -0.000   0.000   2.004   0.000   0.000  -0.023   0.005   0.000   0.000   0.000   0.000  -0.005   0.000  -0.000  -0.000  -0.000
 -0.023   0.000   0.000   0.073   0.000  -0.000  -0.000   0.000   0.000   0.000  -0.039  -0.000   0.000  -0.000   0.000   0.037
  0.000  -0.021   0.000  -0.000   0.062  -0.000   0.000  -0.000   0.000  -0.000  -0.000  -0.000   0.000   0.000   0.000   0.000
  0.000   0.000  -0.023   0.000   0.000   0.073  -0.039   0.000  -0.000   0.000  -0.000   0.037   0.000   0.000   0.000   0.000
  0.000   0.000   0.005  -0.000   0.000  -0.039   8.006   0.000   0.000  -0.000   0.000  -5.104  -0.000  -0.000   0.000  -0.000
  0.000   0.000   0.000  -0.000   0.000   0.000  -0.000   6.967  -0.000  -0.000   0.000   0.000  -4.563  -0.000  -0.000  -0.000
 -0.000   0.000   0.000   0.000   0.000  -0.000   0.000  -0.000   8.091  -0.000   0.000  -0.000  -0.000  -5.195   0.000   0.000
  0.000   0.000  -0.000   0.000  -0.000   0.000   0.000   0.000   0.000   6.967  -0.000  -0.000   0.000   0.000  -4.563   0.000
  0.005  -0.000   0.000  -0.039   0.000  -0.000   0.000  -0.000   0.000   0.000   8.006  -0.000   0.000  -0.000   0.000  -5.104
 -0.000   0.000  -0.005   0.000  -0.000   0.037  -5.104   0.000  -0.000   0.000  -0.000   4.032   0.000   0.000   0.000   0.000
  0.000   0.000  -0.000   0.000   0.000   0.000  -0.000  -4.563   0.000   0.000   0.000   0.000   4.069  -0.000  -0.000   0.000
 -0.000   0.000  -0.000  -0.000   0.000   0.000  -0.000  -0.000  -5.195   0.000   0.000   0.000   0.000   4.121   0.000   0.000
  0.000   0.000  -0.000   0.000   0.000  -0.000   0.000   0.000  -0.000  -4.563   0.000   0.000  -0.000   0.000   4.069   0.000
 -0.005  -0.000  -0.000   0.037   0.000   0.000  -0.000   0.000  -0.000   0.000  -5.104   0.000   0.000   0.000   0.000   4.032
 -0.000   0.000  -0.000   0.000   0.000   0.000  -0.000  -0.000  -0.282   0.000  -0.000   0.000   0.000   0.258   0.000   0.000
  0.000   0.000   0.000   0.000   0.000   0.000  -0.000  -0.000   0.004   0.000   0.000   0.000   0.000   0.002   0.000   0.000


------------------------ aborting loop because EDIFF is reached ----------------------------------------





 total charge

# of ion       s       p       d       tot
------------------------------------------
    1        0.391   6.136   7.148  13.675
    2        0.391   6.136   7.148  13.675
--------------------------------------------------
tot          0.783  12.272  14.296  27.350
 
    CHARGE:  cpu time      0.0148: real time      0.0148
    FORLOC:  cpu time      0.0001: real time      0.0001
    FORNL :  cpu time      0.0135: real time      0.0136
    STRESS:  cpu time      0.1521: real time      0.1527
    FORCOR:  cpu time      0.0024: real time      0.0024
    FORHAR:  cpu time      0.0005: real time      0.0005
    MIXING:  cpu time      0.0002: real time      0.0002
    OFIELD:  cpu time      0.0000: real time      0.0000

  FORCE on cell =-STRESS in cart. coord.  units (eV):
  Direction    XX          YY          ZZ          XY          YZ          ZX
  --------------------------------------------------------------------------------------
  Alpha Z   369.11430   369.11430   369.11430
  Ewald   -1467.98299 -1467.98299 -1589.70540     0.00000     0.00000    -0.00000
  Hartree   235.19541   235.19541   187.53488    -0.00000    -0.00000    -0.00000
  E(xc)    -172.71213  -172.71213  -172.94608    -0.00000    -0.00000    -0.00000
  Local     253.97845   253.97846   408.97922     0.00001    -0.00000    -0.00000
  n-local   -49.52903   -52.72703   -53.62005   -14.93481     4.00696     3.46159
  augment   145.18195   145.18192   149.03538    -0.00003     0.00000    -0.00000
  Kinetic   704.11811   698.62530   712.99301   -19.99339     4.30535     1.02160
  Fock        0.00000     0.00000     0.00000     0.00000     0.00000     0.00000
  -------------------------------------------------------------------------------------
  Total      13.01865    13.01865    11.38525     0.00000    -0.00000     0.00000
  in kB     802.21267   802.21267   701.56236     0.00000    -0.00000     0.00000
  external pressure =      768.66 kB  Pullay stress =        0.00 kB


 VOLUME and BASIS-vectors are now :
 -----------------------------------------------------------------------------
  energy-cutoff  :      450.00
  volume of cell :       26.00
      direct lattice vectors                 reciprocal lattice vectors
     2.587793795  0.000000000  0.000000000     0.386429553  0.223105207  0.000000000
    -1.293896897  2.241095166  0.000000000     0.000000000  0.446210413  0.000000000
     0.000000000  0.000000000  4.483292441     0.000000000  0.000000000  0.223050362

  length of vectors
     2.587793795  2.587793795  4.483292441     0.446210413  0.446210413  0.223050362


 FORCES acting on ions
    electron-ion (+dipol)            ewald-force                    non-local-force                 convergence-correction
 -----------------------------------------------------------------------------------------------
   0.130E-07 -.749E-08 0.692E-13   0.212E-11 -.125E-11 -.774E-13   -.101E-15 0.000E+00 0.000E+00   0.984E-08 -.568E-08 -.134E-13
   -.130E-07 0.751E-08 -.184E-11   -.215E-11 0.124E-11 0.774E-13   0.902E-16 0.000E+00 0.000E+00   -.984E-08 0.568E-08 -.975E-13
 -----------------------------------------------------------------------------------------------
   -.343E-10 0.198E-10 -.177E-11   -.283E-13 -.293E-14 0.000E+00   -.104E-16 0.000E+00 0.000E+00   -.190E-12 0.912E-13 -.111E-12
 
 
 POSITION                                       TOTAL-FORCE (eV/Angst)
 -----------------------------------------------------------------------------------
      0.00000      0.00000      0.00000         0.000000     -0.000000      0.000000
      0.00000      1.49406      2.24165        -0.000000      0.000000      0.000000
 -----------------------------------------------------------------------------------
    total drift:                               -0.000000      0.000000     -0.000000


--------------------------------------------------------------------------------------------------------



  FREE ENERGIE OF THE ION-ELECTRON SYSTEM (eV)
  ---------------------------------------------------
  free  energy   TOTEN  =       -10.91584256 eV

  energy  without entropy=      -10.91271117  energy(sigma->0) =      -10.91427687
 


--------------------------------------------------------------------------------------------------------


    POTLOK:  cpu time      0.0051: real time      0.0052


--------------------------------------------------------------------------------------------------------




--------------------------------------------------------------------------------------------------------


  
 reached required accuracy - stopping structural energy minimisation
 writing wavefunctions
     LOOP+:  cpu time      4.8038: real time      4.8798
    4ORBIT:  cpu time      0.0000: real time      0.0000



 total charge

# of ion       s       p       d       tot
------------------------------------------
    1        0.391   6.136   7.148  13.675
    2        0.391   6.136   7.148  13.675
--------------------------------------------------
tot          0.783  12.272  14.296  27.350
 

 total amount of memory used by VASP MPI-rank0    37663. kBytes
=======================================================================

   base      :      30000. kBytes
   nonl-proj :       6067. kBytes
   fftplans  :        195. kBytes
   grid      :        645. kBytes
   one-center:         31. kBytes
   wavefun   :        725. kBytes
 
  
  
 General timing and accounting informations for this job:
 ========================================================
  
                  Total CPU time used (sec):        5.697
                            User time (sec):        5.191
                          System time (sec):        0.505
                         Elapsed time (sec):        8.608
  
                   Maximum memory used (kb):      226268.
                   Average memory used (kb):          N/A
  
                          Minor page faults:        23455
                          Major page faults:           64
                 Voluntary context switches:         2241
