PROCAR lm decomposed
# of k-points:   70         # of bands:   24         # of ions:    2

 k-point     1 :    0.00000000 0.00000000 0.00000000     weight = 0.00125000

band     1 # energy  -38.39200530 # occ.  2.00000000
 
ion      s     py     pz     px    dxy    dyz    dz2    dxz  x2-y2    tot
    1  0.000  0.000  0.488  0.000  0.000  0.000  0.000  0.000  0.000  0.488
    2  0.000  0.000  0.488  0.000  0.000  0.000  0.000  0.000  0.000  0.488
tot    0.000  0.000  0.977  0.000  0.000  0.000  0.000  0.000  0.000  0.977
 
band     2 # energy  -37.86774327 # occ.  2.00000000
 
ion      s     py     pz     px    dxy    dyz    dz2    dxz  x2-y2    tot
    1  0.000  0.125  0.000  0.374  0.000  0.000  0.000  0.000  0.000  0.499
    2  0.000  0.125  0.000  0.374  0.000  0.000  0.000  0.000  0.000  0.499
tot    0.000  0.249  0.000  0.748  0.000  0.000  0.000  0.000  0.000  0.998
 
band     3 # energy  -37.86774217 # occ.  2.00000000
 
ion      s     py     pz     px    dxy    dyz    dz2    dxz  x2-y2    tot
    1  0.000  0.374  0.000  0.125  0.000  0.000  0.000  0.000  0.000  0.499
    2  0.000  0.374  0.000  0.125  0.000  0.000  0.000  0.000  0.000  0.499
tot    0.000  0.748  0.000  0.249  0.000  0.000  0.000  0.000  0.000  0.998
 
band     4 # energy  -37.78682574 # occ.  2.00000000
 
ion      s     py     pz     px    dxy    dyz    dz2    dxz  x2-y2    tot
    1  0.000  0.125  0.000  0.375  0.000  0.000  0.000  0.000  0.000  0.500
    2  0.000  0.125  0.000  0.375  0.000  0.000  0.000  0.000  0.000  0.500
tot    0.000  0.250  0.000  0.750  0.000  0.000  0.000  0.000  0.000  1.000
 
band     5 # energy  -37.78682464 # occ.  2.00000000
 
ion      s     py     pz     px    dxy    dyz    dz2    dxz  x2-y2    tot
    1  0.000  0.375  0.000  0.125  0.000  0.000  0.000  0.000  0.000  0.500
    2  0.000  0.375  0.000  0.125  0.000  0.000  0.000  0.000  0.000  0.500
tot    0.000  0.750  0.000  0.250  0.000  0.000  0.000  0.000  0.000  1.000
 
band     6 # energy  -37.70139511 # occ.  2.00000000
 
ion      s     py     pz     px    dxy    dyz    dz2    dxz  x2-y2    tot
    1  0.000  0.000  0.499  0.000  0.000  0.000  0.000  0.000  0.000  0.499
    2  0.000  0.000  0.499  0.000  0.000  0.000  0.000  0.000  0.000  0.499
tot    0.000  0.000  0.998  0.000  0.000  0.000  0.000  0.000  0.000  0.998
 
band     7 # energy    3.22856782 # occ.  2.00000000
 
ion      s     py     pz     px    dxy    dyz    dz2    dxz  x2-y2    tot
    1  0.233  0.000  0.000  0.000  0.000  0.000  0.000  0.000  0.000  0.234
    2  0.233  0.000  0.000  0.000  0.000  0.000  0.000  0.000  0.000  0.234
tot    0.467  0.000  0.000  0.000  0.000  0.000  0.001  0.000  0.000  0.468
 
band     8 # energy    6.00531830 # occ.  2.00000000
 
ion      s     py     pz     px    dxy    dyz    dz2    dxz  x2-y2    tot
    1  0.094  0.000  0.000  0.000  0.000  0.000  0.249  0.000  0.000  0.344
    2  0.094  0.000  0.000  0.000  0.000  0.000  0.249  0.000  0.000  0.344
tot    0.189  0.000  0.000  0.000  0.000  0.000  0.499  0.000  0.000  0.687
 
band     9 # energy    9.83676398 # occ.  2.00000000
 
ion      s     py     pz     px    dxy    dyz    dz2    dxz  x2-y2    tot
    1  0.000  0.000  0.000  0.000  0.000  0.000  0.426  0.000  0.000  0.426
    2  0.000  0.000  0.000  0.000  0.000  0.000  0.426  0.000  0.000  0.426
tot    0.000  0.000  0.000  0.000  0.000  0.000  0.852  0.000  0.000  0.852
 
band    10 # energy   10.52511637 # occ.  2.00000000
 
ion      s     py     pz     px    dxy    dyz    dz2    dxz  x2-y2    tot
    1  0.000  0.000  0.000  0.000  0.108  0.000  0.000  0.000  0.325  0.433
    2  0.000  0.000  0.000  0.000  0.108  0.000  0.000  0.000  0.325  0.433
tot    0.000  0.000  0.000  0.000  0.216  0.000  0.000  0.000  0.649  0.866
 
band    11 # energy   10.52511699 # occ.  2.00000000
 
ion      s     py     pz     px    dxy    dyz    dz2    dxz  x2-y2    tot
    1  0.000  0.000  0.000  0.000  0.325  0.000  0.000  0.000  0.108  0.433
    2  0.000  0.000  0.000  0.000  0.325  0.000  0.000  0.000  0.108  0.433
tot    0.000  0.000  0.000  0.000  0.649  0.000  0.000  0.000  0.216  0.866
 
band    12 # energy   11.04337994 # occ.  2.00000000
 
ion      s     py     pz     px    dxy    dyz    dz2    dxz  x2-y2    tot
    1  0.000  0.000  0.000  0.000  0.111  0.000  0.000  0.000  0.332  0.443
    2  0.000  0.000  0.000  0.000  0.111  0.000  0.000  0.000  0.332  0.443
tot    0.000  0.000  0.000  0.000  0.221  0.000  0.000  0.000  0.664  0.887
 
band    13 # energy   11.04338060 # occ.  2.00000000
 
ion      s     py     pz     px    dxy    dyz    dz2    dxz  x2-y2    tot
    1  0.000  0.000  0.000  0.000  0.332  0.000  0.000  0.000  0.111  0.443
    2  0.000  0.000  0.000  0.000  0.332  0.000  0.000  0.000  0.111  0.443
tot    0.000  0.000  0.000  0.000  0.664  0.000  0.000  0.000  0.221  0.887
 
band    14 # energy   12.70909727 # occ.  2.00000000
 
ion      s     py     pz     px    dxy    dyz    dz2    dxz  x2-y2    tot
    1  0.000  0.000  0.000  0.000  0.000  0.113  0.000  0.339  0.000  0.452
    2  0.000  0.000  0.000  0.000  0.000  0.113  0.000  0.339  0.000  0.452
tot    0.000  0.000  0.000  0.000  0.000  0.226  0.000  0.678  0.000  0.904
 
band    15 # energy   12.70909783 # occ.  2.00000000
 
ion      s     py     pz     px    dxy    dyz    dz2    dxz  x2-y2    tot
    1  0.000  0.000  0.000  0.000  0.000  0.339  0.000  0.113  0.000  0.452
    2  0.000  0.000  0.000  0.000  0.000  0.339  0.000  0.113  0.000  0.452
tot    0.000  0.000  0.000  0.000  0.000  0.678  0.000  0.226  0.000  0.904
 
band    16 # energy   13.61792714 # occ.  2.00000000
 
ion      s     py     pz     px    dxy    dyz    dz2    dxz  x2-y2    tot
    1  0.000  0.000  0.111  0.000  0.000  0.000  0.000  0.000  0.000  0.111
    2  0.000  0.000  0.111  0.000  0.000  0.000  0.000  0.000  0.000  0.111
tot    0.000  0.000  0.222  0.000  0.000  0.000  0.000  0.000  0.000  0.222
 
band    17 # energy   14.90558862 # occ.  2.00000000
 
ion      s     py     pz     px    dxy    dyz    dz2    dxz  x2-y2    tot
    1  0.000  0.000  0.000  0.000  0.000  0.117  0.000  0.352  0.000  0.470
    2  0.000  0.000  0.000  0.000  0.000  0.117  0.000  0.352  0.000  0.470
tot    0.000  0.000  0.000  0.000  0.000  0.235  0.000  0.704  0.000  0.939
 
band    18 # energy   14.90558927 # occ.  2.00000000
 
ion      s     py     pz     px    dxy    dyz    dz2    dxz  x2-y2    tot
    1  0.000  0.000  0.000  0.000  0.000  0.352  0.000  0.117  0.000  0.470
    2  0.000  0.000  0.000  0.000  0.000  0.352  0.000  0.117  0.000  0.470
tot    0.000  0.000  0.000  0.000  0.000  0.704  0.000  0.235  0.000  0.939
 
band    19 # energy   21.34022967 # occ.  0.00000000
 
ion      s     py     pz     px    dxy    dyz    dz2    dxz  x2-y2    tot
    1  0.201  0.000  0.000  0.000  0.000  0.000  0.223  0.000  0.000  0.423
    2  0.201  0.000  0.000  0.000  0.000  0.000  0.223  0.000  0.000  0.423
tot    0.401  0.000  0.000  0.000  0.000  0.000  0.445  0.000  0.000  0.846
 
band    20 # energy   29.77331992 # occ.  0.00000000
 
ion      s     py     pz     px    dxy    dyz    dz2    dxz  x2-y2    tot
    1  0.003  0.000  0.000  0.000  0.000  0.000  0.002  0.000  0.000  0.006
    2  0.003  0.000  0.000  0.000  0.000  0.000  0.002  0.000  0.000  0.006
tot    0.006  0.000  0.000  0.000  0.000  0.000  0.005  0.000  0.000  0.011
 
band    21 # energy   30.66938648 # occ.  0.00000000
 
ion      s     py     pz     px    dxy    dyz    dz2    dxz  x2-y2    tot
    1  0.000  0.000  0.017  0.000  0.000  0.000  0.000  0.000  0.000  0.017
    2  0.000  0.000  0.017  0.000  0.000  0.000  0.000  0.000  0.000  0.017
tot    0.000  0.000  0.034  0.000  0.000  0.000  0.000  0.000  0.000  0.034
 
band    22 # energy   32.34340196 # occ.  0.00000000
 
ion      s     py     pz     px    dxy    dyz    dz2    dxz  x2-y2    tot
    1  0.000  0.000  0.000  0.000  0.000  0.000  0.022  0.000  0.000  0.022
    2  0.000  0.000  0.000  0.000  0.000  0.000  0.022  0.000  0.000  0.022
tot    0.000  0.000  0.000  0.000  0.000  0.000  0.044  0.000  0.000  0.044
 
band    23 # energy   38.29962937 # occ.  0.00000000
 
ion      s     py     pz     px    dxy    dyz    dz2    dxz  x2-y2    tot
    1  0.000  0.000  0.000  0.000  0.000  0.000  0.000  0.030  0.000  0.031
    2  0.000  0.000  0.000  0.000  0.000  0.000  0.000  0.030  0.000  0.031
tot    0.000  0.000  0.000  0.000  0.000  0.000  0.000  0.061  0.000  0.062
 
band    24 # energy   38.30057495 # occ.  0.00000000
 
ion      s     py     pz     px    dxy    dyz    dz2    dxz  x2-y2    tot
    1  0.000  0.000  0.000  0.002  0.000  0.030  0.000  0.000  0.000  0.033
    2  0.000  0.000  0.000  0.002  0.000  0.030  0.000  0.000  0.000  0.033
tot    0.000  0.001  0.000  0.005  0.001  0.060  0.000  0.000  0.000  0.067
 

 k-point     2 :    0.10000000 0.00000000 0.00000000     weight = 0.00750000

band     1 # energy  -38.36826875 # occ.  2.00000000
 
ion      s     py     pz     px    dxy    dyz    dz2    dxz  x2-y2    tot
    1  0.000  0.000  0.489  0.000  0.000  0.000  0.000  0.000  0.000  0.489
    2  0.000  0.000  0.489  0.000  0.000  0.000  0.000  0.000  0.000  0.489
tot    0.000  0.000  0.978  0.000  0.000  0.000  0.000  0.000  0.000  0.978
 
band     2 # energy  -37.94289898 # occ.  2.00000000
 
ion      s     py     pz     px    dxy    dyz    dz2    dxz  x2-y2    tot
    1  0.000  0.124  0.000  0.373  0.000  0.000  0.000  0.000  0.000  0.498
    2  0.000  0.124  0.000  0.373  0.000  0.000  0.000  0.000  0.000  0.498
tot    0.000  0.249  0.000  0.747  0.000  0.000  0.000  0.000  0.000  0.996
 
band     3 # energy  -37.88955099 # occ.  2.00000000
 
ion      s     py     pz     px    dxy    dyz    dz2    dxz  x2-y2    tot
    1  0.000  0.374  0.000  0.125  0.000  0.000  0.000  0.000  0.000  0.499
    2  0.000  0.374  0.000  0.125  0.000  0.000  0.000  0.000  0.000  0.499
tot    0.000  0.748  0.000  0.249  0.000  0.000  0.000  0.000  0.000  0.997
 
band     4 # energy  -37.86358007 # occ.  2.00000000
 
ion      s     py     pz     px    dxy    dyz    dz2    dxz  x2-y2    tot
    1  0.000  0.125  0.000  0.374  0.000  0.000  0.000  0.000  0.000  0.499
    2  0.000  0.125  0.000  0.374  0.000  0.000  0.000  0.000  0.000  0.499
tot    0.000  0.249  0.000  0.748  0.000  0.000  0.000  0.000  0.000  0.998
 
band     5 # energy  -37.80148723 # occ.  2.00000000
 
ion      s     py     pz     px    dxy    dyz    dz2    dxz  x2-y2    tot
    1  0.000  0.375  0.000  0.125  0.000  0.000  0.000  0.000  0.000  0.500
    2  0.000  0.375  0.000  0.125  0.000  0.000  0.000  0.000  0.000  0.500
tot    0.000  0.750  0.000  0.250  0.000  0.000  0.000  0.000  0.000  0.999
 
band     6 # energy  -37.70695577 # occ.  2.00000000
 
ion      s     py     pz     px    dxy    dyz    dz2    dxz  x2-y2    tot
    1  0.000  0.000  0.499  0.000  0.000  0.000  0.000  0.000  0.000  0.499
    2  0.000  0.000  0.499  0.000  0.000  0.000  0.000  0.000  0.000  0.499
tot    0.000  0.000  0.998  0.000  0.000  0.000  0.000  0.000  0.000  0.998
 
band     7 # energy    3.66837346 # occ.  2.00000000
 
ion      s     py     pz     px    dxy    dyz    dz2    dxz  x2-y2    tot
    1  0.228  0.001  0.000  0.003  0.000  0.000  0.000  0.000  0.000  0.232
    2  0.228  0.001  0.000  0.003  0.000  0.000  0.000  0.000  0.000  0.232
tot    0.455  0.002  0.000  0.005  0.001  0.000  0.000  0.000  0.000  0.463
 
band     8 # energy    6.41101901 # occ.  2.00000000
 
ion      s     py     pz     px    dxy    dyz    dz2    dxz  x2-y2    tot
    1  0.086  0.001  0.000  0.002  0.002  0.000  0.252  0.000  0.001  0.344
    2  0.086  0.001  0.000  0.002  0.002  0.000  0.252  0.000  0.001  0.344
tot    0.172  0.002  0.000  0.005  0.004  0.000  0.504  0.000  0.001  0.688
 
band     9 # energy    9.74321615 # occ.  2.00000000
 
ion      s     py     pz     px    dxy    dyz    dz2    dxz  x2-y2    tot
    1  0.000  0.000  0.000  0.001  0.119  0.000  0.261  0.000  0.040  0.420
    2  0.000  0.000  0.000  0.001  0.119  0.000  0.261  0.000  0.040  0.420
tot    0.000  0.000  0.000  0.001  0.237  0.000  0.522  0.000  0.079  0.840
 
band    10 # energy   10.52814991 # occ.  2.00000000
 
ion      s     py     pz     px    dxy    dyz    dz2    dxz  x2-y2    tot
    1  0.000  0.000  0.000  0.000  0.214  0.000  0.145  0.000  0.071  0.430
    2  0.000  0.000  0.000  0.000  0.214  0.000  0.145  0.000  0.071  0.430
tot    0.000  0.000  0.000  0.001  0.427  0.000  0.289  0.000  0.142  0.860
 
band    11 # energy   10.82909018 # occ.  2.00000000
 
ion      s     py     pz     px    dxy    dyz    dz2    dxz  x2-y2    tot
    1  0.002  0.000  0.000  0.001  0.307  0.000  0.023  0.000  0.102  0.435
    2  0.002  0.000  0.000  0.001  0.307  0.000  0.023  0.000  0.102  0.435
tot    0.005  0.000  0.000  0.001  0.614  0.000  0.045  0.000  0.205  0.870
 
band    12 # energy   10.89107237 # occ.  2.00000000
 
ion      s     py     pz     px    dxy    dyz    dz2    dxz  x2-y2    tot
    1  0.000  0.001  0.000  0.000  0.108  0.000  0.000  0.000  0.325  0.434
    2  0.000  0.001  0.000  0.000  0.108  0.000  0.000  0.000  0.325  0.434
tot    0.000  0.001  0.000  0.000  0.216  0.000  0.000  0.000  0.649  0.867
 
band    13 # energy   11.39318432 # occ.  2.00000000
 
ion      s     py     pz     px    dxy    dyz    dz2    dxz  x2-y2    tot
    1  0.000  0.001  0.000  0.000  0.111  0.000  0.000  0.000  0.332  0.444
    2  0.000  0.001  0.000  0.000  0.111  0.000  0.000  0.000  0.332  0.444
tot    0.000  0.001  0.000  0.000  0.222  0.000  0.000  0.000  0.665  0.888
 
band    14 # energy   11.80888977 # occ.  2.00000000
 
ion      s     py     pz     px    dxy    dyz    dz2    dxz  x2-y2    tot
    1  0.000  0.000  0.035  0.000  0.000  0.072  0.000  0.216  0.000  0.323
    2  0.000  0.000  0.035  0.000  0.000  0.072  0.000  0.216  0.000  0.323
tot    0.000  0.000  0.069  0.000  0.000  0.144  0.000  0.433  0.000  0.646
 
band    15 # energy   12.46386429 # occ.  2.00000000
 
ion      s     py     pz     px    dxy    dyz    dz2    dxz  x2-y2    tot
    1  0.000  0.000  0.000  0.000  0.000  0.335  0.000  0.112  0.000  0.447
    2  0.000  0.000  0.000  0.000  0.000  0.335  0.000  0.112  0.000  0.447
tot    0.000  0.000  0.000  0.000  0.000  0.670  0.000  0.223  0.000  0.894
 
band    16 # energy   12.58985359 # occ.  2.00000000
 
ion      s     py     pz     px    dxy    dyz    dz2    dxz  x2-y2    tot
    1  0.000  0.000  0.024  0.000  0.000  0.087  0.000  0.260  0.000  0.372
    2  0.000  0.000  0.024  0.000  0.000  0.087  0.000  0.260  0.000  0.372
tot    0.000  0.000  0.049  0.000  0.000  0.174  0.000  0.521  0.000  0.743
 
band    17 # energy   15.00552904 # occ.  1.99999999
 
ion      s     py     pz     px    dxy    dyz    dz2    dxz  x2-y2    tot
    1  0.000  0.000  0.000  0.000  0.000  0.355  0.000  0.118  0.000  0.473
    2  0.000  0.000  0.000  0.000  0.000  0.355  0.000  0.118  0.000  0.473
tot    0.000  0.000  0.000  0.000  0.000  0.710  0.000  0.237  0.000  0.947
 
band    18 # energy   16.83629421 # occ.  0.00000000
 
ion      s     py     pz     px    dxy    dyz    dz2    dxz  x2-y2    tot
    1  0.000  0.000  0.053  0.000  0.000  0.070  0.000  0.209  0.000  0.331
    2  0.000  0.000  0.053  0.000  0.000  0.070  0.000  0.209  0.000  0.331
tot    0.000  0.000  0.106  0.000  0.000  0.139  0.000  0.417  0.000  0.662
 
band    19 # energy   21.27152439 # occ.  0.00000000
 
ion      s     py     pz     px    dxy    dyz    dz2    dxz  x2-y2    tot
    1  0.201  0.000  0.000  0.001  0.002  0.000  0.215  0.000  0.001  0.420
    2  0.201  0.000  0.000  0.001  0.002  0.000  0.215  0.000  0.001  0.420
tot    0.402  0.001  0.000  0.002  0.004  0.000  0.430  0.000  0.001  0.840
 
band    20 # energy   30.55263333 # occ.  0.00000000
 
ion      s     py     pz     px    dxy    dyz    dz2    dxz  x2-y2    tot
    1  0.004  0.000  0.000  0.001  0.015  0.000  0.002  0.000  0.005  0.028
    2  0.004  0.000  0.000  0.001  0.015  0.000  0.002  0.000  0.005  0.028
tot    0.009  0.001  0.000  0.002  0.031  0.000  0.005  0.000  0.010  0.056
 
band    21 # energy   31.31919996 # occ.  0.00000000
 
ion      s     py     pz     px    dxy    dyz    dz2    dxz  x2-y2    tot
    1  0.000  0.000  0.015  0.000  0.000  0.002  0.000  0.007  0.000  0.024
    2  0.000  0.000  0.015  0.000  0.000  0.002  0.000  0.007  0.000  0.024
tot    0.000  0.000  0.029  0.000  0.000  0.005  0.000  0.014  0.000  0.048
 
band    22 # energy   33.10679022 # occ.  0.00000000
 
ion      s     py     pz     px    dxy    dyz    dz2    dxz  x2-y2    tot
    1  0.000  0.001  0.000  0.002  0.013  0.000  0.024  0.000  0.004  0.044
    2  0.000  0.001  0.000  0.002  0.013  0.000  0.024  0.000  0.004  0.044
tot    0.000  0.001  0.000  0.004  0.025  0.000  0.048  0.000  0.008  0.088
 
band    23 # energy   35.62519870 # occ.  0.00000000
 
ion      s     py     pz     px    dxy    dyz    dz2    dxz  x2-y2    tot
    1  0.000  0.000  0.009  0.000  0.000  0.006  0.000  0.019  0.000  0.035
    2  0.000  0.000  0.009  0.000  0.000  0.006  0.000  0.019  0.000  0.035
tot    0.000  0.000  0.018  0.000  0.000  0.013  0.000  0.038  0.000  0.069
 
band    24 # energy   36.35926120 # occ.  0.00000000
 
ion      s     py     pz     px    dxy    dyz    dz2    dxz  x2-y2    tot
    1  0.007  0.029  0.000  0.088  0.021  0.000  0.007  0.000  0.007  0.158
    2  0.007  0.029  0.000  0.088  0.021  0.000  0.007  0.000  0.007  0.158
tot    0.013  0.058  0.000  0.175  0.042  0.000  0.013  0.000  0.014  0.316
 

 k-point     3 :    0.20000000 0.00000000 0.00000000     weight = 0.00750000

band     1 # energy  -38.29954094 # occ.  2.00000000
 
ion      s     py     pz     px    dxy    dyz    dz2    dxz  x2-y2    tot
    1  0.000  0.000  0.490  0.000  0.000  0.000  0.000  0.000  0.000  0.490
    2  0.000  0.000  0.490  0.000  0.000  0.000  0.000  0.000  0.000  0.490
tot    0.000  0.000  0.980  0.000  0.000  0.000  0.000  0.000  0.000  0.980
 
band     2 # energy  -38.13621453 # occ.  2.00000000
 
ion      s     py     pz     px    dxy    dyz    dz2    dxz  x2-y2    tot
    1  0.000  0.124  0.000  0.371  0.000  0.000  0.000  0.000  0.000  0.495
    2  0.000  0.124  0.000  0.371  0.000  0.000  0.000  0.000  0.000  0.495
tot    0.000  0.248  0.000  0.743  0.000  0.000  0.000  0.000  0.000  0.991
 
band     3 # energy  -38.05869210 # occ.  2.00000000
 
ion      s     py     pz     px    dxy    dyz    dz2    dxz  x2-y2    tot
    1  0.000  0.124  0.000  0.372  0.000  0.000  0.000  0.000  0.000  0.496
    2  0.000  0.124  0.000  0.372  0.000  0.000  0.000  0.000  0.000  0.496
tot    0.000  0.248  0.000  0.744  0.000  0.000  0.000  0.000  0.000  0.993
 
band     4 # energy  -37.94402576 # occ.  2.00000000
 
ion      s     py     pz     px    dxy    dyz    dz2    dxz  x2-y2    tot
    1  0.000  0.373  0.000  0.124  0.000  0.000  0.000  0.000  0.000  0.498
    2  0.000  0.373  0.000  0.124  0.000  0.000  0.000  0.000  0.000  0.498
tot    0.000  0.747  0.000  0.249  0.000  0.000  0.000  0.000  0.000  0.996
 
band     5 # energy  -37.84047304 # occ.  2.00000000
 
ion      s     py     pz     px    dxy    dyz    dz2    dxz  x2-y2    tot
    1  0.000  0.375  0.000  0.125  0.000  0.000  0.000  0.000  0.000  0.499
    2  0.000  0.375  0.000  0.125  0.000  0.000  0.000  0.000  0.000  0.499
tot    0.000  0.749  0.000  0.250  0.000  0.000  0.000  0.000  0.000  0.999
 
band     6 # energy  -37.72502286 # occ.  2.00000000
 
ion      s     py     pz     px    dxy    dyz    dz2    dxz  x2-y2    tot
    1  0.000  0.000  0.499  0.000  0.000  0.000  0.000  0.000  0.000  0.499
    2  0.000  0.000  0.499  0.000  0.000  0.000  0.000  0.000  0.000  0.499
tot    0.000  0.000  0.997  0.000  0.000  0.000  0.000  0.000  0.000  0.997
 
band     7 # energy    4.83645544 # occ.  2.00000000
 
ion      s     py     pz     px    dxy    dyz    dz2    dxz  x2-y2    tot
    1  0.208  0.003  0.000  0.008  0.008  0.000  0.001  0.000  0.003  0.231
    2  0.208  0.003  0.000  0.008  0.008  0.000  0.001  0.000  0.003  0.231
tot    0.415  0.006  0.000  0.017  0.017  0.000  0.003  0.000  0.006  0.462
 
band     8 # energy    7.25846715 # occ.  2.00000000
 
ion      s     py     pz     px    dxy    dyz    dz2    dxz  x2-y2    tot
    1  0.056  0.002  0.000  0.005  0.048  0.000  0.227  0.000  0.016  0.354
    2  0.056  0.002  0.000  0.005  0.048  0.000  0.227  0.000  0.016  0.354
tot    0.113  0.003  0.000  0.010  0.096  0.000  0.454  0.000  0.032  0.708
 
band     9 # energy    9.44658665 # occ.  2.00000000
 
ion      s     py     pz     px    dxy    dyz    dz2    dxz  x2-y2    tot
    1  0.004  0.002  0.000  0.005  0.186  0.000  0.133  0.000  0.062  0.392
    2  0.004  0.002  0.000  0.005  0.186  0.000  0.133  0.000  0.062  0.392
tot    0.009  0.004  0.000  0.011  0.372  0.000  0.266  0.000  0.124  0.784
 
band    10 # energy   10.02072558 # occ.  2.00000000
 
ion      s     py     pz     px    dxy    dyz    dz2    dxz  x2-y2    tot
    1  0.000  0.000  0.026  0.000  0.000  0.074  0.000  0.223  0.000  0.323
    2  0.000  0.000  0.026  0.000  0.000  0.074  0.000  0.223  0.000  0.323
tot    0.000  0.000  0.052  0.000  0.000  0.149  0.000  0.446  0.000  0.646
 
band    11 # energy   10.15583639 # occ.  2.00000000
 
ion      s     py     pz     px    dxy    dyz    dz2    dxz  x2-y2    tot
    1  0.007  0.001  0.000  0.002  0.257  0.000  0.064  0.000  0.086  0.416
    2  0.007  0.001  0.000  0.002  0.257  0.000  0.064  0.000  0.086  0.416
tot    0.014  0.001  0.000  0.003  0.514  0.000  0.128  0.000  0.171  0.832
 
band    12 # energy   11.37250325 # occ.  2.00000000
 
ion      s     py     pz     px    dxy    dyz    dz2    dxz  x2-y2    tot
    1  0.005  0.001  0.000  0.003  0.111  0.000  0.272  0.000  0.037  0.429
    2  0.005  0.001  0.000  0.003  0.111  0.000  0.272  0.000  0.037  0.429
tot    0.011  0.002  0.000  0.005  0.223  0.000  0.543  0.000  0.074  0.858
 
band    13 # energy   11.92196610 # occ.  2.00000000
 
ion      s     py     pz     px    dxy    dyz    dz2    dxz  x2-y2    tot
    1  0.000  0.000  0.015  0.000  0.000  0.094  0.000  0.283  0.000  0.391
    2  0.000  0.000  0.015  0.000  0.000  0.094  0.000  0.283  0.000  0.391
tot    0.000  0.000  0.029  0.000  0.000  0.188  0.000  0.565  0.000  0.783
 
band    14 # energy   11.93093280 # occ.  2.00000000
 
ion      s     py     pz     px    dxy    dyz    dz2    dxz  x2-y2    tot
    1  0.000  0.000  0.000  0.000  0.000  0.328  0.000  0.109  0.000  0.438
    2  0.000  0.000  0.000  0.000  0.000  0.328  0.000  0.109  0.000  0.438
tot    0.000  0.000  0.000  0.000  0.000  0.657  0.000  0.219  0.000  0.876
 
band    15 # energy   11.93651026 # occ.  2.00000000
 
ion      s     py     pz     px    dxy    dyz    dz2    dxz  x2-y2    tot
    1  0.000  0.001  0.000  0.000  0.109  0.000  0.000  0.000  0.326  0.437
    2  0.000  0.001  0.000  0.000  0.109  0.000  0.000  0.000  0.326  0.437
tot    0.000  0.003  0.000  0.001  0.218  0.000  0.000  0.000  0.653  0.874
 
band    16 # energy   12.38441734 # occ.  2.00000000
 
ion      s     py     pz     px    dxy    dyz    dz2    dxz  x2-y2    tot
    1  0.000  0.002  0.000  0.001  0.111  0.000  0.000  0.000  0.334  0.447
    2  0.000  0.002  0.000  0.001  0.111  0.000  0.000  0.000  0.334  0.447
tot    0.000  0.003  0.000  0.001  0.223  0.000  0.000  0.000  0.668  0.895
 
band    17 # energy   15.16462356 # occ.  1.81492245
 
ion      s     py     pz     px    dxy    dyz    dz2    dxz  x2-y2    tot
    1  0.000  0.000  0.000  0.000  0.000  0.359  0.000  0.120  0.000  0.479
    2  0.000  0.000  0.000  0.000  0.000  0.359  0.000  0.120  0.000  0.479
tot    0.000  0.000  0.000  0.000  0.000  0.718  0.000  0.239  0.000  0.957
 
band    18 # energy   19.43828762 # occ.  0.00000000
 
ion      s     py     pz     px    dxy    dyz    dz2    dxz  x2-y2    tot
    1  0.000  0.000  0.074  0.000  0.000  0.055  0.000  0.166  0.000  0.295
    2  0.000  0.000  0.074  0.000  0.000  0.055  0.000  0.166  0.000  0.295
tot    0.000  0.000  0.148  0.000  0.000  0.110  0.000  0.331  0.000  0.589
 
band    19 # energy   21.08506519 # occ.  0.00000000
 
ion      s     py     pz     px    dxy    dyz    dz2    dxz  x2-y2    tot
    1  0.202  0.001  0.000  0.004  0.006  0.000  0.188  0.000  0.002  0.403
    2  0.202  0.001  0.000  0.004  0.006  0.000  0.188  0.000  0.002  0.403
tot    0.404  0.003  0.000  0.008  0.013  0.000  0.375  0.000  0.004  0.806
 
band    20 # energy   30.73359135 # occ.  0.00000000
 
ion      s     py     pz     px    dxy    dyz    dz2    dxz  x2-y2    tot
    1  0.021  0.014  0.000  0.043  0.063  0.000  0.023  0.000  0.021  0.185
    2  0.021  0.014  0.000  0.043  0.063  0.000  0.023  0.000  0.021  0.185
tot    0.043  0.029  0.000  0.086  0.125  0.000  0.046  0.000  0.042  0.370
 
band    21 # energy   31.97784902 # occ.  0.00000000
 
ion      s     py     pz     px    dxy    dyz    dz2    dxz  x2-y2    tot
    1  0.000  0.000  0.008  0.000  0.000  0.003  0.000  0.010  0.000  0.021
    2  0.000  0.000  0.008  0.000  0.000  0.003  0.000  0.010  0.000  0.021
tot    0.000  0.000  0.017  0.000  0.000  0.006  0.000  0.019  0.000  0.042
 
band    22 # energy   34.03215297 # occ.  0.00000000
 
ion      s     py     pz     px    dxy    dyz    dz2    dxz  x2-y2    tot
    1  0.000  0.089  0.000  0.030  0.013  0.000  0.000  0.000  0.038  0.169
    2  0.000  0.089  0.000  0.030  0.013  0.000  0.000  0.000  0.038  0.169
tot    0.000  0.177  0.000  0.059  0.025  0.000  0.000  0.000  0.076  0.338
 
band    23 # energy   34.03633156 # occ.  0.00000000
 
ion      s     py     pz     px    dxy    dyz    dz2    dxz  x2-y2    tot
    1  0.000  0.000  0.005  0.000  0.000  0.016  0.000  0.049  0.000  0.070
    2  0.000  0.000  0.005  0.000  0.000  0.016  0.000  0.049  0.000  0.070
tot    0.000  0.000  0.010  0.000  0.000  0.032  0.000  0.097  0.000  0.140
 
band    24 # energy   34.05028918 # occ.  0.00000000
 
ion      s     py     pz     px    dxy    dyz    dz2    dxz  x2-y2    tot
    1  0.004  0.008  0.000  0.023  0.031  0.000  0.026  0.000  0.010  0.103
    2  0.004  0.008  0.000  0.023  0.031  0.000  0.026  0.000  0.010  0.103
tot    0.009  0.015  0.000  0.046  0.062  0.000  0.052  0.000  0.021  0.205
 

 k-point     4 :    0.30000000 0.00000000 0.00000000     weight = 0.00750000

band     1 # energy  -38.37440957 # occ.  2.00000000
 
ion      s     py     pz     px    dxy    dyz    dz2    dxz  x2-y2    tot
    1  0.000  0.123  0.000  0.369  0.000  0.000  0.000  0.000  0.000  0.492
    2  0.000  0.123  0.000  0.369  0.000  0.000  0.000  0.000  0.000  0.492
tot    0.000  0.246  0.000  0.738  0.000  0.000  0.000  0.000  0.000  0.985
 
band     2 # energy  -38.29119469 # occ.  2.00000000
 
ion      s     py     pz     px    dxy    dyz    dz2    dxz  x2-y2    tot
    1  0.000  0.123  0.000  0.370  0.000  0.000  0.000  0.000  0.000  0.494
    2  0.000  0.123  0.000  0.370  0.000  0.000  0.000  0.000  0.000  0.494
tot    0.000  0.247  0.000  0.740  0.000  0.000  0.000  0.000  0.000  0.987
 
band     3 # energy  -38.20393990 # occ.  2.00000000
 
ion      s     py     pz     px    dxy    dyz    dz2    dxz  x2-y2    tot
    1  0.000  0.000  0.491  0.000  0.000  0.000  0.000  0.000  0.000  0.492
    2  0.000  0.000  0.491  0.000  0.000  0.000  0.000  0.000  0.000  0.492
tot    0.000  0.000  0.983  0.000  0.000  0.000  0.000  0.000  0.000  0.983
 
band     4 # energy  -38.01000895 # occ.  2.00000000
 
ion      s     py     pz     px    dxy    dyz    dz2    dxz  x2-y2    tot
    1  0.000  0.373  0.000  0.124  0.000  0.000  0.000  0.000  0.000  0.497
    2  0.000  0.373  0.000  0.124  0.000  0.000  0.000  0.000  0.000  0.497
tot    0.000  0.746  0.000  0.249  0.000  0.000  0.000  0.000  0.000  0.994
 
band     5 # energy  -37.88927171 # occ.  2.00000000
 
ion      s     py     pz     px    dxy    dyz    dz2    dxz  x2-y2    tot
    1  0.000  0.374  0.000  0.125  0.000  0.000  0.000  0.000  0.000  0.499
    2  0.000  0.374  0.000  0.125  0.000  0.000  0.000  0.000  0.000  0.499
tot    0.000  0.748  0.000  0.249  0.000  0.000  0.000  0.000  0.000  0.998
 
band     6 # energy  -37.75861239 # occ.  2.00000000
 
ion      s     py     pz     px    dxy    dyz    dz2    dxz  x2-y2    tot
    1  0.000  0.000  0.498  0.000  0.000  0.000  0.000  0.000  0.000  0.498
    2  0.000  0.000  0.498  0.000  0.000  0.000  0.000  0.000  0.000  0.498
tot    0.000  0.000  0.996  0.000  0.000  0.000  0.000  0.000  0.000  0.996
 
band     7 # energy    6.14840557 # occ.  2.00000000
 
ion      s     py     pz     px    dxy    dyz    dz2    dxz  x2-y2    tot
    1  0.156  0.004  0.000  0.011  0.063  0.000  0.008  0.000  0.021  0.261
    2  0.156  0.004  0.000  0.011  0.063  0.000  0.008  0.000  0.021  0.261
tot    0.311  0.007  0.000  0.021  0.125  0.000  0.015  0.000  0.042  0.522
 
band     8 # energy    7.28107516 # occ.  2.00000000
 
ion      s     py     pz     px    dxy    dyz    dz2    dxz  x2-y2    tot
    1  0.024  0.000  0.000  0.001  0.173  0.000  0.119  0.000  0.058  0.376
    2  0.024  0.000  0.000  0.001  0.173  0.000  0.119  0.000  0.058  0.376
tot    0.049  0.001  0.000  0.002  0.346  0.000  0.238  0.000  0.115  0.752
 
band     9 # energy    8.62368755 # occ.  2.00000000
 
ion      s     py     pz     px    dxy    dyz    dz2    dxz  x2-y2    tot
    1  0.000  0.000  0.015  0.000  0.000  0.080  0.000  0.241  0.000  0.336
    2  0.000  0.000  0.015  0.000  0.000  0.080  0.000  0.241  0.000  0.336
tot    0.000  0.000  0.030  0.000  0.000  0.160  0.000  0.481  0.000  0.671
 
band    10 # energy    9.82543555 # occ.  2.00000000
 
ion      s     py     pz     px    dxy    dyz    dz2    dxz  x2-y2    tot
    1  0.018  0.005  0.000  0.014  0.201  0.000  0.050  0.000  0.067  0.353
    2  0.018  0.005  0.000  0.014  0.201  0.000  0.050  0.000  0.067  0.353
tot    0.036  0.009  0.000  0.028  0.402  0.000  0.099  0.000  0.134  0.707
 
band    11 # energy   10.32766089 # occ.  2.00000000
 
ion      s     py     pz     px    dxy    dyz    dz2    dxz  x2-y2    tot