Pt-hcc                                  
           1
     2.587794    0.000000    0.000000
    -1.293897    2.241095    0.000000
     0.000000    0.000000    4.483292
   Pt
     2
Direct configuration=     1
   0.00000000  0.00000000  0.00000000
   0.33333333  0.66666667  0.50000000
