   2   2   0   0
  0.2137190E+02  0.2470000E-09  0.2470000E-09  0.8090000E-09  0.5000000E-15
  1.000000000000000E-004
  CAR 
 Co-hcc                                  
     21.46860664     -4.18712938  301      3.14831229      1.00000000
     -4.187  0.0000E+00  0.0000E+00  0.0000E+00  0.0000E+00
     -4.102  0.0000E+00  0.0000E+00  0.0000E+00  0.0000E+00
     -4.016  0.0000E+00  0.0000E+00  0.0000E+00  0.0000E+00
     -3.931  0.0000E+00  0.0000E+00  0.0000E+00  0.0000E+00
     -3.845  0.0000E+00  0.0000E+00  0.0000E+00  0.0000E+00
     -3.760  0.0000E+00  0.0000E+00  0.0000E+00  0.0000E+00
     -3.674  0.0000E+00  0.0000E+00  0.0000E+00  0.0000E+00
     -3.588  0.0000E+00  0.0000E+00  0.0000E+00  0.0000E+00
     -3.503  0.0000E+00  0.0000E+00  0.0000E+00  0.0000E+00
     -3.417  0.0000E+00  0.0000E+00  0.0000E+00  0.0000E+00
     -3.332  0.0000E+00  0.0000E+00  0.0000E+00  0.0000E+00
     -3.246  0.6816E-12  0.0000E+00  0.5829E-13  0.0000E+00
     -3.161  0.3482E-06  0.0000E+00  0.2978E-07  0.0000E+00
     -3.075  0.7972E-03  0.6438E-15  0.6820E-04  0.5506E-16
     -2.990  0.1764E-01  0.3061E-08  0.1577E-02  0.2618E-09
     -2.904  0.2358E-01  0.5882E-04  0.3593E-02  0.5031E-05
     -2.819  0.9387E-01  0.7185E-02  0.1162E-01  0.6195E-03
     -2.733  0.1573E+00  0.2201E-01  0.2507E-01  0.2502E-02
     -2.648  0.1116E+00  0.3741E-01  0.3462E-01  0.5701E-02
     -2.562  0.1094E+00  0.1399E+00  0.4398E-01  0.1766E-01
     -2.477  0.1465E+00  0.1040E+00  0.5650E-01  0.2656E-01
     -2.391  0.2884E+00  0.8094E-01  0.8117E-01  0.3348E-01
     -2.306  0.2240E+00  0.8074E-01  0.1003E+00  0.4039E-01
     -2.220  0.2448E+00  0.1771E+00  0.1213E+00  0.5553E-01
     -2.135  0.2037E+00  0.1941E+00  0.1387E+00  0.7213E-01
     -2.049  0.2287E+00  0.2470E+00  0.1582E+00  0.9325E-01
     -1.964  0.1907E+00  0.2912E+00  0.1745E+00  0.1181E+00
     -1.878  0.1489E+00  0.1578E+00  0.1873E+00  0.1316E+00
     -1.793  0.1856E+00  0.1261E+00  0.2031E+00  0.1424E+00
     -1.707  0.3235E+00  0.1328E+00  0.2308E+00  0.1538E+00
     -1.622  0.2262E+00  0.1739E+00  0.2502E+00  0.1687E+00
     -1.536  0.2464E+00  0.2607E+00  0.2712E+00  0.1910E+00
     -1.451  0.4422E+00  0.3614E+00  0.3090E+00  0.2219E+00
     -1.365  0.4060E+00  0.2253E+00  0.3438E+00  0.2411E+00
     -1.279  0.1513E+00  0.1377E+00  0.3567E+00  0.2529E+00
     -1.194  0.1802E+00  0.2235E+00  0.3721E+00  0.2720E+00
     -1.108  0.6978E-01  0.2460E+00  0.3781E+00  0.2931E+00
     -1.023  0.5183E+00  0.2209E+00  0.4224E+00  0.3120E+00
     -0.937  0.1874E+01  0.2737E+00  0.5827E+00  0.3354E+00
     -0.852  0.2877E+01  0.2041E+00  0.8287E+00  0.3528E+00
     -0.766  0.2294E+01  0.7928E-01  0.1025E+01  0.3596E+00
     -0.681  0.1300E+01  0.2004E+00  0.1136E+01  0.3767E+00
     -0.595  0.1383E+01  0.3689E+00  0.1254E+01  0.4083E+00
     -0.510  0.9139E+00  0.3703E+00  0.1332E+01  0.4400E+00
     -0.424  0.1258E+01  0.2453E+00  0.1440E+01  0.4609E+00
     -0.339  0.1147E+01  0.2197E+00  0.1538E+01  0.4797E+00
     -0.253  0.8119E+00  0.3258E+00  0.1608E+01  0.5076E+00
     -0.168  0.2660E+01  0.3925E+00  0.1835E+01  0.5412E+00
     -0.082  0.3666E+01  0.4210E+00  0.2149E+01  0.5772E+00
      0.003  0.3469E+01  0.2578E+00  0.2445E+01  0.5992E+00
      0.089  0.4406E+01  0.1199E+00  0.2822E+01  0.6095E+00
      0.174  0.4258E+01  0.1975E+00  0.3186E+01  0.6264E+00
      0.260  0.3834E+01  0.7458E+00  0.3514E+01  0.6901E+00
      0.345  0.4257E+01  0.1583E+01  0.3878E+01  0.8255E+00
      0.431  0.2849E+01  0.2160E+01  0.4122E+01  0.1010E+01
      0.516  0.3490E+01  0.2154E+01  0.4420E+01  0.1195E+01
      0.602  0.2503E+01  0.4463E+00  0.4634E+01  0.1233E+01
      0.687  0.1952E+01  0.4152E+00  0.4801E+01  0.1268E+01
      0.773  0.4729E+01  0.1733E+01  0.5206E+01  0.1416E+01
      0.858  0.4621E+01  0.1372E+01  0.5601E+01  0.1534E+01
      0.944  0.2912E+01  0.4232E+00  0.5850E+01  0.1570E+01
      1.030  0.3293E+01  0.1776E-01  0.6132E+01  0.1571E+01
      1.115  0.5757E+01  0.7044E-01  0.6624E+01  0.1577E+01
      1.201  0.7322E+01  0.1186E+01  0.7250E+01  0.1679E+01
      1.286  0.7145E+01  0.1219E+01  0.7861E+01  0.1783E+01
      1.372  0.7982E+01  0.8377E+00  0.8544E+01  0.1855E+01
      1.457  0.5989E+01  0.1974E+00  0.9056E+01  0.1872E+01
      1.543  0.4026E+01  0.1213E+01  0.9400E+01  0.1975E+01
      1.628  0.3216E+01  0.2879E+01  0.9675E+01  0.2222E+01
      1.714  0.2069E+01  0.3874E+01  0.9852E+01  0.2553E+01
      1.799  0.1970E+01  0.4560E+01  0.1002E+02  0.2943E+01
      1.885  0.1607E+01  0.5139E+01  0.1016E+02  0.3382E+01
      1.970  0.8241E+00  0.4980E+01  0.1023E+02  0.3808E+01
      2.056  0.9099E+00  0.3646E+01  0.1031E+02  0.4120E+01
      2.141  0.4816E+00  0.3800E+01  0.1035E+02  0.4445E+01
      2.227  0.5916E+00  0.4004E+01  0.1040E+02  0.4787E+01
      2.312  0.1235E+01  0.2950E+01  0.1050E+02  0.5040E+01
      2.398  0.6315E+00  0.1770E+01  0.1056E+02  0.5191E+01
      2.483  0.8907E+00  0.1140E+01  0.1063E+02  0.5289E+01
      2.569  0.1147E+01  0.1494E+01  0.1073E+02  0.5416E+01
      2.654  0.7096E+00  0.2355E+01  0.1079E+02  0.5618E+01
      2.740  0.3898E+00  0.1364E+01  0.1083E+02  0.5734E+01
      2.825  0.3977E+00  0.2030E+01  0.1086E+02  0.5908E+01
      2.911  0.3961E+00  0.3062E+01  0.1089E+02  0.6170E+01
      2.996  0.3387E+00  0.3725E+01  0.1092E+02  0.6489E+01
      3.082  0.1345E+00  0.3659E+01  0.1093E+02  0.6801E+01
      3.168  0.1030E+00  0.4040E+01  0.1094E+02  0.7147E+01
      3.253  0.5802E-01  0.5439E+01  0.1095E+02  0.7612E+01
      3.339  0.4359E-01  0.5442E+01  0.1095E+02  0.8077E+01
      3.424  0.6634E-01  0.5584E+01  0.1096E+02  0.8555E+01
      3.510  0.7329E-01  0.6077E+01  0.1096E+02  0.9075E+01
      3.595  0.2473E+00  0.4635E+01  0.1099E+02  0.9471E+01
      3.681  0.7752E+00  0.4721E+01  0.1105E+02  0.9875E+01
      3.766  0.4858E+00  0.2995E+01  0.1109E+02  0.1013E+02
      3.852  0.3732E+00  0.2139E+01  0.1112E+02  0.1031E+02
      3.937  0.3727E+00  0.1698E+01  0.1116E+02  0.1046E+02
      4.023  0.4592E+00  0.7086E+00  0.1120E+02  0.1052E+02
      4.108  0.3669E+00  0.5385E+00  0.1123E+02  0.1057E+02
      4.194  0.4316E+00  0.1733E+01  0.1126E+02  0.1071E+02
      4.279  0.6054E+00  0.1265E+01  0.1132E+02  0.1082E+02
      4.365  0.4916E+00  0.6444E+00  0.1136E+02  0.1088E+02
      4.450  0.1745E+00  0.4646E+00  0.1137E+02  0.1092E+02
      4.536  0.2563E+00  0.6706E+00  0.1139E+02  0.1097E+02
      4.621  0.1262E+00  0.4737E+00  0.1141E+02  0.1101E+02
      4.707  0.1787E+00  0.2040E+00  0.1142E+02  0.1103E+02
      4.792  0.1149E+00  0.5166E+00  0.1143E+02  0.1108E+02
      4.878  0.1555E+00  0.4575E+00  0.1144E+02  0.1112E+02
      4.963  0.8263E-01  0.6308E+00  0.1145E+02  0.1117E+02
      5.049  0.7596E-01  0.1001E+01  0.1146E+02  0.1125E+02
      5.134  0.1429E+00  0.6861E+00  0.1147E+02  0.1131E+02
      5.220  0.8990E+00  0.4861E+00  0.1155E+02  0.1136E+02
      5.305  0.9332E+00  0.4797E+00  0.1163E+02  0.1140E+02
      5.391  0.7018E+00  0.4443E+00  0.1169E+02  0.1143E+02
      5.477  0.5359E+00  0.2172E+00  0.1173E+02  0.1145E+02
      5.562  0.4830E+00  0.3140E+00  0.1177E+02  0.1148E+02
      5.648  0.5703E+00  0.2560E+00  0.1182E+02  0.1150E+02
      5.733  0.5323E+00  0.4006E+00  0.1187E+02  0.1154E+02
      5.819  0.4467E+00  0.3471E+00  0.1191E+02  0.1157E+02
      5.904  0.4739E+00  0.3904E+00  0.1195E+02  0.1160E+02
      5.990  0.4094E+00  0.4787E+00  0.1198E+02  0.1164E+02
      6.075  0.1727E+00  0.7037E+00  0.1200E+02  0.1170E+02
      6.161  0.1177E+00  0.5932E+00  0.1201E+02  0.1175E+02
      6.246  0.1661E+00  0.5521E+00  0.1202E+02  0.1180E+02
      6.332  0.9785E-01  0.4446E+00  0.1203E+02  0.1184E+02
      6.417  0.2651E+00  0.4692E+00  0.1205E+02  0.1188E+02
      6.503  0.5042E+00  0.4082E+00  0.1209E+02  0.1191E+02
      6.588  0.2105E+00  0.4492E+00  0.1211E+02  0.1195E+02
      6.674  0.2738E+00  0.3796E+00  0.1214E+02  0.1198E+02
      6.759  0.4162E+00  0.1588E+00  0.1217E+02  0.1200E+02
      6.845  0.3360E+00  0.3355E+00  0.1220E+02  0.1202E+02
      6.930  0.1140E+00  0.4592E+00  0.1221E+02  0.1206E+02
      7.016  0.5996E+00  0.4885E+00  0.1226E+02  0.1211E+02
      7.101  0.5777E+00  0.2933E+00  0.1231E+02  0.1213E+02
      7.187  0.3061E+00  0.4050E+00  0.1234E+02  0.1216E+02
      7.272  0.1946E+00  0.2122E+00  0.1235E+02  0.1218E+02
      7.358  0.3426E+00  0.2463E+00  0.1238E+02  0.1220E+02
      7.443  0.4631E+00  0.3079E+00  0.1242E+02  0.1223E+02
      7.529  0.3833E+00  0.3208E+00  0.1246E+02  0.1226E+02
      7.615  0.4314E+00  0.1908E+00  0.1249E+02  0.1227E+02
      7.700  0.3773E+00  0.3411E+00  0.1252E+02  0.1230E+02
      7.786  0.2254E+00  0.4716E+00  0.1254E+02  0.1234E+02
      7.871  0.2343E+00  0.3803E+00  0.1256E+02  0.1238E+02
      7.957  0.2369E+00  0.4888E+00  0.1258E+02  0.1242E+02
      8.042  0.3872E+00  0.3957E+00  0.1262E+02  0.1245E+02
      8.128  0.3022E+00  0.3844E+00  0.1264E+02  0.1248E+02
      8.213  0.2455E+00  0.3880E+00  0.1266E+02  0.1252E+02
      8.299  0.1488E+00  0.4326E+00  0.1268E+02  0.1255E+02
      8.384  0.2993E+00  0.2723E+00  0.1270E+02  0.1258E+02
      8.470  0.1830E+00  0.2172E+00  0.1272E+02  0.1260E+02
      8.555  0.1934E+00  0.4494E+00  0.1273E+02  0.1264E+02
      8.641  0.2848E+00  0.3216E+00  0.1276E+02  0.1266E+02
      8.726  0.1521E+00  0.3726E+00  0.1277E+02  0.1269E+02
      8.812  0.1378E+00  0.2588E+00  0.1278E+02  0.1272E+02
      8.897  0.3146E+00  0.2063E+00  0.1281E+02  0.1273E+02
      8.983  0.4860E+00  0.1067E+00  0.1285E+02  0.1274E+02
      9.068  0.1977E+00  0.1464E+00  0.1287E+02  0.1276E+02
      9.154  0.2637E+00  0.1598E+00  0.1289E+02  0.1277E+02
      9.239  0.2928E+00  0.2367E+00  0.1292E+02  0.1279E+02
      9.325  0.4170E+00  0.4299E+00  0.1295E+02  0.1283E+02
      9.410  0.4876E+00  0.3065E+00  0.1299E+02  0.1285E+02
      9.496  0.2779E+00  0.1508E+00  0.1302E+02  0.1287E+02
      9.581  0.5719E+00  0.1609E+00  0.1307E+02  0.1288E+02
      9.667  0.6395E+00  0.3531E+00  0.1312E+02  0.1291E+02
      9.752  0.6009E+00  0.5436E+00  0.1317E+02  0.1296E+02
      9.838  0.3503E+00  0.4089E+00  0.1320E+02  0.1299E+02
      9.924  0.5811E+00  0.4184E+00  0.1325E+02  0.1303E+02
     10.009  0.3998E+00  0.3333E+00  0.1329E+02  0.1306E+02
     10.095  0.4854E+00  0.2079E+00  0.1333E+02  0.1307E+02
     10.180  0.4967E+00  0.3663E+00  0.1337E+02  0.1310E+02
     10.266  0.3036E+00  0.2022E+00  0.1340E+02  0.1312E+02
     10.351  0.5241E+00  0.8610E+00  0.1344E+02  0.1320E+02
     10.437  0.7594E+00  0.8256E+00  0.1351E+02  0.1327E+02
     10.522  0.7307E+00  0.6936E+00  0.1357E+02  0.1333E+02
     10.608  0.3885E+00  0.4549E+00  0.1360E+02  0.1336E+02
     10.693  0.3592E+00  0.2465E+00  0.1363E+02  0.1339E+02
     10.779  0.6131E+00  0.3244E+00  0.1369E+02  0.1341E+02
     10.864  0.5778E+00  0.1729E+00  0.1373E+02  0.1343E+02
     10.950  0.6506E+00  0.5116E+00  0.1379E+02  0.1347E+02
     11.035  0.4192E+00  0.7679E+00  0.1383E+02  0.1354E+02
     11.121  0.2479E+00  0.6138E+00  0.1385E+02  0.1359E+02
     11.206  0.2800E+00  0.4726E+00  0.1387E+02  0.1363E+02
     11.292  0.4395E+00  0.5780E+00  0.1391E+02  0.1368E+02
     11.377  0.5409E+00  0.6977E+00  0.1396E+02  0.1374E+02
     11.463  0.4765E+00  0.8462E+00  0.1400E+02  0.1381E+02
     11.548  0.3165E+00  0.6578E+00  0.1402E+02  0.1387E+02
     11.634  0.4638E+00  0.1900E+00  0.1406E+02  0.1388E+02
     11.719  0.7286E+00  0.2728E+00  0.1413E+02  0.1391E+02
     11.805  0.4548E+00  0.4348E+00  0.1416E+02  0.1394E+02
     11.890  0.4083E+00  0.5434E+00  0.1420E+02  0.1399E+02
     11.976  0.6041E+00  0.4694E+00  0.1425E+02  0.1403E+02
     12.062  0.7055E+00  0.4703E+00  0.1431E+02  0.1407E+02
     12.147  0.6383E+00  0.4320E+00  0.1437E+02  0.1411E+02
     12.233  0.7602E+00  0.5804E+00  0.1443E+02  0.1416E+02
     12.318  0.7563E+00  0.5997E+00  0.1450E+02  0.1421E+02
     12.404  0.6906E+00  0.7993E+00  0.1455E+02  0.1428E+02
     12.489  0.5759E+00  0.6894E+00  0.1460E+02  0.1434E+02
     12.575  0.7080E+00  0.6083E+00  0.1466E+02  0.1439E+02
     12.660  0.5461E+00  0.7079E+00  0.1471E+02  0.1445E+02
     12.746  0.4982E+00  0.7941E+00  0.1475E+02  0.1452E+02
     12.831  0.3362E+00  0.8726E+00  0.1478E+02  0.1459E+02
     12.917  0.4716E+00  0.6250E+00  0.1482E+02  0.1465E+02
     13.002  0.4968E+00  0.2873E+00  0.1486E+02  0.1467E+02
     13.088  0.2430E+00  0.5139E+00  0.1489E+02  0.1471E+02
     13.173  0.4477E+00  0.5095E+00  0.1492E+02  0.1476E+02
     13.259  0.4755E+00  0.5653E+00  0.1496E+02  0.1481E+02
     13.344  0.3997E+00  0.3521E+00  0.1500E+02  0.1484E+02
     13.430  0.8240E+00  0.3498E+00  0.1507E+02  0.1487E+02
     13.515  0.6774E+00  0.4555E+00  0.1513E+02  0.1490E+02
     13.601  0.4812E+00  0.7091E+00  0.1517E+02  0.1497E+02
     13.686  0.5142E+00  0.5345E+00  0.1521E+02  0.1501E+02
     13.772  0.2935E+00  0.5417E+00  0.1524E+02  0.1506E+02
     13.857  0.1319E+00  0.5955E+00  0.1525E+02  0.1511E+02
     13.943  0.2067E+00  0.3248E+00  0.1527E+02  0.1514E+02
     14.028  0.3064E+00  0.2952E+00  0.1529E+02  0.1516E+02
     14.114  0.3949E+00  0.3891E+00  0.1533E+02  0.1519E+02
     14.199  0.3880E+00  0.3823E+00  0.1536E+02  0.1523E+02
     14.285  0.1684E+00  0.4943E+00  0.1537E+02  0.1527E+02
     14.371  0.1358E+00  0.3618E+00  0.1539E+02  0.1530E+02
     14.456  0.9381E-01  0.3667E+00  0.1539E+02  0.1533E+02
     14.542  0.1350E+00  0.2131E+00  0.1541E+02  0.1535E+02
     14.627  0.1212E+00  0.3226E+00  0.1542E+02  0.1538E+02
     14.713  0.3721E-01  0.2204E+00  0.1542E+02  0.1540E+02
     14.798  0.1237E+00  0.6185E-01  0.1543E+02  0.1540E+02
     14.884  0.4160E+00  0.7344E-01  0.1546E+02  0.1541E+02
     14.969  0.3477E+00  0.1607E+00  0.1549E+02  0.1542E+02
     15.055  0.3552E+00  0.4254E-01  0.1552E+02  0.1543E+02
     15.140  0.1838E+00  0.1228E+00  0.1554E+02  0.1544E+02
     15.226  0.5579E-01  0.2161E+00  0.1555E+02  0.1545E+02
     15.311  0.8594E-01  0.3804E+00  0.1555E+02  0.1549E+02
     15.397  0.1570E+00  0.2918E+00  0.1557E+02  0.1551E+02
     15.482  0.1087E+00  0.2645E+00  0.1558E+02  0.1553E+02
     15.568  0.1081E+00  0.3117E+00  0.1558E+02  0.1556E+02
     15.653  0.1505E+00  0.1056E+00  0.1560E+02  0.1557E+02
     15.739  0.1508E+00  0.1275E-01  0.1561E+02  0.1557E+02
     15.824  0.3015E+00  0.1034E+00  0.1564E+02  0.1558E+02
     15.910  0.7556E-01  0.1478E+00  0.1564E+02  0.1559E+02
     15.995  0.9877E-01  0.1409E+00  0.1565E+02  0.1560E+02
     16.081  0.1102E+00  0.2175E+00  0.1566E+02  0.1562E+02
     16.166  0.1277E+00  0.1707E+00  0.1567E+02  0.1564E+02
     16.252  0.1350E+00  0.1504E+00  0.1568E+02  0.1565E+02
     16.337  0.1831E+00  0.1523E+00  0.1570E+02  0.1566E+02
     16.423  0.1357E+00  0.9291E-01  0.1571E+02  0.1567E+02
     16.508  0.1473E+00  0.1944E-01  0.1572E+02  0.1567E+02
     16.594  0.1260E+00  0.1262E+00  0.1573E+02  0.1568E+02
     16.680  0.2942E+00  0.2144E+00  0.1576E+02  0.1570E+02
     16.765  0.3181E+00  0.1735E+00  0.1579E+02  0.1572E+02
     16.851  0.9679E-01  0.1282E+00  0.1579E+02  0.1573E+02
     16.936  0.4639E-01  0.1071E+00  0.1580E+02  0.1574E+02
     17.022  0.3889E-01  0.1725E+00  0.1580E+02  0.1575E+02
     17.107  0.1755E+00  0.2659E+00  0.1582E+02  0.1578E+02
     17.193  0.7259E-01  0.2947E+00  0.1582E+02  0.1580E+02
     17.278  0.6579E-03  0.7983E-01  0.1582E+02  0.1581E+02
     17.364  0.5487E-03  0.1574E+00  0.1582E+02  0.1582E+02
     17.449  0.2154E-01  0.2872E-01  0.1582E+02  0.1582E+02
     17.535  0.1148E+00  0.9298E-02  0.1583E+02  0.1582E+02
     17.620  0.6690E-01  0.4210E-01  0.1584E+02  0.1583E+02
     17.706  0.3366E-01  0.1552E+00  0.1584E+02  0.1584E+02
     17.791  0.1420E+00  0.1821E-01  0.1586E+02  0.1584E+02
     17.877  0.8305E-01  0.7532E-02  0.1586E+02  0.1584E+02
     17.962  0.3060E+00  0.5629E-01  0.1589E+02  0.1585E+02
     18.048  0.1030E+00  0.4981E-01  0.1590E+02  0.1585E+02
     18.133  0.4727E-01  0.8847E-01  0.1590E+02  0.1586E+02
     18.219  0.8267E-01  0.1196E+00  0.1591E+02  0.1587E+02
     18.304  0.1298E-01  0.1628E+00  0.1591E+02  0.1588E+02
     18.390  0.7885E-02  0.2725E+00  0.1591E+02  0.1591E+02
     18.475  0.3999E-02  0.4231E-01  0.1591E+02  0.1591E+02
     18.561  0.3876E-01  0.2572E-01  0.1591E+02  0.1591E+02
     18.646  0.1516E+00  0.4573E-01  0.1593E+02  0.1592E+02
     18.732  0.2757E-01  0.7276E-01  0.1593E+02  0.1592E+02
     18.818  0.5381E-01  0.7496E-01  0.1593E+02  0.1593E+02
     18.903  0.2462E-01  0.3544E-02  0.1594E+02  0.1593E+02
     18.989  0.5522E-01  0.9200E-01  0.1594E+02  0.1594E+02
     19.074  0.4012E-01  0.8397E-01  0.1594E+02  0.1594E+02
     19.160  0.5781E-01  0.2294E-01  0.1595E+02  0.1595E+02
     19.245  0.6973E-01  0.4783E-01  0.1596E+02  0.1595E+02
     19.331  0.2412E-01  0.2072E-02  0.1596E+02  0.1595E+02
     19.416  0.4235E-01  0.1407E-01  0.1596E+02  0.1595E+02
     19.502  0.8140E-01  0.8011E-01  0.1597E+02  0.1596E+02
     19.587  0.1973E-01  0.1399E-01  0.1597E+02  0.1596E+02
     19.673  0.8090E-01  0.2647E-01  0.1598E+02  0.1596E+02
     19.758  0.1248E+00  0.1371E+00  0.1599E+02  0.1597E+02
     19.844  0.7565E-01  0.1043E+00  0.1599E+02  0.1598E+02
     19.929  0.4059E-02  0.1769E-01  0.1599E+02  0.1598E+02
     20.015  0.1691E-05  0.2958E-01  0.1599E+02  0.1599E+02
     20.100  0.3904E-09  0.7377E-01  0.1599E+02  0.1599E+02
     20.186  0.3480E-04  0.4167E-02  0.1599E+02  0.1599E+02
     20.271  0.1353E-01  0.1758E-01  0.1600E+02  0.1600E+02
     20.357  0.5359E-01  0.5097E-01  0.1600E+02  0.1600E+02
     20.442  0.4427E-02  0.2970E-02  0.1600E+02  0.1600E+02
     20.528  0.2704E-05  0.1178E-05  0.1600E+02  0.1600E+02
     20.613  0.6466E-11  0.1787E-11  0.1600E+02  0.1600E+02
     20.699  0.0000E+00  0.0000E+00  0.1600E+02  0.1600E+02
     20.784  0.0000E+00  0.0000E+00  0.1600E+02  0.1600E+02
     20.870  0.0000E+00  0.0000E+00  0.1600E+02  0.1600E+02
     20.955  0.0000E+00  0.0000E+00  0.1600E+02  0.1600E+02
     21.041  0.0000E+00  0.0000E+00  0.1600E+02  0.1600E+02
     21.127  0.0000E+00  0.0000E+00  0.1600E+02  0.1600E+02
     21.212  0.0000E+00  0.0000E+00  0.1600E+02  0.1600E+02
     21.298  0.0000E+00  0.0000E+00  0.1600E+02  0.1600E+02
     21.383  0.0000E+00  0.0000E+00  0.1600E+02  0.1600E+02
     21.469  0.0000E+00  0.0000E+00  0.1600E+02  0.1600E+02
