   2   2   1   0
  0.1064014E+02  0.2472000E-09  0.2472000E-09  0.4021144E-09  0.5000000E-15
  1.000000000000000E-004
  CAR 
 Co-hcc                                  
     37.52024552     -0.21229648  301     10.53382452      1.00000000
     -0.212  0.0000E+00  0.0000E+00  0.0000E+00  0.0000E+00
     -0.087  0.0000E+00  0.0000E+00  0.0000E+00  0.0000E+00
      0.039  0.0000E+00  0.0000E+00  0.0000E+00  0.0000E+00
      0.165  0.0000E+00  0.0000E+00  0.0000E+00  0.0000E+00
      0.291  0.0000E+00  0.0000E+00  0.0000E+00  0.0000E+00
      0.417  0.0000E+00  0.0000E+00  0.0000E+00  0.0000E+00
      0.542  0.0000E+00  0.0000E+00  0.0000E+00  0.0000E+00
      0.668  0.0000E+00  0.0000E+00  0.0000E+00  0.0000E+00
      0.794  0.0000E+00  0.0000E+00  0.0000E+00  0.0000E+00
      0.920  0.0000E+00  0.0000E+00  0.0000E+00  0.0000E+00
      1.045  0.0000E+00  0.0000E+00  0.0000E+00  0.0000E+00
      1.171  0.0000E+00  0.0000E+00  0.0000E+00  0.0000E+00
      1.297  0.8766E-12  0.1184E-10  0.1103E-12  0.1490E-11
      1.423  0.1473E-04  0.4784E-04  0.1853E-05  0.6016E-05
      1.549  0.3448E-02  0.4063E-02  0.4355E-03  0.5171E-03
      1.674  0.1388E-01  0.1692E-01  0.2181E-02  0.2645E-02
      1.800  0.4305E-01  0.4683E-01  0.7596E-02  0.8535E-02
      1.926  0.2934E-01  0.2301E-01  0.1129E-01  0.1143E-01
      2.052  0.1850E-01  0.2411E-01  0.1361E-01  0.1446E-01
      2.177  0.9403E-01  0.9326E-01  0.2544E-01  0.2619E-01
      2.303  0.4740E-01  0.4579E-01  0.3140E-01  0.3195E-01
      2.429  0.5951E-01  0.5981E-01  0.3889E-01  0.3947E-01
      2.555  0.5023E-01  0.4894E-01  0.4521E-01  0.4563E-01
      2.681  0.8276E-01  0.8013E-01  0.5561E-01  0.5571E-01
      2.806  0.6596E-01  0.6568E-01  0.6391E-01  0.6397E-01
      2.932  0.1142E+00  0.1136E+00  0.7828E-01  0.7826E-01
      3.058  0.5403E-01  0.4620E-01  0.8507E-01  0.8407E-01
      3.184  0.1885E+00  0.1862E+00  0.1088E+00  0.1075E+00
      3.309  0.4784E-01  0.5786E-01  0.1148E+00  0.1148E+00
      3.435  0.3790E-01  0.2656E-01  0.1196E+00  0.1181E+00
      3.561  0.1418E+00  0.1136E+00  0.1374E+00  0.1324E+00
      3.687  0.1454E+00  0.1461E+00  0.1557E+00  0.1508E+00
      3.813  0.1643E+00  0.1497E+00  0.1764E+00  0.1696E+00
      3.938  0.1181E+00  0.1272E+00  0.1912E+00  0.1856E+00
      4.064  0.1275E+00  0.1236E+00  0.2073E+00  0.2011E+00
      4.190  0.1566E+00  0.1343E+00  0.2270E+00  0.2180E+00
      4.316  0.1487E+00  0.1240E+00  0.2457E+00  0.2336E+00
      4.441  0.1861E+00  0.1601E+00  0.2691E+00  0.2538E+00
      4.567  0.9512E-01  0.1259E+00  0.2810E+00  0.2696E+00
      4.693  0.2206E+00  0.1125E+00  0.3088E+00  0.2838E+00
      4.819  0.4186E+00  0.1364E+00  0.3614E+00  0.3009E+00
      4.944  0.1882E+00  0.4046E+00  0.3851E+00  0.3518E+00
      5.070  0.3840E+00  0.1306E+00  0.4334E+00  0.3682E+00
      5.196  0.1430E+00  0.1805E+00  0.4514E+00  0.3909E+00
      5.322  0.4276E+00  0.2020E+00  0.5052E+00  0.4163E+00
      5.448  0.1234E+01  0.1585E+00  0.6603E+00  0.4363E+00
      5.573  0.9533E+00  0.1976E+00  0.7802E+00  0.4611E+00
      5.699  0.1078E+01  0.3421E+00  0.9158E+00  0.5042E+00
      5.825  0.1271E+01  0.3649E+00  0.1076E+01  0.5500E+00
      5.951  0.1140E+01  0.3959E+00  0.1219E+01  0.5998E+00
      6.076  0.1940E+01  0.3169E+00  0.1463E+01  0.6397E+00
      6.202  0.1605E+01  0.5634E+00  0.1665E+01  0.7106E+00
      6.328  0.1965E+01  0.5776E+00  0.1912E+01  0.7832E+00
      6.454  0.1381E+01  0.6169E+00  0.2086E+01  0.8608E+00
      6.580  0.1405E+01  0.9091E+00  0.2262E+01  0.9752E+00
      6.705  0.1911E+01  0.9647E+00  0.2503E+01  0.1096E+01
      6.831  0.1546E+01  0.7745E+00  0.2697E+01  0.1194E+01
      6.957  0.2087E+01  0.9316E+00  0.2960E+01  0.1311E+01
      7.083  0.2136E+01  0.1085E+01  0.3228E+01  0.1448E+01
      7.208  0.2075E+01  0.1177E+01  0.3489E+01  0.1596E+01
      7.334  0.1660E+01  0.1170E+01  0.3698E+01  0.1743E+01
      7.460  0.1124E+01  0.1753E+01  0.3840E+01  0.1963E+01
      7.586  0.1380E+01  0.1121E+01  0.4013E+01  0.2104E+01
      7.712  0.2625E+01  0.1127E+01  0.4343E+01  0.2246E+01
      7.837  0.2910E+01  0.1352E+01  0.4709E+01  0.2416E+01
      7.963  0.2545E+01  0.1408E+01  0.5029E+01  0.2593E+01
      8.089  0.2804E+01  0.1539E+01  0.5382E+01  0.2787E+01
      8.215  0.2947E+01  0.1926E+01  0.5753E+01  0.3029E+01
      8.340  0.3181E+01  0.1942E+01  0.6153E+01  0.3273E+01
      8.466  0.2844E+01  0.1985E+01  0.6511E+01  0.3523E+01
      8.592  0.2583E+01  0.1364E+01  0.6835E+01  0.3694E+01
      8.718  0.1869E+01  0.8179E+00  0.7071E+01  0.3797E+01
      8.844  0.1839E+01  0.8625E+00  0.7302E+01  0.3906E+01
      8.969  0.1730E+01  0.9433E+00  0.7519E+01  0.4024E+01
      9.095  0.1645E+01  0.1887E+01  0.7726E+01  0.4262E+01
      9.221  0.2195E+01  0.2656E+01  0.8002E+01  0.4596E+01
      9.347  0.1622E+01  0.2028E+01  0.8206E+01  0.4851E+01
      9.472  0.1729E+01  0.2541E+01  0.8424E+01  0.5171E+01
      9.598  0.2616E+01  0.2391E+01  0.8753E+01  0.5471E+01
      9.724  0.2838E+01  0.2608E+01  0.9110E+01  0.5799E+01
      9.850  0.4200E+01  0.2787E+01  0.9638E+01  0.6150E+01
      9.975  0.4437E+01  0.2815E+01  0.1020E+02  0.6504E+01
     10.101  0.2072E+01  0.2064E+01  0.1046E+02  0.6764E+01
     10.227  0.3261E+00  0.1807E+01  0.1050E+02  0.6991E+01
     10.353  0.1053E+00  0.1458E+01  0.1051E+02  0.7174E+01
     10.479  0.2025E+00  0.1357E+01  0.1054E+02  0.7345E+01
     10.604  0.4374E+00  0.1769E+01  0.1059E+02  0.7567E+01
     10.730  0.5607E+00  0.1034E+01  0.1066E+02  0.7697E+01
     10.856  0.3630E+00  0.1620E+01  0.1071E+02  0.7901E+01
     10.982  0.2950E+00  0.1658E+01  0.1074E+02  0.8110E+01
     11.107  0.2546E+00  0.1219E+01  0.1078E+02  0.8263E+01
     11.233  0.1116E+00  0.1567E+01  0.1079E+02  0.8460E+01
     11.359  0.8337E-01  0.2304E+01  0.1080E+02  0.8750E+01
     11.485  0.8807E-01  0.2576E+01  0.1081E+02  0.9074E+01
     11.611  0.3452E+00  0.3234E+01  0.1086E+02  0.9481E+01
     11.736  0.6638E+00  0.4059E+01  0.1094E+02  0.9991E+01
     11.862  0.5018E+00  0.3686E+01  0.1100E+02  0.1045E+02
     11.988  0.3257E+00  0.6558E+00  0.1104E+02  0.1054E+02
     12.114  0.1615E+00  0.6183E+00  0.1106E+02  0.1062E+02
     12.239  0.1601E+00  0.5884E+00  0.1108E+02  0.1069E+02
     12.365  0.1227E+00  0.4546E+00  0.1110E+02  0.1075E+02
     12.491  0.3010E+00  0.2971E+00  0.1114E+02  0.1078E+02
     12.617  0.2340E+00  0.3837E+00  0.1117E+02  0.1083E+02
     12.743  0.2052E+00  0.2641E+00  0.1119E+02  0.1087E+02
     12.868  0.2342E+00  0.4008E+00  0.1122E+02  0.1092E+02
     12.994  0.1439E+00  0.2946E+00  0.1124E+02  0.1095E+02
     13.120  0.4350E+00  0.5725E+00  0.1129E+02  0.1102E+02
     13.246  0.2128E+00  0.4133E+00  0.1132E+02  0.1108E+02
     13.371  0.1305E+00  0.3338E+00  0.1134E+02  0.1112E+02
     13.497  0.1308E+00  0.1467E+00  0.1135E+02  0.1114E+02
     13.623  0.3833E+00  0.2591E+00  0.1140E+02  0.1117E+02
     13.749  0.3386E+00  0.3237E+00  0.1145E+02  0.1121E+02
     13.875  0.1295E+00  0.2490E+00  0.1146E+02  0.1124E+02
     14.000  0.2818E+00  0.2295E+00  0.1150E+02  0.1127E+02
     14.126  0.1519E+00  0.2192E+00  0.1152E+02  0.1130E+02
     14.252  0.2102E+00  0.2424E+00  0.1154E+02  0.1133E+02
     14.378  0.2082E+00  0.3501E+00  0.1157E+02  0.1137E+02
     14.503  0.3293E+00  0.3879E+00  0.1161E+02  0.1142E+02
     14.629  0.1487E+00  0.2316E+00  0.1163E+02  0.1145E+02
     14.755  0.9987E-01  0.1766E+00  0.1164E+02  0.1147E+02
     14.881  0.1894E+00  0.1779E+00  0.1167E+02  0.1150E+02
     15.006  0.2713E+00  0.2836E+00  0.1170E+02  0.1153E+02
     15.132  0.1201E+00  0.2457E+00  0.1171E+02  0.1156E+02
     15.258  0.1549E+00  0.2949E+00  0.1173E+02  0.1160E+02
     15.384  0.2328E+00  0.1553E+00  0.1176E+02  0.1162E+02
     15.510  0.3188E+00  0.2075E+00  0.1180E+02  0.1164E+02
     15.635  0.2321E+00  0.2651E+00  0.1183E+02  0.1168E+02
     15.761  0.1240E+00  0.1670E+00  0.1185E+02  0.1170E+02
     15.887  0.2031E+00  0.1735E+00  0.1187E+02  0.1172E+02
     16.013  0.1622E+00  0.2253E+00  0.1189E+02  0.1175E+02
     16.138  0.1147E+00  0.1322E+00  0.1191E+02  0.1177E+02
     16.264  0.7000E-01  0.2493E+00  0.1192E+02  0.1180E+02
     16.390  0.3624E-02  0.2860E+00  0.1192E+02  0.1183E+02
     16.516  0.1401E+00  0.2499E+00  0.1194E+02  0.1186E+02
     16.642  0.1008E+00  0.2065E+00  0.1195E+02  0.1189E+02
     16.767  0.2771E-02  0.1697E+00  0.1195E+02  0.1191E+02
     16.893  0.8705E-01  0.4634E-01  0.1196E+02  0.1192E+02
     17.019  0.2377E-01  0.4533E-03  0.1196E+02  0.1192E+02
     17.145  0.7048E-01  0.9569E-01  0.1197E+02  0.1193E+02
     17.270  0.2537E+00  0.1395E+00  0.1200E+02  0.1195E+02
     17.396  0.1046E+00  0.2869E-01  0.1202E+02  0.1195E+02
     17.522  0.1252E+00  0.6698E-01  0.1203E+02  0.1196E+02
     17.648  0.1999E+00  0.9737E-02  0.1206E+02  0.1196E+02
     17.774  0.1311E+00  0.1098E+00  0.1207E+02  0.1197E+02
     17.899  0.2173E+00  0.1465E+00  0.1210E+02  0.1199E+02
     18.025  0.8334E-01  0.1001E+00  0.1211E+02  0.1201E+02
     18.151  0.2537E+00  0.1662E+00  0.1214E+02  0.1203E+02
     18.277  0.3760E+00  0.1804E+00  0.1219E+02  0.1205E+02
     18.402  0.3581E+00  0.1497E+00  0.1224E+02  0.1207E+02
     18.528  0.4264E+00  0.1176E+00  0.1229E+02  0.1208E+02
     18.654  0.3946E+00  0.1626E+00  0.1234E+02  0.1210E+02
     18.780  0.4233E+00  0.8285E-01  0.1239E+02  0.1211E+02
     18.906  0.2328E+00  0.1884E+00  0.1242E+02  0.1214E+02
     19.031  0.3313E+00  0.3743E+00  0.1246E+02  0.1218E+02
     19.157  0.4377E+00  0.4126E+00  0.1252E+02  0.1224E+02
     19.283  0.3655E+00  0.6056E+00  0.1256E+02  0.1231E+02
     19.409  0.2159E+00  0.4128E+00  0.1259E+02  0.1236E+02
     19.534  0.4948E+00  0.3142E+00  0.1265E+02  0.1240E+02
     19.660  0.2486E+00  0.4571E+00  0.1268E+02  0.1246E+02
     19.786  0.2998E+00  0.5277E+00  0.1272E+02  0.1253E+02
     19.912  0.2713E+00  0.1848E+00  0.1276E+02  0.1255E+02
     20.038  0.4296E+00  0.3943E+00  0.1281E+02  0.1260E+02
     20.163  0.1433E+00  0.4748E+00  0.1283E+02  0.1266E+02
     20.289  0.2254E+00  0.2161E+00  0.1286E+02  0.1269E+02
     20.415  0.4454E+00  0.3646E+00  0.1291E+02  0.1273E+02
     20.541  0.3206E+00  0.3079E+00  0.1295E+02  0.1277E+02
     20.666  0.2375E+00  0.3469E+00  0.1298E+02  0.1282E+02
     20.792  0.5033E+00  0.2281E+00  0.1305E+02  0.1284E+02
     20.918  0.4811E+00  0.4672E+00  0.1311E+02  0.1290E+02
     21.044  0.4105E+00  0.2682E+00  0.1316E+02  0.1294E+02
     21.169  0.2861E+00  0.2974E+00  0.1319E+02  0.1297E+02
     21.295  0.4710E+00  0.4497E+00  0.1325E+02  0.1303E+02
     21.421  0.2181E+00  0.7454E+00  0.1328E+02  0.1312E+02
     21.547  0.4261E+00  0.3205E+00  0.1333E+02  0.1316E+02
     21.673  0.2833E+00  0.1638E+00  0.1337E+02  0.1319E+02
     21.798  0.3372E+00  0.4644E+00  0.1341E+02  0.1324E+02
     21.924  0.4679E+00  0.3438E+00  0.1347E+02  0.1329E+02
     22.050  0.2318E+00  0.4290E+00  0.1350E+02  0.1334E+02
     22.176  0.2858E+00  0.3332E+00  0.1354E+02  0.1338E+02
     22.301  0.4155E+00  0.4384E+00  0.1359E+02  0.1344E+02
     22.427  0.3993E+00  0.3390E+00  0.1364E+02  0.1348E+02
     22.553  0.3694E+00  0.3336E+00  0.1369E+02  0.1352E+02
     22.679  0.3551E+00  0.2587E+00  0.1373E+02  0.1355E+02
     22.805  0.2559E+00  0.4710E+00  0.1376E+02  0.1361E+02
     22.930  0.3515E+00  0.3543E+00  0.1381E+02  0.1366E+02
     23.056  0.1623E+00  0.3791E+00  0.1383E+02  0.1371E+02
     23.182  0.2462E+00  0.3524E+00  0.1386E+02  0.1375E+02
     23.308  0.2208E+00  0.2980E+00  0.1389E+02  0.1379E+02
     23.433  0.2874E+00  0.2985E+00  0.1392E+02  0.1383E+02
     23.559  0.3979E+00  0.2156E+00  0.1397E+02  0.1385E+02
     23.685  0.1207E+00  0.1655E+00  0.1399E+02  0.1387E+02
     23.811  0.2106E+00  0.2733E+00  0.1401E+02  0.1391E+02
     23.937  0.4095E+00  0.3658E+00  0.1407E+02  0.1395E+02
     24.062  0.1930E+00  0.2148E+00  0.1409E+02  0.1398E+02
     24.188  0.2574E+00  0.1027E+00  0.1412E+02  0.1399E+02
     24.314  0.4620E+00  0.4150E+00  0.1418E+02  0.1405E+02
     24.440  0.2388E+00  0.2754E+00  0.1421E+02  0.1408E+02
     24.565  0.3202E+00  0.3156E+00  0.1425E+02  0.1412E+02
     24.691  0.3476E+00  0.3323E+00  0.1429E+02  0.1416E+02
     24.817  0.5037E+00  0.2637E+00  0.1436E+02  0.1420E+02
     24.943  0.2676E+00  0.4445E+00  0.1439E+02  0.1425E+02
     25.069  0.3932E+00  0.2548E+00  0.1444E+02  0.1428E+02
     25.194  0.3922E+00  0.5834E+00  0.1449E+02  0.1436E+02
     25.320  0.1779E+00  0.2856E+00  0.1451E+02  0.1439E+02
     25.446  0.4636E+00  0.3407E+00  0.1457E+02  0.1444E+02
     25.572  0.3192E+00  0.4101E+00  0.1461E+02  0.1449E+02
     25.697  0.3842E+00  0.1900E+00  0.1466E+02  0.1451E+02
     25.823  0.3593E+00  0.4951E+00  0.1470E+02  0.1457E+02
     25.949  0.2872E+00  0.4482E+00  0.1474E+02  0.1463E+02
     26.075  0.3643E+00  0.2973E+00  0.1479E+02  0.1467E+02
     26.200  0.2046E+00  0.3566E+00  0.1481E+02  0.1471E+02
     26.326  0.2528E+00  0.3632E+00  0.1484E+02  0.1476E+02
     26.452  0.4557E+00  0.3124E+00  0.1490E+02  0.1480E+02
     26.578  0.4003E+00  0.2225E+00  0.1495E+02  0.1482E+02
     26.704  0.4034E+00  0.2728E+00  0.1500E+02  0.1486E+02
     26.829  0.4078E+00  0.4997E+00  0.1505E+02  0.1492E+02
     26.955  0.1579E+00  0.3754E+00  0.1507E+02  0.1497E+02
     27.081  0.1952E+00  0.5413E+00  0.1510E+02  0.1504E+02
     27.207  0.2649E+00  0.2412E+00  0.1513E+02  0.1507E+02
     27.332  0.2247E+00  0.1649E+00  0.1516E+02  0.1509E+02
     27.458  0.4022E+00  0.2958E+00  0.1521E+02  0.1513E+02
     27.584  0.3152E+00  0.2345E+00  0.1525E+02  0.1516E+02
     27.710  0.5672E-01  0.2857E+00  0.1526E+02  0.1519E+02
     27.836  0.2302E+00  0.4205E+00  0.1529E+02  0.1524E+02
     27.961  0.3186E+00  0.8591E-01  0.1533E+02  0.1525E+02
     28.087  0.1848E+00  0.2120E+00  0.1535E+02  0.1528E+02
     28.213  0.1767E+00  0.2854E+00  0.1537E+02  0.1532E+02
     28.339  0.1691E+00  0.2468E+00  0.1539E+02  0.1535E+02
     28.464  0.1916E+00  0.1951E+00  0.1542E+02  0.1537E+02
     28.590  0.2476E+00  0.1674E+00  0.1545E+02  0.1539E+02
     28.716  0.2534E+00  0.1349E+00  0.1548E+02  0.1541E+02
     28.842  0.2273E+00  0.3044E+00  0.1551E+02  0.1545E+02
     28.968  0.3172E+00  0.2472E+00  0.1555E+02  0.1548E+02
     29.093  0.2213E+00  0.2504E+00  0.1558E+02  0.1551E+02
     29.219  0.6928E-01  0.2654E+00  0.1558E+02  0.1555E+02
     29.345  0.1337E+00  0.2751E+00  0.1560E+02  0.1558E+02
     29.471  0.2114E+00  0.5716E-01  0.1563E+02  0.1559E+02
     29.596  0.9799E-01  0.1230E+00  0.1564E+02  0.1560E+02
     29.722  0.6562E-01  0.2378E+00  0.1565E+02  0.1563E+02
     29.848  0.1099E+00  0.1132E+00  0.1566E+02  0.1565E+02
     29.974  0.9169E-01  0.8342E-01  0.1567E+02  0.1566E+02
     30.100  0.1529E+00  0.8210E-01  0.1569E+02  0.1567E+02
     30.225  0.1540E+00  0.1479E+00  0.1571E+02  0.1569E+02
     30.351  0.5866E-01  0.1968E+00  0.1572E+02  0.1571E+02
     30.477  0.1964E-02  0.4264E-01  0.1572E+02  0.1572E+02
     30.603  0.8324E-01  0.3700E-01  0.1573E+02  0.1572E+02
     30.728  0.1851E+00  0.5250E-01  0.1575E+02  0.1573E+02
     30.854  0.1103E+00  0.1269E+00  0.1577E+02  0.1574E+02
     30.980  0.1658E+00  0.1540E+00  0.1579E+02  0.1576E+02
     31.106  0.7154E-01  0.1064E+00  0.1580E+02  0.1578E+02
     31.231  0.6291E-01  0.1860E+00  0.1581E+02  0.1580E+02
     31.357  0.5190E-01  0.3745E-01  0.1581E+02  0.1580E+02
     31.483  0.1018E+00  0.1607E+00  0.1582E+02  0.1582E+02
     31.609  0.1010E+00  0.9550E-01  0.1584E+02  0.1584E+02
     31.735  0.1388E+00  0.1084E-01  0.1586E+02  0.1584E+02
     31.860  0.5357E-01  0.9677E-01  0.1586E+02  0.1585E+02
     31.986  0.6586E-01  0.5012E-01  0.1587E+02  0.1586E+02
     32.112  0.1254E+00  0.1951E+00  0.1589E+02  0.1588E+02
     32.238  0.5639E-01  0.7553E-01  0.1589E+02  0.1589E+02
     32.363  0.2345E-01  0.2188E-01  0.1590E+02  0.1589E+02
     32.489  0.1199E-01  0.5125E-01  0.1590E+02  0.1590E+02
     32.615  0.6570E-01  0.8673E-01  0.1591E+02  0.1591E+02
     32.741  0.5986E-01  0.2333E-01  0.1591E+02  0.1591E+02
     32.867  0.9511E-01  0.5564E-01  0.1593E+02  0.1592E+02
     32.992  0.8219E-02  0.8427E-01  0.1593E+02  0.1593E+02
     33.118  0.9032E-01  0.3760E-01  0.1594E+02  0.1594E+02
     33.244  0.6603E-01  0.8406E-01  0.1595E+02  0.1595E+02
     33.370  0.7325E-03  0.6852E-02  0.1595E+02  0.1595E+02
     33.495  0.3380E-01  0.4282E-01  0.1595E+02  0.1595E+02
     33.621  0.1046E+00  0.6908E-01  0.1596E+02  0.1596E+02
     33.747  0.5622E-01  0.7263E-01  0.1597E+02  0.1597E+02
     33.873  0.9492E-01  0.3394E-01  0.1598E+02  0.1597E+02
     33.999  0.2594E-01  0.1664E-01  0.1599E+02  0.1598E+02
     34.124  0.9300E-03  0.2615E-01  0.1599E+02  0.1598E+02
     34.250  0.7800E-08  0.4694E-01  0.1599E+02  0.1599E+02
     34.376  0.6097E-07  0.7701E-02  0.1599E+02  0.1599E+02
     34.502  0.6624E-02  0.1458E-01  0.1599E+02  0.1599E+02
     34.627  0.4964E-01  0.3411E-01  0.1599E+02  0.1599E+02
     34.753  0.5756E-02  0.3064E-03  0.1599E+02  0.1599E+02
     34.879  0.1904E-01  0.2170E-01  0.1600E+02  0.1600E+02
     35.005  0.6858E-04  0.1014E-01  0.1600E+02  0.1600E+02
     35.131  0.2062E-02  0.6661E-02  0.1600E+02  0.1600E+02
     35.256  0.1400E-01  0.1817E-02  0.1600E+02  0.1600E+02
     35.382  0.1656E-03  0.3832E-05  0.1600E+02  0.1600E+02
     35.508  0.2499E-03  0.4842E-02  0.1600E+02  0.1600E+02
     35.634  0.8176E-02  0.3270E-02  0.1600E+02  0.1600E+02
     35.759  0.7681E-02  0.3006E-02  0.1600E+02  0.1600E+02
     35.885  0.1185E-03  0.5057E-02  0.1600E+02  0.1600E+02
     36.011  0.3884E-10  0.4801E-04  0.1600E+02  0.1600E+02
     36.137  0.0000E+00  0.1184E-10  0.1600E+02  0.1600E+02
     36.262  0.0000E+00  0.0000E+00  0.1600E+02  0.1600E+02
     36.388  0.0000E+00  0.0000E+00  0.1600E+02  0.1600E+02
     36.514  0.0000E+00  0.0000E+00  0.1600E+02  0.1600E+02
     36.640  0.0000E+00  0.0000E+00  0.1600E+02  0.1600E+02
     36.766  0.0000E+00  0.0000E+00  0.1600E+02  0.1600E+02
     36.891  0.0000E+00  0.0000E+00  0.1600E+02  0.1600E+02
     37.017  0.0000E+00  0.0000E+00  0.1600E+02  0.1600E+02
     37.143  0.0000E+00  0.0000E+00  0.1600E+02  0.1600E+02
     37.269  0.0000E+00  0.0000E+00  0.1600E+02  0.1600E+02
     37.394  0.0000E+00  0.0000E+00  0.1600E+02  0.1600E+02
     37.520  0.0000E+00  0.0000E+00  0.1600E+02  0.1600E+02
     37.52024552     -0.21229648  301     10.53382452      1.00000000
     -0.212  0.0000E+00  0.0000E+00  0.0000E+00  0.0000E+00  0.0000E+00  0.0000E+00  0.0000E+00  0.0000E+00  0.0000E+00  0.0000E+00  0.0000E+00  0.0000E+00  0.0000E+00  0.0000E+00  0.0000E+00  0.0000E+00  0.0000E+00  0.0000E+00
     -0.087  0.0000E+00  0.0000E+00  0.0000E+00  0.0000E+00  0.0000E+00  0.0000E+00  0.0000E+00  0.0000E+00  0.0000E+00  0.0000E+00  0.0000E+00  0.0000E+00  0.0000E+00  0.0000E+00  0.0000E+00  0.0000E+00  0.0000E+00  0.0000E+00
      0.039  0.0000E+00  0.0000E+00  0.0000E+00  0.0000E+00  0.0000E+00  0.0000E+00  0.0000E+00  0.0000E+00  0.0000E+00  0.0000E+00  0.0000E+00  0.0000E+00  0.0000E+00  0.0000E+00  0.0000E+00  0.0000E+00  0.0000E+00  0.0000E+00
      0.165  0.0000E+00  0.0000E+00  0.0000E+00  0.0000E+00  0.0000E+00  0.0000E+00  0.0000E+00  0.0000E+00  0.0000E+00  0.0000E+00  0.0000E+00  0.0000E+00  0.0000E+00  0.0000E+00  0.0000E+00  0.0000E+00  0.0000E+00  0.0000E+00
      0.291  0.0000E+00  0.0000E+00  0.0000E+00  0.0000E+00  0.0000E+00  0.0000E+00  0.0000E+00  0.0000E+00  0.0000E+00  0.0000E+00  0.0000E+00  0.0000E+00  0.0000E+00  0.0000E+00  0.0000E+00  0.0000E+00  0.0000E+00  0.0000E+00
      0.417  0.0000E+00  0.0000E+00  0.0000E+00  0.0000E+00  0.0000E+00  0.0000E+00  0.0000E+00  0.0000E+00  0.0000E+00  0.0000E+00  0.0000E+00  0.0000E+00  0.0000E+00  0.0000E+00  0.0000E+00  0.0000E+00  0.0000E+00  0.0000E+00
      0.542  0.0000E+00  0.0000E+00  0.0000E+00  0.0000E+00  0.0000E+00  0.0000E+00  0.0000E+00  0.0000E+00  0.0000E+00  0.0000E+00  0.0000E+00  0.0000E+00  0.0000E+00  0.0000E+00  0.0000E+00  0.0000E+00  0.0000E+00  0.0000E+00
      0.668  0.0000E+00  0.0000E+00  0.0000E+00  0.0000E+00  0.0000E+00  0.0000E+00  0.0000E+00  0.0000E+00  0.0000E+00  0.0000E+00  0.0000E+00  0.0000E+00  0.0000E+00  0.0000E+00  0.0000E+00  0.0000E+00  0.0000E+00  0.0000E+00
      0.794  0.0000E+00  0.0000E+00  0.0000E+00  0.0000E+00  0.0000E+00  0.0000E+00  0.0000E+00  0.0000E+00  0.0000E+00  0.0000E+00  0.0000E+00  0.0000E+00  0.0000E+00  0.0000E+00  0.0000E+00  0.0000E+00  0.0000E+00  0.0000E+00
      0.920  0.0000E+00  0.0000E+00  0.0000E+00  0.0000E+00  0.0000E+00  0.0000E+00  0.0000E+00  0.0000E+00  0.0000E+00  0.0000E+00  0.0000E+00  0.0000E+00  0.0000E+00  0.0000E+00  0.0000E+00  0.0000E+00  0.0000E+00  0.0000E+00
      1.045  0.0000E+00  0.0000E+00  0.0000E+00  0.0000E+00  0.0000E+00  0.0000E+00  0.0000E+00  0.0000E+00  0.0000E+00  0.0000E+00  0.0000E+00  0.0000E+00  0.0000E+00  0.0000E+00  0.0000E+00  0.0000E+00  0.0000E+00  0.0000E+00
      1.171  0.0000E+00  0.0000E+00  0.0000E+00  0.0000E+00  0.0000E+00  0.0000E+00  0.0000E+00  0.0000E+00  0.0000E+00  0.0000E+00  0.0000E+00  0.0000E+00  0.0000E+00  0.0000E+00  0.0000E+00  0.0000E+00  0.0000E+00  0.0000E+00
      1.297  0.3248E-12  0.4391E-11  0.6727E-28  0.2012E-26  0.1934E-27  0.3911E-28  0.6727E-28  0.2012E-26  0.2074E-26  0.1110E-24  0.3805E-23  0.3053E-24  0.3634E-18  0.2339E-17  0.3805E-23  0.3053E-24  0.2074E-26  0.1110E-24
      1.423  0.5460E-05  0.1773E-04  0.1679E-18  0.3787E-17  0.3807E-12  0.3743E-11  0.1679E-18  0.3787E-17  0.3704E-19  0.4853E-18  0.6395E-16  0.1233E-17  0.6111E-11  0.9470E-11  0.6395E-16  0.1233E-17  0.3704E-19  0.4853E-18
      1.549  0.1277E-02  0.1505E-02  0.6909E-09  0.3934E-08  0.6456E-06  0.1604E-05  0.6909E-09  0.3934E-08  0.9037E-11  0.3847E-10  0.1420E-13  0.1823E-15  0.6416E-08  0.1053E-07  0.1420E-13  0.1823E-15  0.9037E-11  0.3847E-10
      1.674  0.5080E-02  0.6189E-02  0.1791E-04  0.2883E-04  0.2642E-04  0.2671E-04  0.1791E-04  0.2883E-04  0.2342E-06  0.2820E-06  0.6796E-09  0.2142E-08  0.4093E-06  0.3912E-06  0.6796E-09  0.2142E-08  0.2342E-06  0.2820E-06
      1.800  0.1560E-01  0.1695E-01  0.1343E-03  0.1478E-03  0.8587E-04  0.1114E-03  0.1343E-03  0.1478E-03  0.1771E-05  0.1455E-05  0.1930E-05  0.1923E-05  0.6835E-06  0.3967E-06  0.1930E-05  0.1923E-05  0.1771E-05  0.1455E-05
      1.926  0.1056E-01  0.8279E-02  0.7803E-04  0.5494E-04  0.1498E-03  0.1400E-03  0.7803E-04  0.5494E-04  0.1037E-05  0.5443E-06  0.1994E-05  0.1064E-05  0.2610E-05  0.2400E-05  0.1994E-05  0.1064E-05  0.1037E-05  0.5443E-06
      2.052  0.6517E-02  0.8480E-02  0.1101E-03  0.1528E-03  0.1117E-03  0.1435E-03  0.1101E-03  0.1528E-03  0.3952E-05  0.3974E-05  0.1513E-05  0.1991E-05  0.6518E-05  0.5798E-05  0.1513E-05  0.1991E-05  0.3952E-05  0.3974E-05
      2.177  0.3286E-01  0.3258E-01  0.6032E-03  0.6217E-03  0.7167E-03  0.6959E-03  0.6032E-03  0.6217E-03  0.2089E-04  0.1628E-04  0.2361E-04  0.1783E-04  0.2366E-04  0.1661E-04  0.2361E-04  0.1783E-04  0.2089E-04  0.1628E-04
      2.303  0.1637E-01  0.1579E-01  0.5275E-03  0.5293E-03  0.9227E-04  0.8609E-04  0.5275E-03  0.5293E-03  0.2917E-04  0.2175E-04  0.7874E-05  0.5894E-05  0.1661E-04  0.1192E-04  0.7874E-05  0.5894E-05  0.2917E-04  0.2175E-04
      2.429  0.2024E-01  0.2034E-01  0.5963E-03  0.5875E-03  0.5106E-03  0.5720E-03  0.5963E-03  0.5875E-03  0.3417E-04  0.2358E-04  0.3062E-04  0.2454E-04  0.3237E-04  0.2326E-04  0.3062E-04  0.2454E-04  0.3417E-04  0.2358E-04
      2.555  0.1686E-01  0.1642E-01  0.3648E-03  0.3470E-03  0.9041E-03  0.9312E-03  0.3648E-03  0.3470E-03  0.1552E-04  0.1053E-04  0.4896E-04  0.3493E-04  0.4217E-04  0.3346E-04  0.4896E-04  0.3493E-04  0.1552E-04  0.1053E-04
      2.681  0.2741E-01  0.2657E-01  0.6715E-03  0.6736E-03  0.1652E-02  0.1592E-02  0.6715E-03  0.6736E-03  0.4145E-04  0.2936E-04  0.9591E-04  0.6794E-04  0.1001E-03  0.6584E-04  0.9591E-04  0.6794E-04  0.4145E-04  0.2936E-04
      2.806  0.2143E-01  0.2138E-01  0.1316E-02  0.1335E-02  0.8758E-04  0.8230E-04  0.1316E-02  0.1335E-02  0.1424E-03  0.1021E-03  0.1728E-04  0.1170E-04  0.9608E-04  0.6718E-04  0.1728E-04  0.1170E-04  0.1424E-03  0.1021E-03
      2.932  0.3669E-01  0.3659E-01  0.1901E-02  0.1920E-02  0.1242E-02  0.1255E-02  0.1901E-02  0.1920E-02  0.1933E-03  0.1368E-03  0.1457E-03  0.1031E-03  0.1505E-03  0.1040E-03  0.1457E-03  0.1031E-03  0.1933E-03  0.1368E-03
      3.058  0.1695E-01  0.1457E-01  0.7196E-03  0.6016E-03  0.1218E-02  0.1103E-02  0.7196E-03  0.6016E-03  0.8706E-04  0.4705E-04  0.1182E-03  0.7199E-04  0.1378E-03  0.8083E-04  0.1182E-03  0.7199E-04  0.8706E-04  0.4705E-04
      3.184  0.5847E-01  0.5807E-01  0.3420E-02  0.3483E-02  0.2855E-02  0.2804E-02  0.3420E-02  0.3483E-02  0.4871E-03  0.3285E-03  0.4490E-03  0.3127E-03  0.3631E-03  0.2147E-03  0.4490E-03  0.3127E-03  0.4871E-03  0.3285E-03
      3.309  0.1468E-01  0.1787E-01  0.3716E-03  0.5289E-03  0.1796E-02  0.2096E-02  0.3716E-03  0.5289E-03  0.5079E-04  0.5039E-04  0.6507E-04  0.5652E-04  0.4436E-03  0.3343E-03  0.6507E-04  0.5652E-04  0.5079E-04  0.5039E-04
      3.435  0.1121E-01  0.7941E-02  0.8819E-03  0.6401E-03  0.4716E-03  0.3411E-03  0.8819E-03  0.6401E-03  0.1903E-03  0.8699E-04  0.1724E-03  0.7941E-04  0.4172E-04  0.1918E-04  0.1724E-03  0.7941E-04  0.1903E-03  0.8699E-04
      3.561  0.4138E-01  0.3354E-01  0.2507E-02  0.2102E-02  0.3987E-02  0.3155E-02  0.2507E-02  0.2102E-02  0.3939E-03  0.2248E-03  0.7618E-03  0.4063E-03  0.4595E-03  0.2387E-03  0.7618E-03  0.4063E-03  0.3939E-03  0.2248E-03
      3.687  0.4185E-01  0.4271E-01  0.3494E-02  0.3386E-02  0.2582E-02  0.3029E-02  0.3494E-02  0.3386E-02  0.7394E-03  0.4236E-03  0.4955E-03  0.4100E-03  0.7042E-03  0.3815E-03  0.4955E-03  0.4100E-03  0.7394E-03  0.4236E-03
      3.813  0.4613E-01  0.4293E-01  0.4468E-02  0.4203E-02  0.2159E-02  0.2083E-02  0.4468E-02  0.4203E-02  0.1292E-02  0.7368E-03  0.5623E-03  0.2651E-03  0.1050E-02  0.6265E-03  0.5623E-03  0.2651E-03  0.1292E-02  0.7368E-03
      3.938  0.3229E-01  0.3577E-01  0.2503E-02  0.3435E-02  0.3241E-02  0.2378E-02  0.2503E-02  0.3435E-02  0.6351E-03  0.5739E-03  0.7457E-03  0.5306E-03  0.1369E-02  0.4134E-03  0.7457E-03  0.5306E-03  0.6351E-03  0.5739E-03
      4.064  0.3393E-01  0.3396E-01  0.3239E-02  0.2694E-02  0.2683E-02  0.3922E-02  0.3239E-02  0.2694E-02  0.1146E-02  0.5273E-03  0.9264E-03  0.4651E-03  0.1142E-02  0.1193E-02  0.9264E-03  0.4651E-03  0.1146E-02  0.5273E-03
      4.190  0.4069E-01  0.3616E-01  0.3742E-02  0.3368E-02  0.4390E-02  0.4023E-02  0.3742E-02  0.3368E-02  0.1532E-02  0.6862E-03  0.1395E-02  0.8519E-03  0.1047E-02  0.4335E-03  0.1395E-02  0.8519E-03  0.1532E-02  0.6862E-03
      4.316  0.3709E-01  0.3275E-01  0.3229E-02  0.3121E-02  0.5067E-02  0.3898E-02  0.3229E-02  0.3121E-02  0.1246E-02  0.7439E-03  0.1983E-02  0.6760E-03  0.1643E-02  0.9511E-03  0.1983E-02  0.6760E-03  0.1246E-02  0.7439E-03
      4.441  0.4529E-01  0.4092E-01  0.4116E-02  0.3921E-02  0.6266E-02  0.5788E-02  0.4116E-02  0.3921E-02  0.1925E-02  0.9245E-03  0.2881E-02  0.1557E-02  0.1793E-02  0.8277E-03  0.2881E-02  0.1557E-02  0.1925E-02  0.9245E-03
      4.567  0.2261E-01  0.3194E-01  0.3544E-02  0.3365E-02  0.8191E-03  0.4040E-02  0.3544E-02  0.3365E-02  0.1662E-02  0.9066E-03  0.2654E-03  0.1163E-02  0.2252E-02  0.6741E-03  0.2654E-03  0.1163E-02  0.1662E-02  0.9066E-03
      4.693  0.4928E-01  0.2786E-01  0.6251E-02  0.4807E-02  0.4714E-02  0.7114E-03  0.6251E-02  0.4807E-02  0.4112E-02  0.1357E-02  0.2303E-02  0.1433E-03  0.6464E-02  0.1401E-02  0.2303E-02  0.1433E-03  0.4112E-02  0.1357E-02
      4.819  0.9072E-01  0.3241E-01  0.1204E-01  0.3850E-02  0.1064E-01  0.4490E-02  0.1204E-01  0.3850E-02  0.8201E-02  0.1323E-02  0.7988E-02  0.1014E-02  0.4642E-02  0.2695E-02  0.7988E-02  0.1014E-02  0.8201E-02  0.1323E-02
      4.944  0.3748E-01  0.9435E-01  0.4225E-02  0.1328E-01  0.5850E-02  0.1133E-01  0.4225E-02  0.1328E-01  0.4131E-02  0.4833E-02  0.4073E-02  0.4064E-02  0.6064E-02  0.3845E-02  0.4073E-02  0.4064E-02  0.4131E-02  0.4833E-02
      5.070  0.6920E-01  0.2929E-01  0.9151E-02  0.3967E-02  0.8597E-02  0.4245E-02  0.9151E-02  0.3967E-02  0.1245E-01  0.1666E-02  0.1109E-01  0.1955E-02  0.1052E-01  0.1166E-02  0.1109E-01  0.1955E-02  0.1245E-01  0.1666E-02
      5.196  0.2162E-01  0.3947E-01  0.2096E-02  0.4925E-02  0.2904E-02  0.7194E-02  0.2096E-02  0.4925E-02  0.5109E-02  0.2175E-02  0.4527E-02  0.2502E-02  0.1118E-01  0.3335E-02  0.4527E-02  0.2502E-02  0.5109E-02  0.2175E-02
      5.322  0.5787E-01  0.4224E-01  0.6532E-02  0.6271E-02  0.1128E-01  0.6337E-02  0.6532E-02  0.6271E-02  0.1519E-01  0.3491E-02  0.2541E-01  0.3402E-02  0.1297E-01  0.2944E-02  0.2541E-01  0.3402E-02  0.1519E-01  0.3491E-02
      5.448  0.1367E+00  0.3123E-01  0.1811E-01  0.5394E-02  0.1353E-01  0.2883E-02  0.1811E-01  0.5394E-02  0.6808E-01  0.4271E-02  0.6602E-01  0.3057E-02  0.7000E-01  0.2291E-02  0.6602E-01  0.3057E-02  0.6808E-01  0.4271E-02
      5.573  0.9357E-01  0.3790E-01  0.1351E-01  0.4158E-02  0.9784E-02  0.1017E-01  0.1351E-01  0.4158E-02  0.5647E-01  0.2408E-02  0.6095E-01  0.4353E-02  0.4260E-01  0.7044E-02  0.6095E-01  0.4353E-02  0.5647E-01  0.2408E-02
      5.699  0.7610E-01  0.6386E-01  0.9949E-02  0.1073E-01  0.8783E-02  0.1256E-01  0.9949E-02  0.1073E-01  0.6201E-01  0.6259E-02  0.8689E-01  0.8176E-02  0.6860E-01  0.6201E-02  0.8689E-01  0.8176E-02  0.6201E-01  0.6259E-02
      5.825  0.8160E-01  0.6482E-01  0.1137E-01  0.1288E-01  0.1933E-01  0.9159E-02  0.1137E-01  0.1288E-01  0.9806E-01  0.9516E-02  0.8390E-01  0.7876E-02  0.6688E-01  0.8713E-02  0.8390E-01  0.7876E-02  0.9806E-01  0.9516E-02
      5.951  0.5254E-01  0.6545E-01  0.9528E-02  0.1336E-01  0.1171E-01  0.7011E-02  0.9528E-02  0.1336E-01  0.1084E+00  0.1542E-01  0.6731E-01  0.6999E-02  0.7025E-01  0.1417E-01  0.6731E-01  0.6999E-02  0.1084E+00  0.1542E-01
      6.076  0.7704E-01  0.4612E-01  0.1802E-01  0.8382E-02  0.1643E-01  0.5388E-02  0.1802E-01  0.8382E-02  0.1402E+00  0.1182E-01  0.1472E+00  0.1041E-01  0.1604E+00  0.1621E-01  0.1472E+00  0.1041E-01  0.1402E+00  0.1182E-01