    2    2    1    2
  0.1064014E+02  0.2472000E-09  0.2472000E-09  0.4021144E-09  0.5000000E-15
  1.000000000000000E-004
  CAR 
 Co-hcc                                  
     18    144     16
 
  0.0000000E+00  0.0000000E+00  0.0000000E+00  0.5102041E-03
      1          1.517691        1.502819   1.000000   1.000000
      2          5.325872        6.224375   1.000000   1.000000
      3          7.889932        9.463872   1.000000   1.000000
      4          7.944094        9.518977   1.000000   1.000000
      5          7.944094        9.518978   1.000000   1.000000
      6          8.260059        9.886857   1.000000   1.000000
      7          8.260060        9.886858   1.000000   1.000000
      8          8.641797       10.321563   1.000000   1.000000
      9          8.641797       10.359601   1.000000   1.000000
     10          9.752417       10.359601   1.000000   1.000000
     11          9.752417       11.583393   1.000000   0.000000
     12         10.390091       11.583393   0.999976   0.000000
     13         16.991718       17.975418   0.000000   0.000000
     14         32.761653       32.472788   0.000000   0.000000
     15         35.573762       35.746380   0.000000   0.000000
     16         35.574100       35.805130   0.000000   0.000000
 
  0.7142857E-01  0.6938894E-17  0.0000000E+00  0.3061224E-02
      1          1.700197        1.685972   1.000000   1.000000
      2          5.437398        6.350492   1.000000   1.000000
      3          7.728519        9.267496   1.000000   1.000000
      4          8.030401        9.613456   1.000000   1.000000
      5          8.080266        9.676313   1.000000   1.000000
      6          8.218989        9.770259   1.000000   1.000000
      7          8.336478        9.833247   1.000000   1.000000
      8          8.533388        9.970478   1.000000   1.000000
      9          8.587416       10.296355   1.000000   1.000000
     10          9.048520       10.310154   1.000000   1.000000
     11          9.775280       11.610467   1.000000   0.000000
     12         11.322671       12.292874   0.000000   0.000000
     13         17.021657       17.988770   0.000000   0.000000
     14         31.452697       31.445575   0.000000   0.000000
     15         33.529156       33.608434   0.000000   0.000000
     16         33.767171       34.079336   0.000000   0.000000
 
  0.1428571E+00  0.1387779E-16  0.0000000E+00  0.3061224E-02
      1          2.233430        2.223337   1.000000   1.000000
      2          5.730944        6.690488   1.000000   1.000000
      3          7.496904        8.976776   1.000000   1.000000
      4          7.959623        8.996923   1.000000   1.000000
      5          8.070158        9.646256   1.000000   1.000000
      6          8.278923        9.886657   1.000000   1.000000
      7          8.324065        9.941672   1.000000   1.000000
      8          8.447177       10.134148   1.000000   1.000000
      9          8.555889       10.178748   1.000000   1.000000
     10          8.643010       10.211222   1.000000   1.000000
     11          9.827800       11.672073   1.000000   0.000000
     12         12.669040       13.531209   0.000000   0.000000
     13         17.123617       18.039233   0.000000   0.000000
     14         28.266994       28.526675   0.000000   0.000000
     15         31.635021       31.931193   0.000000   0.000000
     16         32.622692       32.661151   0.000000   0.000000
 
  0.2142857E+00 -0.1387779E-16  0.0000000E+00  0.3061224E-02
      1          3.066467        3.074122   1.000000   1.000000
      2          6.053576        7.102291   1.000000   1.000000
      3          7.271024        8.337274   1.000000   1.000000
      4          7.294852        8.677883   1.000000   1.000000
      5          7.947678        9.473808   1.000000   1.000000
      6          8.265917        9.925833   1.000000   1.000000
      7          8.456826        9.992008   1.000000   1.000000
      8          8.643765       10.277608   1.000000   1.000000
      9          8.654782       10.303052   1.000000   1.000000
     10          8.885071       10.573648   1.000000   0.130006
     11          9.883191       11.736252   1.000000   0.000000
     12         14.173679       14.954713   0.000000   0.000000
     13         17.324798       18.149906   0.000000   0.000000
     14         24.968211       25.354449   0.000000   0.000000
     15         29.713385       29.982969   0.000000   0.000000
     16         31.752702       31.883662   0.000000   0.000000
 
  0.2857143E+00  0.2775558E-16  0.0000000E+00  0.3061224E-02
      1          4.078788        4.152476   1.000000   1.000000
      2          6.144520        7.311018   1.000000   1.000000
      3          6.718258        7.826179   1.000000   1.000000
      4          7.278112        8.506880   1.000000   1.000000
      5          7.949781        9.432272   1.000000   1.000000
      6          8.084281        9.718141   1.000000   1.000000
      7          8.283581        9.788077   1.000000   1.000000
      8          9.096709       10.757044   1.000000   0.000000
      9          9.124730       10.798822   1.000000   0.000000
     10          9.271577       11.001049   1.000000   0.000000
     11          9.926646       11.786002   1.000000   0.000000
     12         15.810008       16.510567   0.000000   0.000000
     13         17.593910       18.288089   0.000000   0.000000
     14         21.970035       22.474892   0.000000   0.000000
     15         28.074058       28.304769   0.000000   0.000000
     16         29.427955       29.604022   0.000000   0.000000
 
  0.3571429E+00 -0.2775558E-16  0.0000000E+00  0.3061224E-02
      1          5.008516        5.287289   1.000000   1.000000
      2          6.005969        7.210902   1.000000   1.000000
      3          6.322734        7.466309   1.000000   1.000000
      4          7.467168        8.481712   1.000000   1.000000
      5          7.932796        9.545545   1.000000   1.000000
      6          8.120149        9.600484   1.000000   1.000000
      7          8.134884        9.606976   1.000000   1.000000
      8          9.513983       11.274152   1.000000   0.000000
      9          9.650149       11.422672   1.000000   0.000000
     10          9.850389       11.425973   1.000000   0.000000
     11          9.954912       11.818005   1.000000   0.000000
     12         17.261759       17.862558   0.000000   0.000000
     13         17.548176       18.159611   0.000000   0.000000
     14         20.118376       20.702012   0.000000   0.000000
     15         26.794922       26.978925   0.000000   0.000000
     16         26.872085       27.164575   0.000000   0.000000
 
  0.4285714E+00 -0.2775558E-16  0.0000000E+00  0.3061224E-02
      1          5.537249        6.187404   1.000000   1.000000
      2          5.846582        7.012049   1.000000   1.000000
      3          6.086445        7.253900   1.000000   1.000000
      4          7.822673        8.570105   1.000000   1.000000
      5          7.833206        9.432349   1.000000   1.000000
      6          8.034199        9.482785   1.000000   1.000000
      7          8.288198        9.788477   1.000000   1.000000
      8          9.804290       11.606038   1.000000   0.000000
      9          9.942937       11.755651   1.000000   0.000000
     10          9.969987       11.834911   1.000000   0.000000
     11         10.936936       12.331127   0.000000   0.000000
     12         15.392591       16.149704   0.000000   0.000000
     13         19.289565       19.793126   0.000000   0.000000
     14         20.442998       20.902212   0.000000   0.000000
     15         24.648217       25.067821   0.000000   0.000000
     16         25.837966       26.111655   0.000000   0.000000
 
  0.5000000E+00  0.2775558E-16  0.0000000E+00  0.1530612E-02
      1          5.710772        6.577992   1.000000   1.000000
      2          5.746573        6.858059   1.000000   1.000000
      3          6.007880        7.183744   1.000000   1.000000
      4          7.798541        8.661681   1.000000   1.000000
      5          7.998657        9.392994   1.000000   1.000000
      6          8.021614        9.438706   1.000000   1.000000
      7          8.343996        9.854731   1.000000   1.000000
      8          9.906776       11.722491   1.000000   0.000000
      9          9.974587       11.840034   1.000000   0.000000
     10         10.055808       11.886687   1.000000   0.000000
     11         11.922492       13.110779   0.000000   0.000000
     12         13.986856       14.918287   0.000000   0.000000
     13         20.350815       20.754703   0.000000   0.000000
     14         21.027181       21.388763   0.000000   0.000000
     15         23.427699       23.953906   0.000000   0.000000
     16         24.727159       25.260308   0.000000   0.000000
 
  0.7142857E-01  0.7142857E-01  0.0000000E+00  0.3061224E-02
      1          2.058440        2.046470   1.000000   1.000000
      2          5.642355        6.585436   1.000000   1.000000
      3          7.553936        9.053699   1.000000   1.000000
      4          8.134553        9.202758   1.000000   1.000000
      5          8.179916        9.721642   1.000000   1.000000
      6          8.207389        9.809649   1.000000   1.000000
      7          8.208355        9.818144   1.000000   1.000000
      8          8.422500       10.099651   1.000000   1.000000
      9          8.502217       10.150329   1.000000   1.000000
     10          8.749824       10.303336   1.000000   1.000000
     11          9.806682       11.647168   1.000000   0.000000
     12         12.292349       13.179865   0.000000   0.000000
     13         17.088366       18.021471   0.000000   0.000000
     14         29.687238       29.832168   0.000000   0.000000
     15         30.551525       30.855154   0.000000   0.000000
     16         34.781089       34.835276   0.000000   0.000000
 
  0.1428571E+00  0.7142857E-01  0.0000000E+00  0.6122449E-02
      1          2.744884        2.742460   1.000000   1.000000
      2          5.971247        6.977612   1.000000   1.000000
      3          7.313321        8.569368   1.000000   1.000000
      4          7.527083        8.745895   1.000000   1.000000
      5          8.011725        9.558040   1.000000   1.000000
      6          8.229901        9.864991   1.000000   1.000000
      7          8.416415       10.046279   1.000000   1.000000
      8          8.538620       10.169726   1.000000   1.000000
      9          8.607678       10.194058   1.000000   1.000000
     10          8.820204       10.491570   1.000000   0.883981
     11          9.849127       11.696439   1.000000   0.000000
     12         13.629359       14.441088   0.000000   0.000000
     13         17.247244       18.109611   0.000000   0.000000
     14         26.653203       26.972545   0.000000   0.000000
     15         28.634569       28.931173   0.000000   0.000000
     16         33.695418       33.676632   0.000000   0.000000
 
  0.2142857E+00  0.7142857E-01  0.0000000E+00  0.6122449E-02
      1          3.681792        3.714667   1.000000   1.000000
      2          6.212980        7.325641   1.000000   1.000000
      3          6.943732        8.032025   1.000000   1.000000
      4          7.158662        8.477974   1.000000   1.000000
      5          7.940012        9.438376   1.000000   1.000000
      6          8.047598        9.643739   1.000000   1.000000
      7          8.440372       10.008025   1.000000   1.000000
      8          8.736025       10.387537   1.000000   0.999982
      9          8.967126       10.644780   1.000000   0.000850
     10          9.252255       10.943992   1.000000   0.000000
     11          9.889031       11.742418   1.000000   0.000000
     12         15.161453       15.898682   0.000000   0.000000
     13         17.523055       18.275244   0.000000   0.000000
     14         23.474815       23.910013   0.000000   0.000000
     15         27.166510       27.463168   0.000000   0.000000
     16         30.865193       30.968856   0.000000   0.000000
 
  0.2857143E+00  0.7142857E-01  0.0000000E+00  0.6122449E-02
      1          4.689677        4.842459   1.000000   1.000000
      2          6.161152        7.362544   1.000000   1.000000
      3          6.496064        7.626990   1.000000   1.000000
      4          7.235037        8.385999   1.000000   1.000000
      5          7.901455        9.469386   1.000000   1.000000
      6          8.033566        9.509211   1.000000   1.000000
      7          8.258198        9.792237   1.000000   1.000000
      8          9.170164       10.847088   1.000000   0.000000
      9          9.402272       11.135533   1.000000   0.000000
     10          9.801637       11.477870   1.000000   0.000000
     11          9.918161       11.775621   1.000000   0.000000
     12         16.834899       17.491634   0.000000   0.000000
     13         17.728485       18.343526   0.000000   0.000000
     14         20.826904       21.380288   0.000000   0.000000
     15         25.916066       26.191465   0.000000   0.000000
     16         28.207303       28.432631   0.000000   0.000000
 
  0.3571429E+00  0.7142857E-01  0.0000000E+00  0.6122449E-02
      1          5.434598        5.892639   1.000000   1.000000
      2          5.989156        7.183779   1.000000   1.000000
      3          6.196514        7.359869   1.000000   1.000000
      4          7.515573        8.423292   1.000000   1.000000
      5          7.809492        9.366617   1.000000   1.000000
      6          8.096592        9.591526   1.000000   1.000000
      7          8.221042        9.715423   1.000000   1.000000
      8          9.620778       11.360086   1.000000   0.000000
      9          9.751327       11.529903   1.000000   0.000000
     10          9.935433       11.795068   1.000000   0.000000
     11         10.601047       12.131440   0.028629   0.000000
     12         16.565163       17.217020   0.000000   0.000000
     13         18.593371       19.156493   0.000000   0.000000
     14         20.164410       20.689101   0.000000   0.000000
     15         24.945142       25.196591   0.000000   0.000000
     16         25.799818       26.148711   0.000000   0.000000
 
  0.4285714E+00  0.7142857E-01  0.0000000E+00  0.6122449E-02
      1          5.742326        6.555842   1.000000   1.000000
      2          5.860519        6.990502   1.000000   1.000000
      3          6.047041        7.228016   1.000000   1.000000
      4          7.772796        8.540162   1.000000   1.000000
      5          7.834116        9.345193   1.000000   1.000000
      6          7.995695        9.447695   1.000000   1.000000
      7          8.341738        9.854615   1.000000   1.000000
      8          9.881364       11.686299   1.000000   0.000000
      9          9.943041       11.756690   1.000000   0.000000
     10          9.950362       11.803537   1.000000   0.000000
     11         11.779303       13.013175   0.000000   0.000000
     12         14.581723       15.448334   0.000000   0.000000
     13         20.194109       20.640804   0.000000   0.000000
     14         20.955444       21.345951   0.000000   0.000000
     15         23.878399       24.359585   0.000000   0.000000
     16         24.245056       24.541430   0.000000   0.000000
 
  0.1428571E+00  0.1428571E+00  0.0000000E+00  0.3061224E-02
      1          3.544924        3.565195   1.000000   1.000000
      2          6.273089        7.348785   1.000000   1.000000
      3          7.051858        8.127347   1.000000   1.000000
      4          7.056846        8.426807   1.000000   1.000000
      5          7.966617        9.473358   1.000000   1.000000
      6          7.987546        9.582653   1.000000   1.000000
      7          8.532204       10.115154   1.000000   1.000000
      8          8.559071       10.209300   1.000000   1.000000
      9          8.943818       10.610843   1.000000   0.014688
     10          9.261405       10.945693   1.000000   0.000000
     11          9.859211       11.707776   1.000000   0.000000
     12         14.939283       15.692049   0.000000   0.000000
     13         17.504279       18.276921   0.000000   0.000000
     14         25.011815       25.362246   0.000000   0.000000
     15         25.537477       25.918152   0.000000   0.000000
     16         32.084171       32.038102   0.000000   0.000000
 
  0.2142857E+00  0.1428571E+00  0.0000000E+00  0.6122449E-02
      1          4.520468        4.609152   1.000000   1.000000
      2          6.413367        7.581649   1.000000   1.000000
      3          6.638240        7.759380   1.000000   1.000000
      4          6.916078        8.177606   1.000000   1.000000
      5          7.808289        9.362891   1.000000   1.000000
      6          8.005278        9.482599   1.000000   1.000000
      7          8.379573        9.936989   1.000000   1.000000
      8          8.816184       10.490497   1.000000   0.889802
      9          9.386843       11.105036   1.000000   0.000000
     10          9.838721       11.507345   1.000000   0.000000
     11          9.865809       11.715306   1.000000   0.000000
     12         16.475952       17.162204   0.000000   0.000000
     13         17.902930       18.554217   0.000000   0.000000
     14         22.201898       22.665076   0.000000   0.000000
     15         24.071936       24.442070   0.000000   0.000000
     16         29.730188       29.845540   0.000000   0.000000
 
  0.2857143E+00  0.1428571E+00  0.0000000E+00  0.6122449E-02
      1          5.418151        5.707121   1.000000   1.000000
      2          6.261623        7.471313   1.000000   1.000000
      3          6.330525        7.494318   1.000000   1.000000
      4          7.068916        8.161847   1.000000   1.000000
      5          7.707059        9.233683   1.000000   1.000000
      6          8.166773        9.652191   1.000000   1.000000
      7          8.189116        9.709523   1.000000   1.000000
      8          9.179311       10.881755   1.000000   0.000000
      9          9.740745       11.509952   1.000000   0.000000
     10          9.869546       11.719411   1.000000   0.000000
     11         10.599326       12.171108   0.031965   0.000000
     12         17.806067       18.370391   0.000000   0.000000
     13         18.171152       18.780562   0.000000   0.000000
     14         20.246644       20.793266   0.000000   0.000000
     15         23.070092       23.420302   0.000000   0.000000
     16         27.246750       27.513612   0.000000   0.000000
 
  0.3571429E+00  0.1428571E+00  0.0000000E+00  0.6122449E-02
      1          5.897858        6.563411   1.000000   1.000000
      2          6.100021        7.273187   1.000000   1.000000
      3          6.143693        7.337420   1.000000   1.000000
      4          7.389484        8.253904   1.000000   1.000000
      5          7.684083        9.207026   1.000000   1.000000
      6          8.013302        9.490879   1.000000   1.000000
      7          8.334848        9.849490   1.000000   1.000000
      8          9.569483       11.315403   1.000000   0.000000
      9          9.870689       11.714735   1.000000   0.000000
     10          9.913809       11.720459   1.000000   0.000000
     11         11.682565       13.002288   0.000000   0.000000
     12         15.922459       16.649784   0.000000   0.000000
     13         19.924696       20.440002   0.000000   0.000000
     14         20.725182       21.172073   0.000000   0.000000
     15         22.371887       22.701371   0.000000   0.000000
     16         25.007572       25.405073   0.000000   0.000000
 
  0.4285714E+00  0.1428571E+00  0.0000000E+00  0.3061224E-02
      1          6.002569        6.904387   1.000000   1.000000
      2          6.044072        7.151640   1.000000   1.000000
      3          6.081204        7.285685   1.000000   1.000000
      4          7.568678        8.333862   1.000000   1.000000
      5          7.697888        9.244984   1.000000   1.000000
      6          7.928827        9.365336   1.000000   1.000000
      7          8.400509        9.927892   1.000000   1.000000
      8          9.796765       11.575808   1.000000   0.000000
      9          9.870734       11.707589   1.000000   0.000000
     10          9.901601       11.720384   1.000000   0.000000
     11         12.717137       13.757314   0.000000   0.000000
     12         14.442802       15.383935   0.000000   0.000000
     13         21.062624       21.485135   0.000000   0.000000
     14         21.547093       21.901632   0.000000   0.000000
     15         21.942453       22.289478   0.000000   0.000000
     16         23.707669       24.209381   0.000000   0.000000
 
  0.2142857E+00  0.2142857E+00  0.0000000E+00  0.3061224E-02
      1          5.426479        5.644141   1.000000   1.000000
      2          6.396078        7.560080   1.000000   1.000000
      3          6.586603        7.763681   1.000000   1.000000
      4          6.676189        7.884478   1.000000   1.000000
      5          7.648717        9.165567   1.000000   1.000000
      6          8.150350        9.631547   1.000000   1.000000
      7          8.232389        9.759750   1.000000   1.000000
      8          8.984466       10.684005   1.000000   0.000011
      9          9.746352       11.513538   1.000000   0.000000
     10          9.835436       11.680545   1.000000   0.000000
     11         10.619209       12.194781   0.007867   0.000000
     12         18.031167       18.658233   0.000000   0.000000
     13         18.395681       18.938706   0.000000   0.000000
     14         20.849990       21.334794   0.000000   0.000000
     15         21.642895       22.087248   0.000000   0.000000
     16         28.732633       28.815437   0.000000   0.000000
 
  0.2857143E+00  0.2142857E+00  0.0000000E+00  0.6122449E-02
      1          6.082586        6.597153   1.000000   1.000000
      2          6.232759        7.438360   1.000000   1.000000
      3          6.427515        7.598026   1.000000   1.000000
      4          6.876203        7.925960   1.000000   1.000000
      5          7.590100        9.080860   1.000000   1.000000
      6          8.040300        9.529146   1.000000   1.000000
      7          8.338552        9.848114   1.000000   1.000000
      8          9.251759       10.977547   1.000000   0.000000
      9          9.810799       11.652341   1.000000   0.000000
     10          9.918248       11.716917   1.000000   0.000000
     11         11.685914       13.051140   0.000000   0.000000
     12         17.607277       18.182668   0.000000   0.000000
     13         19.659159       20.153850   0.000000   0.000000
     14         19.757200       20.313866   0.000000   0.000000
     15         21.239034       21.664635   0.000000   0.000000
     16         26.542842       26.851313   0.000000   0.000000
 
  0.3571429E+00  0.2142857E+00  0.0000000E+00  0.6122449E-02
      1          6.151458        7.144832   1.000000   1.000000
      2          6.291915        7.382947   1.000000   1.000000
      3          6.310894        7.455215   1.000000   1.000000
      4          7.166582        8.035781   1.000000   1.000000
      5          7.616499        9.107951   1.000000   1.000000
      6          7.873412        9.322125   1.000000   1.000000
      7          8.466650       10.002559   1.000000   1.000000
      8          9.551604       11.306163   1.000000   0.000000
      9          9.797342       11.636849   1.000000   0.000000
     10          9.880294       11.680791   1.000000   0.000000
     11         13.089221       14.135737   0.000000   0.000000
     12         15.499591       16.294633   0.000000   0.000000
     13         19.540215       19.994463   0.000000   0.000000
     14         21.467246       21.934793   0.000000   0.000000
     15         21.948967       22.316310   0.000000   0.000000
     16         24.494359       24.927188   0.000000   0.000000
 
  0.2857143E+00  0.2857143E+00  0.0000000E+00  0.3061224E-02
      1          6.188895        7.261652   1.000000   1.000000
      2          6.402297        7.433774   1.000000   1.000000
      3          6.628333        7.728406   1.000000   1.000000
      4          6.807972        7.747331   1.000000   1.000000
      5          7.573675        9.036663   1.000000   1.000000
      6          7.856589        9.313675   1.000000   1.000000
      7          8.509050       10.043442   1.000000   1.000000
      8          9.406666       11.155361   1.000000   0.000000
      9          9.766807       11.602310   1.000000   0.000000
     10          9.875428       11.674484   1.000000   0.000000
     11         13.131011       14.212266   0.000000   0.000000
     12         17.269467       17.843773   0.000000   0.000000
     13         17.408344       18.036749   0.000000   0.000000
     14         21.527080       22.023244   0.000000   0.000000
     15         22.059705       22.443004   0.000000   0.000000
     16         25.745302       26.146825   0.000000   0.000000
 
  0.3571429E+00  0.2857143E+00  0.0000000E+00  0.3061224E-02
      1          6.177541        7.439269   1.000000   1.000000
      2          6.514725        7.487080   1.000000   1.000000
      3          6.555307        7.649624   1.000000   1.000000
      4          6.927060        7.836727   1.000000   1.000000
      5          7.620864        9.078291   1.000000   1.000000
      6          7.734619        9.172748   1.000000   1.000000
      7          8.584330       10.129478   1.000000   1.000000
      8          9.573902       11.339343   1.000000   0.000000
      9          9.734874       11.520422   1.000000   0.000000
     10          9.750786       11.584084   1.000000   0.000000
     11         14.596729       15.408305   0.000000   0.000000
     12         15.521000       16.327886   0.000000   0.000000
     13         17.208020       17.808154   0.000000   0.000000
     14         22.844625       23.191567   0.000000   0.000000
     15         22.977623       23.412179   0.000000   0.000000
     16         24.271391       24.708658   0.000000   0.000000
 
  0.0000000E+00  0.0000000E+00  0.1000000E+00  0.1020408E-02
      1          1.619476        1.604899   1.000000   1.000000
      2          5.306239        6.153461   1.000000   1.000000
      3          7.863312        9.429883   1.000000   1.000000
      4          7.916730        9.491333   1.000000   1.000000
      5          7.916730        9.491334   1.000000   1.000000
      6          8.232407        9.855607   1.000000   1.000000
      7          8.232407        9.855608   1.000000   1.000000
      8          8.705248       10.054983   1.000000   1.000000
      9          8.705248       10.427804   1.000000   0.998644
     10          9.746949       10.427805   1.000000   0.998644
     11          9.746949       11.578226   1.000000   0.000000
     12          9.982538       11.578226   1.000000   0.000000
     13         17.598397       18.492379   0.000000   0.000000
     14         32.719183       32.412822   0.000000   0.000000
     15         35.180553       35.103692   0.000000   0.000000
     16         35.682296       35.499138   0.000000   0.000000
 
  0.7142857E-01  0.6938894E-17  0.1000000E+00  0.6122449E-02
      1          1.800832        1.787041   1.000000   1.000000
      2          5.421759        6.283640   1.000000   1.000000
      3          7.724519        9.262889   1.000000   1.000000
      4          7.997277        9.534264   1.000000   1.000000
      5          8.014085        9.580332   1.000000   1.000000
      6          8.164812        9.603860   1.000000   1.000000
      7          8.306418        9.890512   1.000000   1.000000
      8          8.615222        9.936357   1.000000   1.000000
      9          8.660511       10.374629   1.000000   0.999997
     10          8.972099       10.383210   1.000000   0.999990
     11          9.767709       11.602746   1.000000   0.000000
     12         10.980245       12.151274   0.000000   0.000000
     13         17.654873       18.529724   0.000000   0.000000
     14         31.488112       31.460466   0.000000   0.000000
     15         33.519844       33.583696   0.000000   0.000000
     16         33.861388       34.170974   0.000000   0.000000
 
  0.1428571E+00  0.1387779E-16  0.1000000E+00  0.6122449E-02
      1          2.330001        2.321004   1.000000   1.000000
      2          5.727457        6.636798   1.000000   1.000000
      3          7.506059        8.859075   1.000000   1.000000
      4          7.813025        8.987952   1.000000   1.000000
      5          8.037930        9.619373   1.000000   1.000000
      6          8.205436        9.817355   1.000000   1.000000
      7          8.333444        9.842283   1.000000   1.000000
      8          8.491136       10.142115   1.000000   1.000000
      9          8.597692       10.286248   1.000000   1.000000
     10          8.710408       10.322976   1.000000   1.000000
     11          9.815097       11.658134   1.000000   0.000000
     12         12.203434       13.223073   0.000000   0.000000
     13         17.842974       18.659732   0.000000   0.000000
     14         28.344502       28.598939   0.000000   0.000000
     15         31.745597       32.041640   0.000000   0.000000
     16         32.525282       32.548441   0.000000   0.000000
 
  0.2142857E+00 -0.1387779E-16  0.1000000E+00  0.6122449E-02
      1          3.153445        3.164551   1.000000   1.000000
      2          6.067956        7.072253   1.000000   1.000000
      3          7.189706        8.250032   1.000000   1.000000
      4          7.318775        8.698704   1.000000   1.000000
      5          7.898173        9.438692   1.000000   1.000000
      6          8.255227        9.891914   1.000000   1.000000