 vasp.6.3.2 27Jun22 (build Aug 12 2022 00:53:59) complex                        
  
 executed on               tv2STD date 2024.12.02  16:52:14
 running   24 mpi-ranks, with    1 threads/rank
 distrk:  each k-point on   24 cores,    1 groups
 distr:  one band on NCORE=   6 cores,    4 groups


--------------------------------------------------------------------------------------------------------


 INCAR:
   SYSTEM = Co-hcc
   NWRITE = 2    write-flag
   ISTART = 0    job   : 0-new, 1-cont, 2-samecut
   ICHARG = 2    charge: 0-wave, 1-file, 2-atom, >10-const
   INIWAV = 1    electr: 0-lowe 1-rand  2-diag
   ENCUT = 425.0     energy cutoff in eV
   PREC = Accurate      normal | accurate
   ADDGRID = .FALSE.  (use fine grid)
   NELM = 100     number of ELM steps
   EDIFF = 1E-06    energy stopping-criterion for ELM
   LREAL = .FALSE.      real-space projection (.FALSE., .TRUE., On, Auto)
   ALGO = Normal     Normal, Fast, Very_Fast
   LWAVE = .FALSE.
   LCHARG = .FALSE.
   NSW = 0       max number of geometry steps
   IBRION = -1     ionic relax: 0-MD, 1-quasi-Newton, 2-CG, 3-Damped MD
   EDIFFG = -0.02  force (eV/A) stopping-criterion for geometry steps
   ISIF = 2     (1:force\=y stress\=trace only ions\=y shape\=n volume\=n)
   ISYM = 1     (1-use symmetry, 0-no symmetry)
   ISMEAR = 0     (-1-Fermi, 1-Methfessel/Paxton)
   SIGMA = 0.05   broadening in eV
   LORBIT = 11
   NPAR = 4
   ISPIN = 2
   MAGMOM = 2*3

 POTCAR:    PAW_PBE Co 02Aug2007                  
 POTCAR:    PAW_PBE Co 02Aug2007                  
   SHA256 =  0e690c60710354995174544f52f9f2c30879afabeffe3b3fbd4001cb294e56d4 Co/POTCAR             
   COPYR  = (c) Copyright 02Aug2007 Georg Kresse                                                    
   COPYR  = This file is part of the software VASP. Any use, copying, and all other rights are regul
   COPYR  = If you do not have a valid VASP license, you may not use, copy or distribute this file. 
   VRHFIN =Co: d8 s1                                                                                
   LEXCH  = PE                                                                                      
   EATOM  =   813.3670 eV,   59.7808 Ry                                                             
                                                                                                    
   TITEL  = PAW_PBE Co 02Aug2007                                                                    
   LULTRA =        F    use ultrasoft PP ?                                                          
   IUNSCR =        1    unscreen: 0-lin 1-nonlin 2-no                                               
   RPACOR =    2.000    partial core radius                                                         
   POMASS =   58.933; ZVAL   =    9.000    mass and valenz                                          
   RCORE  =    2.300    outmost cutoff radius                                                       
   RWIGS  =    2.460; RWIGS  =    1.302    wigner-seitz radius (au A)                               
   ENMAX  =  267.968; ENMIN  =  200.976 eV                                                          
   RCLOC  =    1.203    cutoff for local pot                                                        
   LCOR   =        T    correct aug charges                                                         
   LPAW   =        T    paw PP                                                                      
   EAUG   =  477.818                                                                                
   DEXC   =    0.000                                                                                
   RMAX   =    2.360    core radius for proj-oper                                                   
   RAUG   =    1.300    factor for augmentation sphere                                              
   RDEP   =    2.393    radius for radial grids                                                     
   RDEPT  =    1.864    core radius for aug-charge                                                  
                                                                                                    
   Atomic configuration                                                                             
    9 entries                                                                                       
     n  l   j            E        occ.                                                              
     1  0  0.50     -7587.6674   2.0000                                                             
     2  0  0.50      -893.6084   2.0000                                                             
     2  1  1.50      -764.5805   6.0000                                                             
     3  0  0.50       -97.5973   2.0000                                                             
     3  1  1.50       -60.9648   6.0000                                                             
     3  2  2.50        -4.2382   8.0000                                                             
     4  0  0.50        -4.3746   1.0000                                                             
     4  1  1.50        -4.0817   0.0000                                                             
     4  3  2.50        -1.3606   0.0000                                                             
   Description                                                                                      
     l       E           TYP  RCUT    TYP  RCUT                                                     
     2     -4.2382362     23  2.300                                                                 
     2     -5.5988188     23  2.300                                                                 
     0     -4.3745797     23  2.300                                                                 
     0      5.7660125     23  2.300                                                                 
     1     -2.7211652     23  2.300                                                                 
     1     16.9860234     23  2.300                                                                 
  local pseudopotential read in
  partial core-charges read in
  partial kinetic energy density read in
  atomic valenz-charges read in
  non local Contribution for L=           2  read in
    real space projection operators read in
  non local Contribution for L=           2  read in
    real space projection operators read in
  non local Contribution for L=           0  read in
    real space projection operators read in
  non local Contribution for L=           0  read in
    real space projection operators read in
  non local Contribution for L=           1  read in
    real space projection operators read in
  non local Contribution for L=           1  read in
    real space projection operators read in
    PAW grid and wavefunctions read in
 
   number of l-projection  operators is LMAX  =           6
   number of lm-projection operators is LMMAX =          18
 
  PAW_PBE Co 02Aug2007                  :
 energy of atom  1       EATOM= -813.3670
 kinetic energy error for atom=    0.0054 (will be added to EATOM!!)
 
 
 POSCAR: Co hcp
  positions in direct lattice
  No initial velocities read in
 exchange correlation table for  LEXCH =        8
   RHO(1)=    0.500       N(1)  =     2000
   RHO(2)=  100.500       N(2)  =     4000
 


--------------------------------------------------------------------------------------------------------


 ion  position               nearest neighbor table
   1  0.333  0.667  0.250-   2 2.47   2 2.47   2 2.47   2 2.47   2 2.47   2 2.47
   2  0.667  0.333  0.750-   1 2.47   1 2.47   1 2.47   1 2.47   1 2.47   1 2.47
 
  LATTYP: Found a hexagonal cell.
 ALAT       =     2.4719999032
 C/A-ratio  =     1.6266764715
  
  Lattice vectors:
  
 A1 = (   1.2359999516,  -2.1408147143,   0.0000000000)
 A2 = (   1.2359999516,   2.1408147143,   0.0000000000)
 A3 = (   0.0000000000,   0.0000000000,   4.0211440800)


Analysis of symmetry for initial positions (statically):
=====================================================================
 Subroutine PRICEL returns:
 Original cell was already a primitive cell.
 

 Routine SETGRP: Setting up the symmetry group for a 
 hexagonal supercell.


 Subroutine GETGRP returns: Found 24 space group operations
 (whereof 12 operations were pure point group operations)
 out of a pool of 24 trial point group operations.


The static configuration has the point symmetry D_3d.
 The point group associated with its full space group is D_6h.


Analysis of symmetry for dynamics (positions and initial velocities):
=====================================================================
 Subroutine PRICEL returns:
 Original cell was already a primitive cell.
 

 Routine SETGRP: Setting up the symmetry group for a 
 hexagonal supercell.


 Subroutine GETGRP returns: Found 24 space group operations
 (whereof 12 operations were pure point group operations)
 out of a pool of 24 trial point group operations.


The dynamic configuration has the point symmetry D_3d.
 The point group associated with its full space group is D_6h.


Analysis of structural, dynamic, and magnetic symmetry:
=====================================================================
 Subroutine PRICEL returns:
 Original cell was already a primitive cell.
 

 Routine SETGRP: Setting up the symmetry group for a 
 hexagonal supercell.


 Subroutine GETGRP returns: Found 24 space group operations
 (whereof 12 operations were pure point group operations)
 out of a pool of 24 trial point group operations.


The overall configuration has the point symmetry D_3d.
 The point group associated with its full space group is D_6h.


 Subroutine INISYM returns: Found 24 space group operations
 (whereof 12 operations are pure point group operations),
 and found     1 'primitive' translations


----------------------------------------------------------------------------------------

                                     Primitive cell                                     

  volume of cell :      21.2803

  direct lattice vectors                    reciprocal lattice vectors
     1.235999952 -2.140814714  0.000000000     0.404530760 -0.233555943  0.000000000
     1.235999952  2.140814714  0.000000000     0.404530760  0.233555943  0.000000000
     0.000000000  0.000000000  4.021144080     0.000000000  0.000000000  0.248685444

  length of vectors
     2.471999903  2.471999903  4.021144080     0.467111887  0.467111887  0.248685444

  position of ions in fractional coordinates (direct lattice)
     0.333333333  0.666666667  0.250000000
     0.666666667  0.333333333  0.750000000

  ion indices of the primitive-cell ions
   primitive index   ion index
                 1           1
                 2           2

----------------------------------------------------------------------------------------

 
 
 KPOINTS: Automatic mesh                          

Automatic generation of k-mesh.
 Grid dimensions read from file:
 generate k-points for:   14   14   10

 Generating k-lattice:

  Cartesian coordinates                     Fractional coordinates (reciprocal lattice)
     0.028895054 -0.016682567  0.000000000     0.071428571 -0.000000000  0.000000000
     0.028895054  0.016682567  0.000000000    -0.000000000  0.071428571  0.000000000
     0.000000000  0.000000000  0.024868544     0.000000000  0.000000000  0.100000000

  Length of vectors
     0.033365135  0.033365135  0.024868544

  Shift w.r.t. Gamma in fractional coordinates (k-lattice)
     0.000000000  0.000000000  0.000000000

 
 Subroutine IBZKPT returns following result:
 ===========================================
 
 Found    144 irreducible k-points:
 
 Following reciprocal coordinates:
            Coordinates               Weight
  0.000000  0.000000  0.000000      1.000000
  0.071429  0.000000  0.000000      6.000000
  0.142857  0.000000  0.000000      6.000000
  0.214286 -0.000000  0.000000      6.000000
  0.285714  0.000000  0.000000      6.000000
  0.357143 -0.000000  0.000000      6.000000
  0.428571 -0.000000  0.000000      6.000000
  0.500000  0.000000  0.000000      3.000000
  0.071429  0.071429  0.000000      6.000000
  0.142857  0.071429  0.000000     12.000000
  0.214286  0.071429  0.000000     12.000000
  0.285714  0.071429  0.000000     12.000000
  0.357143  0.071429  0.000000     12.000000
  0.428571  0.071429  0.000000     12.000000
  0.142857  0.142857  0.000000      6.000000
  0.214286  0.142857  0.000000     12.000000
  0.285714  0.142857  0.000000     12.000000
  0.357143  0.142857  0.000000     12.000000
  0.428571  0.142857  0.000000      6.000000
  0.214286  0.214286  0.000000      6.000000
  0.285714  0.214286  0.000000     12.000000
  0.357143  0.214286  0.000000     12.000000
  0.285714  0.285714  0.000000      6.000000
  0.357143  0.285714  0.000000      6.000000
  0.000000  0.000000  0.100000      2.000000
  0.071429  0.000000  0.100000     12.000000
  0.142857  0.000000  0.100000     12.000000
  0.214286 -0.000000  0.100000     12.000000
  0.285714  0.000000  0.100000     12.000000
  0.357143 -0.000000  0.100000     12.000000
  0.428571 -0.000000  0.100000     12.000000
  0.500000  0.000000  0.100000      6.000000
  0.071429  0.071429  0.100000     12.000000
  0.142857  0.071429  0.100000     24.000000
  0.214286  0.071429  0.100000     24.000000
  0.285714  0.071429  0.100000     24.000000
  0.357143  0.071429  0.100000     24.000000
  0.428571  0.071429  0.100000     24.000000
  0.142857  0.142857  0.100000     12.000000
  0.214286  0.142857  0.100000     24.000000
  0.285714  0.142857  0.100000     24.000000
  0.357143  0.142857  0.100000     24.000000
  0.428571  0.142857  0.100000     12.000000
  0.214286  0.214286  0.100000     12.000000
  0.285714  0.214286  0.100000     24.000000
  0.357143  0.214286  0.100000     24.000000
  0.285714  0.285714  0.100000     12.000000
  0.357143  0.285714  0.100000     12.000000
  0.000000  0.000000  0.200000      2.000000
  0.071429  0.000000  0.200000     12.000000
  0.142857  0.000000  0.200000     12.000000
  0.214286 -0.000000  0.200000     12.000000
  0.285714  0.000000  0.200000     12.000000
  0.357143 -0.000000  0.200000     12.000000
  0.428571 -0.000000  0.200000     12.000000
  0.500000  0.000000  0.200000      6.000000
  0.071429  0.071429  0.200000     12.000000
  0.142857  0.071429  0.200000     24.000000
  0.214286  0.071429  0.200000     24.000000
  0.285714  0.071429  0.200000     24.000000
  0.357143  0.071429  0.200000     24.000000
  0.428571  0.071429  0.200000     24.000000
  0.142857  0.142857  0.200000     12.000000
  0.214286  0.142857  0.200000     24.000000
  0.285714  0.142857  0.200000     24.000000
  0.357143  0.142857  0.200000     24.000000
  0.428571  0.142857  0.200000     12.000000
  0.214286  0.214286  0.200000     12.000000
  0.285714  0.214286  0.200000     24.000000
  0.357143  0.214286  0.200000     24.000000
  0.285714  0.285714  0.200000     12.000000
  0.357143  0.285714  0.200000     12.000000
  0.000000  0.000000  0.300000      2.000000
  0.071429  0.000000  0.300000     12.000000
  0.142857  0.000000  0.300000     12.000000
  0.214286 -0.000000  0.300000     12.000000
  0.285714  0.000000  0.300000     12.000000
  0.357143 -0.000000  0.300000     12.000000
  0.428571 -0.000000  0.300000     12.000000
  0.500000  0.000000  0.300000      6.000000
  0.071429  0.071429  0.300000     12.000000
  0.142857  0.071429  0.300000     24.000000
  0.214286  0.071429  0.300000     24.000000
  0.285714  0.071429  0.300000     24.000000
  0.357143  0.071429  0.300000     24.000000
  0.428571  0.071429  0.300000     24.000000
  0.142857  0.142857  0.300000     12.000000
  0.214286  0.142857  0.300000     24.000000
  0.285714  0.142857  0.300000     24.000000
  0.357143  0.142857  0.300000     24.000000
  0.428571  0.142857  0.300000     12.000000
  0.214286  0.214286  0.300000     12.000000
  0.285714  0.214286  0.300000     24.000000
  0.357143  0.214286  0.300000     24.000000
  0.285714  0.285714  0.300000     12.000000
  0.357143  0.285714  0.300000     12.000000
  0.000000  0.000000  0.400000      2.000000
  0.071429  0.000000  0.400000     12.000000
  0.142857  0.000000  0.400000     12.000000
  0.214286 -0.000000  0.400000     12.000000
  0.285714  0.000000  0.400000     12.000000
  0.357143 -0.000000  0.400000     12.000000
  0.428571 -0.000000  0.400000     12.000000
  0.500000  0.000000  0.400000      6.000000
  0.071429  0.071429  0.400000     12.000000
  0.142857  0.071429  0.400000     24.000000
  0.214286  0.071429  0.400000     24.000000
  0.285714  0.071429  0.400000     24.000000
  0.357143  0.071429  0.400000     24.000000
  0.428571  0.071429  0.400000     24.000000
  0.142857  0.142857  0.400000     12.000000
  0.214286  0.142857  0.400000     24.000000
  0.285714  0.142857  0.400000     24.000000
  0.357143  0.142857  0.400000     24.000000
  0.428571  0.142857  0.400000     12.000000
  0.214286  0.214286  0.400000     12.000000
  0.285714  0.214286  0.400000     24.000000
  0.357143  0.214286  0.400000     24.000000
  0.285714  0.285714  0.400000     12.000000
  0.357143  0.285714  0.400000     12.000000
  0.000000  0.000000  0.500000      1.000000
  0.071429  0.000000  0.500000      6.000000
  0.142857  0.000000  0.500000      6.000000
  0.214286 -0.000000  0.500000      6.000000
  0.285714  0.000000  0.500000      6.000000
  0.357143 -0.000000  0.500000      6.000000
  0.428571 -0.000000  0.500000      6.000000
  0.500000  0.000000  0.500000      3.000000
  0.071429  0.071429  0.500000      6.000000
  0.142857  0.071429  0.500000     12.000000
  0.214286  0.071429  0.500000     12.000000
  0.285714  0.071429  0.500000     12.000000
  0.357143  0.071429  0.500000     12.000000
  0.428571  0.071429  0.500000     12.000000
  0.142857  0.142857  0.500000      6.000000
  0.214286  0.142857  0.500000     12.000000
  0.285714  0.142857  0.500000     12.000000
  0.357143  0.142857  0.500000     12.000000
  0.428571  0.142857  0.500000      6.000000
  0.214286  0.214286  0.500000      6.000000
  0.285714  0.214286  0.500000     12.000000
  0.357143  0.214286  0.500000     12.000000
  0.285714  0.285714  0.500000      6.000000
  0.357143  0.285714  0.500000      6.000000
 
 Following cartesian coordinates:
            Coordinates               Weight
  0.000000  0.000000  0.000000      1.000000
  0.028895 -0.016683  0.000000      6.000000
  0.057790 -0.033365  0.000000      6.000000
  0.086685 -0.050048  0.000000      6.000000
  0.115580 -0.066730  0.000000      6.000000
  0.144475 -0.083413  0.000000      6.000000
  0.173370 -0.100095  0.000000      6.000000
  0.202265 -0.116778  0.000000      3.000000
  0.057790  0.000000  0.000000      6.000000
  0.086685 -0.016683  0.000000     12.000000
  0.115580 -0.033365  0.000000     12.000000
  0.144475 -0.050048  0.000000     12.000000
  0.173370 -0.066730  0.000000     12.000000
  0.202265 -0.083413  0.000000     12.000000
  0.115580  0.000000  0.000000      6.000000
  0.144475 -0.016683  0.000000     12.000000
  0.173370 -0.033365  0.000000     12.000000
  0.202265 -0.050048  0.000000     12.000000
  0.231160 -0.066730  0.000000      6.000000
  0.173370  0.000000  0.000000      6.000000
  0.202265 -0.016683  0.000000     12.000000
  0.231160 -0.033365  0.000000     12.000000
  0.231160  0.000000  0.000000      6.000000
  0.260055 -0.016683  0.000000      6.000000
  0.000000  0.000000  0.024869      2.000000
  0.028895 -0.016683  0.024869     12.000000
  0.057790 -0.033365  0.024869     12.000000
  0.086685 -0.050048  0.024869     12.000000
  0.115580 -0.066730  0.024869     12.000000
  0.144475 -0.083413  0.024869     12.000000
  0.173370 -0.100095  0.024869     12.000000
  0.202265 -0.116778  0.024869      6.000000
  0.057790  0.000000  0.024869     12.000000
  0.086685 -0.016683  0.024869     24.000000
  0.115580 -0.033365  0.024869     24.000000
  0.144475 -0.050048  0.024869     24.000000
  0.173370 -0.066730  0.024869     24.000000
  0.202265 -0.083413  0.024869     24.000000
  0.115580  0.000000  0.024869     12.000000
  0.144475 -0.016683  0.024869     24.000000
  0.173370 -0.033365  0.024869     24.000000
  0.202265 -0.050048  0.024869     24.000000
  0.231160 -0.066730  0.024869     12.000000
  0.173370  0.000000  0.024869     12.000000
  0.202265 -0.016683  0.024869     24.000000
  0.231160 -0.033365  0.024869     24.000000
  0.231160  0.000000  0.024869     12.000000
  0.260055 -0.016683  0.024869     12.000000
  0.000000  0.000000  0.049737      2.000000
  0.028895 -0.016683  0.049737     12.000000
  0.057790 -0.033365  0.049737     12.000000
  0.086685 -0.050048  0.049737     12.000000
  0.115580 -0.066730  0.049737     12.000000
  0.144475 -0.083413  0.049737     12.000000
  0.173370 -0.100095  0.049737     12.000000
  0.202265 -0.116778  0.049737      6.000000
  0.057790  0.000000  0.049737     12.000000
  0.086685 -0.016683  0.049737     24.000000
  0.115580 -0.033365  0.049737     24.000000
  0.144475 -0.050048  0.049737     24.000000
  0.173370 -0.066730  0.049737     24.000000
  0.202265 -0.083413  0.049737     24.000000
  0.115580  0.000000  0.049737     12.000000
  0.144475 -0.016683  0.049737     24.000000
  0.173370 -0.033365  0.049737     24.000000
  0.202265 -0.050048  0.049737     24.000000
  0.231160 -0.066730  0.049737     12.000000
  0.173370  0.000000  0.049737     12.000000
  0.202265 -0.016683  0.049737     24.000000
  0.231160 -0.033365  0.049737     24.000000
  0.231160  0.000000  0.049737     12.000000
  0.260055 -0.016683  0.049737     12.000000
  0.000000  0.000000  0.074606      2.000000
  0.028895 -0.016683  0.074606     12.000000
  0.057790 -0.033365  0.074606     12.000000
  0.086685 -0.050048  0.074606     12.000000
  0.115580 -0.066730  0.074606     12.000000
  0.144475 -0.083413  0.074606     12.000000
  0.173370 -0.100095  0.074606     12.000000
  0.202265 -0.116778  0.074606      6.000000
  0.057790  0.000000  0.074606     12.000000
  0.086685 -0.016683  0.074606     24.000000
  0.115580 -0.033365  0.074606     24.000000
  0.144475 -0.050048  0.074606     24.000000
  0.173370 -0.066730  0.074606     24.000000
  0.202265 -0.083413  0.074606     24.000000
  0.115580  0.000000  0.074606     12.000000
  0.144475 -0.016683  0.074606     24.000000
  0.173370 -0.033365  0.074606     24.000000
  0.202265 -0.050048  0.074606     24.000000
  0.231160 -0.066730  0.074606     12.000000
  0.173370  0.000000  0.074606     12.000000
  0.202265 -0.016683  0.074606     24.000000
  0.231160 -0.033365  0.074606     24.000000
  0.231160  0.000000  0.074606     12.000000
  0.260055 -0.016683  0.074606     12.000000
  0.000000  0.000000  0.099474      2.000000
  0.028895 -0.016683  0.099474     12.000000
  0.057790 -0.033365  0.099474     12.000000
  0.086685 -0.050048  0.099474     12.000000
  0.115580 -0.066730  0.099474     12.000000
  0.144475 -0.083413  0.099474     12.000000
  0.173370 -0.100095  0.099474     12.000000
  0.202265 -0.116778  0.099474      6.000000
  0.057790  0.000000  0.099474     12.000000
  0.086685 -0.016683  0.099474     24.000000
  0.115580 -0.033365  0.099474     24.000000
  0.144475 -0.050048  0.099474     24.000000
  0.173370 -0.066730  0.099474     24.000000
  0.202265 -0.083413  0.099474     24.000000
  0.115580  0.000000  0.099474     12.000000
  0.144475 -0.016683  0.099474     24.000000
  0.173370 -0.033365  0.099474     24.000000
  0.202265 -0.050048  0.099474     24.000000
  0.231160 -0.066730  0.099474     12.000000
  0.173370  0.000000  0.099474     12.000000
  0.202265 -0.016683  0.099474     24.000000
  0.231160 -0.033365  0.099474     24.000000
  0.231160  0.000000  0.099474     12.000000
  0.260055 -0.016683  0.099474     12.000000
  0.000000  0.000000  0.124343      1.000000
  0.028895 -0.016683  0.124343      6.000000
  0.057790 -0.033365  0.124343      6.000000
  0.086685 -0.050048  0.124343      6.000000
  0.115580 -0.066730  0.124343      6.000000
  0.144475 -0.083413  0.124343      6.000000
  0.173370 -0.100095  0.124343      6.000000
  0.202265 -0.116778  0.124343      3.000000
  0.057790  0.000000  0.124343      6.000000
  0.086685 -0.016683  0.124343     12.000000
  0.115580 -0.033365  0.124343     12.000000
  0.144475 -0.050048  0.124343     12.000000
  0.173370 -0.066730  0.124343     12.000000
  0.202265 -0.083413  0.124343     12.000000
  0.115580  0.000000  0.124343      6.000000
  0.144475 -0.016683  0.124343     12.000000
  0.173370 -0.033365  0.124343     12.000000
  0.202265 -0.050048  0.124343     12.000000
  0.231160 -0.066730  0.124343      6.000000
  0.173370  0.000000  0.124343      6.000000
  0.202265 -0.016683  0.124343     12.000000
  0.231160 -0.033365  0.124343     12.000000
  0.231160  0.000000  0.124343      6.000000
  0.260055 -0.016683  0.124343      6.000000
 


--------------------------------------------------------------------------------------------------------




 Dimension of arrays:
   k-points           NKPTS =    144   k-points in BZ     NKDIM =    144   number of bands    NBANDS=     16
   number of dos      NEDOS =    301   number of ions     NIONS =      2
   non local maximal  LDIM  =      6   non local SUM 2l+1 LMDIM =     18
   total plane-waves  NPLWV =   9072
   max r-space proj   IRMAX =      1   max aug-charges    IRDMAX=  17011
   dimension x,y,z NGX =    18 NGY =   18 NGZ =   28
   dimension x,y,z NGXF=    36 NGYF=   36 NGZF=   56
   support grid    NGXF=    36 NGYF=   36 NGZF=   56
   ions per type =               2
   NGX,Y,Z   is equivalent  to a cutoff of  12.11, 12.11, 11.58 a.u.
   NGXF,Y,Z  is equivalent  to a cutoff of  24.21, 24.21, 23.15 a.u.

 SYSTEM =  Co-hcc                                  
 POSCAR =  Co hcp                                  

 Startparameter for this run:
   NWRITE =      2    write-flag & timer
   PREC   = accura    normal or accurate (medium, high low for compatibility)
   ISTART =      0    job   : 0-new  1-cont  2-samecut
   ICHARG =      2    charge: 1-file 2-atom 10-const
   ISPIN  =      2    spin polarized calculation?
   LNONCOLLINEAR =      F non collinear calculations
   LSORBIT =      F    spin-orbit coupling
   INIWAV =      1    electr: 0-lowe 1-rand  2-diag
   LASPH  =      F    aspherical Exc in radial PAW
 Electronic Relaxation 1
   ENCUT  =  425.0 eV  31.24 Ry    5.59 a.u.   4.16  4.16  6.76*2*pi/ulx,y,z
   ENINI  =  425.0     initial cutoff
   ENAUG  =  477.8 eV  augmentation charge cutoff
   NELM   =    100;   NELMIN=  2; NELMDL= -5     # of ELM steps 
   EDIFF  = 0.1E-05   stopping-criterion for ELM
   LREAL  =      F    real-space projection
   NLSPLINE    = F    spline interpolate recip. space projectors
   LCOMPAT=      F    compatible to vasp.4.4
   GGA_COMPAT  = T    GGA compatible to vasp.4.4-vasp.4.6
   LMAXPAW     = -100 max onsite density
   LMAXMIX     =    2 max onsite mixed and CHGCAR
   VOSKOWN=      0    Vosko Wilk Nusair interpolation
   ROPT   =    0.00000
 Ionic relaxation
   EDIFFG = -.2E-01   stopping-criterion for IOM
   NSW    =      0    number of steps for IOM
   NBLOCK =      1;   KBLOCK =      1    inner block; outer block 
   IBRION =     -1    ionic relax: 0-MD 1-quasi-New 2-CG
   NFREE  =      0    steps in history (QN), initial steepest desc. (CG)
   ISIF   =      2    stress and relaxation
   IWAVPR =     10    prediction:  0-non 1-charg 2-wave 3-comb
   ISYM   =      1    0-nonsym 1-usesym 2-fastsym
   LCORR  =      T    Harris-Foulkes like correction to forces

   POTIM  = 0.5000    time-step for ionic-motion
   TEIN   =    0.0    initial temperature
   TEBEG  =    0.0;   TEEND  =   0.0 temperature during run
   SMASS  =  -3.00    Nose mass-parameter (am)
   estimated Nose-frequenzy (Omega)   =  0.10E-29 period in steps = 0.13E+47 mass=  -0.140E-27a.u.
   SCALEE = 1.0000    scale energy and forces
   NPACO  =    256;   APACO  = 10.0  distance and # of slots for P.C.
   PSTRESS=    0.0 pullay stress

  Mass of Ions in am
   POMASS =  58.93
  Ionic Valenz
   ZVAL   =   9.00
  Atomic Wigner-Seitz radii
   RWIGS  =  -1.00
  virtual crystal weights 
   VCA    =   1.00
   NELECT =      18.0000    total number of electrons
   NUPDOWN=      -1.0000    fix difference up-down

 DOS related values:
   EMIN   =  10.00;   EMAX   =-10.00  energy-range for DOS
   EFERMI =   0.00
   ISMEAR =     0;   SIGMA  =   0.05  broadening in eV -4-tet -1-fermi 0-gaus

 Electronic relaxation 2 (details)
   IALGO  =     38    algorithm
   LDIAG  =      T    sub-space diagonalisation (order eigenvalues)
   LSUBROT=      F    optimize rotation matrix (better conditioning)
   TURBO    =      0    0=normal 1=particle mesh
   IRESTART =      0    0=no restart 2=restart with 2 vectors
   NREBOOT  =      0    no. of reboots
   NMIN     =      0    reboot dimension
   EREF     =   0.00    reference energy to select bands
   IMIX   =      4    mixing-type and parameters
     AMIX     =   0.40;   BMIX     =  1.00
     AMIX_MAG =   1.60;   BMIX_MAG =  1.00
     AMIN     =   0.10
     WC   =   100.;   INIMIX=   1;  MIXPRE=   1;  MAXMIX= -45

 Intra band minimization:
   WEIMIN = 0.0000     energy-eigenvalue tresh-hold
   EBREAK =  0.16E-07  absolut break condition
   DEPER  =   0.30     relativ break condition  

   TIME   =   0.40     timestep for ELM

  volume/ion in A,a.u.               =      10.64        71.80
  Fermi-wavevector in a.u.,A,eV,Ry     =   1.548246  2.925761 32.614055  2.397065
  Thomas-Fermi vector in A             =   2.653224
 
 Write flags
   LWAVE        =      F    write WAVECAR
   LDOWNSAMPLE  =      F    k-point downsampling of WAVECAR
   LCHARG       =      F    write CHGCAR
   LVTOT        =      F    write LOCPOT, total local potential
   LVHAR        =      F    write LOCPOT, Hartree potential only
   LELF         =      F    write electronic localiz. function (ELF)
   LORBIT       =     11    0 simple, 1 ext, 2 COOP (PROOUT), +10 PAW based schemes


 Dipole corrections
   LMONO  =      F    monopole corrections only (constant potential shift)
   LDIPOL =      F    correct potential (dipole corrections)
   IDIPOL =      0    1-x, 2-y, 3-z, 4-all directions 
   EPSILON=  1.0000000 bulk dielectric constant

 Exchange correlation treatment:
   GGA     =    --    GGA type
   LEXCH   =     8    internal setting for exchange type
   LIBXC   =     F    Libxc                    
   VOSKOWN =     0    Vosko Wilk Nusair interpolation
   LHFCALC =     F    Hartree Fock is set to
   LHFONE  =     F    Hartree Fock one center treatment
   AEXX    =    0.0000 exact exchange contribution

 Linear response parameters
   LEPSILON=     F    determine dielectric tensor
   LRPA    =     F    only Hartree local field effects (RPA)
   LNABLA  =     F    use nabla operator in PAW spheres
   LVEL    =     F    velocity operator in full k-point grid
   CSHIFT  =0.1000    complex shift for real part using Kramers Kronig
   OMEGAMAX=  -1.0    maximum frequency
   DEG_THRESHOLD= 0.2000000E-02 threshold for treating states as degnerate
   RTIME   =   -0.100 relaxation time in fs
  (WPLASMAI=    0.000 imaginary part of plasma frequency in eV, 0.658/RTIME)
   DFIELD  = 0.0000000 0.0000000 0.0000000 field for delta impulse in time
 
  Optional k-point grid parameters
   LKPOINTS_OPT  =     F    use optional k-point grid
   KPOINTS_OPT_MODE=     1    mode for optional k-point grid
 
 Orbital magnetization related:
   ORBITALMAG=     F  switch on orbital magnetization
   LCHIMAG   =     F  perturbation theory with respect to B field
   DQ        =  0.001000  dq finite difference perturbation B field
   LLRAUG    =     F  two centre corrections for induced B field



--------------------------------------------------------------------------------------------------------


 Static calculation
 charge density and potential will be updated during run
 spin polarized calculation
 Variant of blocked Davidson
 Davidson routine will perform the subspace rotation
 perform sub-space diagonalisation
    after iterative eigenvector-optimisation
 modified Broyden-mixing scheme, WC =      100.0
 initial mixing is a Kerker type mixing with AMIX =  0.4000 and BMIX =      1.0000
 Hartree-type preconditioning will be used
 using additional bands            7
 reciprocal scheme for non local part
 use partial core corrections
 calculate Harris-corrections to forces 
   (improved forces if not selfconsistent)
 use gradient corrections 
 use of overlap-Matrix (Vanderbilt PP)
 Gauss-broadening in eV      SIGMA  =   0.05


--------------------------------------------------------------------------------------------------------


  energy-cutoff  :      425.00
  volume of cell :       21.28
      direct lattice vectors                 reciprocal lattice vectors
     1.235999952 -2.140814714  0.000000000     0.404530760 -0.233555943  0.000000000
     1.235999952  2.140814714  0.000000000     0.404530760  0.233555943  0.000000000
     0.000000000  0.000000000  4.021144080     0.000000000  0.000000000  0.248685444

  length of vectors
     2.471999903  2.471999903  4.021144080     0.467111887  0.467111887  0.248685444


 
 k-points in units of 2pi/SCALE and weight: Automatic mesh                          
   0.00000000  0.00000000  0.00000000       0.001
   0.02889505 -0.01668257  0.00000000       0.003
   0.05779011 -0.03336513  0.00000000       0.003
   0.08668516 -0.05004770  0.00000000       0.003
   0.11558022 -0.06673027  0.00000000       0.003
   0.14447527 -0.08341284  0.00000000       0.003
   0.17337033 -0.10009540  0.00000000       0.003
   0.20226538 -0.11677797  0.00000000       0.002
   0.05779011  0.00000000  0.00000000       0.003
   0.08668516 -0.01668257  0.00000000       0.006
   0.11558022 -0.03336513  0.00000000       0.006
   0.14447527 -0.05004770  0.00000000       0.006
   0.17337033 -0.06673027  0.00000000       0.006
   0.20226538 -0.08341284  0.00000000       0.006
   0.11558022  0.00000000  0.00000000       0.003
   0.14447527 -0.01668257  0.00000000       0.006
   0.17337033 -0.03336513  0.00000000       0.006
   0.20226538 -0.05004770  0.00000000       0.006
   0.23116043 -0.06673027  0.00000000       0.003
   0.17337033  0.00000000  0.00000000       0.003
   0.20226538 -0.01668257  0.00000000       0.006
   0.23116043 -0.03336513  0.00000000       0.006
   0.23116043  0.00000000  0.00000000       0.003
   0.26005549 -0.01668257  0.00000000       0.003
   0.00000000  0.00000000  0.02486854       0.001
   0.02889505 -0.01668257  0.02486854       0.006
   0.05779011 -0.03336513  0.02486854       0.006
   0.08668516 -0.05004770  0.02486854       0.006
   0.11558022 -0.06673027  0.02486854       0.006
   0.14447527 -0.08341284  0.02486854       0.006
   0.17337033 -0.10009540  0.02486854       0.006
   0.20226538 -0.11677797  0.02486854       0.003
   0.05779011  0.00000000  0.02486854       0.006
   0.08668516 -0.01668257  0.02486854       0.012
   0.11558022 -0.03336513  0.02486854       0.012
   0.14447527 -0.05004770  0.02486854       0.012
   0.17337033 -0.06673027  0.02486854       0.012
   0.20226538 -0.08341284  0.02486854       0.012
   0.11558022  0.00000000  0.02486854       0.006
   0.14447527 -0.01668257  0.02486854       0.012
   0.17337033 -0.03336513  0.02486854       0.012
   0.20226538 -0.05004770  0.02486854       0.012
   0.23116043 -0.06673027  0.02486854       0.006
   0.17337033  0.00000000  0.02486854       0.006
   0.20226538 -0.01668257  0.02486854       0.012
   0.23116043 -0.03336513  0.02486854       0.012
   0.23116043  0.00000000  0.02486854       0.006
   0.26005549 -0.01668257  0.02486854       0.006
   0.00000000  0.00000000  0.04973709       0.001
   0.02889505 -0.01668257  0.04973709       0.006
   0.05779011 -0.03336513  0.04973709       0.006
   0.08668516 -0.05004770  0.04973709       0.006
   0.11558022 -0.06673027  0.04973709       0.006
   0.14447527 -0.08341284  0.04973709       0.006
   0.17337033 -0.10009540  0.04973709       0.006
   0.20226538 -0.11677797  0.04973709       0.003
   0.05779011  0.00000000  0.04973709       0.006
   0.08668516 -0.01668257  0.04973709       0.012
   0.11558022 -0.03336513  0.04973709       0.012
   0.14447527 -0.05004770  0.04973709       0.012
   0.17337033 -0.06673027  0.04973709       0.012
   0.20226538 -0.08341284  0.04973709       0.012
   0.11558022  0.00000000  0.04973709       0.006
   0.14447527 -0.01668257  0.04973709       0.012
   0.17337033 -0.03336513  0.04973709       0.012
   0.20226538 -0.05004770  0.04973709       0.012
   0.23116043 -0.06673027  0.04973709       0.006
   0.17337033  0.00000000  0.04973709       0.006
   0.20226538 -0.01668257  0.04973709       0.012
   0.23116043 -0.03336513  0.04973709       0.012
   0.23116043  0.00000000  0.04973709       0.006
   0.26005549 -0.01668257  0.04973709       0.006
   0.00000000  0.00000000  0.07460563       0.001
   0.02889505 -0.01668257  0.07460563       0.006
   0.05779011 -0.03336513  0.07460563       0.006
   0.08668516 -0.05004770  0.07460563       0.006
   0.11558022 -0.06673027  0.07460563       0.006
   0.14447527 -0.08341284  0.07460563       0.006
   0.17337033 -0.10009540  0.07460563       0.006
   0.20226538 -0.11677797  0.07460563       0.003
   0.05779011  0.00000000  0.07460563       0.006
   0.08668516 -0.01668257  0.07460563       0.012
   0.11558022 -0.03336513  0.07460563       0.012
   0.14447527 -0.05004770  0.07460563       0.012
   0.17337033 -0.06673027  0.07460563       0.012
   0.20226538 -0.08341284  0.07460563       0.012
   0.11558022  0.00000000  0.07460563       0.006
   0.14447527 -0.01668257  0.07460563       0.012
   0.17337033 -0.03336513  0.07460563       0.012
   0.20226538 -0.05004770  0.07460563       0.012
   0.23116043 -0.06673027  0.07460563       0.006
   0.17337033  0.00000000  0.07460563       0.006
   0.20226538 -0.01668257  0.07460563       0.012
   0.23116043 -0.03336513  0.07460563       0.012
   0.23116043  0.00000000  0.07460563       0.006
   0.26005549 -0.01668257  0.07460563       0.006
   0.00000000  0.00000000  0.09947418       0.001
   0.02889505 -0.01668257  0.09947418       0.006
   0.05779011 -0.03336513  0.09947418       0.006
   0.08668516 -0.05004770  0.09947418       0.006
   0.11558022 -0.06673027  0.09947418       0.006
   0.14447527 -0.08341284  0.09947418       0.006
   0.17337033 -0.10009540  0.09947418       0.006
   0.20226538 -0.11677797  0.09947418       0.003
   0.05779011  0.00000000  0.09947418       0.006
   0.08668516 -0.01668257  0.09947418       0.012
   0.11558022 -0.03336513  0.09947418       0.012
   0.14447527 -0.05004770  0.09947418       0.012
   0.17337033 -0.06673027  0.09947418       0.012
   0.20226538 -0.08341284  0.09947418       0.012
   0.11558022  0.00000000  0.09947418       0.006
   0.14447527 -0.01668257  0.09947418       0.012
   0.17337033 -0.03336513  0.09947418       0.012
   0.20226538 -0.05004770  0.09947418       0.012
   0.23116043 -0.06673027  0.09947418       0.006
   0.17337033  0.00000000  0.09947418       0.006
   0.20226538 -0.01668257  0.09947418       0.012
   0.23116043 -0.03336513  0.09947418       0.012
   0.23116043  0.00000000  0.09947418       0.006
   0.26005549 -0.01668257  0.09947418       0.006
   0.00000000  0.00000000  0.12434272       0.001
   0.02889505 -0.01668257  0.12434272       0.003
   0.05779011 -0.03336513  0.12434272       0.003
   0.08668516 -0.05004770  0.12434272       0.003
   0.11558022 -0.06673027  0.12434272       0.003
   0.14447527 -0.08341284  0.12434272       0.003
   0.17337033 -0.10009540  0.12434272       0.003
   0.20226538 -0.11677797  0.12434272       0.002
   0.05779011  0.00000000  0.12434272       0.003
   0.08668516 -0.01668257  0.12434272       0.006
   0.11558022 -0.03336513  0.12434272       0.006
   0.14447527 -0.05004770  0.12434272       0.006
   0.17337033 -0.06673027  0.12434272       0.006
   0.20226538 -0.08341284  0.12434272       0.006
   0.11558022  0.00000000  0.12434272       0.003
   0.14447527 -0.01668257  0.12434272       0.006
   0.17337033 -0.03336513  0.12434272       0.006
   0.20226538 -0.05004770  0.12434272       0.006
   0.23116043 -0.06673027  0.12434272       0.003
   0.17337033  0.00000000  0.12434272       0.003
   0.20226538 -0.01668257  0.12434272       0.006
   0.23116043 -0.03336513  0.12434272       0.006
   0.23116043  0.00000000  0.12434272       0.003
   0.26005549 -0.01668257  0.12434272       0.003
 
 k-points in reciprocal lattice and weights: Automatic mesh                          
   0.00000000  0.00000000  0.00000000       0.001
   0.07142857  0.00000000  0.00000000       0.003
   0.14285714  0.00000000  0.00000000       0.003
   0.21428571 -0.00000000  0.00000000       0.003
   0.28571429  0.00000000  0.00000000       0.003
   0.35714286 -0.00000000  0.00000000       0.003
   0.42857143 -0.00000000  0.00000000       0.003
   0.50000000  0.00000000  0.00000000       0.002
   0.07142857  0.07142857  0.00000000       0.003
   0.14285714  0.07142857  0.00000000       0.006
   0.21428571  0.07142857  0.00000000       0.006
   0.28571429  0.07142857  0.00000000       0.006
   0.35714286  0.07142857  0.00000000       0.006
   0.42857143  0.07142857  0.00000000       0.006
   0.14285714  0.14285714  0.00000000       0.003
   0.21428571  0.14285714  0.00000000       0.006
   0.28571429  0.14285714  0.00000000       0.006
   0.35714286  0.14285714  0.00000000       0.006
   0.42857143  0.14285714  0.00000000       0.003
   0.21428571  0.21428571  0.00000000       0.003
   0.28571429  0.21428571  0.00000000       0.006
   0.35714286  0.21428571  0.00000000       0.006
   0.28571429  0.28571429  0.00000000       0.003
   0.35714286  0.28571429  0.00000000       0.003
   0.00000000  0.00000000  0.10000000       0.001
   0.07142857  0.00000000  0.10000000       0.006
   0.14285714  0.00000000  0.10000000       0.006
   0.21428571 -0.00000000  0.10000000       0.006
   0.28571429  0.00000000  0.10000000       0.006
   0.35714286 -0.00000000  0.10000000       0.006
   0.42857143 -0.00000000  0.10000000       0.006
   0.50000000  0.00000000  0.10000000       0.003
   0.07142857  0.07142857  0.10000000       0.006
   0.14285714  0.07142857  0.10000000       0.012
   0.21428571  0.07142857  0.10000000       0.012
   0.28571429  0.07142857  0.10000000       0.012
   0.35714286  0.07142857  0.10000000       0.012
   0.42857143  0.07142857  0.10000000       0.012
   0.14285714  0.14285714  0.10000000       0.006
   0.21428571  0.14285714  0.10000000       0.012
   0.28571429  0.14285714  0.10000000       0.012
   0.35714286  0.14285714  0.10000000       0.012
   0.42857143  0.14285714  0.10000000       0.006
   0.21428571  0.21428571  0.10000000       0.006
   0.28571429  0.21428571  0.10000000       0.012
   0.35714286  0.21428571  0.10000000       0.012
   0.28571429  0.28571429  0.10000000       0.006
   0.35714286  0.28571429  0.10000000       0.006
   0.00000000  0.00000000  0.20000000       0.001
   0.07142857  0.00000000  0.20000000       0.006
   0.14285714  0.00000000  0.20000000       0.006
   0.21428571 -0.00000000  0.20000000       0.006
   0.28571429  0.00000000  0.20000000       0.006
   0.35714286 -0.00000000  0.20000000       0.006
   0.42857143 -0.00000000  0.20000000       0.006
   0.50000000  0.00000000  0.20000000       0.003
   0.07142857  0.07142857  0.20000000       0.006
   0.14285714  0.07142857  0.20000000       0.012
   0.21428571  0.07142857  0.20000000       0.012
   0.28571429  0.07142857  0.20000000       0.012
   0.35714286  0.07142857  0.20000000       0.012
   0.42857143  0.07142857  0.20000000       0.012
   0.14285714  0.14285714  0.20000000       0.006
   0.21428571  0.14285714  0.20000000       0.012
   0.28571429  0.14285714  0.20000000       0.012
   0.35714286  0.14285714  0.20000000       0.012
   0.42857143  0.14285714  0.20000000       0.006
   0.21428571  0.21428571  0.20000000       0.006
   0.28571429  0.21428571  0.20000000       0.012
   0.35714286  0.21428571  0.20000000       0.012
   0.28571429  0.28571429  0.20000000       0.006
   0.35714286  0.28571429  0.20000000       0.006
   0.00000000  0.00000000  0.30000000       0.001
   0.07142857  0.00000000  0.30000000       0.006
   0.14285714  0.00000000  0.30000000       0.006
   0.21428571 -0.00000000  0.30000000       0.006
   0.28571429  0.00000000  0.30000000       0.006
   0.35714286 -0.00000000  0.30000000       0.006
   0.42857143 -0.00000000  0.30000000       0.006
   0.50000000  0.00000000  0.30000000       0.003
   0.07142857  0.07142857  0.30000000       0.006
   0.14285714  0.07142857  0.30000000       0.012
   0.21428571  0.07142857  0.30000000       0.012
   0.28571429  0.07142857  0.30000000       0.012
   0.35714286  0.07142857  0.30000000       0.012
   0.42857143  0.07142857  0.30000000       0.012
   0.14285714  0.14285714  0.30000000       0.006
   0.21428571  0.14285714  0.30000000       0.012
   0.28571429  0.14285714  0.30000000       0.012
   0.35714286  0.14285714  0.30000000       0.012
   0.42857143  0.14285714  0.30000000       0.006
   0.21428571  0.21428571  0.30000000       0.006
   0.28571429  0.21428571  0.30000000       0.012
   0.35714286  0.21428571  0.30000000       0.012
   0.28571429  0.28571429  0.30000000       0.006
   0.35714286  0.28571429  0.30000000       0.006
   0.00000000  0.00000000  0.40000000       0.001
   0.07142857  0.00000000  0.40000000       0.006
   0.14285714  0.00000000  0.40000000       0.006
   0.21428571 -0.00000000  0.40000000       0.006
   0.28571429  0.00000000  0.40000000       0.006
   0.35714286 -0.00000000  0.40000000       0.006
   0.42857143 -0.00000000  0.40000000       0.006
   0.50000000  0.00000000  0.40000000       0.003
   0.07142857  0.07142857  0.40000000       0.006
   0.14285714  0.07142857  0.40000000       0.012
   0.21428571  0.07142857  0.40000000       0.012
   0.28571429  0.07142857  0.40000000       0.012
   0.35714286  0.07142857  0.40000000       0.012
   0.42857143  0.07142857  0.40000000       0.012
   0.14285714  0.14285714  0.40000000       0.006
   0.21428571  0.14285714  0.40000000       0.012
   0.28571429  0.14285714  0.40000000       0.012
   0.35714286  0.14285714  0.40000000       0.012
   0.42857143  0.14285714  0.40000000       0.006
   0.21428571  0.21428571  0.40000000       0.006
   0.28571429  0.21428571  0.40000000       0.012
   0.35714286  0.21428571  0.40000000       0.012
   0.28571429  0.28571429  0.40000000       0.006
   0.35714286  0.28571429  0.40000000       0.006
   0.00000000  0.00000000  0.50000000       0.001
   0.07142857  0.00000000  0.50000000       0.003
   0.14285714  0.00000000  0.50000000       0.003
   0.21428571 -0.00000000  0.50000000       0.003
   0.28571429  0.00000000  0.50000000       0.003
   0.35714286 -0.00000000  0.50000000       0.003
   0.42857143 -0.00000000  0.50000000       0.003
   0.50000000  0.00000000  0.50000000       0.002
   0.07142857  0.07142857  0.50000000       0.003
   0.14285714  0.07142857  0.50000000       0.006
   0.21428571  0.07142857  0.50000000       0.006
   0.28571429  0.07142857  0.50000000       0.006
   0.35714286  0.07142857  0.50000000       0.006
   0.42857143  0.07142857  0.50000000       0.006
   0.14285714  0.14285714  0.50000000       0.003
   0.21428571  0.14285714  0.50000000       0.006
   0.28571429  0.14285714  0.50000000       0.006
   0.35714286  0.14285714  0.50000000       0.006
   0.42857143  0.14285714  0.50000000       0.003
   0.21428571  0.21428571  0.50000000       0.003
   0.28571429  0.21428571  0.50000000       0.006
   0.35714286  0.21428571  0.50000000       0.006
   0.28571429  0.28571429  0.50000000       0.003
   0.35714286  0.28571429  0.50000000       0.003
 
 position of ions in fractional coordinates (direct lattice) 
   0.33333333  0.66666667  0.25000000
   0.66666667  0.33333333  0.75000000
 
 position of ions in cartesian coordinates  (Angst):
   1.23599995  0.71360490  1.00528602
   1.23599995 -0.71360490  3.01585806
 


--------------------------------------------------------------------------------------------------------


 k-point   1 :   0.0000 0.0000 0.0000  plane waves:     391
 k-point   2 :   0.0714 0.0000 0.0000  plane waves:     409
 k-point   3 :   0.1429 0.0000 0.0000  plane waves:     411
 k-point   4 :   0.2143-0.0000 0.0000  plane waves:     421
 k-point   5 :   0.2857 0.0000 0.0000  plane waves:     427
 k-point   6 :   0.3571-0.0000 0.0000  plane waves:     429
 k-point   7 :   0.4286-0.0000 0.0000  plane waves:     428
 k-point   8 :   0.5000 0.0000 0.0000  plane waves:     428
 k-point   9 :   0.0714 0.0714 0.0000  plane waves:     415
 k-point  10 :   0.1429 0.0714 0.0000  plane waves:     417
 k-point  11 :   0.2143 0.0714 0.0000  plane waves:     422
 k-point  12 :   0.2857 0.0714 0.0000  plane waves:     423
 k-point  13 :   0.3571 0.0714 0.0000  plane waves:     429
 k-point  14 :   0.4286 0.0714 0.0000  plane waves:     430
 k-point  15 :   0.1429 0.1429 0.0000  plane waves:     432
 k-point  16 :   0.2143 0.1429 0.0000  plane waves:     420
 k-point  17 :   0.2857 0.1429 0.0000  plane waves:     421
 k-point  18 :   0.3571 0.1429 0.0000  plane waves:     422
 k-point  19 :   0.4286 0.1429 0.0000  plane waves:     430
 k-point  20 :   0.2143 0.2143 0.0000  plane waves:     422
 k-point  21 :   0.2857 0.2143 0.0000  plane waves:     426
 k-point  22 :   0.3571 0.2143 0.0000  plane waves:     429
 k-point  23 :   0.2857 0.2857 0.0000  plane waves:     424
 k-point  24 :   0.3571 0.2857 0.0000  plane waves:     430
 k-point  25 :   0.0000 0.0000 0.1000  plane waves:     397
 k-point  26 :   0.0714 0.0000 0.1000  plane waves:     412
 k-point  27 :   0.1429 0.0000 0.1000  plane waves:     413
 k-point  28 :   0.2143-0.0000 0.1000  plane waves:     418
 k-point  29 :   0.2857 0.0000 0.1000  plane waves:     426
 k-point  30 :   0.3571-0.0000 0.1000  plane waves:     428
 k-point  31 :   0.4286-0.0000 0.1000  plane waves:     429
 k-point  32 :   0.5000 0.0000 0.1000  plane waves:     428
 k-point  33 :   0.0714 0.0714 0.1000  plane waves:     414
 k-point  34 :   0.1429 0.0714 0.1000  plane waves:     421
 k-point  35 :   0.2143 0.0714 0.1000  plane waves:     421
 k-point  36 :   0.2857 0.0714 0.1000  plane waves:     426
 k-point  37 :   0.3571 0.0714 0.1000  plane waves:     426
 k-point  38 :   0.4286 0.0714 0.1000  plane waves:     432
 k-point  39 :   0.1429 0.1429 0.1000  plane waves:     419
 k-point  40 :   0.2143 0.1429 0.1000  plane waves:     419
 k-point  41 :   0.2857 0.1429 0.1000  plane waves:     424
 k-point  42 :   0.3571 0.1429 0.1000  plane waves:     428
 k-point  43 :   0.4286 0.1429 0.1000  plane waves:     429
 k-point  44 :   0.2143 0.2143 0.1000  plane waves:     422
 k-point  45 :   0.2857 0.2143 0.1000  plane waves:     424
 k-point  46 :   0.3571 0.2143 0.1000  plane waves:     428
 k-point  47 :   0.2857 0.2857 0.1000  plane waves:     428
 k-point  48 :   0.3571 0.2857 0.1000  plane waves:     428
 k-point  49 :   0.0000 0.0000 0.2000  plane waves:     403
 k-point  50 :   0.0714 0.0000 0.2000  plane waves:     418
 k-point  51 :   0.1429 0.0000 0.2000  plane waves:     420
 k-point  52 :   0.2143-0.0000 0.2000  plane waves:     421
 k-point  53 :   0.2857 0.0000 0.2000  plane waves:     422
 k-point  54 :   0.3571-0.0000 0.2000  plane waves:     425
 k-point  55 :   0.4286-0.0000 0.2000  plane waves:     430
 k-point  56 :   0.5000 0.0000 0.2000  plane waves:     432
 k-point  57 :   0.0714 0.0714 0.2000  plane waves:     416
 k-point  58 :   0.1429 0.0714 0.2000  plane waves:     417
 k-point  59 :   0.2143 0.0714 0.2000  plane waves:     421
 k-point  60 :   0.2857 0.0714 0.2000  plane waves:     424
 k-point  61 :   0.3571 0.0714 0.2000  plane waves:     426
 k-point  62 :   0.4286 0.0714 0.2000  plane waves:     427
 k-point  63 :   0.1429 0.1429 0.2000  plane waves:     422
 k-point  64 :   0.2143 0.1429 0.2000  plane waves:     421
 k-point  65 :   0.2857 0.1429 0.2000  plane waves:     421
 k-point  66 :   0.3571 0.1429 0.2000  plane waves:     423
 k-point  67 :   0.4286 0.1429 0.2000  plane waves:     429
 k-point  68 :   0.2143 0.2143 0.2000  plane waves:     422
 k-point  69 :   0.2857 0.2143 0.2000  plane waves:     422
 k-point  70 :   0.3571 0.2143 0.2000  plane waves:     426
 k-point  71 :   0.2857 0.2857 0.2000  plane waves:     425
 k-point  72 :   0.3571 0.2857 0.2000  plane waves:     424
 k-point  73 :   0.0000 0.0000 0.3000  plane waves:     410
 k-point  74 :   0.0714 0.0000 0.3000  plane waves:     418
 k-point  75 :   0.1429 0.0000 0.3000  plane waves:     425
 k-point  76 :   0.2143-0.0000 0.3000  plane waves:     425
 k-point  77 :   0.2857 0.0000 0.3000  plane waves:     423
 k-point  78 :   0.3571-0.0000 0.3000  plane waves:     427
 k-point  79 :   0.4286-0.0000 0.3000  plane waves:     425
 k-point  80 :   0.5000 0.0000 0.3000  plane waves:     424
 k-point  81 :   0.0714 0.0714 0.3000  plane waves:     426
 k-point  82 :   0.1429 0.0714 0.3000  plane waves:     422
 k-point  83 :   0.2143 0.0714 0.3000  plane waves:     421
 k-point  84 :   0.2857 0.0714 0.3000  plane waves:     423
 k-point  85 :   0.3571 0.0714 0.3000  plane waves:     424
 k-point  86 :   0.4286 0.0714 0.3000  plane waves:     427
 k-point  87 :   0.1429 0.1429 0.3000  plane waves:     425
 k-point  88 :   0.2143 0.1429 0.3000  plane waves:     423
 k-point  89 :   0.2857 0.1429 0.3000  plane waves:     421
 k-point  90 :   0.3571 0.1429 0.3000  plane waves:     422
 k-point  91 :   0.4286 0.1429 0.3000  plane waves:     427
 k-point  92 :   0.2143 0.2143 0.3000  plane waves:     420
 k-point  93 :   0.2857 0.2143 0.3000  plane waves:     422
 k-point  94 :   0.3571 0.2143 0.3000  plane waves:     422
 k-point  95 :   0.2857 0.2857 0.3000  plane waves:     429
 k-point  96 :   0.3571 0.2857 0.3000  plane waves:     426
 k-point  97 :   0.0000 0.0000 0.4000  plane waves:     416
 k-point  98 :   0.0714 0.0000 0.4000  plane waves:     424
 k-point  99 :   0.1429 0.0000 0.4000  plane waves:     425
 k-point 100 :   0.2143-0.0000 0.4000  plane waves:     423
 k-point 101 :   0.2857 0.0000 0.4000  plane waves:     425
 k-point 102 :   0.3571-0.0000 0.4000  plane waves:     420
 k-point 103 :   0.4286-0.0000 0.4000  plane waves:     426
 k-point 104 :   0.5000 0.0000 0.4000  plane waves:     424
 k-point 105 :   0.0714 0.0714 0.4000  plane waves:     428
 k-point 106 :   0.1429 0.0714 0.4000  plane waves:     419
 k-point 107 :   0.2143 0.0714 0.4000  plane waves:     420
 k-point 108 :   0.2857 0.0714 0.4000  plane waves:     423
 k-point 109 :   0.3571 0.0714 0.4000  plane waves:     423
 k-point 110 :   0.4286 0.0714 0.4000  plane waves:     424
 k-point 111 :   0.1429 0.1429 0.4000  plane waves:     416
 k-point 112 :   0.2143 0.1429 0.4000  plane waves:     426
 k-point 113 :   0.2857 0.1429 0.4000  plane waves:     427
 k-point 114 :   0.3571 0.1429 0.4000  plane waves:     421
 k-point 115 :   0.4286 0.1429 0.4000  plane waves:     418
 k-point 116 :   0.2143 0.2143 0.4000  plane waves:     426
 k-point 117 :   0.2857 0.2143 0.4000  plane waves:     426
 k-point 118 :   0.3571 0.2143 0.4000  plane waves:     424
 k-point 119 :   0.2857 0.2857 0.4000  plane waves:     430
 k-point 120 :   0.3571 0.2857 0.4000  plane waves:     429
 k-point 121 :   0.0000 0.0000 0.5000  plane waves:     422
 k-point 122 :   0.0714 0.0000 0.5000  plane waves:     428
 k-point 123 :   0.1429 0.0000 0.5000  plane waves:     436
 k-point 124 :   0.2143-0.0000 0.5000  plane waves:     420
 k-point 125 :   0.2857 0.0000 0.5000  plane waves:     424
 k-point 126 :   0.3571-0.0000 0.5000  plane waves:     424
 k-point 127 :   0.4286-0.0000 0.5000  plane waves:     426
 k-point 128 :   0.5000 0.0000 0.5000  plane waves:     432
 k-point 129 :   0.0714 0.0714 0.5000  plane waves:     418
 k-point 130 :   0.1429 0.0714 0.5000  plane waves:     420
 k-point 131 :   0.2143 0.0714 0.5000  plane waves:     422
 k-point 132 :   0.2857 0.0714 0.5000  plane waves:     426
 k-point 133 :   0.3571 0.0714 0.5000  plane waves:     424
 k-point 134 :   0.4286 0.0714 0.5000  plane waves:     424
 k-point 135 :   0.1429 0.1429 0.5000  plane waves:     416
 k-point 136 :   0.2143 0.1429 0.5000  plane waves:     424
 k-point 137 :   0.2857 0.1429 0.5000  plane waves:     418
 k-point 138 :   0.3571 0.1429 0.5000  plane waves:     420
 k-point 139 :   0.4286 0.1429 0.5000  plane waves:     416
 k-point 140 :   0.2143 0.2143 0.5000  plane waves:     426
 k-point 141 :   0.2857 0.2143 0.5000  plane waves:     430
 k-point 142 :   0.3571 0.2143 0.5000  plane waves:     422
 k-point 143 :   0.2857 0.2857 0.5000  plane waves:     428
 k-point 144 :   0.3571 0.2857 0.5000  plane waves:     428

 maximum and minimum number of plane-waves per node :        79       59

 maximum number of plane-waves:       436
 maximum index in each direction: 
   IXMAX=    4   IYMAX=    4   IZMAX=    6
   IXMIN=   -4   IYMIN=   -4   IZMIN=   -7


 parallel 3D FFT for wavefunctions:
    minimum data exchange during FFTs selected (reduces bandwidth)
 parallel 3D FFT for charge:
    minimum data exchange during FFTs selected (reduces bandwidth)


 total amount of memory used by VASP MPI-rank0    34134. kBytes
=======================================================================

   base      :      30000. kBytes
   nonl-proj :       1661. kBytes
   fftplans  :        178. kBytes
   grid      :        421. kBytes
   one-center:         31. kBytes
   wavefun   :       1843. kBytes
 
     INWAV:  cpu time      0.0000: real time      0.0003
 Broyden mixing: mesh for mixing (old mesh)
   NGX =  9   NGY =  9   NGZ = 13
  (NGX  = 36   NGY  = 36   NGZ  = 56)
  gives a total of   1053 points

 initial charge density was supplied:
 charge density of overlapping atoms calculated
 number of electron      18.0000000 magnetization       6.0000000
 keeping initial charge density in first step


--------------------------------------------------------------------------------------------------------


 Maximum index for augmentation-charges         1066 (set IRDMAX)


--------------------------------------------------------------------------------------------------------


 First call to EWALD:  gamma=   0.640
 Maximum number of real-space cells 3x 3x 2
 Maximum number of reciprocal cells 3x 3x 4

    FEWALD:  cpu time      0.0014: real time      0.0014


--------------------------------------- Iteration      1(   1)  ---------------------------------------


    POTLOK:  cpu time      0.0065: real time      0.0066
    SETDIJ:  cpu time      0.0053: real time      0.0054
     EDDAV:  cpu time      0.8475: real time      0.8527
       DOS:  cpu time      0.0028: real time      0.0029
    --------------------------------------------
      LOOP:  cpu time      0.8622: real time      0.8676

 eigenvalue-minimisations  :  9496
 total energy-change (2. order) : 0.6907499E+02  (-0.7474568E+03)
 number of electron      18.0000000 magnetization       6.0000000
 augmentation part       18.0000000 magnetization       6.0000000

 Free energy of the ion-electron system (eV)
  ---------------------------------------------------
  alpha Z        PSCENC =        79.61870385
  Ewald energy   TEWEN  =     -1531.60263765
  -Hartree energ DENC   =      -295.86427829
  -exchange      EXHF   =         0.00000000
  -V(xc)+E(xc)   XCENC  =        35.75670864
  PAW double counting   =      1439.98163886    -1545.88690193
  entropy T*S    EENTRO =        -0.00178502
  eigenvalues    EBANDS =       260.35030994
  atomic energy  EATOM  =      1626.72322989
  Solvation  Ediel_sol  =         0.00000000
  ---------------------------------------------------
  free energy    TOTEN  =        69.07498829 eV

  energy without entropy =       69.07677330  energy(sigma->0) =       69.07588079


--------------------------------------------------------------------------------------------------------




--------------------------------------- Iteration      1(   2)  ---------------------------------------


     EDDAV:  cpu time      0.8254: real time      0.8309
       DOS:  cpu time      0.0027: real time      0.0027
    --------------------------------------------
      LOOP:  cpu time      0.8281: real time      0.8336

 eigenvalue-minimisations  :  9280
 total energy-change (2. order) :-0.8271732E+02  (-0.7602114E+02)
 number of electron      18.0000000 magnetization       6.0000000
 augmentation part       18.0000000 magnetization       6.0000000

 Free energy of the ion-electron system (eV)
  ---------------------------------------------------
  alpha Z        PSCENC =        79.61870385
  Ewald energy   TEWEN  =     -1531.60263765
  -Hartree energ DENC   =      -295.86427829
  -exchange      EXHF   =         0.00000000
  -V(xc)+E(xc)   XCENC  =        35.75670864
  PAW double counting   =      1439.98163886    -1545.88690193
  entropy T*S    EENTRO =        -0.00194263
  eigenvalues    EBANDS =       177.63315167
  atomic energy  EATOM  =      1626.72322989
  Solvation  Ediel_sol  =         0.00000000
  ---------------------------------------------------
  free energy    TOTEN  =       -13.64232759 eV

  energy without entropy =      -13.64038496  energy(sigma->0) =      -13.64135628


--------------------------------------------------------------------------------------------------------




--------------------------------------- Iteration      1(   3)  ---------------------------------------


     EDDAV:  cpu time      0.9852: real time      0.9911
       DOS:  cpu time      0.0026: real time      0.0026
    --------------------------------------------
      LOOP:  cpu time      0.9879: real time      0.9937

 eigenvalue-minimisations  : 11576
 total energy-change (2. order) :-0.1937796E+01  (-0.1908892E+01)
 number of electron      18.0000000 magnetization       6.0000000
 augmentation part       18.0000000 magnetization       6.0000000

 Free energy of the ion-electron system (eV)
  ---------------------------------------------------
  alpha Z        PSCENC =        79.61870385
  Ewald energy   TEWEN  =     -1531.60263765
  -Hartree energ DENC   =      -295.86427829
  -exchange      EXHF   =         0.00000000
  -V(xc)+E(xc)   XCENC  =        35.75670864
  PAW double counting   =      1439.98163886    -1545.88690193
  entropy T*S    EENTRO =        -0.00197457
  eigenvalues    EBANDS =       175.69538757
  atomic energy  EATOM  =      1626.72322989
  Solvation  Ediel_sol  =         0.00000000
  ---------------------------------------------------
  free energy    TOTEN  =       -15.58012363 eV

  energy without entropy =      -15.57814906  energy(sigma->0) =      -15.57913635


--------------------------------------------------------------------------------------------------------




--------------------------------------- Iteration      1(   4)  ---------------------------------------


     EDDAV:  cpu time      1.0909: real time      1.0975
       DOS:  cpu time      0.0027: real time      0.0027
    --------------------------------------------
      LOOP:  cpu time      1.0935: real time      1.1001

 eigenvalue-minimisations  : 13136
 total energy-change (2. order) :-0.3136810E-01  (-0.3136293E-01)
 number of electron      18.0000000 magnetization       6.0000000
 augmentation part       18.0000000 magnetization       6.0000000

 Free energy of the ion-electron system (eV)
  ---------------------------------------------------
  alpha Z        PSCENC =        79.61870385
  Ewald energy   TEWEN  =     -1531.60263765
  -Hartree energ DENC   =      -295.86427829
  -exchange      EXHF   =         0.00000000
  -V(xc)+E(xc)   XCENC  =        35.75670864
  PAW double counting   =      1439.98163886    -1545.88690193
  entropy T*S    EENTRO =        -0.00196405
  eigenvalues    EBANDS =       175.66400894
  atomic energy  EATOM  =      1626.72322989
  Solvation  Ediel_sol  =         0.00000000
  ---------------------------------------------------
  free energy    TOTEN  =       -15.61149174 eV

  energy without entropy =      -15.60952769  energy(sigma->0) =      -15.61050971


--------------------------------------------------------------------------------------------------------




--------------------------------------- Iteration      1(   5)  ---------------------------------------


     EDDAV:  cpu time      0.9943: real time      1.0002
       DOS:  cpu time      0.0026: real time      0.0026
    CHARGE:  cpu time      0.0327: real time      0.0328
    MIXING:  cpu time      0.0003: real time      0.0003
    --------------------------------------------
      LOOP:  cpu time      1.0299: real time      1.0359

 eigenvalue-minimisations  : 11720
 total energy-change (2. order) :-0.1645898E-03  (-0.1645873E-03)
 number of electron      17.9999984 magnetization       3.4321736
 augmentation part        9.1695352 magnetization       2.6766321

 Broyden mixing:
  rms(total) = 0.16481E+01    rms(broyden)= 0.16481E+01
  rms(prec ) = 0.27107E+01
  weight for this iteration     100.00

 Free energy of the ion-electron system (eV)
  ---------------------------------------------------
  alpha Z        PSCENC =        79.61870385
  Ewald energy   TEWEN  =     -1531.60263765
  -Hartree energ DENC   =      -295.86427829
  -exchange      EXHF   =         0.00000000
  -V(xc)+E(xc)   XCENC  =        35.75670864
  PAW double counting   =      1439.98163886    -1545.88690193
  entropy T*S    EENTRO =        -0.00196414
  eigenvalues    EBANDS =       175.66384445
  atomic energy  EATOM  =      1626.72322989
  Solvation  Ediel_sol  =         0.00000000
  ---------------------------------------------------
  free energy    TOTEN  =       -15.61165633 eV

  energy without entropy =      -15.60969219  energy(sigma->0) =      -15.61067426


--------------------------------------------------------------------------------------------------------




--------------------------------------- Iteration      1(   6)  ---------------------------------------


    POTLOK:  cpu time      0.0050: real time      0.0052
    SETDIJ:  cpu time      0.0050: real time      0.0050
     EDDAV:  cpu time      0.8548: real time      0.8598
       DOS:  cpu time      0.0027: real time      0.0027
    CHARGE:  cpu time      0.0314: real time      0.0315
    MIXING:  cpu time      0.0003: real time      0.0003
    --------------------------------------------
      LOOP:  cpu time      0.8992: real time      0.9045

 eigenvalue-minimisations  :  9896
 total energy-change (2. order) : 0.1198234E+01  (-0.1055519E+01)
 number of electron      17.9999981 magnetization       3.1207808
 augmentation part       10.6732388 magnetization       2.7890175

 Broyden mixing:
  rms(total) = 0.60023E+00    rms(broyden)= 0.60020E+00
  rms(prec ) = 0.82241E+00
  weight for this iteration     100.00

 eigenvalues of (default mixing * dielectric matrix)
  average eigenvalue GAMMA=   0.9453
  0.9453

 Free energy of the ion-electron system (eV)
  ---------------------------------------------------
  alpha Z        PSCENC =        79.61870385
  Ewald energy   TEWEN  =     -1531.60263765
  -Hartree energ DENC   =      -259.23483708
  -exchange      EXHF   =         0.00000000
  -V(xc)+E(xc)   XCENC  =        32.73971434
  PAW double counting   =      1596.66755277    -1692.55652622
  entropy T*S    EENTRO =        -0.00328907
  eigenvalues    EBANDS =       133.23466684
  atomic energy  EATOM  =      1626.72322989
  Solvation  Ediel_sol  =         0.00000000
  ---------------------------------------------------
  free energy    TOTEN  =       -14.41342233 eV

  energy without entropy =      -14.41013326  energy(sigma->0) =      -14.41177779


--------------------------------------------------------------------------------------------------------




--------------------------------------- Iteration      1(   7)  ---------------------------------------


    POTLOK:  cpu time      0.0048: real time      0.0050
    SETDIJ:  cpu time      0.0050: real time      0.0050
     EDDAV:  cpu time      0.9115: real time      0.9168
       DOS:  cpu time      0.0026: real time      0.0027
    CHARGE:  cpu time      0.0326: real time      0.0327
    MIXING:  cpu time      0.0003: real time      0.0003
    --------------------------------------------
      LOOP:  cpu time      0.9569: real time      0.9625

 eigenvalue-minimisations  : 10656
 total energy-change (2. order) : 0.3122094E+00  (-0.1400130E+00)
 number of electron      17.9999982 magnetization       3.0724347
 augmentation part       10.1685253 magnetization       2.7667766

 Broyden mixing:
  rms(total) = 0.36642E+00    rms(broyden)= 0.36641E+00
  rms(prec ) = 0.44301E+00
  weight for this iteration     100.00

 eigenvalues of (default mixing * dielectric matrix)
  average eigenvalue GAMMA=   0.7561
  1.0511  0.4612

 Free energy of the ion-electron system (eV)
  ---------------------------------------------------
  alpha Z        PSCENC =        79.61870385
  Ewald energy   TEWEN  =     -1531.60263765
  -Hartree energ DENC   =      -266.89547963
  -exchange      EXHF   =         0.00000000
  -V(xc)+E(xc)   XCENC  =        33.14649879
  PAW double counting   =      1679.71802326    -1782.46801805
  entropy T*S    EENTRO =        -0.00267477
  eigenvalues    EBANDS =       147.66114135
  atomic energy  EATOM  =      1626.72322989
  Solvation  Ediel_sol  =         0.00000000
  ---------------------------------------------------
  free energy    TOTEN  =       -14.10121297 eV

  energy without entropy =      -14.09853820  energy(sigma->0) =      -14.09987558


--------------------------------------------------------------------------------------------------------




--------------------------------------- Iteration      1(   8)  ---------------------------------------


    POTLOK:  cpu time      0.0050: real time      0.0052
    SETDIJ:  cpu time      0.0050: real time      0.0050
     EDDAV:  cpu time      1.1298: real time      1.1362
       DOS:  cpu time      0.0026: real time      0.0026
    CHARGE:  cpu time      0.0311: real time      0.0312
    MIXING:  cpu time      0.0003: real time      0.0003
    --------------------------------------------
      LOOP:  cpu time      1.1738: real time      1.1805

 eigenvalue-minimisations  : 13744
 total energy-change (2. order) : 0.2410212E-01  (-0.1842993E-02)
 number of electron      17.9999982 magnetization       3.0743435
 augmentation part       10.2123301 magnetization       2.7897467

 Broyden mixing:
  rms(total) = 0.16116E+00    rms(broyden)= 0.16116E+00
  rms(prec ) = 0.20930E+00
  weight for this iteration     100.00

 eigenvalues of (default mixing * dielectric matrix)
  average eigenvalue GAMMA=   0.9922
  1.6345  0.7630  0.5791

 Free energy of the ion-electron system (eV)
  ---------------------------------------------------
  alpha Z        PSCENC =        79.61870385
  Ewald energy   TEWEN  =     -1531.60263765
  -Hartree energ DENC   =      -264.26914216
  -exchange      EXHF   =         0.00000000
  -V(xc)+E(xc)   XCENC  =        33.03998883
  PAW double counting   =      1736.89091201    -1840.79422557
  entropy T*S    EENTRO =        -0.00276193
  eigenvalues    EBANDS =       146.31882189
  atomic energy  EATOM  =      1626.72322989
  Solvation  Ediel_sol  =         0.00000000
  ---------------------------------------------------
  free energy    TOTEN  =       -14.07711085 eV

  energy without entropy =      -14.07434892  energy(sigma->0) =      -14.07572988


--------------------------------------------------------------------------------------------------------




--------------------------------------- Iteration      1(   9)  ---------------------------------------


    POTLOK:  cpu time      0.0048: real time      0.0050
    SETDIJ:  cpu time      0.0048: real time      0.0049
     EDDAV:  cpu time      1.1271: real time      1.1336
       DOS:  cpu time      0.0027: real time      0.0027
    CHARGE:  cpu time      0.0310: real time      0.0311
    MIXING:  cpu time      0.0003: real time      0.0003
    --------------------------------------------
      LOOP:  cpu time      1.1708: real time      1.1776

 eigenvalue-minimisations  : 13688
 total energy-change (2. order) : 0.1282576E-01  (-0.3961623E-03)
 number of electron      17.9999982 magnetization       3.1050074
 augmentation part       10.2479598 magnetization       2.8288420

 Broyden mixing:
  rms(total) = 0.48649E-01    rms(broyden)= 0.48649E-01
  rms(prec ) = 0.58478E-01
  weight for this iteration     100.00

 eigenvalues of (default mixing * dielectric matrix)
  average eigenvalue GAMMA=   1.1548
  2.2968  0.9765  0.7240  0.6220

 Free energy of the ion-electron system (eV)
  ---------------------------------------------------
  alpha Z        PSCENC =        79.61870385
  Ewald energy   TEWEN  =     -1531.60263765
  -Hartree energ DENC   =      -261.82679376
  -exchange      EXHF   =         0.00000000
  -V(xc)+E(xc)   XCENC  =        32.94823125
  PAW double counting   =      1794.13677123    -1899.36934106
  entropy T*S    EENTRO =        -0.00293833
  eigenvalues    EBANDS =       145.31048949
  atomic energy  EATOM  =      1626.72322989
  Solvation  Ediel_sol  =         0.00000000
  ---------------------------------------------------
  free energy    TOTEN  =       -14.06428509 eV

  energy without entropy =      -14.06134676  energy(sigma->0) =      -14.06281592


--------------------------------------------------------------------------------------------------------




--------------------------------------- Iteration      1(  10)  ---------------------------------------


    POTLOK:  cpu time      0.0048: real time      0.0050
    SETDIJ:  cpu time      0.0049: real time      0.0050
     EDDAV:  cpu time      1.0400: real time      1.0462
       DOS:  cpu time      0.0027: real time      0.0027
    CHARGE:  cpu time      0.0309: real time      0.0310
    MIXING:  cpu time      0.0003: real time      0.0003
    --------------------------------------------
      LOOP:  cpu time      1.0837: real time      1.0902

 eigenvalue-minimisations  : 12528
 total energy-change (2. order) : 0.1243470E-02  (-0.6386489E-04)
 number of electron      17.9999982 magnetization       3.1020222
 augmentation part       10.2523445 magnetization       2.8162998

 Broyden mixing:
  rms(total) = 0.47604E-02    rms(broyden)= 0.47601E-02
  rms(prec ) = 0.61450E-02
  weight for this iteration     100.00

 eigenvalues of (default mixing * dielectric matrix)
  average eigenvalue GAMMA=   1.1658
  2.3043  1.1030  1.1030  0.6594  0.6594

 Free energy of the ion-electron system (eV)
  ---------------------------------------------------
  alpha Z        PSCENC =        79.61870385
  Ewald energy   TEWEN  =     -1531.60263765
  -Hartree energ DENC   =      -260.86709328
  -exchange      EXHF   =         0.00000000
  -V(xc)+E(xc)   XCENC  =        32.90101075
  PAW double counting   =      1823.28927375    -1929.32629271
  entropy T*S    EENTRO =        -0.00301492
  eigenvalues    EBANDS =       145.20377871
  atomic energy  EATOM  =      1626.72322989
  Solvation  Ediel_sol  =         0.00000000
  ---------------------------------------------------
  free energy    TOTEN  =       -14.06304162 eV

  energy without entropy =      -14.06002670  energy(sigma->0) =      -14.06153416


--------------------------------------------------------------------------------------------------------




--------------------------------------- Iteration      1(  11)  ---------------------------------------


    POTLOK:  cpu time      0.0049: real time      0.0051
    SETDIJ:  cpu time      0.0048: real time      0.0048
     EDDAV:  cpu time      1.1749: real time      1.1816
       DOS:  cpu time      0.0027: real time      0.0028
    CHARGE:  cpu time      0.0319: real time      0.0320
    MIXING:  cpu time      0.0003: real time      0.0003
    --------------------------------------------
      LOOP:  cpu time      1.2196: real time      1.2266

 eigenvalue-minimisations  : 14208
 total energy-change (2. order) :-0.1493042E-04  (-0.3946171E-05)
 number of electron      17.9999982 magnetization       3.1001673
 augmentation part       10.2532322 magnetization       2.8131183

 Broyden mixing:
  rms(total) = 0.24558E-02    rms(broyden)= 0.24557E-02
  rms(prec ) = 0.32503E-02
  weight for this iteration     100.00

 eigenvalues of (default mixing * dielectric matrix)
  average eigenvalue GAMMA=   1.1041
  2.2917  1.1501  1.1501  0.7072  0.7072  0.6183

 Free energy of the ion-electron system (eV)
  ---------------------------------------------------
  alpha Z        PSCENC =        79.61870385
  Ewald energy   TEWEN  =     -1531.60263765
  -Hartree energ DENC   =      -260.84409966
  -exchange      EXHF   =         0.00000000
  -V(xc)+E(xc)   XCENC  =        32.89355601
  PAW double counting   =      1823.99508387    -1930.03770646
  entropy T*S    EENTRO =        -0.00297923
  eigenvalues    EBANDS =       145.19379284
  atomic energy  EATOM  =      1626.72322989
  Solvation  Ediel_sol  =         0.00000000
  ---------------------------------------------------
  free energy    TOTEN  =       -14.06305655 eV

  energy without entropy =      -14.06007731  energy(sigma->0) =      -14.06156693


--------------------------------------------------------------------------------------------------------




--------------------------------------- Iteration      1(  12)  ---------------------------------------


    POTLOK:  cpu time      0.0050: real time      0.0052
    SETDIJ:  cpu time      0.0050: real time      0.0050
     EDDAV:  cpu time      0.8560: real time      0.8610
       DOS:  cpu time      0.0027: real time      0.0027
    CHARGE:  cpu time      0.0310: real time      0.0311
    MIXING:  cpu time      0.0003: real time      0.0003
    --------------------------------------------
      LOOP:  cpu time      0.9001: real time      0.9054

 eigenvalue-minimisations  :  9872
 total energy-change (2. order) : 0.1572129E-05  (-0.4963133E-06)
 number of electron      17.9999982 magnetization       3.1002242
 augmentation part       10.2532957 magnetization       2.8130831

 Broyden mixing:
  rms(total) = 0.14337E-02    rms(broyden)= 0.14337E-02
  rms(prec ) = 0.21363E-02
  weight for this iteration     100.00

 eigenvalues of (default mixing * dielectric matrix)
  average eigenvalue GAMMA=   1.2126
  2.3594  1.8745  1.1295  1.1295  0.6413  0.6413  0.7129

 Free energy of the ion-electron system (eV)
  ---------------------------------------------------
  alpha Z        PSCENC =        79.61870385
  Ewald energy   TEWEN  =     -1531.60263765
  -Hartree energ DENC   =      -260.82770923
  -exchange      EXHF   =         0.00000000
  -V(xc)+E(xc)   XCENC  =        32.89171859
  PAW double counting   =      1824.78552741    -1930.84180451
  entropy T*S    EENTRO =        -0.00297749
  eigenvalues    EBANDS =       145.19289418
  atomic energy  EATOM  =      1626.72322989
  Solvation  Ediel_sol  =         0.00000000
  ---------------------------------------------------
  free energy    TOTEN  =       -14.06305498 eV

  energy without entropy =      -14.06007748  energy(sigma->0) =      -14.06156623


--------------------------------------------------------------------------------------------------------




--------------------------------------- Iteration      1(  13)  ---------------------------------------


    POTLOK:  cpu time      0.0048: real time      0.0050
    SETDIJ:  cpu time      0.0048: real time      0.0048
     EDDAV:  cpu time      0.6337: real time      0.6375
       DOS:  cpu time      0.0027: real time      0.0028
    --------------------------------------------
      LOOP:  cpu time      0.6461: real time      0.6501

 eigenvalue-minimisations  :  5976
 total energy-change (2. order) :-0.2742454E-06  (-0.1240604E-06)
 number of electron      17.9999982 magnetization       3.1002242
[...]

 k-point   136 :       0.2143    0.1429    0.5000
  band No.  band energies     occupation 
      1       6.1225      1.00000
      2       6.1225      1.00000
      3       8.3747      1.00000
      4       8.3747      1.00000
      5       9.0345      1.00000
      6       9.0345      1.00000
      7      10.2806      1.00000
      8      10.2806      1.00000
      9      11.5827      0.00000
     10      11.5827      0.00000
     11      12.0782      0.00000
     12      12.0782      0.00000
     13      24.6721      0.00000
     14      24.6721      0.00000
     15      26.7490      0.00000
     16      26.7490      0.00000

 k-point   137 :       0.2857    0.1429    0.5000
  band No.  band energies     occupation 
      1       6.5761      1.00000
      2       6.5761      1.00000
      3       8.3074      1.00000
      4       8.3074      1.00000
      5       9.2083      1.00000
      6       9.2083      1.00000
      7      10.3321      1.00000
      8      10.3321      1.00000
      9      11.7383      0.00000
     10      11.7383      0.00000
     11      12.7592      0.00000
     12      12.7592      0.00000
     13      22.0742      0.00000
     14      22.0742      0.00000
     15      25.9751      0.00000
     16      25.9751      0.00000

 k-point   138 :       0.3571    0.1429    0.5000
  band No.  band energies     occupation 
      1       6.7674      1.00000
      2       6.7674      1.00000
      3       8.2565      1.00000
      4       8.2565      1.00000
      5       9.4230      1.00000
      6       9.4230      1.00000
      7      10.5125      0.72656
      8      10.5125      0.72656
      9      11.7254      0.00000
     10      11.7254      0.00000
     11      13.6695      0.00000
     12      13.6695      0.00000
     13      19.9484      0.00000
     14      19.9484      0.00000
     15      25.4526      0.00000
     16      25.4526      0.00000

 k-point   139 :       0.4286    0.1429    0.5000
  band No.  band energies     occupation 
      1       6.8098      1.00000
      2       6.8098      1.00000
      3       8.2399      1.00000
      4       8.2399      1.00000
      5       9.4838      1.00000
      6       9.4838      1.00000
      7      10.6646      0.00011
      8      10.6646      0.00011
      9      11.6788      0.00000
     10      11.6788      0.00000
     11      14.2033      0.00000
     12      14.2033      0.00000
     13      18.9956      0.00000
     14      18.9956      0.00000
     15      25.2692      0.00000
     16      25.2692      0.00000

 k-point   140 :       0.2143    0.2143    0.5000
  band No.  band energies     occupation 
      1       6.6559      1.00000
      2       6.6559      1.00000
      3       8.3801      1.00000
      4       8.3801      1.00000
      5       8.9347      1.00000
      6       8.9347      1.00000
      7      10.2391      1.00000
      8      10.2391      1.00000
      9      11.7673      0.00000
     10      11.7673      0.00000
     11      12.8370      0.00000
     12      12.8370      0.00000
     13      23.4068      0.00000
     14      23.4068      0.00000
     15      24.3463      0.00000
     16      24.3463      0.00000

 k-point   141 :       0.2857    0.2143    0.5000
  band No.  band energies     occupation 
      1       7.0150      1.00000
      2       7.0150      1.00000
      3       8.3710      1.00000
      4       8.3710      1.00000
      5       8.9374      1.00000
      6       8.9374      1.00000
      7      10.2780      1.00000
      8      10.2780      1.00000
      9      11.7578      0.00000
     10      11.7578      0.00000
     11      13.9822      0.00000
     12      13.9822      0.00000
     13      21.2141      0.00000
     14      21.2141      0.00000
     15      23.3798      0.00000
     16      23.3798      0.00000

 k-point   142 :       0.3571    0.2143    0.5000
  band No.  band energies     occupation 
      1       7.1720      1.00000
      2       7.1720      1.00000
      3       8.3650      1.00000
      4       8.3650      1.00000
      5       8.9360      1.00000
      6       8.9360      1.00000
      7      10.4213      0.99927
      8      10.4213      0.99927
      9      11.6747      0.00000
     10      11.6747      0.00000
     11      15.1297      0.00000
     12      15.1297      0.00000
     13      19.4040      0.00000
     14      19.4040      0.00000
     15      23.0069      0.00000
     16      23.0069      0.00000

 k-point   143 :       0.2857    0.2857    0.5000
  band No.  band energies     occupation 
      1       7.4076      1.00000
      2       7.4076      1.00000
      3       8.3147      1.00000
      4       8.3147      1.00000
      5       8.7594      1.00000
      6       8.7594      1.00000
      7      10.2927      1.00000
      8      10.2927      1.00000
      9      11.6774      0.00000
     10      11.6774      0.00000
     11      15.4838      0.00000
     12      15.4838      0.00000
     13      20.0646      0.00000
     14      20.0646      0.00000
     15      21.6890      0.00000
     16      21.6890      0.00000

 k-point   144 :       0.3571    0.2857    0.5000
  band No.  band energies     occupation 
      1       7.6225      1.00000
      2       7.6225      1.00000
      3       8.1762      1.00000
      4       8.1762      1.00000
      5       8.7355      1.00000
      6       8.7355      1.00000
      7      10.3239      1.00000
      8      10.3239      1.00000
      9      11.6227      0.00000
     10      11.6227      0.00000
     11      16.5456      0.00000
     12      16.5456      0.00000
     13      18.9450      0.00000
     14      18.9450      0.00000
     15      21.2990      0.00000
     16      21.2990      0.00000


--------------------------------------------------------------------------------------------------------


 soft charge-density along one line, spin component           1
         0         1         2         3         4         5         6         7         8         9
 total charge-density along one line
 
 soft charge-density along one line, spin component           2
         0         1         2         3         4         5         6         7         8         9
 total charge-density along one line
 
 pseudopotential strength for first ion, spin component:           1
 -0.417  -0.000  -0.000   0.000   0.000  -1.058  -0.000  -0.000
 -0.000  -0.423   0.000  -0.000  -0.000  -0.000  -1.065   0.000
 -0.000   0.000  -0.416  -0.000   0.000  -0.000   0.000  -1.058
  0.000  -0.000  -0.000  -0.423  -0.000   0.000  -0.000  -0.000
  0.000  -0.000   0.000  -0.000  -0.417   0.000  -0.000   0.000
 -1.058  -0.000  -0.000   0.000   0.000  -1.640  -0.000  -0.000
 -0.000  -1.065   0.000  -0.000  -0.000  -0.000  -1.646   0.000
 -0.000   0.000  -1.058  -0.000   0.000  -0.000   0.000  -1.640
  0.000  -0.000  -0.000  -1.065  -0.000   0.000  -0.000  -0.000
  0.000  -0.000   0.000  -0.000  -1.058   0.000  -0.000   0.000
  0.000  -0.000   0.001   0.000   0.000  -0.000  -0.000   0.001
  0.000  -0.000   0.001   0.000   0.000  -0.000  -0.000   0.001
 -0.000  -0.000  -0.000  -0.000   0.001  -0.000  -0.000  -0.000
 -0.000   0.000  -0.000  -0.000   0.000  -0.000   0.000  -0.000
  0.001  -0.000   0.000   0.000  -0.000   0.001  -0.000   0.000
 -0.000  -0.000  -0.000  -0.000   0.001  -0.000  -0.000  -0.000
 -0.000   0.000  -0.000  -0.000   0.000  -0.000   0.000  -0.000
  0.001  -0.000   0.000  -0.000  -0.000   0.001  -0.000   0.000
 pseudopotential strength for first ion, spin component:           2
  0.868  -0.000  -0.000   0.000   0.000   0.173  -0.000  -0.000
 -0.000   0.888   0.000  -0.000  -0.000  -0.000   0.192   0.000
 -0.000   0.000   0.864  -0.000   0.000  -0.000   0.000   0.168
  0.000  -0.000  -0.000   0.888  -0.000   0.000  -0.000  -0.000
  0.000  -0.000   0.000  -0.000   0.868   0.000  -0.000   0.000
  0.173  -0.000  -0.000   0.000   0.000  -0.461  -0.000  -0.000
 -0.000   0.192   0.000  -0.000  -0.000  -0.000  -0.443   0.000
 -0.000   0.000   0.168  -0.000   0.000  -0.000   0.000  -0.466
  0.000  -0.000  -0.000   0.192  -0.000   0.000  -0.000  -0.000
  0.000  -0.000   0.000  -0.000   0.173   0.000  -0.000   0.000
  0.000  -0.000  -0.001   0.000   0.000   0.000  -0.000  -0.001
  0.000  -0.000  -0.002   0.000   0.000  -0.000  -0.000  -0.002
 -0.000  -0.000  -0.000  -0.000   0.000  -0.000  -0.000  -0.000
 -0.000   0.000  -0.000  -0.000   0.000  -0.000   0.000  -0.000
  0.000  -0.000   0.000   0.000  -0.000   0.000  -0.000   0.000
 -0.000  -0.000  -0.000  -0.000   0.000  -0.000  -0.000  -0.000
 -0.000   0.000  -0.000  -0.000   0.000  -0.000   0.000  -0.000
  0.000  -0.000   0.000   0.000  -0.000   0.000  -0.000   0.000
 total augmentation occupancy for first ion, spin component:           1
  2.873   0.000   0.000   0.000   0.000  -1.577  -0.000  -0.000   0.000   0.000   0.000  -0.000  -0.000   0.000  -0.044   0.000
  0.000   3.068   0.000   0.000  -0.000   0.000  -1.681   0.000   0.000   0.000  -0.000   0.000   0.000   0.000   0.000  -0.000
  0.000   0.000   2.741  -0.000   0.000   0.000   0.000  -1.531  -0.000  -0.000  -0.002   0.002   0.000  -0.000   0.000  -0.000
  0.000   0.000  -0.000   3.068  -0.000  -0.000   0.000   0.000  -1.681  -0.000   0.000   0.000   0.000   0.000   0.000  -0.000
  0.000   0.000   0.000  -0.000   2.873   0.000   0.000  -0.000   0.000  -1.577   0.000   0.000  -0.044   0.000  -0.000   0.003
 -1.577   0.000  -0.000  -0.000   0.000   1.834   0.000   0.000  -0.000   0.000   0.000   0.000  -0.000  -0.000   0.060  -0.000
 -0.000  -1.681  -0.000   0.000  -0.000  -0.000   1.850   0.000  -0.000  -0.000   0.000  -0.000   0.000  -0.000   0.000   0.000
 -0.000  -0.000  -1.531  -0.000  -0.000   0.000  -0.000   1.870   0.000   0.000   0.004  -0.003   0.000  -0.000  -0.000  -0.000
  0.000   0.000   0.000  -1.681   0.000   0.000   0.000   0.000   1.850   0.000   0.000   0.000   0.000  -0.000   0.000   0.000
 -0.000   0.000  -0.000  -0.000  -1.577   0.000   0.000   0.000  -0.000   1.834  -0.000   0.000   0.060   0.000  -0.000  -0.004
  0.000   0.000  -0.002   0.000   0.000   0.000   0.000   0.004   0.000  -0.000   2.354  -0.282  -0.000   0.000  -0.000   0.000
  0.000   0.000   0.002   0.000   0.000   0.000   0.000  -0.003   0.000   0.000  -0.282   0.042   0.000  -0.000   0.000   0.000
 -0.000  -0.000   0.000   0.000  -0.044   0.000   0.000  -0.000  -0.000   0.060  -0.000   0.000   0.322  -0.000  -0.000  -0.031
  0.000  -0.000   0.000   0.000  -0.000   0.000  -0.000  -0.000   0.000  -0.000   0.000  -0.000  -0.000   0.328   0.000   0.000
 -0.044   0.000  -0.000  -0.000   0.000   0.060   0.000   0.000   0.000   0.000   0.000   0.000   0.000  -0.000   0.322   0.000
  0.000   0.000   0.000  -0.000   0.003   0.000   0.000   0.000   0.000  -0.004   0.000  -0.000  -0.031  -0.000  -0.000   0.003
  0.000   0.000  -0.000   0.000  -0.000  -0.000  -0.000  -0.000   0.000   0.000   0.000  -0.000  -0.000  -0.031  -0.000  -0.000
  0.003   0.000  -0.000   0.000  -0.000  -0.004   0.000  -0.000  -0.000  -0.000   0.000   0.000   0.000  -0.000  -0.031   0.000
 total augmentation occupancy for first ion, spin component:           2
  1.982  -0.000  -0.000  -0.000   0.000  -0.940   0.000   0.000  -0.000   0.000   0.000   0.000  -0.000   0.000   0.001   0.000
 -0.000   2.094   0.000   0.000   0.000  -0.000  -1.010   0.000   0.000   0.000   0.000   0.000   0.000   0.000   0.000   0.000
  0.000  -0.000   2.014   0.000   0.000   0.000   0.000  -0.958   0.000  -0.000   0.011   0.003   0.000   0.000   0.000   0.000
 -0.000   0.000   0.000   2.094  -0.000  -0.000   0.000  -0.000  -1.010  -0.000  -0.000   0.000  -0.000   0.000  -0.000   0.000
  0.000   0.000   0.000   0.000   1.982  -0.000   0.000  -0.000  -0.000  -0.940   0.000   0.000   0.001   0.000   0.000  -0.000
 -0.940   0.000   0.000   0.000  -0.000   0.252   0.000   0.000   0.000   0.000   0.000   0.000   0.000  -0.000  -0.006  -0.000
 -0.000  -1.010  -0.000  -0.000   0.000  -0.000   0.304  -0.000  -0.000   0.000  -0.000   0.000  -0.000  -0.000  -0.000   0.000
  0.000   0.000  -0.958   0.000  -0.000   0.000   0.000   0.251   0.000   0.000  -0.009  -0.001   0.000   0.000  -0.000  -0.000
 -0.000   0.000   0.000  -1.010   0.000  -0.000  -0.000   0.000   0.304   0.000  -0.000  -0.000   0.000   0.000   0.000  -0.000
  0.000  -0.000  -0.000   0.000  -0.940   0.000  -0.000   0.000  -0.000   0.252   0.000  -0.000  -0.006   0.000   0.000   0.000
 -0.000   0.000   0.011   0.000   0.000   0.000   0.000  -0.009  -0.000   0.000  -0.302   0.090   0.000   0.000  -0.000  -0.000
 -0.000  -0.000   0.003  -0.000  -0.000   0.000   0.000  -0.001   0.000  -0.000   0.090  -0.016   0.000  -0.000   0.000   0.000
 -0.000  -0.000  -0.000   0.000   0.001  -0.000   0.000  -0.000   0.000  -0.006  -0.000   0.000  -0.037   0.000   0.000   0.005
  0.000   0.000   0.000   0.000   0.000   0.000  -0.000   0.000   0.000   0.000   0.000   0.000   0.000  -0.039   0.000   0.000
  0.001   0.000   0.000   0.000   0.000  -0.006   0.000   0.000   0.000   0.000   0.000  -0.000   0.000   0.000  -0.037   0.000
  0.000  -0.000   0.000   0.000  -0.000   0.000  -0.000   0.000  -0.000   0.000  -0.000  -0.000   0.005   0.000   0.000  -0.001
 -0.000   0.000  -0.000   0.000  -0.000  -0.000  -0.000   0.000   0.000  -0.000   0.000   0.000   0.000   0.005  -0.000   0.000
 -0.000   0.000   0.000  -0.000  -0.000   0.000   0.000   0.000   0.000  -0.000   0.000  -0.000  -0.000   0.000   0.005   0.000


------------------------ aborting loop because EDIFF is reached ----------------------------------------





 total charge

# of ion       s       p       d       tot
------------------------------------------
    1        0.496   0.537   7.278   8.311
    2        0.496   0.537   7.278   8.311
--------------------------------------------------
tot          0.991   1.075  14.555  16.621



 magnetization (x)

# of ion       s       p       d       tot
------------------------------------------
    1       -0.016  -0.056   1.640   1.567
    2       -0.016  -0.056   1.640   1.567
--------------------------------------------------
tot         -0.033  -0.113   3.280   3.135
 
    CHARGE:  cpu time      0.0309: real time      0.0311
    FORLOC:  cpu time      0.0001: real time      0.0001
    FORNL :  cpu time      0.0342: real time      0.0343
    STRESS:  cpu time      0.0973: real time      0.0977
    FORCOR:  cpu time      0.0046: real time      0.0046
    FORHAR:  cpu time      0.0005: real time      0.0005
    MIXING:  cpu time      0.0003: real time      0.0003
    OFIELD:  cpu time      0.0000: real time      0.0000

  FORCE on cell =-STRESS in cart. coord.  units (eV):
  Direction    XX          YY          ZZ          XY          YZ          ZX
  --------------------------------------------------------------------------------------
  Alpha Z    79.61870    79.61870    79.61870
  Ewald    -511.71047  -511.71047  -508.18277     0.00000     0.00000    -0.00000
  Hartree    86.31338    86.31338    88.15999    -0.00000    -0.00000    -0.00000
  E(xc)     -92.61866   -92.61865   -92.61888    -0.00000     0.00000    -0.00000
  Local     -15.26635   -15.26626   -20.70568    -0.00000    -0.00000     0.00000
  n-local   -15.32725    -3.47245    -9.33937     3.40757    -0.64113     2.40193
  augment   310.78692   310.78684   310.76462    -0.00000    -0.00000     0.00000
  Kinetic   155.26643   150.10089   152.49942    -3.23057    -0.52892     0.48306
  Fock        0.00000     0.00000     0.00000     0.00000     0.00000     0.00000
  -------------------------------------------------------------------------------------
  Total       0.40734     0.40734     0.19604     0.00000    -0.00000     0.00000
  in kB      30.66847    30.66847    14.75954     0.00000    -0.00000     0.00000
  external pressure =       25.37 kB  Pullay stress =        0.00 kB


 VOLUME and BASIS-vectors are now :
 -----------------------------------------------------------------------------
  energy-cutoff  :      425.00
  volume of cell :       21.28
      direct lattice vectors                 reciprocal lattice vectors
     1.235999952 -2.140814714  0.000000000     0.404530760 -0.233555943  0.000000000
     1.235999952  2.140814714  0.000000000     0.404530760  0.233555943  0.000000000
     0.000000000  0.000000000  4.021144080     0.000000000  0.000000000  0.248685444

  length of vectors
     2.471999903  2.471999903  4.021144080     0.467111887  0.467111887  0.248685444


 FORCES acting on ions
    electron-ion (+dipol)            ewald-force                    non-local-force                 convergence-correction
 -----------------------------------------------------------------------------------------------
   -.141E-12 -.100E-06 -.878E-12   -.138E-13 0.239E-11 -.240E-13   0.694E-17 -.139E-16 0.607E-17   0.389E-14 -.211E-08 -.734E-13
   0.112E-11 0.100E-06 -.524E-11   0.114E-13 -.239E-11 0.240E-13   0.173E-17 0.173E-16 0.520E-17   -.196E-13 0.211E-08 0.580E-13
 -----------------------------------------------------------------------------------------------
   0.977E-12 0.345E-10 -.612E-11   -.234E-14 0.772E-15 0.000E+00   0.867E-17 0.347E-17 0.113E-16   -.157E-13 -.108E-13 -.154E-13
 
 
 POSITION                                       TOTAL-FORCE (eV/Angst)
 -----------------------------------------------------------------------------------
      1.23600      0.71360      1.00529        -0.000000      0.000000      0.000000
      1.23600     -0.71360      3.01586         0.000000     -0.000000     -0.000000
 -----------------------------------------------------------------------------------
    total drift:                                0.000000      0.000000     -0.000000


--------------------------------------------------------------------------------------------------------



  FREE ENERGIE OF THE ION-ELECTRON SYSTEM (eV)
  ---------------------------------------------------
  free  energy   TOTEN  =       -14.06305525 eV

  energy  without entropy=      -14.06008055  energy(sigma->0) =      -14.06156790
 


--------------------------------------------------------------------------------------------------------


    POTLOK:  cpu time      0.0098: real time      0.0099


--------------------------------------------------------------------------------------------------------


     LOOP+:  cpu time     13.0458: real time     13.1269
    4ORBIT:  cpu time      0.0000: real time      0.0000



 total charge

# of ion       s       p       d       tot
------------------------------------------
    1        0.496   0.537   7.278   8.311
    2        0.496   0.537   7.278   8.311
--------------------------------------------------
tot          0.991   1.075  14.555  16.621



 magnetization (x)

# of ion       s       p       d       tot
------------------------------------------
    1       -0.016  -0.056   1.640   1.567
    2       -0.016  -0.056   1.640   1.567
--------------------------------------------------
tot         -0.033  -0.113   3.280   3.135
 

 total amount of memory used by VASP MPI-rank0    34134. kBytes
=======================================================================

   base      :      30000. kBytes
   nonl-proj :       1661. kBytes
   fftplans  :        178. kBytes
   grid      :        421. kBytes
   one-center:         31. kBytes
   wavefun   :       1843. kBytes
 
  
  
 General timing and accounting informations for this job:
 ========================================================
  
                  Total CPU time used (sec):       14.059
                            User time (sec):       13.542
                          System time (sec):        0.517
                         Elapsed time (sec):       15.349
  
                   Maximum memory used (kb):      224972.
                   Average memory used (kb):          N/A
  
                          Minor page faults:        28007
                          Major page faults:           69
                 Voluntary context switches:         2212
