PROCAR lm decomposed
# of k-points:  144         # of bands:   16         # of ions:    2

 k-point     1 :    0.00000000 0.00000000 0.00000000     weight = 0.00051020

band     1 # energy    1.51769056 # occ.  1.00000000
 
ion      s     py     pz     px    dxy    dyz    dz2    dxz  x2-y2    tot
    1  0.371  0.000  0.000  0.000  0.000  0.000  0.000  0.000  0.000  0.371
    2  0.371  0.000  0.000  0.000  0.000  0.000  0.000  0.000  0.000  0.371
tot    0.741  0.000  0.000  0.000  0.000  0.000  0.000  0.000  0.000  0.741
 
band     2 # energy    5.32587200 # occ.  1.00000000
 
ion      s     py     pz     px    dxy    dyz    dz2    dxz  x2-y2    tot
    1  0.084  0.000  0.000  0.000  0.000  0.000  0.367  0.000  0.000  0.451
    2  0.084  0.000  0.000  0.000  0.000  0.000  0.367  0.000  0.000  0.451
tot    0.168  0.000  0.000  0.000  0.000  0.000  0.733  0.000  0.000  0.901
 
band     3 # energy    7.88993218 # occ.  1.00000000
 
ion      s     py     pz     px    dxy    dyz    dz2    dxz  x2-y2    tot
    1  0.000  0.000  0.000  0.000  0.000  0.000  0.487  0.000  0.000  0.487
    2  0.000  0.000  0.000  0.000  0.000  0.000  0.487  0.000  0.000  0.487
tot    0.000  0.000  0.000  0.000  0.000  0.000  0.973  0.000  0.000  0.973
 
band     4 # energy    7.94409400 # occ.  1.00000000
 
ion      s     py     pz     px    dxy    dyz    dz2    dxz  x2-y2    tot
    1  0.000  0.000  0.000  0.001  0.483  0.000  0.000  0.000  0.000  0.484
    2  0.000  0.000  0.000  0.001  0.483  0.000  0.000  0.000  0.000  0.484
tot    0.000  0.000  0.000  0.001  0.966  0.000  0.000  0.000  0.000  0.968
 
band     5 # energy    7.94409419 # occ.  1.00000000
 
ion      s     py     pz     px    dxy    dyz    dz2    dxz  x2-y2    tot
    1  0.000  0.001  0.000  0.000  0.000  0.000  0.000  0.000  0.483  0.484
    2  0.000  0.001  0.000  0.000  0.000  0.000  0.000  0.000  0.483  0.484
tot    0.000  0.001  0.000  0.000  0.000  0.000  0.000  0.000  0.966  0.968
 
band     6 # energy    8.26005939 # occ.  1.00000000
 
ion      s     py     pz     px    dxy    dyz    dz2    dxz  x2-y2    tot
    1  0.000  0.000  0.000  0.001  0.487  0.000  0.000  0.000  0.000  0.488
    2  0.000  0.000  0.000  0.001  0.487  0.000  0.000  0.000  0.000  0.488
tot    0.000  0.000  0.000  0.001  0.975  0.000  0.000  0.000  0.000  0.976
 
band     7 # energy    8.26005954 # occ.  1.00000000
 
ion      s     py     pz     px    dxy    dyz    dz2    dxz  x2-y2    tot
    1  0.000  0.001  0.000  0.000  0.000  0.000  0.000  0.000  0.487  0.488
    2  0.000  0.001  0.000  0.000  0.000  0.000  0.000  0.000  0.487  0.488
tot    0.000  0.001  0.000  0.000  0.000  0.000  0.000  0.000  0.975  0.976
 
band     8 # energy    8.64179746 # occ.  1.00000000
 
ion      s     py     pz     px    dxy    dyz    dz2    dxz  x2-y2    tot
    1  0.000  0.000  0.000  0.000  0.000  0.000  0.000  0.490  0.000  0.490
    2  0.000  0.000  0.000  0.000  0.000  0.000  0.000  0.490  0.000  0.490
tot    0.000  0.000  0.000  0.000  0.000  0.000  0.000  0.980  0.000  0.980
 
band     9 # energy    8.64179748 # occ.  1.00000000
 
ion      s     py     pz     px    dxy    dyz    dz2    dxz  x2-y2    tot
    1  0.000  0.000  0.000  0.000  0.000  0.490  0.000  0.000  0.000  0.490
    2  0.000  0.000  0.000  0.000  0.000  0.490  0.000  0.000  0.000  0.490
tot    0.000  0.000  0.000  0.000  0.000  0.980  0.000  0.000  0.000  0.980
 
band    10 # energy    9.75241742 # occ.  1.00000000
 
ion      s     py     pz     px    dxy    dyz    dz2    dxz  x2-y2    tot
    1  0.000  0.000  0.000  0.000  0.000  0.000  0.000  0.493  0.000  0.493
    2  0.000  0.000  0.000  0.000  0.000  0.000  0.000  0.493  0.000  0.493
tot    0.000  0.000  0.000  0.000  0.000  0.000  0.000  0.985  0.000  0.985
 
band    11 # energy    9.75241749 # occ.  1.00000000
 
ion      s     py     pz     px    dxy    dyz    dz2    dxz  x2-y2    tot
    1  0.000  0.000  0.000  0.000  0.000  0.493  0.000  0.000  0.000  0.493
    2  0.000  0.000  0.000  0.000  0.000  0.493  0.000  0.000  0.000  0.493
tot    0.000  0.000  0.000  0.000  0.000  0.985  0.000  0.000  0.000  0.985
 
band    12 # energy   10.39009097 # occ.  0.99997602
 
ion      s     py     pz     px    dxy    dyz    dz2    dxz  x2-y2    tot
    1  0.000  0.000  0.352  0.000  0.000  0.000  0.000  0.000  0.000  0.352
    2  0.000  0.000  0.352  0.000  0.000  0.000  0.000  0.000  0.000  0.352
tot    0.000  0.000  0.703  0.000  0.000  0.000  0.000  0.000  0.000  0.703
 
band    13 # energy   16.99171842 # occ.  0.00000000
 
ion      s     py     pz     px    dxy    dyz    dz2    dxz  x2-y2    tot
    1  0.227  0.000  0.000  0.000  0.000  0.000  0.232  0.000  0.000  0.459
    2  0.227  0.000  0.000  0.000  0.000  0.000  0.232  0.000  0.000  0.459
tot    0.454  0.000  0.000  0.000  0.000  0.000  0.465  0.000  0.000  0.919
 
band    14 # energy   32.76165282 # occ.  0.00000000
 
ion      s     py     pz     px    dxy    dyz    dz2    dxz  x2-y2    tot
    1  0.007  0.000  0.000  0.000  0.000  0.000  0.032  0.000  0.000  0.038
    2  0.007  0.000  0.000  0.000  0.000  0.000  0.032  0.000  0.000  0.038
tot    0.013  0.000  0.000  0.000  0.000  0.000  0.064  0.000  0.000  0.077
 
band    15 # energy   35.57376179 # occ.  0.00000000
 
ion      s     py     pz     px    dxy    dyz    dz2    dxz  x2-y2    tot
    1  0.000  0.183  0.000  0.084  0.039  0.000  0.000  0.000  0.085  0.392
    2  0.000  0.183  0.000  0.084  0.039  0.000  0.000  0.000  0.085  0.392
tot    0.000  0.366  0.000  0.169  0.079  0.000  0.000  0.000  0.171  0.784
 
band    16 # energy   35.57409964 # occ.  0.00000000
 
ion      s     py     pz     px    dxy    dyz    dz2    dxz  x2-y2    tot
    1  0.000  0.084  0.000  0.183  0.085  0.000  0.000  0.000  0.039  0.392
    2  0.000  0.084  0.000  0.183  0.085  0.000  0.000  0.000  0.039  0.391
tot    0.000  0.169  0.000  0.366  0.170  0.000  0.000  0.000  0.079  0.783
 

 k-point     2 :    0.07142857 0.00000000 0.00000000     weight = 0.00306122

band     1 # energy    1.70019699 # occ.  1.00000000
 
ion      s     py     pz     px    dxy    dyz    dz2    dxz  x2-y2    tot
    1  0.364  0.002  0.000  0.005  0.000  0.000  0.000  0.000  0.000  0.371
    2  0.364  0.002  0.000  0.005  0.000  0.000  0.000  0.000  0.000  0.371
tot    0.728  0.003  0.000  0.009  0.000  0.000  0.000  0.000  0.000  0.741
 
band     2 # energy    5.43739781 # occ.  1.00000000
 
ion      s     py     pz     px    dxy    dyz    dz2    dxz  x2-y2    tot
    1  0.078  0.001  0.000  0.003  0.001  0.000  0.367  0.000  0.000  0.451
    2  0.078  0.001  0.000  0.003  0.001  0.000  0.367  0.000  0.000  0.451
tot    0.156  0.002  0.000  0.006  0.003  0.000  0.735  0.000  0.001  0.902
 
band     3 # energy    7.72851941 # occ.  1.00000000
 
ion      s     py     pz     px    dxy    dyz    dz2    dxz  x2-y2    tot
    1  0.000  0.000  0.000  0.001  0.211  0.000  0.200  0.000  0.070  0.483
    2  0.000  0.000  0.000  0.001  0.211  0.000  0.200  0.000  0.070  0.483
tot    0.000  0.001  0.000  0.002  0.422  0.000  0.401  0.000  0.141  0.965
 
band     4 # energy    8.03040063 # occ.  1.00000000
 
ion      s     py     pz     px    dxy    dyz    dz2    dxz  x2-y2    tot
    1  0.000  0.001  0.000  0.000  0.121  0.000  0.000  0.000  0.362  0.484
    2  0.000  0.001  0.000  0.000  0.121  0.000  0.000  0.000  0.362  0.484
tot    0.000  0.001  0.000  0.000  0.241  0.000  0.000  0.000  0.724  0.968
 
band     5 # energy    8.08026648 # occ.  1.00000000
 
ion      s     py     pz     px    dxy    dyz    dz2    dxz  x2-y2    tot
    1  0.000  0.000  0.000  0.000  0.155  0.000  0.279  0.000  0.052  0.486
    2  0.000  0.000  0.000  0.000  0.155  0.000  0.279  0.000  0.052  0.486
tot    0.000  0.000  0.000  0.000  0.311  0.000  0.558  0.000  0.104  0.972
 
band     6 # energy    8.21898890 # occ.  1.00000000
 
ion      s     py     pz     px    dxy    dyz    dz2    dxz  x2-y2    tot
    1  0.001  0.000  0.000  0.001  0.358  0.000  0.008  0.000  0.119  0.487
    2  0.001  0.000  0.000  0.001  0.358  0.000  0.008  0.000  0.119  0.487
tot    0.002  0.000  0.000  0.001  0.716  0.000  0.017  0.000  0.239  0.974
 
band     7 # energy    8.33647792 # occ.  1.00000000
 
ion      s     py     pz     px    dxy    dyz    dz2    dxz  x2-y2    tot
    1  0.000  0.001  0.000  0.000  0.122  0.000  0.000  0.000  0.365  0.488
    2  0.000  0.001  0.000  0.000  0.122  0.000  0.000  0.000  0.365  0.488
tot    0.000  0.002  0.000  0.001  0.244  0.000  0.000  0.000  0.731  0.976
 
band     8 # energy    8.53338802 # occ.  1.00000000
 
ion      s     py     pz     px    dxy    dyz    dz2    dxz  x2-y2    tot
    1  0.000  0.000  0.008  0.000  0.000  0.119  0.000  0.358  0.000  0.485
    2  0.000  0.000  0.008  0.000  0.000  0.119  0.000  0.358  0.000  0.485
tot    0.000  0.000  0.015  0.000  0.000  0.239  0.000  0.716  0.000  0.970
 
band     9 # energy    8.58741645 # occ.  1.00000000
 
ion      s     py     pz     px    dxy    dyz    dz2    dxz  x2-y2    tot
    1  0.000  0.000  0.000  0.000  0.000  0.367  0.000  0.122  0.000  0.489
    2  0.000  0.000  0.000  0.000  0.000  0.367  0.000  0.122  0.000  0.489
tot    0.000  0.000  0.000  0.000  0.000  0.734  0.000  0.245  0.000  0.979
 
band    10 # energy    9.04851959 # occ.  1.00000000
 
ion      s     py     pz     px    dxy    dyz    dz2    dxz  x2-y2    tot
    1  0.000  0.000  0.099  0.000  0.000  0.087  0.000  0.262  0.000  0.448
    2  0.000  0.000  0.099  0.000  0.000  0.087  0.000  0.262  0.000  0.448
tot    0.000  0.000  0.198  0.000  0.000  0.175  0.000  0.524  0.000  0.897
 
band    11 # energy    9.77527959 # occ.  1.00000000
 
ion      s     py     pz     px    dxy    dyz    dz2    dxz  x2-y2    tot
    1  0.000  0.000  0.000  0.000  0.000  0.370  0.000  0.123  0.000  0.493
    2  0.000  0.000  0.000  0.000  0.000  0.370  0.000  0.123  0.000  0.493
tot    0.000  0.000  0.000  0.000  0.000  0.740  0.000  0.247  0.000  0.986
 
band    12 # energy   11.32267080 # occ.  0.00000000
 
ion      s     py     pz     px    dxy    dyz    dz2    dxz  x2-y2    tot
    1  0.000  0.000  0.243  0.000  0.000  0.040  0.000  0.119  0.000  0.401
    2  0.000  0.000  0.243  0.000  0.000  0.040  0.000  0.119  0.000  0.401
tot    0.000  0.000  0.485  0.000  0.000  0.079  0.000  0.238  0.000  0.803
 
band    13 # energy   17.02165693 # occ.  0.00000000
 
ion      s     py     pz     px    dxy    dyz    dz2    dxz  x2-y2    tot
    1  0.224  0.001  0.000  0.004  0.000  0.000  0.228  0.000  0.000  0.458
    2  0.224  0.001  0.000  0.004  0.000  0.000  0.228  0.000  0.000  0.458
tot    0.448  0.003  0.000  0.008  0.000  0.000  0.456  0.000  0.000  0.915
 
band    14 # energy   31.45269717 # occ.  0.00000000
 
ion      s     py     pz     px    dxy    dyz    dz2    dxz  x2-y2    tot
    1  0.011  0.017  0.000  0.052  0.100  0.000  0.025  0.000  0.033  0.239
    2  0.011  0.017  0.000  0.052  0.100  0.000  0.025  0.000  0.033  0.239
tot    0.022  0.035  0.000  0.104  0.201  0.000  0.050  0.000  0.067  0.478
 
band    15 # energy   33.52915567 # occ.  0.00000000
 
ion      s     py     pz     px    dxy    dyz    dz2    dxz  x2-y2    tot
    1  0.020  0.027  0.000  0.081  0.064  0.000  0.038  0.000  0.021  0.251
    2  0.020  0.027  0.000  0.081  0.064  0.000  0.038  0.000  0.021  0.251
tot    0.041  0.054  0.000  0.162  0.128  0.000  0.075  0.000  0.043  0.502
 
band    16 # energy   33.76717089 # occ.  0.00000000
 
ion      s     py     pz     px    dxy    dyz    dz2    dxz  x2-y2    tot
    1  0.000  0.172  0.000  0.057  0.044  0.000  0.000  0.000  0.133  0.406
    2  0.000  0.172  0.000  0.057  0.044  0.000  0.000  0.000  0.133  0.406
tot    0.000  0.344  0.000  0.115  0.088  0.000  0.000  0.000  0.265  0.813
 

 k-point     3 :    0.14285714 0.00000000 0.00000000     weight = 0.00306122

band     1 # energy    2.23343049 # occ.  1.00000000
 
ion      s     py     pz     px    dxy    dyz    dz2    dxz  x2-y2    tot
    1  0.345  0.006  0.000  0.018  0.001  0.000  0.001  0.000  0.000  0.371
    2  0.345  0.006  0.000  0.018  0.001  0.000  0.001  0.000  0.000  0.371
tot    0.690  0.012  0.000  0.036  0.002  0.000  0.001  0.000  0.001  0.743
 
band     2 # energy    5.73094364 # occ.  1.00000000
 
ion      s     py     pz     px    dxy    dyz    dz2    dxz  x2-y2    tot
    1  0.062  0.003  0.000  0.010  0.011  0.000  0.364  0.000  0.004  0.453
    2  0.062  0.003  0.000  0.010  0.011  0.000  0.364  0.000  0.004  0.453
tot    0.124  0.007  0.000  0.020  0.021  0.000  0.728  0.000  0.007  0.907
 
band     3 # energy    7.49690377 # occ.  1.00000000
 
ion      s     py     pz     px    dxy    dyz    dz2    dxz  x2-y2    tot
    1  0.000  0.001  0.000  0.003  0.257  0.000  0.131  0.000  0.086  0.478
    2  0.000  0.001  0.000  0.003  0.257  0.000  0.131  0.000  0.086  0.478
tot    0.000  0.002  0.000  0.006  0.515  0.000  0.261  0.000  0.172  0.955
 
band     4 # energy    7.95962288 # occ.  1.00000000
 
ion      s     py     pz     px    dxy    dyz    dz2    dxz  x2-y2    tot
    1  0.000  0.000  0.065  0.000  0.000  0.097  0.000  0.291  0.000  0.453
    2  0.000  0.000  0.065  0.000  0.000  0.097  0.000  0.291  0.000  0.453
tot    0.000  0.000  0.130  0.000  0.000  0.194  0.000  0.582  0.000  0.906
 
band     5 # energy    8.07015810 # occ.  1.00000000
 
ion      s     py     pz     px    dxy    dyz    dz2    dxz  x2-y2    tot
    1  0.003  0.000  0.000  0.001  0.312  0.000  0.064  0.000  0.104  0.485
    2  0.003  0.000  0.000  0.001  0.312  0.000  0.064  0.000  0.104  0.485
tot    0.006  0.001  0.000  0.002  0.624  0.000  0.128  0.000  0.208  0.969
 
band     6 # energy    8.27892268 # occ.  1.00000000
 
ion      s     py     pz     px    dxy    dyz    dz2    dxz  x2-y2    tot
    1  0.000  0.001  0.000  0.000  0.121  0.000  0.000  0.000  0.362  0.484
    2  0.000  0.001  0.000  0.000  0.121  0.000  0.000  0.000  0.362  0.484
tot    0.000  0.003  0.000  0.001  0.241  0.000  0.000  0.000  0.724  0.968
 
band     7 # energy    8.32406507 # occ.  1.00000000
 
ion      s     py     pz     px    dxy    dyz    dz2    dxz  x2-y2    tot
    1  0.001  0.000  0.000  0.001  0.137  0.000  0.302  0.000  0.046  0.487
    2  0.001  0.000  0.000  0.001  0.137  0.000  0.302  0.000  0.046  0.487
tot    0.002  0.001  0.000  0.002  0.274  0.000  0.603  0.000  0.091  0.973
 
band     8 # energy    8.44717681 # occ.  1.00000000
 
ion      s     py     pz     px    dxy    dyz    dz2    dxz  x2-y2    tot
    1  0.000  0.000  0.000  0.000  0.000  0.366  0.000  0.122  0.000  0.488
    2  0.000  0.000  0.000  0.000  0.000  0.366  0.000  0.122  0.000  0.488
tot    0.000  0.000  0.000  0.000  0.000  0.732  0.000  0.244  0.000  0.976
 
band     9 # energy    8.55588941 # occ.  1.00000000
 
ion      s     py     pz     px    dxy    dyz    dz2    dxz  x2-y2    tot
    1  0.000  0.001  0.000  0.000  0.122  0.000  0.000  0.000  0.365  0.489
    2  0.000  0.001  0.000  0.000  0.122  0.000  0.000  0.000  0.365  0.489
tot    0.000  0.003  0.000  0.001  0.243  0.000  0.000  0.000  0.730  0.977
 
band    10 # energy    8.64300999 # occ.  1.00000000
 
ion      s     py     pz     px    dxy    dyz    dz2    dxz  x2-y2    tot
    1  0.000  0.000  0.041  0.000  0.000  0.108  0.000  0.323  0.000  0.472
    2  0.000  0.000  0.041  0.000  0.000  0.108  0.000  0.323  0.000  0.472
tot    0.000  0.000  0.082  0.000  0.000  0.216  0.000  0.647  0.000  0.945
 
band    11 # energy    9.82780037 # occ.  1.00000000
 
ion      s     py     pz     px    dxy    dyz    dz2    dxz  x2-y2    tot
    1  0.000  0.000  0.000  0.000  0.000  0.371  0.000  0.124  0.000  0.494
    2  0.000  0.000  0.000  0.000  0.000  0.371  0.000  0.124  0.000  0.494
tot    0.000  0.000  0.000  0.000  0.000  0.741  0.000  0.247  0.000  0.988
 
band    12 # energy   12.66903950 # occ.  0.00000000
 
ion      s     py     pz     px    dxy    dyz    dz2    dxz  x2-y2    tot
    1  0.000  0.000  0.236  0.000  0.000  0.043  0.000  0.130  0.000  0.410
    2  0.000  0.000  0.236  0.000  0.000  0.043  0.000  0.130  0.000  0.410
tot    0.000  0.000  0.472  0.000  0.000  0.087  0.000  0.261  0.000  0.819
 
band    13 # energy   17.12361708 # occ.  0.00000000
 
ion      s     py     pz     px    dxy    dyz    dz2    dxz  x2-y2    tot
    1  0.215  0.006  0.000  0.017  0.000  0.000  0.214  0.000  0.000  0.452
    2  0.215  0.006  0.000  0.017  0.000  0.000  0.214  0.000  0.000  0.452
tot    0.429  0.011  0.000  0.034  0.001  0.000  0.429  0.000  0.000  0.904
 
band    14 # energy   28.26699426 # occ.  0.00000000
 
ion      s     py     pz     px    dxy    dyz    dz2    dxz  x2-y2    tot
    1  0.032  0.035  0.000  0.104  0.124  0.000  0.023  0.000  0.041  0.361
    2  0.032  0.035  0.000  0.104  0.124  0.000  0.023  0.000  0.041  0.361
tot    0.064  0.070  0.000  0.209  0.249  0.000  0.047  0.000  0.083  0.721
 
band    15 # energy   31.63502061 # occ.  0.00000000
 
ion      s     py     pz     px    dxy    dyz    dz2    dxz  x2-y2    tot
    1  0.000  0.185  0.000  0.062  0.037  0.000  0.000  0.000  0.110  0.393
    2  0.000  0.185  0.000  0.062  0.037  0.000  0.000  0.000  0.110  0.393
tot    0.000  0.369  0.000  0.123  0.073  0.000  0.000  0.000  0.220  0.785
 
band    16 # energy   32.62269172 # occ.  0.00000000
 
ion      s     py     pz     px    dxy    dyz    dz2    dxz  x2-y2    tot
    1  0.024  0.008  0.000  0.024  0.120  0.000  0.047  0.000  0.040  0.263
    2  0.024  0.008  0.000  0.024  0.120  0.000  0.047  0.000  0.040  0.263
tot    0.047  0.016  0.000  0.048  0.240  0.000  0.095  0.000  0.080  0.526
 

 k-point     4 :    0.21428571-0.00000000 0.00000000     weight = 0.00306122

band     1 # energy    3.06646690 # occ.  1.00000000
 
ion      s     py     pz     px    dxy    dyz    dz2    dxz  x2-y2    tot
    1  0.313  0.012  0.000  0.037  0.007  0.000  0.003  0.000  0.002  0.374
    2  0.313  0.012  0.000  0.037  0.007  0.000  0.003  0.000  0.002  0.374
tot    0.625  0.025  0.000  0.074  0.014  0.000  0.005  0.000  0.005  0.748
 
band     2 # energy    6.05357552 # occ.  1.00000000
 
ion      s     py     pz     px    dxy    dyz    dz2    dxz  x2-y2    tot
    1  0.038  0.005  0.000  0.014  0.056  0.000  0.325  0.000  0.019  0.458
    2  0.038  0.005  0.000  0.014  0.056  0.000  0.325  0.000  0.019  0.458
tot    0.076  0.010  0.000  0.029  0.113  0.000  0.651  0.000  0.038  0.916
 
band     3 # energy    7.27102355 # occ.  1.00000000
 
ion      s     py     pz     px    dxy    dyz    dz2    dxz  x2-y2    tot
    1  0.000  0.000  0.062  0.000  0.000  0.096  0.000  0.289  0.000  0.447
    2  0.000  0.000  0.062  0.000  0.000  0.096  0.000  0.289  0.000  0.447
tot    0.000  0.000  0.124  0.000  0.000  0.192  0.000  0.577  0.000  0.894
 
band     4 # energy    7.29485223 # occ.  1.00000000
 
ion      s     py     pz     px    dxy    dyz    dz2    dxz  x2-y2    tot
    1  0.001  0.004  0.000  0.011  0.252  0.000  0.119  0.000  0.084  0.470
    2  0.001  0.004  0.000  0.011  0.252  0.000  0.119  0.000  0.084  0.470
tot    0.001  0.008  0.000  0.023  0.503  0.000  0.237  0.000  0.168  0.940
 
band     5 # energy    7.94767788 # occ.  1.00000000
 
ion      s     py     pz     px    dxy    dyz    dz2    dxz  x2-y2    tot
    1  0.008  0.001  0.000  0.003  0.287  0.000  0.087  0.000  0.096  0.481
    2  0.008  0.001  0.000  0.003  0.287  0.000  0.087  0.000  0.096  0.481
tot    0.015  0.002  0.000  0.005  0.574  0.000  0.175  0.000  0.191  0.962
 
band     6 # energy    8.26591736 # occ.  1.00000000
 
ion      s     py     pz     px    dxy    dyz    dz2    dxz  x2-y2    tot
    1  0.000  0.000  0.000  0.000  0.000  0.365  0.000  0.122  0.000  0.486
    2  0.000  0.000  0.000  0.000  0.000  0.365  0.000  0.122  0.000  0.486
tot    0.000  0.000  0.000  0.000  0.000  0.729  0.000  0.243  0.000  0.972
 
band     7 # energy    8.45682591 # occ.  1.00000000
 
ion      s     py     pz     px    dxy    dyz    dz2    dxz  x2-y2    tot
    1  0.000  0.000  0.029  0.000  0.000  0.112  0.000  0.336  0.000  0.477
    2  0.000  0.000  0.029  0.000  0.000  0.112  0.000  0.336  0.000  0.477
tot    0.000  0.000  0.057  0.000  0.000  0.224  0.000  0.672  0.000  0.953
 
band     8 # energy    8.64376511 # occ.  1.00000000
 
ion      s     py     pz     px    dxy    dyz    dz2    dxz  x2-y2    tot
    1  0.003  0.001  0.000  0.003  0.106  0.000  0.337  0.000  0.035  0.487
    2  0.003  0.001  0.000  0.003  0.106  0.000  0.337  0.000  0.035  0.487
tot    0.007  0.002  0.000  0.006  0.212  0.000  0.675  0.000  0.071  0.973
 
band     9 # energy    8.65478249 # occ.  1.00000000
 
ion      s     py     pz     px    dxy    dyz    dz2    dxz  x2-y2    tot
    1  0.000  0.002  0.000  0.001  0.121  0.000  0.000  0.000  0.362  0.485
    2  0.000  0.002  0.000  0.001  0.121  0.000  0.000  0.000  0.362  0.485
tot    0.000  0.004  0.000  0.001  0.241  0.000  0.000  0.000  0.724  0.971
 
band    10 # energy    8.88507146 # occ.  1.00000000
 
ion      s     py     pz     px    dxy    dyz    dz2    dxz  x2-y2    tot
    1  0.000  0.002  0.000  0.001  0.122  0.000  0.000  0.000  0.365  0.489
    2  0.000  0.002  0.000  0.001  0.122  0.000  0.000  0.000  0.365  0.489
tot    0.000  0.004  0.000  0.001  0.243  0.000  0.000  0.000  0.730  0.979
 
band    11 # energy    9.88319124 # occ.  1.00000000
 
ion      s     py     pz     px    dxy    dyz    dz2    dxz  x2-y2    tot
    1  0.000  0.000  0.000  0.000  0.000  0.371  0.000  0.124  0.000  0.495
    2  0.000  0.000  0.000  0.000  0.000  0.371  0.000  0.124  0.000  0.495
tot    0.000  0.000  0.000  0.000  0.000  0.743  0.000  0.248  0.000  0.990
 
band    12 # energy   14.17367929 # occ.  0.00000000
 
ion      s     py     pz     px    dxy    dyz    dz2    dxz  x2-y2    tot
    1  0.000  0.000  0.240  0.000  0.000  0.043  0.000  0.129  0.000  0.412
    2  0.000  0.000  0.240  0.000  0.000  0.043  0.000  0.129  0.000  0.412
tot    0.000  0.000  0.480  0.000  0.000  0.086  0.000  0.259  0.000  0.824
 
band    13 # energy   17.32479813 # occ.  0.00000000
 
ion      s     py     pz     px    dxy    dyz    dz2    dxz  x2-y2    tot
    1  0.192  0.015  0.000  0.044  0.001  0.000  0.192  0.000  0.000  0.443
    2  0.192  0.015  0.000  0.044  0.001  0.000  0.192  0.000  0.000  0.443
tot    0.384  0.029  0.000  0.087  0.001  0.000  0.385  0.000  0.000  0.887
 
band    14 # energy   24.96821060 # occ.  0.00000000
 
ion      s     py     pz     px    dxy    dyz    dz2    dxz  x2-y2    tot
    1  0.068  0.037  0.000  0.111  0.115  0.000  0.021  0.000  0.038  0.391
    2  0.068  0.037  0.000  0.111  0.115  0.000  0.021  0.000  0.038  0.391
tot    0.135  0.074  0.000  0.223  0.230  0.000  0.043  0.000  0.077  0.782
 
band    15 # energy   29.71338503 # occ.  0.00000000
 
ion      s     py     pz     px    dxy    dyz    dz2    dxz  x2-y2    tot
    1  0.000  0.201  0.000  0.067  0.027  0.000  0.000  0.000  0.081  0.375
    2  0.000  0.201  0.000  0.067  0.027  0.000  0.000  0.000  0.081  0.375
tot    0.000  0.401  0.000  0.134  0.054  0.000  0.000  0.000  0.161  0.750
 
band    16 # energy   31.75270216 # occ.  0.00000000
 
ion      s     py     pz     px    dxy    dyz    dz2    dxz  x2-y2    tot
    1  0.013  0.005  0.000  0.015  0.197  0.000  0.045  0.000  0.066  0.341
    2  0.013  0.005  0.000  0.015  0.197  0.000  0.045  0.000  0.066  0.341
tot    0.025  0.010  0.000  0.031  0.394  0.000  0.091  0.000  0.131  0.682
 

 k-point     5 :    0.28571429 0.00000000 0.00000000     weight = 0.00306122

band     1 # energy    4.07878834 # occ.  1.00000000
 
ion      s     py     pz     px    dxy    dyz    dz2    dxz  x2-y2    tot
    1  0.261  0.018  0.000  0.054  0.029  0.000  0.009  0.000  0.010  0.382
    2  0.261  0.018  0.000  0.054  0.029  0.000  0.009  0.000  0.010  0.382
tot    0.523  0.036  0.000  0.108  0.059  0.000  0.018  0.000  0.020  0.763
 
band     2 # energy    6.14452026 # occ.  1.00000000
 
ion      s     py     pz     px    dxy    dyz    dz2    dxz  x2-y2    tot
    1  0.019  0.003  0.000  0.008  0.162  0.000  0.219  0.000  0.054  0.464
    2  0.019  0.003  0.000  0.008  0.162  0.000  0.219  0.000  0.054  0.464
tot    0.038  0.005  0.000  0.015  0.323  0.000  0.437  0.000  0.108  0.927
 
band     3 # energy    6.71825782 # occ.  1.00000000
 
ion      s     py     pz     px    dxy    dyz    dz2    dxz  x2-y2    tot
    1  0.000  0.000  0.046  0.000  0.000  0.100  0.000  0.300  0.000  0.447
    2  0.000  0.000  0.046  0.000  0.000  0.100  0.000  0.300  0.000  0.447
tot    0.000  0.000  0.093  0.000  0.000  0.200  0.000  0.601  0.000  0.894
 
band     4 # energy    7.27811244 # occ.  1.00000000
 
ion      s     py     pz     px    dxy    dyz    dz2    dxz  x2-y2    tot
    1  0.002  0.011  0.000  0.033  0.205  0.000  0.138  0.000  0.068  0.458
    2  0.002  0.011  0.000  0.033  0.205  0.000  0.138  0.000  0.068  0.458
tot    0.005  0.022  0.000  0.067  0.410  0.000  0.276  0.000  0.137  0.917
 
band     5 # energy    7.94978084 # occ.  1.00000000
 
ion      s     py     pz     px    dxy    dyz    dz2    dxz  x2-y2    tot
    1  0.011  0.002  0.000  0.007  0.196  0.000  0.197  0.000  0.065  0.479
    2  0.011  0.002  0.000  0.007  0.196  0.000  0.197  0.000  0.065  0.479
tot    0.023  0.005  0.000  0.014  0.392  0.000  0.394  0.000  0.131  0.958
 
band     6 # energy    8.08428088 # occ.  1.00000000
 
ion      s     py     pz     px    dxy    dyz    dz2    dxz  x2-y2    tot
    1  0.000  0.000  0.000  0.000  0.000  0.364  0.000  0.121  0.000  0.485
    2  0.000  0.000  0.000  0.000  0.000  0.364  0.000  0.121  0.000  0.485
tot    0.000  0.000  0.000  0.000  0.000  0.727  0.000  0.242  0.000  0.970
 
band     7 # energy    8.28358096 # occ.  1.00000000
 
ion      s     py     pz     px    dxy    dyz    dz2    dxz  x2-y2    tot
    1  0.000  0.000  0.028  0.000  0.000  0.112  0.000  0.336  0.000  0.476
    2  0.000  0.000  0.028  0.000  0.000  0.112  0.000  0.336  0.000  0.476
tot    0.000  0.000  0.055  0.000  0.000  0.224  0.000  0.673  0.000  0.952
 
band     8 # energy    9.09670939 # occ.  1.00000000
 
ion      s     py     pz     px    dxy    dyz    dz2    dxz  x2-y2    tot
    1  0.000  0.002  0.000  0.001  0.121  0.000  0.000  0.000  0.364  0.488
    2  0.000  0.002  0.000  0.001  0.121  0.000  0.000  0.000  0.364  0.488
tot    0.000  0.003  0.000  0.001  0.243  0.000  0.000  0.000  0.728  0.976
 
band     9 # energy    9.12472964 # occ.  1.00000000
 
ion      s     py     pz     px    dxy    dyz    dz2    dxz  x2-y2    tot
    1  0.010  0.003  0.000  0.009  0.103  0.000  0.324  0.000  0.034  0.485
    2  0.010  0.003  0.000  0.009  0.103  0.000  0.324  0.000  0.034  0.485
tot    0.020  0.006  0.000  0.019  0.207  0.000  0.649  0.000  0.069  0.969
 
band    10 # energy    9.27157716 # occ.  1.00000000
 
ion      s     py     pz     px    dxy    dyz    dz2    dxz  x2-y2    tot
    1  0.000  0.002  0.000  0.001  0.122  0.000  0.000  0.000  0.366  0.491
    2  0.000  0.002  0.000  0.001  0.122  0.000  0.000  0.000  0.366  0.491
tot    0.000  0.005  0.000  0.002  0.244  0.000  0.000  0.000  0.732  0.982
 
band    11 # energy    9.92664601 # occ.  1.00000000
 
ion      s     py     pz     px    dxy    dyz    dz2    dxz  x2-y2    tot
    1  0.000  0.000  0.000  0.000  0.000  0.372  0.000  0.124  0.000  0.496
    2  0.000  0.000  0.000  0.000  0.000  0.372  0.000  0.124  0.000  0.496
tot    0.000  0.000  0.000  0.000  0.000  0.744  0.000  0.248  0.000  0.992
 
band    12 # energy   15.81000814 # occ.  0.00000000
 
ion      s     py     pz     px    dxy    dyz    dz2    dxz  x2-y2    tot
    1  0.000  0.000  0.244  0.000  0.000  0.042  0.000  0.127  0.000  0.413
    2  0.000  0.000  0.244  0.000  0.000  0.042  0.000  0.127  0.000  0.413
tot    0.000  0.000  0.487  0.000  0.000  0.085  0.000  0.254  0.000  0.826
 
band    13 # energy   17.59391046 # occ.  0.00000000
 
ion      s     py     pz     px    dxy    dyz    dz2    dxz  x2-y2    tot
    1  0.134  0.033  0.000  0.099  0.000  0.000  0.166  0.000  0.000  0.432
    2  0.134  0.033  0.000  0.099  0.000  0.000  0.166  0.000  0.000  0.432
tot    0.268  0.066  0.000  0.197  0.000  0.000  0.333  0.000  0.000  0.863
 
band    14 # energy   21.97003474 # occ.  0.00000000
 
ion      s     py     pz     px    dxy    dyz    dz2    dxz  x2-y2    tot
    1  0.134  0.028  0.000  0.084  0.108  0.000  0.014  0.000  0.036  0.404
    2  0.134  0.028  0.000  0.084  0.108  0.000  0.014  0.000  0.036  0.404
tot    0.269  0.056  0.000  0.168  0.216  0.000  0.028  0.000  0.072  0.808
 
band    15 # energy   28.07405779 # occ.  0.00000000
 
ion      s     py     pz     px    dxy    dyz    dz2    dxz  x2-y2    tot
    1  0.000  0.216  0.000  0.072  0.017  0.000  0.000  0.000  0.051  0.357
    2  0.000  0.216  0.000  0.072  0.017  0.000  0.000  0.000  0.051  0.357
tot    0.000  0.432  0.000  0.144  0.034  0.000  0.000  0.000  0.103  0.713
 
band    16 # energy   29.42795461 # occ.  0.00000000
 
ion      s     py     pz     px    dxy    dyz    dz2    dxz  x2-y2    tot
    1  0.000  0.000  0.085  0.000  0.000  0.062  0.000  0.186  0.000  0.332
    2  0.000  0.000  0.085  0.000  0.000  0.062  0.000  0.186  0.000  0.332
tot    0.000  0.000  0.169  0.000  0.000  0.124  0.000  0.371  0.000  0.664
 

 k-point     6 :    0.35714286-0.00000000 0.00000000     weight = 0.00306122

band     1 # energy    5.00851611 # occ.  1.00000000
 
ion      s     py     pz     px    dxy    dyz    dz2    dxz  x2-y2    tot
    1  0.183  0.017  0.000  0.051  0.098  0.000  0.021  0.000  0.033  0.403
    2  0.183  0.017  0.000  0.051  0.098  0.000  0.021  0.000  0.033  0.403
tot    0.366  0.034  0.000  0.102  0.197  0.000  0.043  0.000  0.066  0.807
 
band     2 # energy    6.00596948 # occ.  1.00000000
 
ion      s     py     pz     px    dxy    dyz    dz2    dxz  x2-y2    tot
    1  0.016  0.001  0.000  0.002  0.229  0.000  0.140  0.000  0.076  0.464
    2  0.016  0.001  0.000  0.002  0.229  0.000  0.140  0.000  0.076  0.464
tot    0.031  0.001  0.000  0.004  0.459  0.000  0.280  0.000  0.153  0.928