<?xml version="1.0" encoding="ISO-8859-1"?>
<modeling>
 <generator>
  <i name="program" type="string">vasp </i>
  <i name="version" type="string">6.3.2  </i>
  <i name="subversion" type="string">27Jun22 (build Aug 12 2022 00:53:59) complex                          parallel </i>
  <i name="platform" type="string">tv2STD </i>
  <i name="date" type="string">2024 11 30 </i>
  <i name="time" type="string">15:36:17 </i>
 </generator>
 <incar>
  <i type="string" name="SYSTEM">Co-hcc</i>
  <i type="int" name="ISTART">     0</i>
  <i type="string" name="PREC">Accurate      normal | accurate</i>
  <i type="string" name="ALGO">Normal     Normal, Fast, Very_Fast</i>
  <i type="logical" name="ADDGRID"> F  </i>
  <i type="int" name="ISPIN">     2</i>
  <i type="int" name="ICHARG">     2</i>
  <i type="int" name="INIWAV">     1</i>
  <i type="int" name="NELM">   100</i>
  <i type="int" name="IBRION">    -1</i>
  <i name="EDIFF">      0.00000100</i>
  <i name="EDIFFG">     -0.02000000</i>
  <i type="int" name="NSW">     0</i>
  <i type="int" name="ISIF">     2</i>
  <i type="int" name="ISYM">     1</i>
  <i name="ENCUT">    400.00000000</i>
  <v name="MAGMOM">      3.00000000      3.00000000</v>
  <i type="logical" name="LREAL"> F  </i>
  <i type="int" name="ISMEAR">     0</i>
  <i name="SIGMA">      0.05000000</i>
  <i type="int" name="NWRITE">     2</i>
  <i type="logical" name="LWAVE"> F  </i>
  <i type="logical" name="LCHARG"> F  </i>
 </incar>
 <primitive_cell>
  <structure name="primitive_cell" >
   <crystal>
    <varray name="basis" >
     <v>       2.47000000       0.00000000       0.00000000 </v>
     <v>      -1.23500000       2.13908275       0.00000000 </v>
     <v>       0.00000000       0.00000000       8.09000000 </v>
    </varray>
    <i name="volume">     42.74379318 </i>
    <varray name="rec_basis" >
     <v>       0.40485830       0.23374505       0.00000000 </v>
     <v>       0.00000000       0.46749010       0.00000000 </v>
     <v>       0.00000000       0.00000000       0.12360939 </v>
    </varray>
   </crystal>
   <varray name="positions" >
    <v>       0.00000000       0.00000000       0.00000000 </v>
    <v>       0.33333333       0.66666667       0.50000000 </v>
   </varray>
  </structure>
  <varray name="primitive_index" >
   <v type="int" >        1 </v>
   <v type="int" >        2 </v>
  </varray>
 </primitive_cell>
 <kpoints>
  <generation param="Gamma">
   <v type="int" name="divisions">      14       14       10 </v>
   <v name="usershift">      0.00000000       0.00000000       0.00000000 </v>
   <v name="genvec1">      0.07142857      -0.00000000       0.00000000 </v>
   <v name="genvec2">      0.00000000       0.07142857       0.00000000 </v>
   <v name="genvec3">      0.00000000       0.00000000       0.10000000 </v>
   <v name="shift">      0.00000000       0.00000000       0.00000000 </v>
  </generation>
  <varray name="kpointlist" >
   <v>       0.00000000       0.00000000       0.00000000 </v>
   <v>       0.07142857      -0.00000000       0.00000000 </v>
   <v>       0.14285714       0.00000000       0.00000000 </v>
   <v>       0.21428571       0.00000000       0.00000000 </v>
   <v>       0.28571429       0.00000000       0.00000000 </v>
   <v>       0.35714286       0.00000000       0.00000000 </v>
   <v>       0.42857143       0.00000000       0.00000000 </v>
   <v>       0.50000000       0.00000000       0.00000000 </v>
   <v>       0.07142857       0.07142857       0.00000000 </v>
   <v>       0.14285714       0.07142857       0.00000000 </v>
   <v>       0.21428571       0.07142857       0.00000000 </v>
   <v>       0.28571429       0.07142857       0.00000000 </v>
   <v>       0.35714286       0.07142857       0.00000000 </v>
   <v>       0.42857143       0.07142857       0.00000000 </v>
   <v>       0.14285714       0.14285714       0.00000000 </v>
   <v>       0.21428571       0.14285714       0.00000000 </v>
   <v>       0.28571429       0.14285714       0.00000000 </v>
   <v>       0.35714286       0.14285714       0.00000000 </v>
   <v>       0.42857143       0.14285714       0.00000000 </v>
   <v>       0.21428571       0.21428571       0.00000000 </v>
   <v>       0.28571429       0.21428571       0.00000000 </v>
   <v>       0.35714286       0.21428571       0.00000000 </v>
   <v>       0.28571429       0.28571429       0.00000000 </v>
   <v>       0.35714286       0.28571429       0.00000000 </v>
   <v>       0.00000000       0.00000000       0.10000000 </v>
   <v>       0.07142857      -0.00000000       0.10000000 </v>
   <v>       0.14285714       0.00000000       0.10000000 </v>
   <v>       0.21428571       0.00000000       0.10000000 </v>
   <v>       0.28571429       0.00000000       0.10000000 </v>
   <v>       0.35714286       0.00000000       0.10000000 </v>
   <v>       0.42857143       0.00000000       0.10000000 </v>
   <v>       0.50000000       0.00000000       0.10000000 </v>
   <v>       0.07142857       0.07142857       0.10000000 </v>
   <v>       0.14285714       0.07142857       0.10000000 </v>
   <v>       0.21428571       0.07142857       0.10000000 </v>
   <v>       0.28571429       0.07142857       0.10000000 </v>
   <v>       0.35714286       0.07142857       0.10000000 </v>
   <v>       0.42857143       0.07142857       0.10000000 </v>
   <v>       0.14285714       0.14285714       0.10000000 </v>
   <v>       0.21428571       0.14285714       0.10000000 </v>
   <v>       0.28571429       0.14285714       0.10000000 </v>
   <v>       0.35714286       0.14285714       0.10000000 </v>
   <v>       0.42857143       0.14285714       0.10000000 </v>
   <v>       0.21428571       0.21428571       0.10000000 </v>
   <v>       0.28571429       0.21428571       0.10000000 </v>
   <v>       0.35714286       0.21428571       0.10000000 </v>
   <v>       0.28571429       0.28571429       0.10000000 </v>
   <v>       0.35714286       0.28571429       0.10000000 </v>
   <v>       0.00000000       0.00000000       0.20000000 </v>
   <v>       0.07142857      -0.00000000       0.20000000 </v>
   <v>       0.14285714       0.00000000       0.20000000 </v>
   <v>       0.21428571       0.00000000       0.20000000 </v>
   <v>       0.28571429       0.00000000       0.20000000 </v>
   <v>       0.35714286       0.00000000       0.20000000 </v>
   <v>       0.42857143       0.00000000       0.20000000 </v>
   <v>       0.50000000       0.00000000       0.20000000 </v>
   <v>       0.07142857       0.07142857       0.20000000 </v>
   <v>       0.14285714       0.07142857       0.20000000 </v>
   <v>       0.21428571       0.07142857       0.20000000 </v>
   <v>       0.28571429       0.07142857       0.20000000 </v>
   <v>       0.35714286       0.07142857       0.20000000 </v>
   <v>       0.42857143       0.07142857       0.20000000 </v>
   <v>       0.14285714       0.14285714       0.20000000 </v>
   <v>       0.21428571       0.14285714       0.20000000 </v>
   <v>       0.28571429       0.14285714       0.20000000 </v>
   <v>       0.35714286       0.14285714       0.20000000 </v>
   <v>       0.42857143       0.14285714       0.20000000 </v>
   <v>       0.21428571       0.21428571       0.20000000 </v>
   <v>       0.28571429       0.21428571       0.20000000 </v>
   <v>       0.35714286       0.21428571       0.20000000 </v>
   <v>       0.28571429       0.28571429       0.20000000 </v>
   <v>       0.35714286       0.28571429       0.20000000 </v>
   <v>       0.00000000       0.00000000       0.30000000 </v>
   <v>       0.07142857      -0.00000000       0.30000000 </v>
   <v>       0.14285714       0.00000000       0.30000000 </v>
   <v>       0.21428571       0.00000000       0.30000000 </v>
   <v>       0.28571429       0.00000000       0.30000000 </v>
   <v>       0.35714286       0.00000000       0.30000000 </v>
   <v>       0.42857143       0.00000000       0.30000000 </v>
   <v>       0.50000000       0.00000000       0.30000000 </v>
   <v>       0.07142857       0.07142857       0.30000000 </v>
   <v>       0.14285714       0.07142857       0.30000000 </v>
   <v>       0.21428571       0.07142857       0.30000000 </v>
   <v>       0.28571429       0.07142857       0.30000000 </v>
   <v>       0.35714286       0.07142857       0.30000000 </v>
   <v>       0.42857143       0.07142857       0.30000000 </v>
   <v>       0.14285714       0.14285714       0.30000000 </v>
   <v>       0.21428571       0.14285714       0.30000000 </v>
   <v>       0.28571429       0.14285714       0.30000000 </v>
   <v>       0.35714286       0.14285714       0.30000000 </v>
   <v>       0.42857143       0.14285714       0.30000000 </v>
   <v>       0.21428571       0.21428571       0.30000000 </v>
   <v>       0.28571429       0.21428571       0.30000000 </v>
   <v>       0.35714286       0.21428571       0.30000000 </v>
   <v>       0.28571429       0.28571429       0.30000000 </v>
   <v>       0.35714286       0.28571429       0.30000000 </v>
   <v>       0.00000000       0.00000000       0.40000000 </v>
   <v>       0.07142857      -0.00000000       0.40000000 </v>
   <v>       0.14285714       0.00000000       0.40000000 </v>
   <v>       0.21428571       0.00000000       0.40000000 </v>
   <v>       0.28571429       0.00000000       0.40000000 </v>
   <v>       0.35714286       0.00000000       0.40000000 </v>
   <v>       0.42857143       0.00000000       0.40000000 </v>
   <v>       0.50000000       0.00000000       0.40000000 </v>
   <v>       0.07142857       0.07142857       0.40000000 </v>
   <v>       0.14285714       0.07142857       0.40000000 </v>
   <v>       0.21428571       0.07142857       0.40000000 </v>
   <v>       0.28571429       0.07142857       0.40000000 </v>
   <v>       0.35714286       0.07142857       0.40000000 </v>
   <v>       0.42857143       0.07142857       0.40000000 </v>
   <v>       0.14285714       0.14285714       0.40000000 </v>
   <v>       0.21428571       0.14285714       0.40000000 </v>
   <v>       0.28571429       0.14285714       0.40000000 </v>
   <v>       0.35714286       0.14285714       0.40000000 </v>
   <v>       0.42857143       0.14285714       0.40000000 </v>
   <v>       0.21428571       0.21428571       0.40000000 </v>
   <v>       0.28571429       0.21428571       0.40000000 </v>
   <v>       0.35714286       0.21428571       0.40000000 </v>
   <v>       0.28571429       0.28571429       0.40000000 </v>
   <v>       0.35714286       0.28571429       0.40000000 </v>
   <v>       0.00000000       0.00000000       0.50000000 </v>
   <v>       0.07142857      -0.00000000       0.50000000 </v>
   <v>       0.14285714       0.00000000       0.50000000 </v>
   <v>       0.21428571       0.00000000       0.50000000 </v>
   <v>       0.28571429       0.00000000       0.50000000 </v>
   <v>       0.35714286       0.00000000       0.50000000 </v>
   <v>       0.42857143       0.00000000       0.50000000 </v>
   <v>       0.50000000       0.00000000       0.50000000 </v>
   <v>       0.07142857       0.07142857       0.50000000 </v>
   <v>       0.14285714       0.07142857       0.50000000 </v>
   <v>       0.21428571       0.07142857       0.50000000 </v>
   <v>       0.28571429       0.07142857       0.50000000 </v>
   <v>       0.35714286       0.07142857       0.50000000 </v>
   <v>       0.42857143       0.07142857       0.50000000 </v>
   <v>       0.14285714       0.14285714       0.50000000 </v>
   <v>       0.21428571       0.14285714       0.50000000 </v>
   <v>       0.28571429       0.14285714       0.50000000 </v>
   <v>       0.35714286       0.14285714       0.50000000 </v>
   <v>       0.42857143       0.14285714       0.50000000 </v>
   <v>       0.21428571       0.21428571       0.50000000 </v>
   <v>       0.28571429       0.21428571       0.50000000 </v>
   <v>       0.35714286       0.21428571       0.50000000 </v>
   <v>       0.28571429       0.28571429       0.50000000 </v>
   <v>       0.35714286       0.28571429       0.50000000 </v>
  </varray>
  <varray name="weights" >
   <v>       0.00051020 </v>
   <v>       0.00306122 </v>
   <v>       0.00306122 </v>
   <v>       0.00306122 </v>
   <v>       0.00306122 </v>
   <v>       0.00306122 </v>
   <v>       0.00306122 </v>
   <v>       0.00153061 </v>
   <v>       0.00306122 </v>
   <v>       0.00612245 </v>
   <v>       0.00612245 </v>
   <v>       0.00612245 </v>
   <v>       0.00612245 </v>
   <v>       0.00612245 </v>
   <v>       0.00306122 </v>
   <v>       0.00612245 </v>
   <v>       0.00612245 </v>
   <v>       0.00612245 </v>
   <v>       0.00306122 </v>
   <v>       0.00306122 </v>
   <v>       0.00612245 </v>
   <v>       0.00612245 </v>
   <v>       0.00306122 </v>
   <v>       0.00306122 </v>
   <v>       0.00102041 </v>
   <v>       0.00612245 </v>
   <v>       0.00612245 </v>
   <v>       0.00612245 </v>
   <v>       0.00612245 </v>
   <v>       0.00612245 </v>
   <v>       0.00612245 </v>
   <v>       0.00306122 </v>
   <v>       0.00612245 </v>
   <v>       0.01224490 </v>
   <v>       0.01224490 </v>
   <v>       0.01224490 </v>
   <v>       0.01224490 </v>
   <v>       0.01224490 </v>
   <v>       0.00612245 </v>
   <v>       0.01224490 </v>
   <v>       0.01224490 </v>
   <v>       0.01224490 </v>
   <v>       0.00612245 </v>
   <v>       0.00612245 </v>
   <v>       0.01224490 </v>
   <v>       0.01224490 </v>
   <v>       0.00612245 </v>
   <v>       0.00612245 </v>
   <v>       0.00102041 </v>
   <v>       0.00612245 </v>
   <v>       0.00612245 </v>
   <v>       0.00612245 </v>
   <v>       0.00612245 </v>
   <v>       0.00612245 </v>
   <v>       0.00612245 </v>
   <v>       0.00306122 </v>
   <v>       0.00612245 </v>
   <v>       0.01224490 </v>
   <v>       0.01224490 </v>
   <v>       0.01224490 </v>
   <v>       0.01224490 </v>
   <v>       0.01224490 </v>
   <v>       0.00612245 </v>
   <v>       0.01224490 </v>
   <v>       0.01224490 </v>
   <v>       0.01224490 </v>
   <v>       0.00612245 </v>
   <v>       0.00612245 </v>
   <v>       0.01224490 </v>
   <v>       0.01224490 </v>
   <v>       0.00612245 </v>
   <v>       0.00612245 </v>
   <v>       0.00102041 </v>
   <v>       0.00612245 </v>
   <v>       0.00612245 </v>
   <v>       0.00612245 </v>
   <v>       0.00612245 </v>
   <v>       0.00612245 </v>
   <v>       0.00612245 </v>
   <v>       0.00306122 </v>
   <v>       0.00612245 </v>
   <v>       0.01224490 </v>
   <v>       0.01224490 </v>
   <v>       0.01224490 </v>
   <v>       0.01224490 </v>
   <v>       0.01224490 </v>
   <v>       0.00612245 </v>
   <v>       0.01224490 </v>
   <v>       0.01224490 </v>
   <v>       0.01224490 </v>
   <v>       0.00612245 </v>
   <v>       0.00612245 </v>
   <v>       0.01224490 </v>
   <v>       0.01224490 </v>
   <v>       0.00612245 </v>
   <v>       0.00612245 </v>
   <v>       0.00102041 </v>
   <v>       0.00612245 </v>
   <v>       0.00612245 </v>
   <v>       0.00612245 </v>
   <v>       0.00612245 </v>
   <v>       0.00612245 </v>
   <v>       0.00612245 </v>
   <v>       0.00306122 </v>
   <v>       0.00612245 </v>
   <v>       0.01224490 </v>
   <v>       0.01224490 </v>
   <v>       0.01224490 </v>
   <v>       0.01224490 </v>
   <v>       0.01224490 </v>
   <v>       0.00612245 </v>
   <v>       0.01224490 </v>
   <v>       0.01224490 </v>
   <v>       0.01224490 </v>
   <v>       0.00612245 </v>
   <v>       0.00612245 </v>
   <v>       0.01224490 </v>
   <v>       0.01224490 </v>
   <v>       0.00612245 </v>
   <v>       0.00612245 </v>
   <v>       0.00051020 </v>
   <v>       0.00306122 </v>
   <v>       0.00306122 </v>
   <v>       0.00306122 </v>
   <v>       0.00306122 </v>
   <v>       0.00306122 </v>
   <v>       0.00306122 </v>
   <v>       0.00153061 </v>
   <v>       0.00306122 </v>
   <v>       0.00612245 </v>
   <v>       0.00612245 </v>
   <v>       0.00612245 </v>
   <v>       0.00612245 </v>
   <v>       0.00612245 </v>
   <v>       0.00306122 </v>
   <v>       0.00612245 </v>
   <v>       0.00612245 </v>
   <v>       0.00612245 </v>
   <v>       0.00306122 </v>
   <v>       0.00306122 </v>
   <v>       0.00612245 </v>
   <v>       0.00612245 </v>
   <v>       0.00306122 </v>
   <v>       0.00306122 </v>
  </varray>
 </kpoints>
 <parameters>
  <separator name="general" >
   <i type="string" name="SYSTEM">Co-hcc</i>
   <i type="logical" name="LCOMPAT"> F  </i>
  </separator>
  <separator name="electronic" >
   <i type="string" name="PREC">accura</i>
   <i name="ENMAX">    400.00000000</i>
   <i name="ENAUG">    477.81800000</i>
   <i name="EDIFF">      0.00000100</i>
   <i type="int" name="IALGO">    38</i>
   <i type="int" name="IWAVPR">    10</i>
   <i type="int" name="NBANDS">    16</i>
   <i type="int" name="NBANDSLOW">    -1</i>
   <i type="int" name="NBANDSHIGH">    -1</i>
   <i name="NELECT">     18.00000000</i>
   <i type="int" name="TURBO">     0</i>
   <i type="int" name="IRESTART">     0</i>
   <i type="int" name="NREBOOT">     0</i>
   <i type="int" name="NMIN">     0</i>
   <i name="EREF">      0.00000000</i>
   <separator name="electronic smearing" >
    <i type="int" name="ISMEAR">     0</i>
    <i name="SIGMA">      0.05000000</i>
    <i name="KSPACING">      0.50000000</i>
    <i type="logical" name="KGAMMA"> T  </i>
    <i type="logical" name="KBLOWUP"> T  </i>
   </separator>
   <separator name="electronic projectors" >
    <i type="logical" name="LREAL"> F  </i>
    <v name="ROPT">      0.00000000</v>
    <i type="int" name="LMAXPAW">  -100</i>
    <i type="int" name="LMAXMIX">     2</i>
    <i type="logical" name="NLSPLINE"> F  </i>
   </separator>
   <separator name="electronic startup" >
    <i type="int" name="ISTART">     0</i>
    <i type="int" name="ICHARG">     2</i>
    <i type="int" name="INIWAV">     1</i>
   </separator>
   <separator name="electronic spin" >
    <i type="int" name="ISPIN">     2</i>
    <i type="logical" name="LNONCOLLINEAR"> F  </i>
    <v name="MAGMOM">      3.00000000      3.00000000</v>
    <i name="NUPDOWN">     -1.00000000</i>
    <i type="logical" name="LSORBIT"> F  </i>
    <v name="SAXIS">      0.00000000      0.00000000      1.00000000</v>
    <i type="logical" name="LSPIRAL"> F  </i>
    <v name="QSPIRAL">      0.00000000      0.00000000      0.00000000</v>
    <i type="logical" name="LZEROZ"> F  </i>
   </separator>
   <separator name="electronic exchange-correlation" >
    <i type="logical" name="LASPH"> F  </i>
    <i type="logical" name="LMETAGGA"> F  </i>
   </separator>
   <separator name="electronic convergence" >
    <i type="int" name="NELM">   100</i>
    <i type="int" name="NELMDL">    -5</i>
    <i type="int" name="NELMIN">     2</i>
    <i name="ENINI">    400.00000000</i>
    <separator name="electronic convergence detail" >
     <i type="logical" name="LDIAG"> T  </i>
     <i type="logical" name="LSUBROT"> F  </i>
     <i name="WEIMIN">      0.00000000</i>
     <i name="EBREAK">      0.00000002</i>
     <i name="DEPER">      0.30000000</i>
     <i type="int" name="NRMM">     4</i>
     <i name="TIME">      0.40000000</i>
    </separator>
   </separator>
   <separator name="electronic mixer" >
    <i name="AMIX">      0.40000000</i>
    <i name="BMIX">      1.00000000</i>
    <i name="AMIN">      0.10000000</i>
    <i name="AMIX_MAG">      1.60000000</i>
    <i name="BMIX_MAG">      1.00000000</i>
    <separator name="electronic mixer details" >
     <i type="int" name="IMIX">     4</i>
     <i type="logical" name="MIXFIRST"> F  </i>
     <i type="int" name="MAXMIX">   -45</i>
     <i name="WC">    100.00000000</i>
     <i type="int" name="INIMIX">     1</i>
     <i type="int" name="MIXPRE">     1</i>
     <i type="int" name="MREMOVE">     5</i>
    </separator>
   </separator>
   <separator name="electronic dipolcorrection" >
    <i type="logical" name="LDIPOL"> F  </i>
    <i type="logical" name="LMONO"> F  </i>
    <i type="int" name="IDIPOL">     0</i>
    <i name="EPSILON">      1.00000000</i>
    <v name="DIPOL">   -100.00000000   -100.00000000   -100.00000000</v>
    <i name="EFIELD">      0.00000000</i>
   </separator>
  </separator>
  <separator name="grids" >
   <i type="int" name="NGX">    16</i>
   <i type="int" name="NGY">    16</i>
   <i type="int" name="NGZ">    54</i>
   <i type="int" name="NGXF">    32</i>
   <i type="int" name="NGYF">    32</i>
   <i type="int" name="NGZF">   108</i>
   <i type="logical" name="ADDGRID"> F  </i>
  </separator>
  <separator name="ionic" >
   <i type="int" name="NSW">     0</i>
   <i type="int" name="IBRION">    -1</i>
   <i type="int" name="MDALGO">     0</i>
   <i type="int" name="ISIF">     2</i>
   <i name="PSTRESS">      0.00000000</i>
   <i name="EDIFFG">     -0.02000000</i>
   <i type="int" name="NFREE">     0</i>
   <i name="POTIM">      0.50000000</i>
   <i name="SMASS">     -3.00000000</i>
   <i name="SCALEE">      1.00000000</i>
  </separator>
  <separator name="ionic md" >
   <i name="TEBEG">      0.00010000</i>
   <i name="TEEND">      0.00010000</i>
   <i type="int" name="NBLOCK">     1</i>
   <i type="int" name="KBLOCK">     1</i>
   <i type="int" name="NPACO">   256</i>
   <i name="APACO">     10.00000000</i>
  </separator>
  <separator name="symmetry" >
   <i type="int" name="ISYM">     1</i>
   <i name="SYMPREC">      0.00001000</i>
  </separator>
  <separator name="dos" >
   <i type="int" name="LORBIT">     0</i>
   <v name="RWIGS">     -1.00000000</v>
   <i type="int" name="NEDOS">   301</i>
   <i name="EMIN">     10.00000000</i>
   <i name="EMAX">    -10.00000000</i>
   <i name="EFERMI">      0.00000000</i>
  </separator>
  <separator name="writing" >
   <i type="int" name="NWRITE">     2</i>
   <i type="logical" name="LWAVE"> F  </i>
   <i type="logical" name="LDOWNSAMPLE"> F  </i>
   <i type="logical" name="LCHARG"> F  </i>
   <i type="logical" name="LPARD"> F  </i>
   <i type="logical" name="LVTOT"> F  </i>
   <i type="logical" name="LVHAR"> F  </i>
   <i type="logical" name="LELF"> F  </i>
   <i type="logical" name="LOPTICS"> F  </i>
   <v name="STM">      0.00000000      0.00000000      0.00000000      0.00000000      0.00000000      0.00000000      0.00000000</v>
  </separator>
  <separator name="performance" >
   <i type="int" name="NPAR">     4</i>
   <i type="int" name="NSIM">     4</i>
   <i type="int" name="NBLK">    -1</i>
   <i type="logical" name="LPLANE"> T  </i>
   <i type="logical" name="LSCALAPACK"> T  </i>
   <i type="logical" name="LSCAAWARE"> F  </i>
   <i type="logical" name="LSCALU"> F  </i>
   <i type="logical" name="LASYNC"> F  </i>
   <i type="logical" name="LORBITALREAL"> F  </i>
  </separator>
  <separator name="miscellaneous" >
   <i type="int" name="IDIOT">     3</i>
   <i type="int" name="PHON_NSTRUCT">    -1</i>
   <i type="logical" name="LMUSIC"> F  </i>
   <v name="POMASS">     58.93300000</v>
   <v name="DARWINR">      0.00000000</v>
   <v name="DARWINV">      1.00000000</v>
   <i type="logical" name="LCORR"> T  </i>
  </separator>
  <i type="logical" name="GGA_COMPAT"> T  </i>
  <i type="logical" name="LBERRY"> F  </i>
  <i type="int" name="ICORELEVEL">     0</i>
  <i type="logical" name="LDAU"> F  </i>
  <i type="int" name="I_CONSTRAINED_M">     0</i>
  <separator name="electronic exchange-correlation" >
   <i type="string" name="GGA">--</i>
   <i type="int" name="VOSKOWN">     0</i>
   <i type="logical" name="LHFCALC"> F  </i>
   <i type="string" name="PRECFOCK"></i>
   <i type="logical" name="LSYMGRAD"> F  </i>
   <i type="logical" name="LHFONE"> F  </i>
   <i type="logical" name="LRHFCALC"> F  </i>
   <i type="logical" name="LTHOMAS"> F  </i>
   <i type="logical" name="LMODELHF"> F  </i>
   <i type="logical" name="LFOCKACE"> F  </i>
   <i name="ENCUT4O">     -1.00000000</i>
   <i type="int" name="EXXOEP">     0</i>
   <i type="int" name="FOURORBIT">     0</i>
   <i name="AEXX">      0.00000000</i>
   <i name="HFALPHA">      0.00000000</i>
   <i name="MCALPHA">      0.00000000</i>
   <i name="ALDAX">      1.00000000</i>
   <i name="AGGAX">      1.00000000</i>
   <i name="ALDAC">      1.00000000</i>
   <i name="AGGAC">      1.00000000</i>
   <i type="int" name="NKREDX">     1</i>
   <i type="int" name="NKREDY">     1</i>
   <i type="int" name="NKREDZ">     1</i>
   <i type="logical" name="SHIFTRED"> F  </i>
   <i type="logical" name="ODDONLY"> F  </i>
   <i type="logical" name="EVENONLY"> F  </i>
   <i type="int" name="LMAXFOCK">     0</i>
   <i type="int" name="NMAXFOCKAE">     0</i>
   <i type="logical" name="LFOCKAEDFT"> F  </i>
   <i name="HFSCREEN">      0.00000000</i>
   <i name="HFSCREENC">      0.00000000</i>
   <i type="int" name="NBANDSGWLOW">     0</i>
  </separator>
  <separator name="vdW DFT" >
   <i type="logical" name="LUSE_VDW"> F  </i>
   <i name="Zab_VDW">     -0.84910000</i>
   <i name="PARAM1">      0.12340000</i>
   <i name="PARAM2">      1.00000000</i>
   <i name="PARAM3">      0.00000000</i>
  </separator>
  <separator name="model GW" >
   <i type="int" name="MODEL_GW">     0</i>
   <i name="MODEL_EPS0">     12.82313795</i>
   <i name="MODEL_ALPHA">      1.00000000</i>
  </separator>
  <separator name="linear response parameters" >
   <i type="logical" name="LEPSILON"> F  </i>
   <i type="logical" name="LRPA"> F  </i>
   <i type="logical" name="LNABLA"> F  </i>
   <i type="logical" name="LVEL"> F  </i>
   <i name="CSHIFT">      0.10000000</i>
   <i name="OMEGAMAX">     -1.00000000</i>
   <i name="DEG_THRESHOLD">      0.00200000</i>
   <i name="RTIME">     -0.10000000</i>
   <i name="WPLASMAI">      0.00000000</i>
   <v name="DFIELD">      0.00000000      0.00000000      0.00000000</v>
   <v name="WPLASMA">      0.00000000      0.00000000      0.00000000      0.00000000      0.00000000      0.00000000      0.00000000      0.00000000      0.00000000</v>
  </separator>
  <separator name="orbital magnetization" >
   <i type="logical" name="NUCIND"> F  </i>
   <v name="MAGPOS">      0.00000000      0.00000000      0.00000000</v>
   <i type="logical" name="LNICSALL"> T  </i>
   <i type="logical" name="ORBITALMAG"> F  </i>
   <i type="logical" name="LMAGBLOCH"> F  </i>
   <i type="logical" name="LCHIMAG"> F  </i>
   <i type="logical" name="LGAUGE"> T  </i>
   <i type="int" name="MAGATOM">     0</i>
   <v name="MAGDIPOL">      0.00000000      0.00000000      0.00000000</v>
   <v name="AVECCONST">      0.00000000      0.00000000      0.00000000</v>
  </separator>
  <separator name="response functions" >
   <i type="logical" name="LFINITE_TEMPERATURE"> F  </i>
   <i type="logical" name="LADDER"> F  </i>
   <i type="logical" name="LRPAFORCE"> F  </i>
   <i type="logical" name="LFXC"> F  </i>
   <i type="logical" name="LHARTREE"> T  </i>
   <i type="int" name="IBSE">     0</i>
   <v type="int" name="KPOINT">    -1     0     0     0</v>
   <i type="logical" name="LTCTC"> F  </i>
   <i type="logical" name="LTCTE"> F  </i>
   <i type="logical" name="LTETE"> F  </i>
   <i type="logical" name="LTRIPLET"> F  </i>
   <i type="logical" name="LFXCEPS"> F  </i>
   <i type="logical" name="LFXHEG"> F  </i>
   <i type="int" name="NATURALO">     2</i>
   <i type="logical" name="LHOLEGF"> F  </i>
   <i type="logical" name="L2ORDER"> F  </i>
   <i type="logical" name="LDMP1"> F  </i>
   <i type="logical" name="LMP2LT"> F  </i>
   <i type="logical" name="LSMP2LT"> F  </i>
   <i type="logical" name="LGWLF"> F  </i>
   <i name="ENCUTGW">     -2.00000000</i>
   <i name="ENCUTGWSOFT">     -2.00000000</i>
   <i name="ENCUTLF">     -1.00000000</i>
   <i type="logical" name="LESF_SPLINES"> F  </i>
   <i type="int" name="LMAXMP2">    -1</i>
   <i name="SCISSOR">      0.00000000</i>
   <i type="int" name="NOMEGA">     0</i>
   <i type="int" name="NOMEGAR">     0</i>
   <i type="int" name="NBANDSGW">    -1</i>
   <i type="int" name="NBANDSO">    -1</i>
   <i type="int" name="NBANDSV">    -1</i>
   <i type="int" name="NELMGW">     1</i>
   <i type="int" name="NELMHF">     1</i>
   <i type="int" name="DIM">     3</i>
   <i type="int" name="IESPILON">     4</i>
   <i type="int" name="ANTIRES">     0</i>
   <i name="OMEGAMAX">    -30.00000000</i>
   <i name="OMEGAMIN">    -30.00000000</i>
   <i name="OMEGATL">   -200.00000000</i>
   <i type="int" name="OMEGAGRID">     0</i>
   <i name="CSHIFT">     -0.10000000</i>
   <i type="logical" name="LSELFENERGY"> F  </i>
   <i type="logical" name="LSPECTRAL"> F  </i>
   <i type="logical" name="LSPECTRALGW"> F  </i>
   <i type="logical" name="LSINGLES"> F  </i>
   <i type="logical" name="LFERMIGW"> F  </i>
   <i type="logical" name="ODDONLYGW"> F  </i>
   <i type="logical" name="EVENONLYGW"> F  </i>
   <i type="int" name="NKREDLFX">     1</i>
   <i type="int" name="NKREDLFY">     1</i>
   <i type="int" name="NKREDLFZ">     1</i>
   <i type="int" name="MAXMEM">  2800</i>
   <i type="int" name="TELESCOPE">     0</i>
   <i type="int" name="NTAUPAR">    -1</i>
   <i type="int" name="NOMEGAPAR">    -1</i>
   <i name="DAMP_NEWTON">      0.80000001</i>
   <i name="LAMBDA">      1.00000000</i>
  </separator>
  <separator name="External order field" >
   <i name="OFIELD_KAPPA">      0.00000000</i>
   <v name="OFIELD_K">      0.00000000      0.00000000      0.00000000</v>
   <i name="OFIELD_Q6_NEAR">      0.00000000</i>
   <i name="OFIELD_Q6_FAR">      0.00000000</i>
   <i name="OFIELD_A">      0.00000000</i>
  </separator>
  <separator name="optional k-points parameters" >
   <i type="int" name="KPOINTS_OPT_MODE">     1</i>
   <i type="logical" name="LKPOINTS_OPT"> F  </i>
  </separator>
 </parameters>
 <atominfo>
  <atoms>       2 </atoms>
  <types>       1 </types>
  <array name="atoms" >
   <dimension dim="1">ion</dimension>
   <field type="string">element</field>
   <field type="int">atomtype</field>
   <set>
    <rc><c>Co</c><c>   1</c></rc>
    <rc><c>Co</c><c>   1</c></rc>
   </set>
  </array>
  <array name="atomtypes" >
   <dimension dim="1">type</dimension>
   <field type="int">atomspertype</field>
   <field type="string">element</field>
   <field>mass</field>
   <field>valence</field>
   <field type="string">pseudopotential</field>
   <set>
    <rc><c>   2</c><c>Co</c><c>     58.93300000</c><c>      9.00000000</c><c>  PAW_PBE Co 02Aug2007                  </c></rc>
   </set>
  </array>
 </atominfo>
 <structure name="initialpos" >
  <crystal>
   <varray name="basis" >
    <v>       2.47000000       0.00000000       0.00000000 </v>
    <v>      -1.23500000       2.13908275       0.00000000 </v>
    <v>       0.00000000       0.00000000       8.09000000 </v>
   </varray>
   <i name="volume">     42.74379318 </i>
   <varray name="rec_basis" >
    <v>       0.40485830       0.23374505       0.00000000 </v>
    <v>       0.00000000       0.46749010       0.00000000 </v>
    <v>       0.00000000       0.00000000       0.12360939 </v>
   </varray>
  </crystal>
  <varray name="positions" >
   <v>       0.00000000       0.00000000       0.00000000 </v>
   <v>       0.33333333       0.66666667       0.50000000 </v>
  </varray>
 </structure>
 <calculation>
  <scstep>
   <time name="dav">    0.92    0.92</time>
   <time name="total">    0.94    0.94</time>
   <energy>
    <i name="alphaZ">     39.63868225 </i>
    <i name="ewald">  -1054.56880693 </i>
    <i name="hartreedc">   -595.60964206 </i>
    <i name="XCdc">     33.36921587 </i>
    <i name="pawpsdc">   1439.98163886 </i>
    <i name="pawaedc">  -1545.88690193 </i>
    <i name="eentropy">     -0.00305535 </i>
    <i name="bandstr">    133.52532036 </i>
    <i name="atom">   1626.71546820 </i>
    <i name="e_fr_energy">     77.16191928 </i>
    <i name="e_wo_entrp">     77.16497462 </i>
    <i name="e_0_energy">     77.16344695 </i>
   </energy>
  </scstep>
  <scstep>
   <time name="dav">    0.92    0.92</time>
   <time name="total">    0.92    0.93</time>
   <energy>
    <i name="e_fr_energy">    -10.57055930 </i>
    <i name="e_wo_entrp">    -10.56600906 </i>
    <i name="e_0_energy">    -10.56828418 </i>
   </energy>
  </scstep>
  <scstep>
   <time name="dav">    1.07    1.07</time>
   <time name="total">    1.07    1.08</time>
   <energy>
    <i name="e_fr_energy">    -12.68532301 </i>
    <i name="e_wo_entrp">    -12.68046408 </i>
    <i name="e_0_energy">    -12.68289354 </i>
   </energy>
  </scstep>
  <scstep>
   <time name="dav">    1.17    1.18</time>
   <time name="total">    1.18    1.18</time>
   <energy>
    <i name="e_fr_energy">    -12.72062920 </i>
    <i name="e_wo_entrp">    -12.71578628 </i>
    <i name="e_0_energy">    -12.71820774 </i>
   </energy>
  </scstep>
  <scstep>
   <time name="dav">    1.06    1.07</time>
   <time name="total">    1.11    1.12</time>
   <energy>
    <i name="e_fr_energy">    -12.72091314 </i>
    <i name="e_wo_entrp">    -12.71607031 </i>
    <i name="e_0_energy">    -12.71849172 </i>
   </energy>
  </scstep>
  <scstep>
   <time name="dav">    1.00    1.00</time>
   <time name="total">    1.06    1.07</time>
   <energy>
    <i name="e_fr_energy">    -12.54192097 </i>
    <i name="e_wo_entrp">    -12.53386068 </i>
    <i name="e_0_energy">    -12.53789082 </i>
   </energy>
  </scstep>
  <scstep>
   <time name="dav">    1.03    1.04</time>
   <time name="total">    1.10    1.10</time>
   <energy>
    <i name="e_fr_energy">    -11.11393932 </i>
    <i name="e_wo_entrp">    -11.10677694 </i>
    <i name="e_0_energy">    -11.11035813 </i>
   </energy>
  </scstep>
  <scstep>
   <time name="dav">    1.09    1.10</time>
   <time name="total">    1.15    1.16</time>
   <energy>
    <i name="e_fr_energy">    -11.18430956 </i>
    <i name="e_wo_entrp">    -11.17830389 </i>
    <i name="e_0_energy">    -11.18130673 </i>
   </energy>
  </scstep>
  <scstep>
   <time name="dav">    1.06    1.06</time>
   <time name="total">    1.12    1.13</time>
   <energy>
    <i name="e_fr_energy">    -11.22977086 </i>
    <i name="e_wo_entrp">    -11.22368259 </i>
    <i name="e_0_energy">    -11.22672672 </i>
   </energy>
  </scstep>
  <scstep>
   <time name="dav">    1.03    1.03</time>
   <time name="total">    1.09    1.10</time>
   <energy>
    <i name="e_fr_energy">    -11.24005201 </i>
    <i name="e_wo_entrp">    -11.23432064 </i>
    <i name="e_0_energy">    -11.23718632 </i>
   </energy>
  </scstep>
  <scstep>
   <time name="dav">    1.06    1.06</time>
   <time name="total">    1.12    1.13</time>
   <energy>
    <i name="e_fr_energy">    -11.24066727 </i>
    <i name="e_wo_entrp">    -11.23501710 </i>
    <i name="e_0_energy">    -11.23784219 </i>
   </energy>
  </scstep>
  <scstep>
   <time name="dav">    1.00    1.01</time>
   <time name="total">    1.07    1.07</time>
   <energy>
    <i name="e_fr_energy">    -11.24049559 </i>
    <i name="e_wo_entrp">    -11.23481492 </i>
    <i name="e_0_energy">    -11.23765525 </i>
   </energy>
  </scstep>
  <scstep>
   <time name="dav">    1.12    1.13</time>
   <time name="total">    1.19    1.19</time>
   <energy>
    <i name="e_fr_energy">    -11.24041625 </i>
    <i name="e_wo_entrp">    -11.23467328 </i>
    <i name="e_0_energy">    -11.23754477 </i>
   </energy>
  </scstep>
  <scstep>
   <time name="dav">    1.04    1.04</time>
   <time name="total">    1.10    1.11</time>
   <energy>
    <i name="e_fr_energy">    -11.24046163 </i>
    <i name="e_wo_entrp">    -11.23470259 </i>
    <i name="e_0_energy">    -11.23758211 </i>
   </energy>
  </scstep>
  <scstep>
   <time name="dav">    1.02    1.03</time>
   <time name="total">    1.09    1.09</time>
   <energy>
    <i name="e_fr_energy">    -11.24047225 </i>
    <i name="e_wo_entrp">    -11.23471939 </i>
    <i name="e_0_energy">    -11.23759582 </i>
   </energy>
  </scstep>
  <scstep>
   <time name="dav">    0.84    0.84</time>
   <time name="total">    0.85    0.86</time>
   <energy>
    <i name="alphaZ">     39.63868225 </i>
    <i name="ewald">  -1054.56880693 </i>
    <i name="hartreedc">   -568.01071439 </i>
    <i name="XCdc">     31.34686910 </i>
    <i name="pawpsdc">   1614.44094664 </i>
    <i name="pawaedc">  -1720.14792913 </i>
    <i name="eentropy">     -0.00575091 </i>
    <i name="bandstr">     19.35076224 </i>
    <i name="atom">   1626.71546820 </i>
    <i name="e_fr_energy">    -11.24047293 </i>
    <i name="e_wo_entrp">    -11.23472202 </i>
    <i name="e_0_energy">    -11.23759747 </i>
   </energy>
  </scstep>
  <structure>
   <crystal>
    <varray name="basis" >
     <v>       2.47000000       0.00000000       0.00000000 </v>
     <v>      -1.23500000       2.13908275       0.00000000 </v>
     <v>       0.00000000       0.00000000       8.09000000 </v>
    </varray>
    <i name="volume">     42.74379318 </i>
    <varray name="rec_basis" >
     <v>       0.40485830       0.23374505       0.00000000 </v>
     <v>       0.00000000       0.46749010       0.00000000 </v>
     <v>       0.00000000       0.00000000       0.12360939 </v>
    </varray>
   </crystal>
   <varray name="positions" >
    <v>       0.00000000       0.00000000       0.00000000 </v>
    <v>       0.33333333       0.66666667       0.50000000 </v>
   </varray>
  </structure>
  <varray name="forces" >
   <v>      -0.00000000       0.00000000       0.00000000 </v>
   <v>       0.00000000       0.00000000       0.00000000 </v>
  </varray>
  <varray name="stress" >
   <v>    -127.15943274       0.00000000       0.00000000 </v>
   <v>       0.00000000    -127.15943274       0.00000000 </v>
   <v>       0.00000000       0.00000000     -47.49335907 </v>
  </varray>
  <energy>
   <i name="e_fr_energy">    -11.24047293 </i>
   <i name="e_wo_entrp">    -11.23472202 </i>
   <i name="e_0_energy">    -11.23759747 </i>
  </energy>
  <time name="totalsc">   17.42   17.51</time>
  <eigenvalues>
   <array>
    <dimension dim="1">band</dimension>
    <dimension dim="2">kpoint</dimension>
    <dimension dim="3">spin</dimension>
    <field>eigene</field>
    <field>occ</field>
    <set>
     <set comment="spin 1">
      <set comment="kpoint 1">
       <r>   -3.0210    1.0000 </r>
       <r>   -2.5548    1.0000 </r>
       <r>   -0.0949    1.0000 </r>
       <r>    0.7595    1.0000 </r>
       <r>    0.7595    1.0000 </r>
       <r>    0.7604    1.0000 </r>
       <r>    0.7604    1.0000 </r>
       <r>    0.9273    1.0000 </r>
       <r>    1.6552    1.0000 </r>
       <r>    1.6552    1.0000 </r>
       <r>    1.6581    1.0000 </r>
       <r>    1.6581    1.0000 </r>
       <r>    2.2058    1.0000 </r>
       <r>    6.4729    0.0000 </r>
       <r>   10.9117    0.0000 </r>
       <r>   18.8367    0.0000 </r>
      </set>
      <set comment="kpoint 2">
       <r>   -2.8338    1.0000 </r>
       <r>   -2.3737    1.0000 </r>
       <r>   -0.0369    1.0000 </r>
       <r>    0.7025    1.0000 </r>
       <r>    0.7038    1.0000 </r>
       <r>    0.8398    1.0000 </r>
       <r>    0.8405    1.0000 </r>
       <r>    0.9702    1.0000 </r>
       <r>    1.2986    1.0000 </r>
       <r>    1.5065    1.0000 </r>
       <r>    1.6388    1.0000 </r>
       <r>    1.6426    1.0000 </r>
       <r>    2.6876    1.0000 </r>
       <r>    6.7709    0.0000 </r>
       <r>   11.0235    0.0000 </r>
       <r>   19.0519    0.0000 </r>
      </set>
      <set comment="kpoint 3">
       <r>   -2.2950    1.0000 </r>
       <r>   -1.8644    1.0000 </r>
       <r>    0.1262    1.0000 </r>
       <r>    0.5666    1.0000 </r>
       <r>    0.5697    1.0000 </r>
       <r>    0.8457    1.0000 </r>
       <r>    1.0690    1.0000 </r>
       <r>    1.0699    1.0000 </r>
       <r>    1.1032    1.0000 </r>
       <r>    1.1510    1.0000 </r>
       <r>    1.5932    1.0000 </r>
       <r>    1.5988    1.0000 </r>
       <r>    3.5162    0.0000 </r>
       <r>    7.5740    0.0000 </r>
       <r>   11.3633    0.0000 </r>
       <r>   19.6852    0.0000 </r>
      </set>
      <set comment="kpoint 4">
       <r>   -1.5215    1.0000 </r>
       <r>   -1.1945    1.0000 </r>
       <r>    0.3688    1.0000 </r>
       <r>    0.4582    1.0000 </r>
       <r>    0.4943    1.0000 </r>
       <r>    0.5021    1.0000 </r>
       <r>    0.7379    1.0000 </r>
       <r>    1.3620    1.0000 </r>
       <r>    1.4137    1.0000 </r>
       <r>    1.4146    1.0000 </r>
       <r>    1.5281    1.0000 </r>
       <r>    1.5357    1.0000 </r>
       <r>    4.5555    0.0000 </r>
       <r>    8.7316    0.0000 </r>
       <r>   11.9377    0.0000 </r>
       <r>   19.4806    0.0000 </r>
      </set>
      <set comment="kpoint 5">
       <r>   -0.9527    1.0000 </r>
       <r>   -0.8238    1.0000 </r>
       <r>    0.1479    1.0000 </r>
       <r>    0.3619    1.0000 </r>
       <r>    0.6641    1.0000 </r>
       <r>    0.7468    1.0000 </r>
       <r>    0.9489    1.0000 </r>
       <r>    1.4566    1.0000 </r>
       <r>    1.4661    1.0000 </r>
       <r>    1.8172    1.0000 </r>
       <r>    1.8180    1.0000 </r>
       <r>    1.9492    1.0000 </r>
       <r>    5.8218    0.0000 </r>
       <r>   10.1377    0.0000 </r>
       <r>   12.7005    0.0000 </r>
       <r>   16.2138    0.0000 </r>
      </set>
      <set comment="kpoint 6">
       <r>   -0.8995    1.0000 </r>
       <r>   -0.8600    1.0000 </r>
       <r>   -0.0775    1.0000 </r>
       <r>    0.0692    1.0000 </r>
       <r>    0.9102    1.0000 </r>
       <r>    1.0598    1.0000 </r>
       <r>    1.3926    1.0000 </r>
       <r>    1.4039    1.0000 </r>
       <r>    2.2026    1.0000 </r>
       <r>    2.2032    1.0000 </r>
       <r>    2.2831    1.0000 </r>
       <r>    3.1850    0.1495 </r>
       <r>    7.3287    0.0000 </r>
       <r>   11.6781    0.0000 </r>
       <r>   12.7536    0.0000 </r>
       <r>   13.5031    0.0000 </r>
      </set>
      <set comment="kpoint 7">
       <r>   -0.9842    1.0000 </r>
       <r>   -0.9705    1.0000 </r>
       <r>   -0.2109    1.0000 </r>
       <r>   -0.1182    1.0000 </r>
       <r>    1.0920    1.0000 </r>
       <r>    1.2143    1.0000 </r>
       <r>    1.3486    1.0000 </r>
       <r>    1.3611    1.0000 </r>
       <r>    2.4835    1.0000 </r>
       <r>    2.4836    1.0000 </r>
       <r>    3.9977    0.0000 </r>
       <r>    4.7545    0.0000 </r>
       <r>    9.0588    0.0000 </r>
       <r>   10.4693    0.0000 </r>
       <r>   11.4158    0.0000 </r>
       <r>   12.6608    0.0000 </r>
      </set>
      <set comment="kpoint 8">
       <r>   -1.0229    1.0000 </r>
       <r>   -1.0186    1.0000 </r>
       <r>   -0.2530    1.0000 </r>
       <r>   -0.1844    1.0000 </r>
       <r>    1.1618    1.0000 </r>
       <r>    1.2575    1.0000 </r>
       <r>    1.3331    1.0000 </r>
       <r>    1.3460    1.0000 </r>
       <r>    2.5867    1.0000 </r>
       <r>    2.5869    1.0000 </r>
       <r>    5.1971    0.0000 </r>
       <r>    5.5425    0.0000 </r>
       <r>    9.2777    0.0000 </r>
       <r>   10.0861    0.0000 </r>
       <r>   10.5317    0.0000 </r>
       <r>   11.6671    0.0000 </r>
      </set>
      <set comment="kpoint 9">
       <r>   -2.4691    1.0000 </r>
       <r>   -2.0259    1.0000 </r>
       <r>    0.0742    1.0000 </r>
       <r>    0.5950    1.0000 </r>
       <r>    0.5963    1.0000 </r>
       <r>    0.9641    1.0000 </r>
       <r>    0.9837    1.0000 </r>
       <r>    1.0051    1.0000 </r>
       <r>    1.0779    1.0000 </r>
       <r>    1.2609    1.0000 </r>
       <r>    1.6048    1.0000 </r>
       <r>    1.6083    1.0000 </r>
       <r>    3.2748    0.0002 </r>
       <r>    7.3189    0.0000 </r>
       <r>   11.2497    0.0000 </r>
       <r>   19.4765    0.0000 </r>
      </set>
      <set comment="kpoint 10">
       <r>   -1.7909    1.0000 </r>
       <r>   -1.4060    1.0000 </r>
       <r>    0.2784    1.0000 </r>
       <r>    0.4377    1.0000 </r>
       <r>    0.4411    1.0000 </r>
       <r>    0.5966    1.0000 </r>
       <r>    0.8955    1.0000 </r>
       <r>    1.1608    1.0000 </r>
       <r>    1.3236    1.0000 </r>
       <r>    1.4089    1.0000 </r>
       <r>    1.5392    1.0000 </r>
       <r>    1.5445    1.0000 </r>
       <r>    4.1665    0.0000 </r>
       <r>    8.2916    0.0000 </r>
       <r>   11.7107    0.0000 </r>
       <r>   20.3024    0.0000 </r>
      </set>
      <set comment="kpoint 11">
       <r>   -1.0293    1.0000 </r>
       <r>   -0.8093    1.0000 </r>
       <r>    0.2792    1.0000 </r>
       <r>    0.4486    1.0000 </r>
       <r>    0.4564    1.0000 </r>
       <r>    0.5238    1.0000 </r>
       <r>    0.5648    1.0000 </r>
       <r>    1.3933    1.0000 </r>
       <r>    1.4567    1.0000 </r>
       <r>    1.4646    1.0000 </r>
       <r>    1.7724    1.0000 </r>
       <r>    1.9783    1.0000 </r>
       <r>    5.3022    0.0000 </r>
       <r>    9.5685    0.0000 </r>
       <r>   12.4036    0.0000 </r>
       <r>   17.9266    0.0000 </r>
      </set>
      <set comment="kpoint 12">
       <r>   -0.7592    1.0000 </r>
       <r>   -0.6962    1.0000 </r>
       <r>    0.0334    1.0000 </r>
       <r>    0.2101    1.0000 </r>
       <r>    0.7800    1.0000 </r>
       <r>    0.8362    1.0000 </r>
       <r>    1.2044    1.0000 </r>
       <r>    1.3744    1.0000 </r>
       <r>    1.3844    1.0000 </r>
       <r>    1.7282    1.0000 </r>
       <r>    2.4102    1.0000 </r>
       <r>    2.9227    1.0000 </r>
       <r>    6.6833    0.0000 </r>
       <r>   11.0570    0.0000 </r>
       <r>   13.1390    0.0000 </r>
       <r>   14.8082    0.0000 </r>
      </set>
      <set comment="kpoint 13">
       <r>   -0.8352    1.0000 </r>
       <r>   -0.8143    1.0000 </r>
       <r>   -0.1306    1.0000 </r>
       <r>   -0.0150    1.0000 </r>
       <r>    1.0141    1.0000 </r>
       <r>    1.1294    1.0000 </r>
       <r>    1.3084    1.0000 </r>
       <r>    1.3201    1.0000 </r>
       <r>    1.9568    1.0000 </r>
       <r>    2.0895    1.0000 </r>
       <r>    3.5929    0.0000 </r>
       <r>    4.3463    0.0000 </r>
       <r>    8.3087    0.0000 </r>
       <r>   11.7274    0.0000 </r>
       <r>   12.5322    0.0000 </r>
       <r>   12.6271    0.0000 </r>
      </set>
      <set comment="kpoint 14">
       <r>   -0.9137    1.0000 </r>
       <r>   -0.9075    1.0000 </r>
       <r>   -0.2090    1.0000 </r>
       <r>   -0.1353    1.0000 </r>
       <r>    1.1478    1.0000 </r>
       <r>    1.2447    1.0000 </r>
       <r>    1.2718    1.0000 </r>
       <r>    1.2844    1.0000 </r>
       <r>    2.2789    1.0000 </r>
       <r>    2.3055    1.0000 </r>
       <r>    5.1632    0.0000 </r>
       <r>    5.7258    0.0000 </r>
       <r>    9.6761    0.0000 </r>
       <r>   10.1002    0.0000 </r>
       <r>   10.5674    0.0000 </r>
       <r>   12.3343    0.0000 </r>
      </set>
      <set comment="kpoint 15">
       <r>   -1.0375    1.0000 </r>
       <r>   -0.7560    1.0000 </r>
       <r>    0.2424    1.0000 </r>
       <r>    0.2456    1.0000 </r>
       <r>    0.3415    1.0000 </r>
       <r>    0.5186    1.0000 </r>
       <r>    0.5996    1.0000 </r>
       <r>    1.2855    1.0000 </r>
       <r>    1.4395    1.0000 </r>
       <r>    1.4457    1.0000 </r>
       <r>    1.7889    1.0000 </r>
       <r>    2.0170    1.0000 </r>
       <r>    5.1296    0.0000 </r>
       <r>    9.3760    0.0000 </r>
       <r>   12.3034    0.0000 </r>
       <r>   19.7693    0.0000 </r>
      </set>
      <set comment="kpoint 16">
       <r>   -0.4182    1.0000 </r>
       <r>   -0.3233    1.0000 </r>
       <r>    0.1323    1.0000 </r>
       <r>    0.2843    1.0000 </r>
       <r>    0.2996    1.0000 </r>
       <r>    0.3311    1.0000 </r>
       <r>    0.8235    1.0000 </r>
       <r>    1.3169    1.0000 </r>
       <r>    1.3260    1.0000 </r>
       <r>    1.4397    1.0000 </r>
       <r>    2.5032    1.0000 </r>
       <r>    2.9688    1.0000 </r>
       <r>    6.3672    0.0000 </r>
       <r>   10.7397    0.0000 </r>
       <r>   13.1126    0.0000 </r>
       <r>   16.6219    0.0000 </r>
      </set>
      <set comment="kpoint 17">
       <r>   -0.4638    1.0000 </r>
       <r>   -0.4416    1.0000 </r>
       <r>   -0.0137    1.0000 </r>
       <r>    0.1245    1.0000 </r>
       <r>    0.7908    1.0000 </r>
       <r>    0.8177    1.0000 </r>
       <r>    1.2004    1.0000 </r>
       <r>    1.2120    1.0000 </r>
       <r>    1.2188    1.0000 </r>
       <r>    1.6015    1.0000 </r>
       <r>    3.6153    0.0000 </r>
       <r>    4.3179    0.0000 </r>
       <r>    7.8684    0.0000 </r>
       <r>   12.2770    0.0000 </r>
       <r>   13.2494    0.0000 </r>
       <r>   13.9452    0.0000 </r>
      </set>
      <set comment="kpoint 18">
       <r>   -0.5949    1.0000 </r>
       <r>   -0.5871    1.0000 </r>
       <r>   -0.0937    1.0000 </r>
       <r>   -0.0070    1.0000 </r>
       <r>    1.0881    1.0000 </r>
       <r>    1.1172    1.0000 </r>
       <r>    1.1300    1.0000 </r>
       <r>    1.1507    1.0000 </r>
       <r>    1.6144    1.0000 </r>
       <r>    1.7460    1.0000 </r>
       <r>    5.1707    0.0000 </r>
       <r>    5.9301    0.0000 </r>
       <r>    9.6103    0.0000 </r>
       <r>   10.8377    0.0000 </r>
       <r>   11.8262    0.0000 </r>
       <r>   13.2975    0.0000 </r>
      </set>
      <set comment="kpoint 19">
       <r>   -0.6439    1.0000 </r>
       <r>   -0.6436    1.0000 </r>
       <r>   -0.1164    1.0000 </r>
       <r>   -0.0542    1.0000 </r>
       <r>    1.0869    1.0000 </r>
       <r>    1.1001    1.0000 </r>
       <r>    1.1755    1.0000 </r>
       <r>    1.2537    1.0000 </r>
       <r>    1.7747    1.0000 </r>
       <r>    1.7990    1.0000 </r>
       <r>    6.4568    0.0000 </r>
       <r>    6.7944    0.0000 </r>
       <r>    9.5510    0.0000 </r>
       <r>   10.3292    0.0000 </r>
       <r>   11.1394    0.0000 </r>
       <r>   12.1887    0.0000 </r>
      </set>
      <set comment="kpoint 20">
       <r>    0.0010    1.0000 </r>
       <r>    0.0074    1.0000 </r>
       <r>    0.0474    1.0000 </r>
       <r>    0.1974    1.0000 </r>
       <r>    0.2662    1.0000 </r>
       <r>    0.2953    1.0000 </r>
       <r>    1.0741    1.0000 </r>
       <r>    1.1364    1.0000 </r>
       <r>    1.1500    1.0000 </r>
       <r>    1.4839    1.0000 </r>
       <r>    3.6416    0.0000 </r>
       <r>    4.3348    0.0000 </r>
       <r>    7.7245    0.0000 </r>
       <r>   12.1744    0.0000 </r>
       <r>   13.9473    0.0000 </r>
       <r>   15.5365    0.0000 </r>
      </set>
      <set comment="kpoint 21">
       <r>   -0.1318    1.0000 </r>
       <r>   -0.1255    1.0000 </r>
       <r>    0.0248    1.0000 </r>
       <r>    0.1275    1.0000 </r>
       <r>    0.7235    1.0000 </r>
       <r>    0.7477    1.0000 </r>
       <r>    0.9621    1.0000 </r>
       <r>    0.9799    1.0000 </r>
       <r>    1.2340    1.0000 </r>
       <r>    1.4749    1.0000 </r>
       <r>    5.1850    0.0000 </r>
       <r>    6.0179    0.0000 </r>
       <r>    9.3556    0.0000 </r>
       <r>   12.5788    0.0000 </r>
       <r>   13.5597    0.0000 </r>
       <r>   13.6833    0.0000 </r>
      </set>
      <set comment="kpoint 22">
       <r>   -0.2258    1.0000 </r>
       <r>   -0.2194    1.0000 </r>
       <r>    0.0387    1.0000 </r>
       <r>    0.1010    1.0000 </r>
       <r>    0.8510    1.0000 </r>
       <r>    0.8693    1.0000 </r>
       <r>    1.0674    1.0000 </r>
       <r>    1.1272    1.0000 </r>
       <r>    1.2421    1.0000 </r>
       <r>    1.3670    1.0000 </r>
       <r>    6.9841    0.0000 </r>
       <r>    7.7033    0.0000 </r>
       <r>   10.2940    0.0000 </r>
       <r>   11.1965    0.0000 </r>
       <r>   11.2363    0.0000 </r>
       <r>   13.4300    0.0000 </r>
      </set>
      <set comment="kpoint 23">
       <r>    0.1247    1.0000 </r>
       <r>    0.1372    1.0000 </r>
       <r>    0.1404    1.0000 </r>
       <r>    0.2118    1.0000 </r>
       <r>    0.7104    1.0000 </r>
       <r>    0.7106    1.0000 </r>
       <r>    0.7117    1.0000 </r>
       <r>    0.7377    1.0000 </r>
       <r>    1.2116    1.0000 </r>
       <r>    1.3296    1.0000 </r>
       <r>    7.0554    0.0000 </r>
       <r>    7.9595    0.0000 </r>
       <r>   11.1170    0.0000 </r>
       <r>   11.8342    0.0000 </r>
       <r>   12.1147    0.0000 </r>
       <r>   13.1803    0.0000 </r>
      </set>
      <set comment="kpoint 24">
       <r>    0.2105    1.0000 </r>
       <r>    0.2254    1.0000 </r>
       <r>    0.2450    1.0000 </r>
       <r>    0.2904    1.0000 </r>
       <r>    0.5658    1.0000 </r>
       <r>    0.5944    1.0000 </r>
       <r>    0.7315    1.0000 </r>
       <r>    0.7529    1.0000 </r>
       <r>    1.1947    1.0000 </r>
       <r>    1.2241    1.0000 </r>
       <r>    8.8587    0.0000 </r>
       <r>    9.1912    0.0000 </r>
       <r>   10.4258    0.0000 </r>
       <r>   10.8183    0.0000 </r>
       <r>   12.2115    0.0000 </r>
       <r>   12.7883    0.0000 </r>
      </set>
      <set comment="kpoint 25">
       <r>   -3.0102    1.0000 </r>
       <r>   -2.5668    1.0000 </r>
       <r>   -0.0849    1.0000 </r>
       <r>    0.7595    1.0000 </r>
       <r>    0.7595    1.0000 </r>
       <r>    0.7604    1.0000 </r>
       <r>    0.7604    1.0000 </r>
       <r>    0.8467    1.0000 </r>
       <r>    1.6553    1.0000 </r>
       <r>    1.6553    1.0000 </r>
       <r>    1.6581    1.0000 </r>
       <r>    1.6581    1.0000 </r>
       <r>    2.3401    1.0000 </r>
       <r>    6.3141    0.0000 </r>
       <r>   11.1136    0.0000 </r>
       <r>   18.3729    0.0000 </r>
      </set>
      <set comment="kpoint 26">
       <r>   -2.8232    1.0000 </r>
       <r>   -2.3854    1.0000 </r>
       <r>   -0.0273    1.0000 </r>
       <r>    0.7025    1.0000 </r>
       <r>    0.7038    1.0000 </r>
       <r>    0.8397    1.0000 </r>
       <r>    0.8405    1.0000 </r>
       <r>    0.8774    1.0000 </r>
       <r>    1.3471    1.0000 </r>
       <r>    1.5061    1.0000 </r>
       <r>    1.6389    1.0000 </r>
       <r>    1.6424    1.0000 </r>
       <r>    2.7854    1.0000 </r>
       <r>    6.6070    0.0000 </r>
       <r>   11.2315    0.0000 </r>
       <r>   18.5707    0.0000 </r>
      </set>
      <set comment="kpoint 27">
       <r>   -2.2848    1.0000 </r>
       <r>   -1.8750    1.0000 </r>
       <r>    0.1346    1.0000 </r>
       <r>    0.5666    1.0000 </r>
       <r>    0.5696    1.0000 </r>
       <r>    0.8033    1.0000 </r>
       <r>    1.0690    1.0000 </r>
       <r>    1.0699    1.0000 </r>
       <r>    1.1123    1.0000 </r>
       <r>    1.1510    1.0000 </r>
       <r>    1.5934    1.0000 </r>
       <r>    1.5986    1.0000 </r>
       <r>    3.6024    0.0000 </r>
       <r>    7.3934    0.0000 </r>
       <r>   11.5895    0.0000 </r>
       <r>   19.1436    0.0000 </r>
      </set>
      <set comment="kpoint 28">
       <r>   -1.5132    1.0000 </r>
       <r>   -1.2020    1.0000 </r>
       <r>    0.3717    1.0000 </r>
       <r>    0.4567    1.0000 </r>
       <r>    0.4944    1.0000 </r>
       <r>    0.5019    1.0000 </r>
       <r>    0.7450    1.0000 </r>
       <r>    1.3319    1.0000 </r>
       <r>    1.4137    1.0000 </r>
       <r>    1.4145    1.0000 </r>
       <r>    1.5283    1.0000 </r>
       <r>    1.5356    1.0000 </r>
       <r>    4.6378    0.0000 </r>
       <r>    8.5222    0.0000 </r>
       <r>   12.1930    0.0000 </r>
       <r>   19.4106    0.0000 </r>
      </set>
      <set comment="kpoint 29">
       <r>   -0.9493    1.0000 </r>
       <r>   -0.8268    1.0000 </r>
       <r>    0.1507    1.0000 </r>
       <r>    0.3496    1.0000 </r>
       <r>    0.6750    1.0000 </r>
       <r>    0.7470    1.0000 </r>
       <r>    0.9644    1.0000 </r>
       <r>    1.4568    1.0000 </r>
       <r>    1.4659    1.0000 </r>
       <r>    1.8172    1.0000 </r>
       <r>    1.8180    1.0000 </r>
       <r>    1.9131    1.0000 </r>
       <r>    5.9015    0.0000 </r>
       <r>    9.8894    0.0000 </r>
       <r>   12.9884    0.0000 </r>
       <r>   16.2275    0.0000 </r>
      </set>
      <set comment="kpoint 30">
       <r>   -0.8985    1.0000 </r>
       <r>   -0.8610    1.0000 </r>
       <r>   -0.0748    1.0000 </r>
       <r>    0.0644    1.0000 </r>
       <r>    0.9162    1.0000 </r>
       <r>    1.0579    1.0000 </r>
       <r>    1.3929    1.0000 </r>
       <r>    1.4036    1.0000 </r>
       <r>    2.2026    1.0000 </r>
       <r>    2.2032    1.0000 </r>
       <r>    2.2980    1.0000 </r>
       <r>    3.1519    0.4593 </r>
       <r>    7.4050    0.0000 </r>
       <r>   11.3734    0.0000 </r>
       <r>   12.9114    0.0000 </r>
       <r>   13.5656    0.0000 </r>
      </set>
      <set comment="kpoint 31">
       <r>   -0.9839    1.0000 </r>
       <r>   -0.9708    1.0000 </r>
       <r>   -0.2090    1.0000 </r>
       <r>   -0.1208    1.0000 </r>
       <r>    1.0960    1.0000 </r>
       <r>    1.2123    1.0000 </r>
       <r>    1.3490    1.0000 </r>
       <r>    1.3609    1.0000 </r>
       <r>    2.4835    1.0000 </r>
       <r>    2.4836    1.0000 </r>
       <r>    4.0111    0.0000 </r>
       <r>    4.7281    0.0000 </r>
       <r>    9.1209    0.0000 </r>
       <r>   10.4768    0.0000 </r>
       <r>   11.3840    0.0000 </r>
       <r>   12.5620    0.0000 </r>
      </set>
      <set comment="kpoint 32">
       <r>   -1.0229    1.0000 </r>
       <r>   -1.0188    1.0000 </r>
       <r>   -0.2517    1.0000 </r>
       <r>   -0.1863    1.0000 </r>
       <r>    1.1648    1.0000 </r>
       <r>    1.2558    1.0000 </r>
       <r>    1.3333    1.0000 </r>
       <r>    1.3456    1.0000 </r>
       <r>    2.5867    1.0000 </r>
       <r>    2.5868    1.0000 </r>
       <r>    5.2038    0.0000 </r>
       <r>    5.5322    0.0000 </r>
       <r>    9.2771    0.0000 </r>
       <r>    9.9675    0.0000 </r>
       <r>   10.6882    0.0000 </r>
       <r>   11.7038    0.0000 </r>
      </set>
      <set comment="kpoint 33">
       <r>   -2.4587    1.0000 </r>
       <r>   -2.0369    1.0000 </r>
       <r>    0.0831    1.0000 </r>
       <r>    0.5950    1.0000 </r>
       <r>    0.5962    1.0000 </r>
       <r>    0.8654    1.0000 </r>
       <r>    1.0009    1.0000 </r>
       <r>    1.0051    1.0000 </r>
       <r>    1.1247    1.0000 </r>
       <r>    1.2605    1.0000 </r>
       <r>    1.6049    1.0000 </r>
       <r>    1.6082    1.0000 </r>
       <r>    3.3629    0.0000 </r>
       <r>    7.1440    0.0000 </r>
       <r>   11.4698    0.0000 </r>
       <r>   18.9572    0.0000 </r>
      </set>
      <set comment="kpoint 34">
       <r>   -1.7815    1.0000 </r>
       <r>   -1.4152    1.0000 </r>
       <r>    0.2846    1.0000 </r>
       <r>    0.4378    1.0000 </r>
       <r>    0.4410    1.0000 </r>
       <r>    0.5891    1.0000 </r>
       <r>    0.8978    1.0000 </r>
       <r>    1.1482    1.0000 </r>
       <r>    1.3238    1.0000 </r>
       <r>    1.3977    1.0000 </r>
       <r>    1.5393    1.0000 </r>
       <r>    1.5444    1.0000 </r>
       <r>    4.2499    0.0000 </r>
       <r>    8.0937    0.0000 </r>
       <r>   11.9547    0.0000 </r>
       <r>   19.6744    0.0000 </r>
      </set>
      <set comment="kpoint 35">
       <r>   -1.0235    1.0000 </r>
       <r>   -0.8141    1.0000 </r>
       <r>    0.2812    1.0000 </r>
       <r>    0.4467    1.0000 </r>
       <r>    0.4550    1.0000 </r>
       <r>    0.4869    1.0000 </r>
       <r>    0.6161    1.0000 </r>
       <r>    1.3761    1.0000 </r>
       <r>    1.4569    1.0000 </r>
       <r>    1.4644    1.0000 </r>
       <r>    1.7734    1.0000 </r>
       <r>    1.9608    1.0000 </r>
       <r>    5.3830    0.0000 </r>
       <r>    9.3365    0.0000 </r>
       <r>   12.6805    0.0000 </r>
       <r>   17.9337    0.0000 </r>
      </set>
      <set comment="kpoint 36">
       <r>   -0.7577    1.0000 </r>
       <r>   -0.6977    1.0000 </r>
       <r>    0.0364    1.0000 </r>
       <r>    0.2033    1.0000 </r>
       <r>    0.7843    1.0000 </r>
       <r>    0.8362    1.0000 </r>
       <r>    1.2176    1.0000 </r>
       <r>    1.3748    1.0000 </r>
       <r>    1.3842    1.0000 </r>
       <r>    1.7183    1.0000 </r>
       <r>    2.4152    1.0000 </r>
       <r>    2.8962    1.0000 </r>
       <r>    6.7619    0.0000 </r>
       <r>   10.7822    0.0000 </r>
       <r>   13.4249    0.0000 </r>
       <r>   14.8288    0.0000 </r>
      </set>
      <set comment="kpoint 37">
       <r>   -0.8347    1.0000 </r>
       <r>   -0.8148    1.0000 </r>
       <r>   -0.1282    1.0000 </r>
       <r>   -0.0185    1.0000 </r>
       <r>    1.0183    1.0000 </r>
       <r>    1.1278    1.0000 </r>
       <r>    1.3088    1.0000 </r>
       <r>    1.3198    1.0000 </r>
       <r>    1.9602    1.0000 </r>
       <r>    2.0866    1.0000 </r>
       <r>    3.6048    0.0000 </r>
       <r>    4.3173    0.0000 </r>
       <r>    8.3821    0.0000 </r>
       <r>   11.6831    0.0000 </r>
       <r>   12.3006    0.0000 </r>
       <r>   12.7077    0.0000 </r>
      </set>
      <set comment="kpoint 38">
       <r>   -0.9136    1.0000 </r>
       <r>   -0.9076    1.0000 </r>
       <r>   -0.2074    1.0000 </r>
       <r>   -0.1374    1.0000 </r>
       <r>    1.1508    1.0000 </r>
       <r>    1.2430    1.0000 </r>
       <r>    1.2722    1.0000 </r>
       <r>    1.2842    1.0000 </r>
       <r>    2.2795    1.0000 </r>
       <r>    2.3048    1.0000 </r>
       <r>    5.1735    0.0000 </r>
       <r>    5.7073    0.0000 </r>
       <r>    9.6713    0.0000 </r>
       <r>   10.1043    0.0000 </r>
       <r>   10.6053    0.0000 </r>
       <r>   12.3485    0.0000 </r>
      </set>
      <set comment="kpoint 39">
       <r>   -1.0302    1.0000 </r>
       <r>   -0.7623    1.0000 </r>
       <r>    0.2425    1.0000 </r>
       <r>    0.2455    1.0000 </r>
       <r>    0.3430    1.0000 </r>
       <r>    0.4966    1.0000 </r>
       <r>    0.6307    1.0000 </r>
       <r>    1.2695    1.0000 </r>
       <r>    1.4396    1.0000 </r>
       <r>    1.4455    1.0000 </r>
       <r>    1.7904    1.0000 </r>
       <r>    1.9999    1.0000 </r>
       <r>    5.2110    0.0000 </r>
       <r>    9.1496    0.0000 </r>
       <r>   12.5757    0.0000 </r>
       <r>   19.7849    0.0000 </r>
      </set>
      <set comment="kpoint 40">
       <r>   -0.4157    1.0000 </r>
       <r>   -0.3256    1.0000 </r>
       <r>    0.1352    1.0000 </r>
       <r>    0.2818    1.0000 </r>
       <r>    0.2995    1.0000 </r>
       <r>    0.3258    1.0000 </r>
       <r>    0.8418    1.0000 </r>
       <r>    1.3171    1.0000 </r>
       <r>    1.3257    1.0000 </r>
       <r>    1.4268    1.0000 </r>
       <r>    2.5082    1.0000 </r>
       <r>    2.9448    1.0000 </r>
       <r>    6.4472    0.0000 </r>
       <r>   10.4758    0.0000 </r>
       <r>   13.4167    0.0000 </r>
       <r>   16.6371    0.0000 </r>
      </set>
      <set comment="kpoint 41">
       <r>   -0.4633    1.0000 </r>
       <r>   -0.4422    1.0000 </r>
       <r>   -0.0110    1.0000 </r>
       <r>    0.1200    1.0000 </r>
       <r>    0.7916    1.0000 </r>
       <r>    0.8172    1.0000 </r>
       <r>    1.1999    1.0000 </r>
       <r>    1.2116    1.0000 </r>
       <r>    1.2304    1.0000 </r>
       <r>    1.5935    1.0000 </r>
       <r>    3.6256    0.0000 </r>
       <r>    4.2887    0.0000 </r>
       <r>    7.9465    0.0000 </r>
       <r>   11.9593    0.0000 </r>
       <r>   13.3895    0.0000 </r>
       <r>   14.0313    0.0000 </r>
      </set>
      <set comment="kpoint 42">
       <r>   -0.5947    1.0000 </r>
       <r>   -0.5873    1.0000 </r>
       <r>   -0.0918    1.0000 </r>
       <r>   -0.0095    1.0000 </r>
       <r>    1.0895    1.0000 </r>
       <r>    1.1182    1.0000 </r>
       <r>    1.1291    1.0000 </r>
       <r>    1.1508    1.0000 </r>
       <r>    1.6174    1.0000 </r>
       <r>    1.7426    1.0000 </r>
       <r>    5.1835    0.0000 </r>
       <r>    5.9018    0.0000 </r>
       <r>    9.6761    0.0000 </r>
       <r>   10.8498    0.0000 </r>
       <r>   11.7913    0.0000 </r>
       <r>   13.1896    0.0000 </r>
      </set>
      <set comment="kpoint 43">
       <r>   -0.6439    1.0000 </r>
       <r>   -0.6436    1.0000 </r>
       <r>   -0.1151    1.0000 </r>
       <r>   -0.0560    1.0000 </r>
       <r>    1.0868    1.0000 </r>
       <r>    1.0996    1.0000 </r>
       <r>    1.1785    1.0000 </r>
       <r>    1.2527    1.0000 </r>
       <r>    1.7749    1.0000 </r>
       <r>    1.7982    1.0000 </r>
       <r>    6.4640    0.0000 </r>
       <r>    6.7852    0.0000 </r>
       <r>    9.5488    0.0000 </r>
       <r>   10.2411    0.0000 </r>
       <r>   11.2671    0.0000 </r>
       <r>   12.2329    0.0000 </r>
      </set>
      <set comment="kpoint 44">
       <r>    0.0012    1.0000 </r>
       <r>    0.0072    1.0000 </r>
       <r>    0.0496    1.0000 </r>
       <r>    0.1898    1.0000 </r>
       <r>    0.2695    1.0000 </r>
       <r>    0.2951    1.0000 </r>
       <r>    1.0854    1.0000 </r>
       <r>    1.1368    1.0000 </r>
       <r>    1.1497    1.0000 </r>
       <r>    1.4751    1.0000 </r>
       <r>    3.6516    0.0000 </r>
       <r>    4.3052    0.0000 </r>
       <r>    7.8041    0.0000 </r>
       <r>   11.8717    0.0000 </r>
       <r>   14.2584    0.0000 </r>
       <r>   15.5562    0.0000 </r>
      </set>
      <set comment="kpoint 45">
       <r>   -0.1317    1.0000 </r>
       <r>   -0.1258    1.0000 </r>
       <r>    0.0270    1.0000 </r>
       <r>    0.1245    1.0000 </r>
       <r>    0.7241    1.0000 </r>
       <r>    0.7470    1.0000 </r>
       <r>    0.9625    1.0000 </r>
       <r>    0.9794    1.0000 </r>
       <r>    1.2407    1.0000 </r>
       <r>    1.4696    1.0000 </r>
       <r>    5.1984    0.0000 </r>
       <r>    5.9848    0.0000 </r>
       <r>    9.4333    0.0000 </r>
       <r>   12.5739    0.0000 </r>
       <r>   13.3372    0.0000 </r>
       <r>   13.6566    0.0000 </r>
      </set>
      <set comment="kpoint 46">
       <r>   -0.2257    1.0000 </r>
       <r>   -0.2196    1.0000 </r>
       <r>    0.0400    1.0000 </r>
       <r>    0.0993    1.0000 </r>
       <r>    0.8512    1.0000 </r>
       <r>    0.8685    1.0000 </r>
       <r>    1.0691    1.0000 </r>
       <r>    1.1259    1.0000 </r>
       <r>    1.2455    1.0000 </r>
       <r>    1.3643    1.0000 </r>
       <r>    6.9971    0.0000 </r>
       <r>    7.6785    0.0000 </r>
       <r>   10.2963    0.0000 </r>
       <r>   11.0841    0.0000 </r>
       <r>   11.3885    0.0000 </r>
       <r>   13.4609    0.0000 </r>
      </set>
      <set comment="kpoint 47">
       <r>    0.1249    1.0000 </r>
       <r>    0.1352    1.0000 </r>
       <r>    0.1436    1.0000 </r>
       <r>    0.2099    1.0000 </r>
       <r>    0.7057    1.0000 </r>
       <r>    0.7110    1.0000 </r>
       <r>    0.7160    1.0000 </r>
       <r>    0.7377    1.0000 </r>
       <r>    1.2148    1.0000 </r>
       <r>    1.3270    1.0000 </r>
       <r>    7.0704    0.0000 </r>
       <r>    7.9241    0.0000 </r>
       <r>   11.1892    0.0000 </r>
       <r>   11.8481    0.0000 </r>
       <r>   12.1242    0.0000 </r>
       <r>   13.1523    0.0000 </r>
      </set>
      <set comment="kpoint 48">
       <r>    0.2107    1.0000 </r>
       <r>    0.2242    1.0000 </r>
       <r>    0.2468    1.0000 </r>
       <r>    0.2893    1.0000 </r>
       <r>    0.5661    1.0000 </r>
       <r>    0.5933    1.0000 </r>
       <r>    0.7324    1.0000 </r>
       <r>    0.7528    1.0000 </r>
       <r>    1.1955    1.0000 </r>
       <r>    1.2236    1.0000 </r>
       <r>    8.8699    0.0000 </r>
       <r>    9.1893    0.0000 </r>
       <r>   10.4114    0.0000 </r>
       <r>   10.7842    0.0000 </r>
       <r>   12.1893    0.0000 </r>
       <r>   12.8994    0.0000 </r>
      </set>
      <set comment="kpoint 49">
       <r>   -2.9789    1.0000 </r>
       <r>   -2.6014    1.0000 </r>
       <r>   -0.0544    1.0000 </r>
       <r>    0.6718    1.0000 </r>
       <r>    0.7596    1.0000 </r>
       <r>    0.7596    1.0000 </r>
       <r>    0.7603    1.0000 </r>
       <r>    0.7603    1.0000 </r>
       <r>    1.6555    1.0000 </r>
       <r>    1.6555    1.0000 </r>
       <r>    1.6578    1.0000 </r>
       <r>    1.6578    1.0000 </r>
       <r>    2.6739    1.0000 </r>
       <r>    5.9059    0.0000 </r>
       <r>   11.6509    0.0000 </r>
       <r>   17.4236    0.0000 </r>
      </set>
      <set comment="kpoint 50">
       <r>   -2.7921    1.0000 </r>
       <r>   -2.4194    1.0000 </r>
       <r>    0.0022    1.0000 </r>
       <r>    0.6955    1.0000 </r>
       <r>    0.7037    1.0000 </r>
       <r>    0.7075    1.0000 </r>
       <r>    0.8398    1.0000 </r>
       <r>    0.8404    1.0000 </r>
       <r>    1.4119    1.0000 </r>
       <r>    1.5046    1.0000 </r>
       <r>    1.6392    1.0000 </r>
       <r>    1.6421    1.0000 </r>
       <r>    3.0563    0.9954 </r>
       <r>    6.1900    0.0000 </r>
       <r>   11.7808    0.0000 </r>
       <r>   17.6036    0.0000 </r>
      </set>
      <set comment="kpoint 51">
       <r>   -2.2551    1.0000 </r>
       <r>   -1.9060    1.0000 </r>
       <r>    0.1604    1.0000 </r>
       <r>    0.5664    1.0000 </r>
       <r>    0.5695    1.0000 </r>
       <r>    0.7023    1.0000 </r>
       <r>    1.0691    1.0000 </r>
       <r>    1.0698    1.0000 </r>
       <r>    1.1274    1.0000 </r>
       <r>    1.1511    1.0000 </r>
       <r>    1.5938    1.0000 </r>
       <r>    1.5983    1.0000 </r>
       <r>    3.8466    0.0000 </r>
       <r>    6.9468    0.0000 </r>
       <r>   12.1732    0.0000 </r>
       <r>   18.1246    0.0000 </r>
      </set>
      <set comment="kpoint 52">
       <r>   -1.4893    1.0000 </r>
       <r>   -1.2241    1.0000 </r>
       <r>    0.3797    1.0000 </r>
       <r>    0.4519    1.0000 </r>
       <r>    0.4951    1.0000 </r>
       <r>    0.5013    1.0000 </r>
       <r>    0.7668    1.0000 </r>
       <r>    1.2522    1.0000 </r>
       <r>    1.4137    1.0000 </r>
       <r>    1.4144    1.0000 </r>
       <r>    1.5288    1.0000 </r>
       <r>    1.5350    1.0000 </r>
       <r>    4.8730    0.0000 </r>
       <r>    8.0275    0.0000 </r>
       <r>   12.8259    0.0000 </r>
       <r>   18.7909    0.0000 </r>
      </set>
      <set comment="kpoint 53">
       <r>   -0.9396    1.0000 </r>
       <r>   -0.8352    1.0000 </r>
       <r>    0.1591    1.0000 </r>
       <r>    0.3198    1.0000 </r>
       <r>    0.6982    1.0000 </r>
       <r>    0.7473    1.0000 </r>
       <r>    1.0135    1.0000 </r>
       <r>    1.4575    1.0000 </r>
       <r>    1.4652    1.0000 </r>
       <r>    1.8144    1.0000 </r>
       <r>    1.8173    1.0000 </r>
       <r>    1.8179    1.0000 </r>
       <r>    6.1309    0.0000 </r>
       <r>    9.3401    0.0000 </r>
       <r>   13.6541    0.0000 </r>
       <r>   16.2643    0.0000 </r>
      </set>
      <set comment="kpoint 54">
       <r>   -0.8958    1.0000 </r>
       <r>   -0.8639    1.0000 </r>
       <r>   -0.0667    1.0000 </r>
       <r>    0.0508    1.0000 </r>
       <r>    0.9329    1.0000 </r>
       <r>    1.0520    1.0000 </r>
       <r>    1.3938    1.0000 </r>
       <r>    1.4029    1.0000 </r>
       <r>    2.2027    1.0000 </r>
       <r>    2.2031    1.0000 </r>
       <r>    2.3429    1.0000 </r>
       <r>    3.0610    0.9932 </r>
       <r>    7.6255    0.0000 </r>
       <r>   10.7847    0.0000 </r>
       <r>   13.1030    0.0000 </r>
       <r>   13.6749    0.0000 </r>
      </set>
      <set comment="kpoint 55">
       <r>   -0.9830    1.0000 </r>
       <r>   -0.9719    1.0000 </r>
       <r>   -0.2034    1.0000 </r>
       <r>   -0.1285    1.0000 </r>
       <r>    1.1070    1.0000 </r>
       <r>    1.2059    1.0000 </r>
       <r>    1.3498    1.0000 </r>
       <r>    1.3599    1.0000 </r>
       <r>    2.4835    1.0000 </r>
       <r>    2.4836    1.0000 </r>
       <r>    4.0508    0.0000 </r>
       <r>    4.6549    0.0000 </r>
       <r>    9.2988    0.0000 </r>
       <r>   10.4935    0.0000 </r>
       <r>   11.3031    0.0000 </r>
       <r>   12.2858    0.0000 </r>
      </set>
      <set comment="kpoint 56">
       <r>   -1.0227    1.0000 </r>
       <r>   -1.0192    1.0000 </r>
       <r>   -0.2475    1.0000 </r>
       <r>   -0.1919    1.0000 </r>
       <r>    1.1731    1.0000 </r>
       <r>    1.2507    1.0000 </r>
       <r>    1.3341    1.0000 </r>
       <r>    1.3446    1.0000 </r>
       <r>    2.5867    1.0000 </r>
       <r>    2.5868    1.0000 </r>
       <r>    5.2236    0.0000 </r>
       <r>    5.5029    0.0000 </r>
       <r>    9.2787    0.0000 </r>
       <r>    9.7795    0.0000 </r>
       <r>   10.9848    0.0000 </r>
       <r>   11.7992    0.0000 </r>
      </set>
      <set comment="kpoint 57">
       <r>   -2.4284    1.0000 </r>
       <r>   -2.0692    1.0000 </r>
       <r>    0.1102    1.0000 </r>
       <r>    0.5950    1.0000 </r>
       <r>    0.5961    1.0000 </r>
       <r>    0.7190    1.0000 </r>
       <r>    1.0034    1.0000 </r>
       <r>    1.0050    1.0000 </r>
       <r>    1.1788    1.0000 </r>
       <r>    1.2593    1.0000 </r>
       <r>    1.6051    1.0000 </r>
       <r>    1.6079    1.0000 </r>
       <r>    3.6111    0.0000 </r>
       <r>    6.7075    0.0000 </r>
       <r>   12.0425    0.0000 </r>
       <r>   17.9552    0.0000 </r>
      </set>
      <set comment="kpoint 58">
       <r>   -1.7542    1.0000 </r>
       <r>   -1.4419    1.0000 </r>
       <r>    0.3033    1.0000 </r>
       <r>    0.4380    1.0000 </r>
       <r>    0.4407    1.0000 </r>
       <r>    0.5664    1.0000 </r>
       <r>    0.9050    1.0000 </r>
       <r>    1.1117    1.0000 </r>
       <r>    1.3246    1.0000 </r>
       <r>    1.3744    1.0000 </r>
       <r>    1.5397    1.0000 </r>
       <r>    1.5440    1.0000 </r>
       <r>    4.4875    0.0000 </r>
       <r>    7.6176    0.0000 </r>
       <r>   12.5695    0.0000 </r>
       <r>   18.6114    0.0000 </r>
      </set>
      <set comment="kpoint 59">
       <r>   -1.0067    1.0000 </r>
       <r>   -0.8285    1.0000 </r>
       <r>    0.2871    1.0000 </r>
       <r>    0.4248    1.0000 </r>
       <r>    0.4531    1.0000 </r>
       <r>    0.4640    1.0000 </r>
       <r>    0.6958    1.0000 </r>
       <r>    1.3241    1.0000 </r>
       <r>    1.4575    1.0000 </r>
       <r>    1.4640    1.0000 </r>
       <r>    1.7769    1.0000 </r>
       <r>    1.9189    1.0000 </r>
       <r>    5.6151    0.0000 </r>
       <r>    8.8084    0.0000 </r>
       <r>   13.3435    0.0000 </r>
       <r>   17.9349    0.0000 </r>
      </set>
      <set comment="kpoint 60">
       <r>   -0.7531    1.0000 </r>
       <r>   -0.7021    1.0000 </r>
       <r>    0.0452    1.0000 </r>
       <r>    0.1848    1.0000 </r>
       <r>    0.7950    1.0000 </r>
       <r>    0.8359    1.0000 </r>
       <r>    1.2567    1.0000 </r>
       <r>    1.3757    1.0000 </r>
       <r>    1.3834    1.0000 </r>
       <r>    1.6884    1.0000 </r>
       <r>    2.4308    1.0000 </r>
       <r>    2.8261    1.0000 </r>
       <r>    6.9884    0.0000 </r>
       <r>   10.2042    0.0000 </r>
       <r>   14.0067    0.0000 </r>
       <r>   14.8919    0.0000 </r>
      </set>
      <set comment="kpoint 61">
       <r>   -0.8333    1.0000 </r>
       <r>   -0.8164    1.0000 </r>
       <r>   -0.1214    1.0000 </r>
       <r>   -0.0284    1.0000 </r>
       <r>    1.0300    1.0000 </r>
       <r>    1.1227    1.0000 </r>
       <r>    1.3096    1.0000 </r>
       <r>    1.3190    1.0000 </r>
       <r>    1.9699    1.0000 </r>
       <r>    2.0778    1.0000 </r>
       <r>    3.6406    0.0000 </r>
       <r>    4.2382    0.0000 </r>
       <r>    8.5939    0.0000 </r>
       <r>   11.4296    0.0000 </r>
       <r>   12.1004    0.0000 </r>
       <r>   12.6771    0.0000 </r>
      </set>
      <set comment="kpoint 62">
       <r>   -0.9132    1.0000 </r>
       <r>   -0.9081    1.0000 </r>
       <r>   -0.2028    1.0000 </r>
       <r>   -0.1433    1.0000 </r>
       <r>    1.1592    1.0000 </r>
       <r>    1.2376    1.0000 </r>
       <r>    1.2734    1.0000 </r>
       <r>    1.2837    1.0000 </r>
       <r>    2.2811    1.0000 </r>
       <r>    2.3027    1.0000 </r>
       <r>    5.2042    0.0000 </r>
       <r>    5.6556    0.0000 </r>
       <r>    9.6708    0.0000 </r>
       <r>   10.0788    0.0000 </r>
       <r>   10.7483    0.0000 </r>
       <r>   12.3548    0.0000 </r>
      </set>
      <set comment="kpoint 63">
       <r>   -1.0091    1.0000 </r>
       <r>   -0.7808    1.0000 </r>
       <r>    0.2428    1.0000 </r>
       <r>    0.2453    1.0000 </r>
       <r>    0.3478    1.0000 </r>
       <r>    0.4619    1.0000 </r>
       <r>    0.6927    1.0000 </r>
       <r>    1.2223    1.0000 </r>
       <r>    1.4401    1.0000 </r>
       <r>    1.4451    1.0000 </r>
       <r>    1.7950    1.0000 </r>
       <r>    1.9580    1.0000 </r>
       <r>    5.4440    0.0000 </r>
       <r>    8.6292    0.0000 </r>
       <r>   13.2342    0.0000 </r>
       <r>   19.2291    0.0000 </r>
      </set>
      <set comment="kpoint 64">
       <r>   -0.4087    1.0000 </r>
       <r>   -0.3321    1.0000 </r>
       <r>    0.1437    1.0000 </r>
       <r>    0.2716    1.0000 </r>
       <r>    0.2993    1.0000 </r>
       <r>    0.3151    1.0000 </r>
       <r>    0.8928    1.0000 </r>
       <r>    1.3176    1.0000 </r>
       <r>    1.3246    1.0000 </r>
       <r>    1.3890    1.0000 </r>
       <r>    2.5236    1.0000 </r>
       <r>    2.8817    1.0000 </r>
       <r>    6.6771    0.0000 </r>
       <r>    9.9070    0.0000 </r>
       <r>   14.1040    0.0000 </r>
       <r>   16.6797    0.0000 </r>
      </set>
      <set comment="kpoint 65">
       <r>   -0.4619    1.0000 </r>
       <r>   -0.4439    1.0000 </r>
       <r>   -0.0032    1.0000 </r>
       <r>    0.1075    1.0000 </r>
       <r>    0.7939    1.0000 </r>
       <r>    0.8159    1.0000 </r>
       <r>    1.2001    1.0000 </r>
       <r>    1.2106    1.0000 </r>
       <r>    1.2616    1.0000 </r>
       <r>    1.5698    1.0000 </r>
       <r>    3.6567    0.0000 </r>
       <r>    4.2098    0.0000 </r>
       <r>    8.1712    0.0000 </r>
       <r>   11.3584    0.0000 </r>
       <r>   13.5459    0.0000 </r>
       <r>   14.1570    0.0000 </r>
      </set>
      <set comment="kpoint 66">
       <r>   -0.5942    1.0000 </r>
       <r>   -0.5879    1.0000 </r>
       <r>   -0.0864    1.0000 </r>
       <r>   -0.0166    1.0000 </r>
       <r>    1.0934    1.0000 </r>
       <r>    1.1211    1.0000 </r>
       <r>    1.1269    1.0000 </r>
       <r>    1.1504    1.0000 </r>
       <r>    1.6260    1.0000 </r>
       <r>    1.7330    1.0000 </r>
       <r>    5.2217    0.0000 </r>
       <r>    5.8244    0.0000 </r>
       <r>    9.8632    0.0000 </r>
       <r>   10.8828    0.0000 </r>
       <r>   11.7020    0.0000 </r>
       <r>   12.8822    0.0000 </r>
      </set>
      <set comment="kpoint 67">
       <r>   -0.6439    1.0000 </r>
       <r>   -0.6437    1.0000 </r>
       <r>   -0.1111    1.0000 </r>
       <r>   -0.0609    1.0000 </r>
       <r>    1.0867    1.0000 </r>
       <r>    1.0981    1.0000 </r>
       <r>    1.1866    1.0000 </r>
       <r>    1.2496    1.0000 </r>
       <r>    1.7759    1.0000 </r>
       <r>    1.7958    1.0000 </r>
       <r>    6.4853    0.0000 </r>
       <r>    6.7588    0.0000 </r>
       <r>    9.5467    0.0000 </r>
       <r>   10.0684    0.0000 </r>
       <r>   11.5538    0.0000 </r>
       <r>   12.3501    0.0000 </r>
      </set>
      <set comment="kpoint 68">
       <r>    0.0016    1.0000 </r>
       <r>    0.0066    1.0000 </r>
       <r>    0.0565    1.0000 </r>
       <r>    0.1713    1.0000 </r>
       <r>    0.2764    1.0000 </r>
       <r>    0.2948    1.0000 </r>
       <r>    1.1177    1.0000 </r>
       <r>    1.1376    1.0000 </r>
       <r>    1.1495    1.0000 </r>
       <r>    1.4494    1.0000 </r>
       <r>    3.6818    0.0000 </r>
       <r>    4.2258    0.0000 </r>
       <r>    8.0328    0.0000 </r>
       <r>   11.2676    0.0000 </r>
       <r>   14.8628    0.0000 </r>
       <r>   15.6124    0.0000 </r>
      </set>
[...]
       <r>    13.9429     0.2067    15.2664 </r>
       <r>    14.0284     0.3064    15.2926 </r>
       <r>    14.1140     0.3949    15.3264 </r>
       <r>    14.1995     0.3880    15.3596 </r>
       <r>    14.2850     0.1684    15.3740 </r>
       <r>    14.3705     0.1358    15.3856 </r>
       <r>    14.4560     0.0938    15.3936 </r>
       <r>    14.5416     0.1350    15.4052 </r>
       <r>    14.6271     0.1212    15.4155 </r>
       <r>    14.7126     0.0372    15.4187 </r>
       <r>    14.7981     0.1237    15.4293 </r>
       <r>    14.8836     0.4160    15.4649 </r>
       <r>    14.9692     0.3477    15.4946 </r>
       <r>    15.0547     0.3552    15.5250 </r>
       <r>    15.1402     0.1838    15.5407 </r>
       <r>    15.2257     0.0558    15.5455 </r>
       <r>    15.3112     0.0859    15.5528 </r>
       <r>    15.3967     0.1570    15.5662 </r>
       <r>    15.4823     0.1087    15.5755 </r>
       <r>    15.5678     0.1081    15.5848 </r>
       <r>    15.6533     0.1505    15.5977 </r>
       <r>    15.7388     0.1508    15.6105 </r>
       <r>    15.8243     0.3015    15.6363 </r>
       <r>    15.9099     0.0756    15.6428 </r>
       <r>    15.9954     0.0988    15.6512 </r>
       <r>    16.0809     0.1102    15.6607 </r>
       <r>    16.1664     0.1277    15.6716 </r>
       <r>    16.2519     0.1350    15.6831 </r>
       <r>    16.3375     0.1831    15.6988 </r>
       <r>    16.4230     0.1357    15.7104 </r>
       <r>    16.5085     0.1473    15.7230 </r>
       <r>    16.5940     0.1260    15.7338 </r>
       <r>    16.6795     0.2942    15.7589 </r>
       <r>    16.7651     0.3181    15.7861 </r>
       <r>    16.8506     0.0968    15.7944 </r>
       <r>    16.9361     0.0464    15.7984 </r>
       <r>    17.0216     0.0389    15.8017 </r>
       <r>    17.1071     0.1755    15.8167 </r>
       <r>    17.1927     0.0726    15.8229 </r>
       <r>    17.2782     0.0007    15.8230 </r>
       <r>    17.3637     0.0005    15.8230 </r>
       <r>    17.4492     0.0215    15.8248 </r>
       <r>    17.5347     0.1148    15.8347 </r>
       <r>    17.6202     0.0669    15.8404 </r>
       <r>    17.7058     0.0337    15.8433 </r>
       <r>    17.7913     0.1420    15.8554 </r>
       <r>    17.8768     0.0830    15.8625 </r>
       <r>    17.9623     0.3060    15.8887 </r>
       <r>    18.0478     0.1030    15.8975 </r>
       <r>    18.1334     0.0473    15.9015 </r>
       <r>    18.2189     0.0827    15.9086 </r>
       <r>    18.3044     0.0130    15.9097 </r>
       <r>    18.3899     0.0079    15.9104 </r>
       <r>    18.4754     0.0040    15.9107 </r>
       <r>    18.5610     0.0388    15.9140 </r>
       <r>    18.6465     0.1516    15.9270 </r>
       <r>    18.7320     0.0276    15.9294 </r>
       <r>    18.8175     0.0538    15.9340 </r>
       <r>    18.9030     0.0246    15.9361 </r>
       <r>    18.9886     0.0552    15.9408 </r>
       <r>    19.0741     0.0401    15.9442 </r>
       <r>    19.1596     0.0578    15.9492 </r>
       <r>    19.2451     0.0697    15.9551 </r>
       <r>    19.3306     0.0241    15.9572 </r>
       <r>    19.4161     0.0423    15.9608 </r>
       <r>    19.5017     0.0814    15.9678 </r>
       <r>    19.5872     0.0197    15.9695 </r>
       <r>    19.6727     0.0809    15.9764 </r>
       <r>    19.7582     0.1248    15.9871 </r>
       <r>    19.8437     0.0756    15.9935 </r>
       <r>    19.9293     0.0041    15.9939 </r>
       <r>    20.0148     0.0000    15.9939 </r>
       <r>    20.1003     0.0000    15.9939 </r>
       <r>    20.1858     0.0000    15.9939 </r>
       <r>    20.2713     0.0135    15.9950 </r>
       <r>    20.3569     0.0536    15.9996 </r>
       <r>    20.4424     0.0044    16.0000 </r>
       <r>    20.5279     0.0000    16.0000 </r>
       <r>    20.6134     0.0000    16.0000 </r>
       <r>    20.6989     0.0000    16.0000 </r>
       <r>    20.7845     0.0000    16.0000 </r>
       <r>    20.8700     0.0000    16.0000 </r>
       <r>    20.9555     0.0000    16.0000 </r>
       <r>    21.0410     0.0000    16.0000 </r>
       <r>    21.1265     0.0000    16.0000 </r>
       <r>    21.2120     0.0000    16.0000 </r>
       <r>    21.2976     0.0000    16.0000 </r>
       <r>    21.3831     0.0000    16.0000 </r>
       <r>    21.4686     0.0000    16.0000 </r>
      </set>
      <set comment="spin 2">
       <r>    -4.1871     0.0000     0.0000 </r>
       <r>    -4.1016     0.0000     0.0000 </r>
       <r>    -4.0161     0.0000     0.0000 </r>
       <r>    -3.9306     0.0000     0.0000 </r>
       <r>    -3.8451     0.0000     0.0000 </r>
       <r>    -3.7595     0.0000     0.0000 </r>
       <r>    -3.6740     0.0000     0.0000 </r>
       <r>    -3.5885     0.0000     0.0000 </r>
       <r>    -3.5030     0.0000     0.0000 </r>
       <r>    -3.4175     0.0000     0.0000 </r>
       <r>    -3.3319     0.0000     0.0000 </r>
       <r>    -3.2464     0.0000     0.0000 </r>
       <r>    -3.1609     0.0000     0.0000 </r>
       <r>    -3.0754     0.0000     0.0000 </r>
       <r>    -2.9899     0.0000     0.0000 </r>
       <r>    -2.9043     0.0001     0.0000 </r>
       <r>    -2.8188     0.0072     0.0006 </r>
       <r>    -2.7333     0.0220     0.0025 </r>
       <r>    -2.6478     0.0374     0.0057 </r>
       <r>    -2.5623     0.1399     0.0177 </r>
       <r>    -2.4767     0.1040     0.0266 </r>
       <r>    -2.3912     0.0809     0.0335 </r>
       <r>    -2.3057     0.0807     0.0404 </r>
       <r>    -2.2202     0.1771     0.0555 </r>
       <r>    -2.1347     0.1941     0.0721 </r>
       <r>    -2.0492     0.2470     0.0932 </r>
       <r>    -1.9636     0.2912     0.1181 </r>
       <r>    -1.8781     0.1578     0.1316 </r>
       <r>    -1.7926     0.1261     0.1424 </r>
       <r>    -1.7071     0.1328     0.1538 </r>
       <r>    -1.6216     0.1739     0.1687 </r>
       <r>    -1.5360     0.2607     0.1910 </r>
       <r>    -1.4505     0.3614     0.2219 </r>
       <r>    -1.3650     0.2253     0.2411 </r>
       <r>    -1.2795     0.1377     0.2529 </r>
       <r>    -1.1940     0.2235     0.2720 </r>
       <r>    -1.1084     0.2460     0.2931 </r>
       <r>    -1.0229     0.2209     0.3120 </r>
       <r>    -0.9374     0.2737     0.3354 </r>
       <r>    -0.8519     0.2041     0.3528 </r>
       <r>    -0.7664     0.0793     0.3596 </r>
       <r>    -0.6808     0.2004     0.3767 </r>
       <r>    -0.5953     0.3689     0.4083 </r>
       <r>    -0.5098     0.3703     0.4400 </r>
       <r>    -0.4243     0.2453     0.4609 </r>
       <r>    -0.3388     0.2197     0.4797 </r>
       <r>    -0.2532     0.3258     0.5076 </r>
       <r>    -0.1677     0.3925     0.5412 </r>
       <r>    -0.0822     0.4210     0.5772 </r>
       <r>     0.0033     0.2578     0.5992 </r>
       <r>     0.0888     0.1199     0.6095 </r>
       <r>     0.1743     0.1975     0.6264 </r>
       <r>     0.2599     0.7458     0.6901 </r>
       <r>     0.3454     1.5834     0.8255 </r>
       <r>     0.4309     2.1602     1.0103 </r>
       <r>     0.5164     2.1545     1.1945 </r>
       <r>     0.6019     0.4463     1.2327 </r>
       <r>     0.6875     0.4152     1.2682 </r>
       <r>     0.7730     1.7326     1.4164 </r>
       <r>     0.8585     1.3722     1.5337 </r>
       <r>     0.9440     0.4232     1.5699 </r>
       <r>     1.0295     0.0178     1.5714 </r>
       <r>     1.1151     0.0704     1.5775 </r>
       <r>     1.2006     1.1862     1.6789 </r>
       <r>     1.2861     1.2186     1.7831 </r>
       <r>     1.3716     0.8377     1.8548 </r>
       <r>     1.4571     0.1974     1.8716 </r>
       <r>     1.5427     1.2133     1.9754 </r>
       <r>     1.6282     2.8787     2.2216 </r>
       <r>     1.7137     3.8742     2.5529 </r>
       <r>     1.7992     4.5596     2.9428 </r>
       <r>     1.8847     5.1389     3.3823 </r>
       <r>     1.9702     4.9799     3.8082 </r>
       <r>     2.0558     3.6464     4.1200 </r>
       <r>     2.1413     3.8000     4.4450 </r>
       <r>     2.2268     4.0041     4.7874 </r>
       <r>     2.3123     2.9501     5.0397 </r>
       <r>     2.3978     1.7704     5.1911 </r>
       <r>     2.4834     1.1399     5.2886 </r>
       <r>     2.5689     1.4943     5.4164 </r>
       <r>     2.6544     2.3547     5.6178 </r>
       <r>     2.7399     1.3644     5.7345 </r>
       <r>     2.8254     2.0304     5.9081 </r>
       <r>     2.9110     3.0618     6.1699 </r>
       <r>     2.9965     3.7255     6.4885 </r>
       <r>     3.0820     3.6588     6.8014 </r>
       <r>     3.1675     4.0400     7.1469 </r>
       <r>     3.2530     5.4386     7.6120 </r>
       <r>     3.3386     5.4423     8.0774 </r>
       <r>     3.4241     5.5835     8.5549 </r>
       <r>     3.5096     6.0772     9.0747 </r>
       <r>     3.5951     4.6345     9.4710 </r>
       <r>     3.6806     4.7215     9.8748 </r>
       <r>     3.7661     2.9949    10.1309 </r>
       <r>     3.8517     2.1387    10.3138 </r>
       <r>     3.9372     1.6977    10.4590 </r>
       <r>     4.0227     0.7086    10.5196 </r>
       <r>     4.1082     0.5385    10.5656 </r>
       <r>     4.1937     1.7325    10.7138 </r>
       <r>     4.2793     1.2650    10.8220 </r>
       <r>     4.3648     0.6444    10.8771 </r>
       <r>     4.4503     0.4646    10.9168 </r>
       <r>     4.5358     0.6706    10.9742 </r>
       <r>     4.6213     0.4737    11.0147 </r>
       <r>     4.7069     0.2040    11.0321 </r>
       <r>     4.7924     0.5166    11.0763 </r>
       <r>     4.8779     0.4575    11.1154 </r>
       <r>     4.9634     0.6308    11.1694 </r>
       <r>     5.0489     1.0007    11.2550 </r>
       <r>     5.1345     0.6861    11.3136 </r>
       <r>     5.2200     0.4861    11.3552 </r>
       <r>     5.3055     0.4797    11.3962 </r>
       <r>     5.3910     0.4443    11.4342 </r>
       <r>     5.4765     0.2172    11.4528 </r>
       <r>     5.5621     0.3140    11.4796 </r>
       <r>     5.6476     0.2560    11.5015 </r>
       <r>     5.7331     0.4006    11.5358 </r>
       <r>     5.8186     0.3471    11.5655 </r>
       <r>     5.9041     0.3904    11.5989 </r>
       <r>     5.9896     0.4787    11.6398 </r>
       <r>     6.0752     0.7037    11.7000 </r>
       <r>     6.1607     0.5932    11.7507 </r>
       <r>     6.2462     0.5521    11.7979 </r>
       <r>     6.3317     0.4446    11.8360 </r>
       <r>     6.4172     0.4692    11.8761 </r>
       <r>     6.5028     0.4082    11.9110 </r>
       <r>     6.5883     0.4492    11.9494 </r>
       <r>     6.6738     0.3796    11.9819 </r>
       <r>     6.7593     0.1588    11.9955 </r>
       <r>     6.8448     0.3355    12.0241 </r>
       <r>     6.9304     0.4592    12.0634 </r>
       <r>     7.0159     0.4885    12.1052 </r>
       <r>     7.1014     0.2933    12.1303 </r>
       <r>     7.1869     0.4050    12.1649 </r>
       <r>     7.2724     0.2122    12.1831 </r>
       <r>     7.3580     0.2463    12.2041 </r>
       <r>     7.4435     0.3079    12.2305 </r>
       <r>     7.5290     0.3208    12.2579 </r>
       <r>     7.6145     0.1908    12.2742 </r>
       <r>     7.7000     0.3411    12.3034 </r>
       <r>     7.7855     0.4716    12.3437 </r>
       <r>     7.8711     0.3803    12.3762 </r>
       <r>     7.9566     0.4888    12.4180 </r>
       <r>     8.0421     0.3957    12.4519 </r>
       <r>     8.1276     0.3844    12.4848 </r>
       <r>     8.2131     0.3880    12.5179 </r>
       <r>     8.2987     0.4326    12.5549 </r>
       <r>     8.3842     0.2723    12.5782 </r>
       <r>     8.4697     0.2172    12.5968 </r>
       <r>     8.5552     0.4494    12.6352 </r>
       <r>     8.6407     0.3216    12.6627 </r>
       <r>     8.7263     0.3726    12.6946 </r>
       <r>     8.8118     0.2588    12.7167 </r>
       <r>     8.8973     0.2063    12.7344 </r>
       <r>     8.9828     0.1067    12.7435 </r>
       <r>     9.0683     0.1464    12.7560 </r>
       <r>     9.1539     0.1598    12.7697 </r>
       <r>     9.2394     0.2367    12.7899 </r>
       <r>     9.3249     0.4299    12.8267 </r>
       <r>     9.4104     0.3065    12.8529 </r>
       <r>     9.4959     0.1508    12.8658 </r>
       <r>     9.5814     0.1609    12.8796 </r>
       <r>     9.6670     0.3531    12.9098 </r>
       <r>     9.7525     0.5436    12.9562 </r>
       <r>     9.8380     0.4089    12.9912 </r>
       <r>     9.9235     0.4184    13.0270 </r>
       <r>    10.0090     0.3333    13.0555 </r>
       <r>    10.0946     0.2079    13.0733 </r>
       <r>    10.1801     0.3663    13.1046 </r>
       <r>    10.2656     0.2022    13.1219 </r>
       <r>    10.3511     0.8610    13.1955 </r>
       <r>    10.4366     0.8256    13.2661 </r>
       <r>    10.5222     0.6936    13.3254 </r>
       <r>    10.6077     0.4549    13.3643 </r>
       <r>    10.6932     0.2465    13.3854 </r>
       <r>    10.7787     0.3244    13.4132 </r>
       <r>    10.8642     0.1729    13.4280 </r>
       <r>    10.9498     0.5116    13.4717 </r>
       <r>    11.0353     0.7679    13.5374 </r>
       <r>    11.1208     0.6138    13.5899 </r>
       <r>    11.2063     0.4726    13.6303 </r>
       <r>    11.2918     0.5780    13.6797 </r>
       <r>    11.3774     0.6977    13.7394 </r>
       <r>    11.4629     0.8462    13.8117 </r>
       <r>    11.5484     0.6578    13.8680 </r>
       <r>    11.6339     0.1900    13.8842 </r>
       <r>    11.7194     0.2728    13.9076 </r>
       <r>    11.8049     0.4348    13.9448 </r>
       <r>    11.8905     0.5434    13.9912 </r>
       <r>    11.9760     0.4694    14.0314 </r>
       <r>    12.0615     0.4703    14.0716 </r>
       <r>    12.1470     0.4320    14.1085 </r>
       <r>    12.2325     0.5804    14.1582 </r>
       <r>    12.3181     0.5997    14.2095 </r>
       <r>    12.4036     0.7993    14.2778 </r>
       <r>    12.4891     0.6894    14.3368 </r>
       <r>    12.5746     0.6083    14.3888 </r>
       <r>    12.6601     0.7079    14.4493 </r>
       <r>    12.7457     0.7941    14.5172 </r>
       <r>    12.8312     0.8726    14.5919 </r>
       <r>    12.9167     0.6250    14.6453 </r>
       <r>    13.0022     0.2873    14.6699 </r>
       <r>    13.0877     0.5139    14.7138 </r>
       <r>    13.1733     0.5095    14.7574 </r>
       <r>    13.2588     0.5653    14.8058 </r>
       <r>    13.3443     0.3521    14.8359 </r>
       <r>    13.4298     0.3498    14.8658 </r>
       <r>    13.5153     0.4555    14.9047 </r>
       <r>    13.6008     0.7091    14.9654 </r>
       <r>    13.6864     0.5345    15.0111 </r>
       <r>    13.7719     0.5417    15.0574 </r>
       <r>    13.8574     0.5955    15.1083 </r>
       <r>    13.9429     0.3248    15.1361 </r>
       <r>    14.0284     0.2952    15.1614 </r>
       <r>    14.1140     0.3891    15.1946 </r>
       <r>    14.1995     0.3823    15.2273 </r>
       <r>    14.2850     0.4943    15.2696 </r>
       <r>    14.3705     0.3618    15.3005 </r>
       <r>    14.4560     0.3667    15.3319 </r>
       <r>    14.5416     0.2131    15.3501 </r>
       <r>    14.6271     0.3226    15.3777 </r>
       <r>    14.7126     0.2204    15.3966 </r>
       <r>    14.7981     0.0618    15.4019 </r>
       <r>    14.8836     0.0734    15.4081 </r>
       <r>    14.9692     0.1607    15.4219 </r>
       <r>    15.0547     0.0425    15.4255 </r>
       <r>    15.1402     0.1228    15.4360 </r>
       <r>    15.2257     0.2161    15.4545 </r>
       <r>    15.3112     0.3804    15.4870 </r>
       <r>    15.3967     0.2918    15.5120 </r>
       <r>    15.4823     0.2645    15.5346 </r>
       <r>    15.5678     0.3117    15.5613 </r>
       <r>    15.6533     0.1056    15.5703 </r>
       <r>    15.7388     0.0127    15.5714 </r>
       <r>    15.8243     0.1034    15.5802 </r>
       <r>    15.9099     0.1478    15.5929 </r>
       <r>    15.9954     0.1409    15.6049 </r>
       <r>    16.0809     0.2175    15.6235 </r>
       <r>    16.1664     0.1707    15.6381 </r>
       <r>    16.2519     0.1504    15.6510 </r>
       <r>    16.3375     0.1523    15.6640 </r>
       <r>    16.4230     0.0929    15.6719 </r>
       <r>    16.5085     0.0194    15.6736 </r>
       <r>    16.5940     0.1262    15.6844 </r>
       <r>    16.6795     0.2144    15.7027 </r>
       <r>    16.7651     0.1735    15.7176 </r>
       <r>    16.8506     0.1282    15.7285 </r>
       <r>    16.9361     0.1071    15.7377 </r>
       <r>    17.0216     0.1725    15.7524 </r>
       <r>    17.1071     0.2659    15.7752 </r>
       <r>    17.1927     0.2947    15.8004 </r>
       <r>    17.2782     0.0798    15.8072 </r>
       <r>    17.3637     0.1574    15.8207 </r>
       <r>    17.4492     0.0287    15.8231 </r>
       <r>    17.5347     0.0093    15.8239 </r>
       <r>    17.6202     0.0421    15.8275 </r>
       <r>    17.7058     0.1552    15.8408 </r>
       <r>    17.7913     0.0182    15.8423 </r>
       <r>    17.8768     0.0075    15.8430 </r>
       <r>    17.9623     0.0563    15.8478 </r>
       <r>    18.0478     0.0498    15.8521 </r>
       <r>    18.1334     0.0885    15.8596 </r>
       <r>    18.2189     0.1196    15.8699 </r>
       <r>    18.3044     0.1628    15.8838 </r>
       <r>    18.3899     0.2725    15.9071 </r>
       <r>    18.4754     0.0423    15.9107 </r>
       <r>    18.5610     0.0257    15.9129 </r>
       <r>    18.6465     0.0457    15.9168 </r>
       <r>    18.7320     0.0728    15.9230 </r>
       <r>    18.8175     0.0750    15.9294 </r>
       <r>    18.9030     0.0035    15.9297 </r>
       <r>    18.9886     0.0920    15.9376 </r>
       <r>    19.0741     0.0840    15.9448 </r>
       <r>    19.1596     0.0229    15.9468 </r>
       <r>    19.2451     0.0478    15.9508 </r>
       <r>    19.3306     0.0021    15.9510 </r>
       <r>    19.4161     0.0141    15.9522 </r>
       <r>    19.5017     0.0801    15.9591 </r>
       <r>    19.5872     0.0140    15.9603 </r>
       <r>    19.6727     0.0265    15.9625 </r>
       <r>    19.7582     0.1371    15.9743 </r>
       <r>    19.8437     0.1043    15.9832 </r>
       <r>    19.9293     0.0177    15.9847 </r>
       <r>    20.0148     0.0296    15.9872 </r>
       <r>    20.1003     0.0738    15.9935 </r>
       <r>    20.1858     0.0042    15.9939 </r>
       <r>    20.2713     0.0176    15.9954 </r>
       <r>    20.3569     0.0510    15.9997 </r>
       <r>    20.4424     0.0030    16.0000 </r>
       <r>    20.5279     0.0000    16.0000 </r>
       <r>    20.6134     0.0000    16.0000 </r>
       <r>    20.6989     0.0000    16.0000 </r>
       <r>    20.7845     0.0000    16.0000 </r>
       <r>    20.8700     0.0000    16.0000 </r>
       <r>    20.9555     0.0000    16.0000 </r>
       <r>    21.0410     0.0000    16.0000 </r>
       <r>    21.1265     0.0000    16.0000 </r>
       <r>    21.2120     0.0000    16.0000 </r>
       <r>    21.2976     0.0000    16.0000 </r>
       <r>    21.3831     0.0000    16.0000 </r>
       <r>    21.4686     0.0000    16.0000 </r>
      </set>
     </set>
    </array>
   </total>
  </dos>
 </calculation>
 <structure name="finalpos" >
  <crystal>
   <varray name="basis" >
    <v>       2.47000000       0.00000000       0.00000000 </v>
    <v>      -1.23500000       2.13908275       0.00000000 </v>
    <v>       0.00000000       0.00000000       8.09000000 </v>
   </varray>
   <i name="volume">     42.74379318 </i>
   <varray name="rec_basis" >
    <v>       0.40485830       0.23374505       0.00000000 </v>
    <v>       0.00000000       0.46749010       0.00000000 </v>
    <v>       0.00000000       0.00000000       0.12360939 </v>
   </varray>
  </crystal>
  <varray name="positions" >
   <v>       0.00000000       0.00000000       0.00000000 </v>
   <v>       0.33333333       0.66666667       0.50000000 </v>
  </varray>
 </structure>
</modeling>
