<?xml version="1.0" encoding="ISO-8859-1"?>
<modeling>
 <generator>
  <i name="program" type="string">vasp </i>
  <i name="version" type="string">6.3.2  </i>
  <i name="subversion" type="string">27Jun22 (build Aug 12 2022 00:53:59) complex                          parallel </i>
  <i name="platform" type="string">tv2STD </i>
  <i name="date" type="string">2024 12 02 </i>
  <i name="time" type="string">16:52:14 </i>
 </generator>
 <incar>
  <i type="string" name="SYSTEM">Co-hcc</i>
  <i type="int" name="ISTART">     0</i>
  <i type="string" name="PREC">Accurate      normal | accurate</i>
  <i type="string" name="ALGO">Normal     Normal, Fast, Very_Fast</i>
  <i type="logical" name="ADDGRID"> F  </i>
  <i type="int" name="ISPIN">     2</i>
  <i type="int" name="ICHARG">     2</i>
  <i type="int" name="INIWAV">     1</i>
  <i type="int" name="NELM">   100</i>
  <i type="int" name="IBRION">    -1</i>
  <i name="EDIFF">      0.00000100</i>
  <i name="EDIFFG">     -0.02000000</i>
  <i type="int" name="NSW">     0</i>
  <i type="int" name="ISIF">     2</i>
  <i type="int" name="ISYM">     1</i>
  <i name="ENCUT">    425.00000000</i>
  <v name="MAGMOM">      3.00000000      3.00000000</v>
  <i type="logical" name="LREAL"> F  </i>
  <i type="int" name="ISMEAR">     0</i>
  <i name="SIGMA">      0.05000000</i>
  <i type="int" name="NWRITE">     2</i>
  <i type="logical" name="LWAVE"> F  </i>
  <i type="logical" name="LCHARG"> F  </i>
  <i type="int" name="LORBIT">    11</i>
 </incar>
 <primitive_cell>
  <structure name="primitive_cell" >
   <crystal>
    <varray name="basis" >
     <v>       1.23599995      -2.14081471       0.00000000 </v>
     <v>       1.23599995       2.14081471       0.00000000 </v>
     <v>       0.00000000       0.00000000       4.02114408 </v>
    </varray>
    <i name="volume">     21.28027152 </i>
    <varray name="rec_basis" >
     <v>       0.40453076      -0.23355594       0.00000000 </v>
     <v>       0.40453076       0.23355594       0.00000000 </v>
     <v>       0.00000000       0.00000000       0.24868544 </v>
    </varray>
   </crystal>
   <varray name="positions" >
    <v>       0.33333333       0.66666667       0.25000000 </v>
    <v>       0.66666667       0.33333333       0.75000000 </v>
   </varray>
  </structure>
  <varray name="primitive_index" >
   <v type="int" >        1 </v>
   <v type="int" >        2 </v>
  </varray>
 </primitive_cell>
 <kpoints>
  <generation param="Gamma">
   <v type="int" name="divisions">      14       14       10 </v>
   <v name="usershift">      0.00000000       0.00000000       0.00000000 </v>
   <v name="genvec1">      0.07142857      -0.00000000       0.00000000 </v>
   <v name="genvec2">     -0.00000000       0.07142857       0.00000000 </v>
   <v name="genvec3">      0.00000000       0.00000000       0.10000000 </v>
   <v name="shift">      0.00000000       0.00000000       0.00000000 </v>
  </generation>
  <varray name="kpointlist" >
   <v>       0.00000000       0.00000000       0.00000000 </v>
   <v>       0.07142857       0.00000000       0.00000000 </v>
   <v>       0.14285714       0.00000000       0.00000000 </v>
   <v>       0.21428571      -0.00000000       0.00000000 </v>
   <v>       0.28571429       0.00000000       0.00000000 </v>
   <v>       0.35714286      -0.00000000       0.00000000 </v>
   <v>       0.42857143      -0.00000000       0.00000000 </v>
   <v>       0.50000000       0.00000000       0.00000000 </v>
   <v>       0.07142857       0.07142857       0.00000000 </v>
   <v>       0.14285714       0.07142857       0.00000000 </v>
   <v>       0.21428571       0.07142857       0.00000000 </v>
   <v>       0.28571429       0.07142857       0.00000000 </v>
   <v>       0.35714286       0.07142857       0.00000000 </v>
   <v>       0.42857143       0.07142857       0.00000000 </v>
   <v>       0.14285714       0.14285714       0.00000000 </v>
   <v>       0.21428571       0.14285714       0.00000000 </v>
   <v>       0.28571429       0.14285714       0.00000000 </v>
   <v>       0.35714286       0.14285714       0.00000000 </v>
   <v>       0.42857143       0.14285714       0.00000000 </v>
   <v>       0.21428571       0.21428571       0.00000000 </v>
   <v>       0.28571429       0.21428571       0.00000000 </v>
   <v>       0.35714286       0.21428571       0.00000000 </v>
   <v>       0.28571429       0.28571429       0.00000000 </v>
   <v>       0.35714286       0.28571429       0.00000000 </v>
   <v>       0.00000000       0.00000000       0.10000000 </v>
   <v>       0.07142857       0.00000000       0.10000000 </v>
   <v>       0.14285714       0.00000000       0.10000000 </v>
   <v>       0.21428571      -0.00000000       0.10000000 </v>
   <v>       0.28571429       0.00000000       0.10000000 </v>
   <v>       0.35714286      -0.00000000       0.10000000 </v>
   <v>       0.42857143      -0.00000000       0.10000000 </v>
   <v>       0.50000000       0.00000000       0.10000000 </v>
   <v>       0.07142857       0.07142857       0.10000000 </v>
   <v>       0.14285714       0.07142857       0.10000000 </v>
   <v>       0.21428571       0.07142857       0.10000000 </v>
   <v>       0.28571429       0.07142857       0.10000000 </v>
   <v>       0.35714286       0.07142857       0.10000000 </v>
   <v>       0.42857143       0.07142857       0.10000000 </v>
   <v>       0.14285714       0.14285714       0.10000000 </v>
   <v>       0.21428571       0.14285714       0.10000000 </v>
   <v>       0.28571429       0.14285714       0.10000000 </v>
   <v>       0.35714286       0.14285714       0.10000000 </v>
   <v>       0.42857143       0.14285714       0.10000000 </v>
   <v>       0.21428571       0.21428571       0.10000000 </v>
   <v>       0.28571429       0.21428571       0.10000000 </v>
   <v>       0.35714286       0.21428571       0.10000000 </v>
   <v>       0.28571429       0.28571429       0.10000000 </v>
   <v>       0.35714286       0.28571429       0.10000000 </v>
   <v>       0.00000000       0.00000000       0.20000000 </v>
   <v>       0.07142857       0.00000000       0.20000000 </v>
   <v>       0.14285714       0.00000000       0.20000000 </v>
   <v>       0.21428571      -0.00000000       0.20000000 </v>
   <v>       0.28571429       0.00000000       0.20000000 </v>
   <v>       0.35714286      -0.00000000       0.20000000 </v>
   <v>       0.42857143      -0.00000000       0.20000000 </v>
   <v>       0.50000000       0.00000000       0.20000000 </v>
   <v>       0.07142857       0.07142857       0.20000000 </v>
   <v>       0.14285714       0.07142857       0.20000000 </v>
   <v>       0.21428571       0.07142857       0.20000000 </v>
   <v>       0.28571429       0.07142857       0.20000000 </v>
   <v>       0.35714286       0.07142857       0.20000000 </v>
   <v>       0.42857143       0.07142857       0.20000000 </v>
   <v>       0.14285714       0.14285714       0.20000000 </v>
   <v>       0.21428571       0.14285714       0.20000000 </v>
   <v>       0.28571429       0.14285714       0.20000000 </v>
   <v>       0.35714286       0.14285714       0.20000000 </v>
   <v>       0.42857143       0.14285714       0.20000000 </v>
   <v>       0.21428571       0.21428571       0.20000000 </v>
   <v>       0.28571429       0.21428571       0.20000000 </v>
   <v>       0.35714286       0.21428571       0.20000000 </v>
   <v>       0.28571429       0.28571429       0.20000000 </v>
   <v>       0.35714286       0.28571429       0.20000000 </v>
   <v>       0.00000000       0.00000000       0.30000000 </v>
   <v>       0.07142857       0.00000000       0.30000000 </v>
   <v>       0.14285714       0.00000000       0.30000000 </v>
   <v>       0.21428571      -0.00000000       0.30000000 </v>
   <v>       0.28571429       0.00000000       0.30000000 </v>
   <v>       0.35714286      -0.00000000       0.30000000 </v>
   <v>       0.42857143      -0.00000000       0.30000000 </v>
   <v>       0.50000000       0.00000000       0.30000000 </v>
   <v>       0.07142857       0.07142857       0.30000000 </v>
   <v>       0.14285714       0.07142857       0.30000000 </v>
   <v>       0.21428571       0.07142857       0.30000000 </v>
   <v>       0.28571429       0.07142857       0.30000000 </v>
   <v>       0.35714286       0.07142857       0.30000000 </v>
   <v>       0.42857143       0.07142857       0.30000000 </v>
   <v>       0.14285714       0.14285714       0.30000000 </v>
   <v>       0.21428571       0.14285714       0.30000000 </v>
   <v>       0.28571429       0.14285714       0.30000000 </v>
   <v>       0.35714286       0.14285714       0.30000000 </v>
   <v>       0.42857143       0.14285714       0.30000000 </v>
   <v>       0.21428571       0.21428571       0.30000000 </v>
   <v>       0.28571429       0.21428571       0.30000000 </v>
   <v>       0.35714286       0.21428571       0.30000000 </v>
   <v>       0.28571429       0.28571429       0.30000000 </v>
   <v>       0.35714286       0.28571429       0.30000000 </v>
   <v>       0.00000000       0.00000000       0.40000000 </v>
   <v>       0.07142857       0.00000000       0.40000000 </v>
   <v>       0.14285714       0.00000000       0.40000000 </v>
   <v>       0.21428571      -0.00000000       0.40000000 </v>
   <v>       0.28571429       0.00000000       0.40000000 </v>
   <v>       0.35714286      -0.00000000       0.40000000 </v>
   <v>       0.42857143      -0.00000000       0.40000000 </v>
   <v>       0.50000000       0.00000000       0.40000000 </v>
   <v>       0.07142857       0.07142857       0.40000000 </v>
   <v>       0.14285714       0.07142857       0.40000000 </v>
   <v>       0.21428571       0.07142857       0.40000000 </v>
   <v>       0.28571429       0.07142857       0.40000000 </v>
   <v>       0.35714286       0.07142857       0.40000000 </v>
   <v>       0.42857143       0.07142857       0.40000000 </v>
   <v>       0.14285714       0.14285714       0.40000000 </v>
   <v>       0.21428571       0.14285714       0.40000000 </v>
   <v>       0.28571429       0.14285714       0.40000000 </v>
   <v>       0.35714286       0.14285714       0.40000000 </v>
   <v>       0.42857143       0.14285714       0.40000000 </v>
   <v>       0.21428571       0.21428571       0.40000000 </v>
   <v>       0.28571429       0.21428571       0.40000000 </v>
   <v>       0.35714286       0.21428571       0.40000000 </v>
   <v>       0.28571429       0.28571429       0.40000000 </v>
   <v>       0.35714286       0.28571429       0.40000000 </v>
   <v>       0.00000000       0.00000000       0.50000000 </v>
   <v>       0.07142857       0.00000000       0.50000000 </v>
   <v>       0.14285714       0.00000000       0.50000000 </v>
   <v>       0.21428571      -0.00000000       0.50000000 </v>
   <v>       0.28571429       0.00000000       0.50000000 </v>
   <v>       0.35714286      -0.00000000       0.50000000 </v>
   <v>       0.42857143      -0.00000000       0.50000000 </v>
   <v>       0.50000000       0.00000000       0.50000000 </v>
   <v>       0.07142857       0.07142857       0.50000000 </v>
   <v>       0.14285714       0.07142857       0.50000000 </v>
   <v>       0.21428571       0.07142857       0.50000000 </v>
   <v>       0.28571429       0.07142857       0.50000000 </v>
   <v>       0.35714286       0.07142857       0.50000000 </v>
   <v>       0.42857143       0.07142857       0.50000000 </v>
   <v>       0.14285714       0.14285714       0.50000000 </v>
   <v>       0.21428571       0.14285714       0.50000000 </v>
   <v>       0.28571429       0.14285714       0.50000000 </v>
   <v>       0.35714286       0.14285714       0.50000000 </v>
   <v>       0.42857143       0.14285714       0.50000000 </v>
   <v>       0.21428571       0.21428571       0.50000000 </v>
   <v>       0.28571429       0.21428571       0.50000000 </v>
   <v>       0.35714286       0.21428571       0.50000000 </v>
   <v>       0.28571429       0.28571429       0.50000000 </v>
   <v>       0.35714286       0.28571429       0.50000000 </v>
  </varray>
  <varray name="weights" >
   <v>       0.00051020 </v>
   <v>       0.00306122 </v>
   <v>       0.00306122 </v>
   <v>       0.00306122 </v>
   <v>       0.00306122 </v>
   <v>       0.00306122 </v>
   <v>       0.00306122 </v>
   <v>       0.00153061 </v>
   <v>       0.00306122 </v>
   <v>       0.00612245 </v>
   <v>       0.00612245 </v>
   <v>       0.00612245 </v>
   <v>       0.00612245 </v>
   <v>       0.00612245 </v>
   <v>       0.00306122 </v>
   <v>       0.00612245 </v>
   <v>       0.00612245 </v>
   <v>       0.00612245 </v>
   <v>       0.00306122 </v>
   <v>       0.00306122 </v>
   <v>       0.00612245 </v>
   <v>       0.00612245 </v>
   <v>       0.00306122 </v>
   <v>       0.00306122 </v>
   <v>       0.00102041 </v>
   <v>       0.00612245 </v>
   <v>       0.00612245 </v>
   <v>       0.00612245 </v>
   <v>       0.00612245 </v>
   <v>       0.00612245 </v>
   <v>       0.00612245 </v>
   <v>       0.00306122 </v>
   <v>       0.00612245 </v>
   <v>       0.01224490 </v>
   <v>       0.01224490 </v>
   <v>       0.01224490 </v>
   <v>       0.01224490 </v>
   <v>       0.01224490 </v>
   <v>       0.00612245 </v>
   <v>       0.01224490 </v>
   <v>       0.01224490 </v>
   <v>       0.01224490 </v>
   <v>       0.00612245 </v>
   <v>       0.00612245 </v>
   <v>       0.01224490 </v>
   <v>       0.01224490 </v>
   <v>       0.00612245 </v>
   <v>       0.00612245 </v>
   <v>       0.00102041 </v>
   <v>       0.00612245 </v>
   <v>       0.00612245 </v>
   <v>       0.00612245 </v>
   <v>       0.00612245 </v>
   <v>       0.00612245 </v>
   <v>       0.00612245 </v>
   <v>       0.00306122 </v>
   <v>       0.00612245 </v>
   <v>       0.01224490 </v>
   <v>       0.01224490 </v>
   <v>       0.01224490 </v>
   <v>       0.01224490 </v>
   <v>       0.01224490 </v>
   <v>       0.00612245 </v>
   <v>       0.01224490 </v>
   <v>       0.01224490 </v>
   <v>       0.01224490 </v>
   <v>       0.00612245 </v>
   <v>       0.00612245 </v>
   <v>       0.01224490 </v>
   <v>       0.01224490 </v>
   <v>       0.00612245 </v>
   <v>       0.00612245 </v>
   <v>       0.00102041 </v>
   <v>       0.00612245 </v>
   <v>       0.00612245 </v>
   <v>       0.00612245 </v>
   <v>       0.00612245 </v>
   <v>       0.00612245 </v>
   <v>       0.00612245 </v>
   <v>       0.00306122 </v>
   <v>       0.00612245 </v>
   <v>       0.01224490 </v>
   <v>       0.01224490 </v>
   <v>       0.01224490 </v>
   <v>       0.01224490 </v>
   <v>       0.01224490 </v>
   <v>       0.00612245 </v>
   <v>       0.01224490 </v>
   <v>       0.01224490 </v>
   <v>       0.01224490 </v>
   <v>       0.00612245 </v>
   <v>       0.00612245 </v>
   <v>       0.01224490 </v>
   <v>       0.01224490 </v>
   <v>       0.00612245 </v>
   <v>       0.00612245 </v>
   <v>       0.00102041 </v>
   <v>       0.00612245 </v>
   <v>       0.00612245 </v>
   <v>       0.00612245 </v>
   <v>       0.00612245 </v>
   <v>       0.00612245 </v>
   <v>       0.00612245 </v>
   <v>       0.00306122 </v>
   <v>       0.00612245 </v>
   <v>       0.01224490 </v>
   <v>       0.01224490 </v>
   <v>       0.01224490 </v>
   <v>       0.01224490 </v>
   <v>       0.01224490 </v>
   <v>       0.00612245 </v>
   <v>       0.01224490 </v>
   <v>       0.01224490 </v>
   <v>       0.01224490 </v>
   <v>       0.00612245 </v>
   <v>       0.00612245 </v>
   <v>       0.01224490 </v>
   <v>       0.01224490 </v>
   <v>       0.00612245 </v>
   <v>       0.00612245 </v>
   <v>       0.00051020 </v>
   <v>       0.00306122 </v>
   <v>       0.00306122 </v>
   <v>       0.00306122 </v>
   <v>       0.00306122 </v>
   <v>       0.00306122 </v>
   <v>       0.00306122 </v>
   <v>       0.00153061 </v>
   <v>       0.00306122 </v>
   <v>       0.00612245 </v>
   <v>       0.00612245 </v>
   <v>       0.00612245 </v>
   <v>       0.00612245 </v>
   <v>       0.00612245 </v>
   <v>       0.00306122 </v>
   <v>       0.00612245 </v>
   <v>       0.00612245 </v>
   <v>       0.00612245 </v>
   <v>       0.00306122 </v>
   <v>       0.00306122 </v>
   <v>       0.00612245 </v>
   <v>       0.00612245 </v>
   <v>       0.00306122 </v>
   <v>       0.00306122 </v>
  </varray>
 </kpoints>
 <parameters>
  <separator name="general" >
   <i type="string" name="SYSTEM">Co-hcc</i>
   <i type="logical" name="LCOMPAT"> F  </i>
  </separator>
  <separator name="electronic" >
   <i type="string" name="PREC">accura</i>
   <i name="ENMAX">    425.00000000</i>
   <i name="ENAUG">    477.81800000</i>
   <i name="EDIFF">      0.00000100</i>
   <i type="int" name="IALGO">    38</i>
   <i type="int" name="IWAVPR">    10</i>
   <i type="int" name="NBANDS">    16</i>
   <i type="int" name="NBANDSLOW">    -1</i>
   <i type="int" name="NBANDSHIGH">    -1</i>
   <i name="NELECT">     18.00000000</i>
   <i type="int" name="TURBO">     0</i>
   <i type="int" name="IRESTART">     0</i>
   <i type="int" name="NREBOOT">     0</i>
   <i type="int" name="NMIN">     0</i>
   <i name="EREF">      0.00000000</i>
   <separator name="electronic smearing" >
    <i type="int" name="ISMEAR">     0</i>
    <i name="SIGMA">      0.05000000</i>
    <i name="KSPACING">      0.50000000</i>
    <i type="logical" name="KGAMMA"> T  </i>
    <i type="logical" name="KBLOWUP"> T  </i>
   </separator>
   <separator name="electronic projectors" >
    <i type="logical" name="LREAL"> F  </i>
    <v name="ROPT">      0.00000000</v>
    <i type="int" name="LMAXPAW">  -100</i>
    <i type="int" name="LMAXMIX">     2</i>
    <i type="logical" name="NLSPLINE"> F  </i>
   </separator>
   <separator name="electronic startup" >
    <i type="int" name="ISTART">     0</i>
    <i type="int" name="ICHARG">     2</i>
    <i type="int" name="INIWAV">     1</i>
   </separator>
   <separator name="electronic spin" >
    <i type="int" name="ISPIN">     2</i>
    <i type="logical" name="LNONCOLLINEAR"> F  </i>
    <v name="MAGMOM">      3.00000000      3.00000000</v>
    <i name="NUPDOWN">     -1.00000000</i>
    <i type="logical" name="LSORBIT"> F  </i>
    <v name="SAXIS">      0.00000000      0.00000000      1.00000000</v>
    <i type="logical" name="LSPIRAL"> F  </i>
    <v name="QSPIRAL">      0.00000000      0.00000000      0.00000000</v>
    <i type="logical" name="LZEROZ"> F  </i>
   </separator>
   <separator name="electronic exchange-correlation" >
    <i type="logical" name="LASPH"> F  </i>
    <i type="logical" name="LMETAGGA"> F  </i>
   </separator>
   <separator name="electronic convergence" >
    <i type="int" name="NELM">   100</i>
    <i type="int" name="NELMDL">    -5</i>
    <i type="int" name="NELMIN">     2</i>
    <i name="ENINI">    425.00000000</i>
    <separator name="electronic convergence detail" >
     <i type="logical" name="LDIAG"> T  </i>
     <i type="logical" name="LSUBROT"> F  </i>
     <i name="WEIMIN">      0.00000000</i>
     <i name="EBREAK">      0.00000002</i>
     <i name="DEPER">      0.30000000</i>
     <i type="int" name="NRMM">     4</i>
     <i name="TIME">      0.40000000</i>
    </separator>
   </separator>
   <separator name="electronic mixer" >
    <i name="AMIX">      0.40000000</i>
    <i name="BMIX">      1.00000000</i>
    <i name="AMIN">      0.10000000</i>
    <i name="AMIX_MAG">      1.60000000</i>
    <i name="BMIX_MAG">      1.00000000</i>
    <separator name="electronic mixer details" >
     <i type="int" name="IMIX">     4</i>
     <i type="logical" name="MIXFIRST"> F  </i>
     <i type="int" name="MAXMIX">   -45</i>
     <i name="WC">    100.00000000</i>
     <i type="int" name="INIMIX">     1</i>
     <i type="int" name="MIXPRE">     1</i>
     <i type="int" name="MREMOVE">     5</i>
    </separator>
   </separator>
   <separator name="electronic dipolcorrection" >
    <i type="logical" name="LDIPOL"> F  </i>
    <i type="logical" name="LMONO"> F  </i>
    <i type="int" name="IDIPOL">     0</i>
    <i name="EPSILON">      1.00000000</i>
    <v name="DIPOL">   -100.00000000   -100.00000000   -100.00000000</v>
    <i name="EFIELD">      0.00000000</i>
   </separator>
  </separator>
  <separator name="grids" >
   <i type="int" name="NGX">    18</i>
   <i type="int" name="NGY">    18</i>
   <i type="int" name="NGZ">    28</i>
   <i type="int" name="NGXF">    36</i>
   <i type="int" name="NGYF">    36</i>
   <i type="int" name="NGZF">    56</i>
   <i type="logical" name="ADDGRID"> F  </i>
  </separator>
  <separator name="ionic" >
   <i type="int" name="NSW">     0</i>
   <i type="int" name="IBRION">    -1</i>
   <i type="int" name="MDALGO">     0</i>
   <i type="int" name="ISIF">     2</i>
   <i name="PSTRESS">      0.00000000</i>
   <i name="EDIFFG">     -0.02000000</i>
   <i type="int" name="NFREE">     0</i>
   <i name="POTIM">      0.50000000</i>
   <i name="SMASS">     -3.00000000</i>
   <i name="SCALEE">      1.00000000</i>
  </separator>
  <separator name="ionic md" >
   <i name="TEBEG">      0.00010000</i>
   <i name="TEEND">      0.00010000</i>
   <i type="int" name="NBLOCK">     1</i>
   <i type="int" name="KBLOCK">     1</i>
   <i type="int" name="NPACO">   256</i>
   <i name="APACO">     10.00000000</i>
  </separator>
  <separator name="symmetry" >
   <i type="int" name="ISYM">     1</i>
   <i name="SYMPREC">      0.00001000</i>
  </separator>
  <separator name="dos" >
   <i type="int" name="LORBIT">    11</i>
   <v name="RWIGS">     -1.00000000</v>
   <i type="int" name="NEDOS">   301</i>
   <i name="EMIN">     10.00000000</i>
   <i name="EMAX">    -10.00000000</i>
   <i name="EFERMI">      0.00000000</i>
  </separator>
  <separator name="writing" >
   <i type="int" name="NWRITE">     2</i>
   <i type="logical" name="LWAVE"> F  </i>
   <i type="logical" name="LDOWNSAMPLE"> F  </i>
   <i type="logical" name="LCHARG"> F  </i>
   <i type="logical" name="LPARD"> F  </i>
   <i type="logical" name="LVTOT"> F  </i>
   <i type="logical" name="LVHAR"> F  </i>
   <i type="logical" name="LELF"> F  </i>
   <i type="logical" name="LOPTICS"> F  </i>
   <v name="STM">      0.00000000      0.00000000      0.00000000      0.00000000      0.00000000      0.00000000      0.00000000</v>
  </separator>
  <separator name="performance" >
   <i type="int" name="NPAR">     4</i>
   <i type="int" name="NSIM">     4</i>
   <i type="int" name="NBLK">    -1</i>
   <i type="logical" name="LPLANE"> T  </i>
   <i type="logical" name="LSCALAPACK"> T  </i>
   <i type="logical" name="LSCAAWARE"> F  </i>
   <i type="logical" name="LSCALU"> F  </i>
   <i type="logical" name="LASYNC"> F  </i>
   <i type="logical" name="LORBITALREAL"> F  </i>
  </separator>
  <separator name="miscellaneous" >
   <i type="int" name="IDIOT">     3</i>
   <i type="int" name="PHON_NSTRUCT">    -1</i>
   <i type="logical" name="LMUSIC"> F  </i>
   <v name="POMASS">     58.93300000</v>
   <v name="DARWINR">      0.00000000</v>
   <v name="DARWINV">      1.00000000</v>
   <i type="logical" name="LCORR"> T  </i>
  </separator>
  <i type="logical" name="GGA_COMPAT"> T  </i>
  <i type="logical" name="LBERRY"> F  </i>
  <i type="int" name="ICORELEVEL">     0</i>
  <i type="logical" name="LDAU"> F  </i>
  <i type="int" name="I_CONSTRAINED_M">     0</i>
  <separator name="electronic exchange-correlation" >
   <i type="string" name="GGA">--</i>
   <i type="int" name="VOSKOWN">     0</i>
   <i type="logical" name="LHFCALC"> F  </i>
   <i type="string" name="PRECFOCK"></i>
   <i type="logical" name="LSYMGRAD"> F  </i>
   <i type="logical" name="LHFONE"> F  </i>
   <i type="logical" name="LRHFCALC"> F  </i>
   <i type="logical" name="LTHOMAS"> F  </i>
   <i type="logical" name="LMODELHF"> F  </i>
   <i type="logical" name="LFOCKACE"> F  </i>
   <i name="ENCUT4O">     -1.00000000</i>
   <i type="int" name="EXXOEP">     0</i>
   <i type="int" name="FOURORBIT">     0</i>
   <i name="AEXX">      0.00000000</i>
   <i name="HFALPHA">      0.00000000</i>
   <i name="MCALPHA">      0.00000000</i>
   <i name="ALDAX">      1.00000000</i>
   <i name="AGGAX">      1.00000000</i>
   <i name="ALDAC">      1.00000000</i>
   <i name="AGGAC">      1.00000000</i>
   <i type="int" name="NKREDX">     1</i>
   <i type="int" name="NKREDY">     1</i>
   <i type="int" name="NKREDZ">     1</i>
   <i type="logical" name="SHIFTRED"> F  </i>
   <i type="logical" name="ODDONLY"> F  </i>
   <i type="logical" name="EVENONLY"> F  </i>
   <i type="int" name="LMAXFOCK">     0</i>
   <i type="int" name="NMAXFOCKAE">     0</i>
   <i type="logical" name="LFOCKAEDFT"> F  </i>
   <i name="HFSCREEN">      0.00000000</i>
   <i name="HFSCREENC">      0.00000000</i>
   <i type="int" name="NBANDSGWLOW">     0</i>
  </separator>
  <separator name="vdW DFT" >
   <i type="logical" name="LUSE_VDW"> F  </i>
   <i name="Zab_VDW">     -0.84910000</i>
   <i name="PARAM1">      0.12340000</i>
   <i name="PARAM2">      1.00000000</i>
   <i name="PARAM3">      0.00000000</i>
  </separator>
  <separator name="model GW" >
   <i type="int" name="MODEL_GW">     0</i>
   <i name="MODEL_EPS0">      6.38408146</i>
   <i name="MODEL_ALPHA">      1.00000000</i>
  </separator>
  <separator name="linear response parameters" >
   <i type="logical" name="LEPSILON"> F  </i>
   <i type="logical" name="LRPA"> F  </i>
   <i type="logical" name="LNABLA"> F  </i>
   <i type="logical" name="LVEL"> F  </i>
   <i name="CSHIFT">      0.10000000</i>
   <i name="OMEGAMAX">     -1.00000000</i>
   <i name="DEG_THRESHOLD">      0.00200000</i>
   <i name="RTIME">     -0.10000000</i>
   <i name="WPLASMAI">      0.00000000</i>
   <v name="DFIELD">      0.00000000      0.00000000      0.00000000</v>
   <v name="WPLASMA">      0.00000000      0.00000000      0.00000000      0.00000000      0.00000000      0.00000000      0.00000000      0.00000000      0.00000000</v>
  </separator>
  <separator name="orbital magnetization" >
   <i type="logical" name="NUCIND"> F  </i>
   <v name="MAGPOS">      0.00000000      0.00000000      0.00000000</v>
   <i type="logical" name="LNICSALL"> T  </i>
   <i type="logical" name="ORBITALMAG"> F  </i>
   <i type="logical" name="LMAGBLOCH"> F  </i>
   <i type="logical" name="LCHIMAG"> F  </i>
   <i type="logical" name="LGAUGE"> T  </i>
   <i type="int" name="MAGATOM">     0</i>
   <v name="MAGDIPOL">      0.00000000      0.00000000      0.00000000</v>
   <v name="AVECCONST">      0.00000000      0.00000000      0.00000000</v>
  </separator>
  <separator name="response functions" >
   <i type="logical" name="LFINITE_TEMPERATURE"> F  </i>
   <i type="logical" name="LADDER"> F  </i>
   <i type="logical" name="LRPAFORCE"> F  </i>
   <i type="logical" name="LFXC"> F  </i>
   <i type="logical" name="LHARTREE"> T  </i>
   <i type="int" name="IBSE">     0</i>
   <v type="int" name="KPOINT">    -1     0     0     0</v>
   <i type="logical" name="LTCTC"> F  </i>
   <i type="logical" name="LTCTE"> F  </i>
   <i type="logical" name="LTETE"> F  </i>
   <i type="logical" name="LTRIPLET"> F  </i>
   <i type="logical" name="LFXCEPS"> F  </i>
   <i type="logical" name="LFXHEG"> F  </i>
   <i type="int" name="NATURALO">     2</i>
   <i type="logical" name="LHOLEGF"> F  </i>
   <i type="logical" name="L2ORDER"> F  </i>
   <i type="logical" name="LDMP1"> F  </i>
   <i type="logical" name="LMP2LT"> F  </i>
   <i type="logical" name="LSMP2LT"> F  </i>
   <i type="logical" name="LGWLF"> F  </i>
   <i name="ENCUTGW">     -2.00000000</i>
   <i name="ENCUTGWSOFT">     -2.00000000</i>
   <i name="ENCUTLF">     -1.00000000</i>
   <i type="logical" name="LESF_SPLINES"> F  </i>
   <i type="int" name="LMAXMP2">    -1</i>
   <i name="SCISSOR">      0.00000000</i>
   <i type="int" name="NOMEGA">     0</i>
   <i type="int" name="NOMEGAR">     0</i>
   <i type="int" name="NBANDSGW">    -1</i>
   <i type="int" name="NBANDSO">    -1</i>
   <i type="int" name="NBANDSV">    -1</i>
   <i type="int" name="NELMGW">     1</i>
   <i type="int" name="NELMHF">     1</i>
   <i type="int" name="DIM">     3</i>
   <i type="int" name="IESPILON">     4</i>
   <i type="int" name="ANTIRES">     0</i>
   <i name="OMEGAMAX">    -30.00000000</i>
   <i name="OMEGAMIN">    -30.00000000</i>
   <i name="OMEGATL">   -200.00000000</i>
   <i type="int" name="OMEGAGRID">     0</i>
   <i name="CSHIFT">     -0.10000000</i>
   <i type="logical" name="LSELFENERGY"> F  </i>
   <i type="logical" name="LSPECTRAL"> F  </i>
   <i type="logical" name="LSPECTRALGW"> F  </i>
   <i type="logical" name="LSINGLES"> F  </i>
   <i type="logical" name="LFERMIGW"> F  </i>
   <i type="logical" name="ODDONLYGW"> F  </i>
   <i type="logical" name="EVENONLYGW"> F  </i>
   <i type="int" name="NKREDLFX">     1</i>
   <i type="int" name="NKREDLFY">     1</i>
   <i type="int" name="NKREDLFZ">     1</i>
   <i type="int" name="MAXMEM">  2800</i>
   <i type="int" name="TELESCOPE">     0</i>
   <i type="int" name="NTAUPAR">    -1</i>
   <i type="int" name="NOMEGAPAR">    -1</i>
   <i name="DAMP_NEWTON">      0.80000001</i>
   <i name="LAMBDA">      1.00000000</i>
  </separator>
  <separator name="External order field" >
   <i name="OFIELD_KAPPA">      0.00000000</i>
   <v name="OFIELD_K">      0.00000000      0.00000000      0.00000000</v>
   <i name="OFIELD_Q6_NEAR">      0.00000000</i>
   <i name="OFIELD_Q6_FAR">      0.00000000</i>
   <i name="OFIELD_A">      0.00000000</i>
  </separator>
  <separator name="optional k-points parameters" >
   <i type="int" name="KPOINTS_OPT_MODE">     1</i>
   <i type="logical" name="LKPOINTS_OPT"> F  </i>
  </separator>
 </parameters>
 <atominfo>
  <atoms>       2 </atoms>
  <types>       1 </types>
  <array name="atoms" >
   <dimension dim="1">ion</dimension>
   <field type="string">element</field>
   <field type="int">atomtype</field>
   <set>
    <rc><c>Co</c><c>   1</c></rc>
    <rc><c>Co</c><c>   1</c></rc>
   </set>
  </array>
  <array name="atomtypes" >
   <dimension dim="1">type</dimension>
   <field type="int">atomspertype</field>
   <field type="string">element</field>
   <field>mass</field>
   <field>valence</field>
   <field type="string">pseudopotential</field>
   <set>
    <rc><c>   2</c><c>Co</c><c>     58.93300000</c><c>      9.00000000</c><c>  PAW_PBE Co 02Aug2007                  </c></rc>
   </set>
  </array>
 </atominfo>
 <structure name="initialpos" >
  <crystal>
   <varray name="basis" >
    <v>       1.23599995      -2.14081471       0.00000000 </v>
    <v>       1.23599995       2.14081471       0.00000000 </v>
    <v>       0.00000000       0.00000000       4.02114408 </v>
   </varray>
   <i name="volume">     21.28027152 </i>
   <varray name="rec_basis" >
    <v>       0.40453076      -0.23355594       0.00000000 </v>
    <v>       0.40453076       0.23355594       0.00000000 </v>
    <v>       0.00000000       0.00000000       0.24868544 </v>
   </varray>
  </crystal>
  <varray name="positions" >
   <v>       0.33333333       0.66666667       0.25000000 </v>
   <v>       0.66666667       0.33333333       0.75000000 </v>
  </varray>
 </structure>
 <calculation>
  <scstep>
   <time name="dav">    0.85    0.85</time>
   <time name="total">    0.86    0.87</time>
   <energy>
    <i name="alphaZ">     79.61870385 </i>
    <i name="ewald">  -1531.60263765 </i>
    <i name="hartreedc">   -295.86427829 </i>
    <i name="XCdc">     35.75670864 </i>
    <i name="pawpsdc">   1439.98163886 </i>
    <i name="pawaedc">  -1545.88690193 </i>
    <i name="eentropy">     -0.00178502 </i>
    <i name="bandstr">    260.35030994 </i>
    <i name="atom">   1626.72322989 </i>
    <i name="e_fr_energy">     69.07498829 </i>
    <i name="e_wo_entrp">     69.07677330 </i>
    <i name="e_0_energy">     69.07588079 </i>
   </energy>
  </scstep>
  <scstep>
   <time name="dav">    0.83    0.83</time>
   <time name="total">    0.83    0.83</time>
   <energy>
    <i name="e_fr_energy">    -13.64232759 </i>
    <i name="e_wo_entrp">    -13.64038496 </i>
    <i name="e_0_energy">    -13.64135628 </i>
   </energy>
  </scstep>
  <scstep>
   <time name="dav">    0.99    0.99</time>
   <time name="total">    0.99    0.99</time>
   <energy>
    <i name="e_fr_energy">    -15.58012363 </i>
    <i name="e_wo_entrp">    -15.57814906 </i>
    <i name="e_0_energy">    -15.57913635 </i>
   </energy>
  </scstep>
  <scstep>
   <time name="dav">    1.09    1.10</time>
   <time name="total">    1.09    1.10</time>
   <energy>
    <i name="e_fr_energy">    -15.61149174 </i>
    <i name="e_wo_entrp">    -15.60952769 </i>
    <i name="e_0_energy">    -15.61050971 </i>
   </energy>
  </scstep>
  <scstep>
   <time name="dav">    0.99    1.00</time>
   <time name="total">    1.03    1.04</time>
   <energy>
    <i name="e_fr_energy">    -15.61165633 </i>
    <i name="e_wo_entrp">    -15.60969219 </i>
    <i name="e_0_energy">    -15.61067426 </i>
   </energy>
  </scstep>
  <scstep>
   <time name="dav">    0.85    0.86</time>
   <time name="total">    0.90    0.90</time>
   <energy>
    <i name="e_fr_energy">    -14.41342233 </i>
    <i name="e_wo_entrp">    -14.41013326 </i>
    <i name="e_0_energy">    -14.41177779 </i>
   </energy>
  </scstep>
  <scstep>
   <time name="dav">    0.91    0.92</time>
   <time name="total">    0.96    0.96</time>
   <energy>
    <i name="e_fr_energy">    -14.10121297 </i>
    <i name="e_wo_entrp">    -14.09853820 </i>
    <i name="e_0_energy">    -14.09987558 </i>
   </energy>
  </scstep>
  <scstep>
   <time name="dav">    1.13    1.14</time>
   <time name="total">    1.17    1.18</time>
   <energy>
    <i name="e_fr_energy">    -14.07711085 </i>
    <i name="e_wo_entrp">    -14.07434892 </i>
    <i name="e_0_energy">    -14.07572988 </i>
   </energy>
  </scstep>
  <scstep>
   <time name="dav">    1.13    1.13</time>
   <time name="total">    1.17    1.18</time>
   <energy>
    <i name="e_fr_energy">    -14.06428509 </i>
    <i name="e_wo_entrp">    -14.06134676 </i>
    <i name="e_0_energy">    -14.06281592 </i>
   </energy>
  </scstep>
  <scstep>
   <time name="dav">    1.04    1.05</time>
   <time name="total">    1.08    1.09</time>
   <energy>
    <i name="e_fr_energy">    -14.06304162 </i>
    <i name="e_wo_entrp">    -14.06002670 </i>
    <i name="e_0_energy">    -14.06153416 </i>
   </energy>
  </scstep>
  <scstep>
   <time name="dav">    1.17    1.18</time>
   <time name="total">    1.22    1.23</time>
   <energy>
    <i name="e_fr_energy">    -14.06305655 </i>
    <i name="e_wo_entrp">    -14.06007731 </i>
    <i name="e_0_energy">    -14.06156693 </i>
   </energy>
  </scstep>
  <scstep>
   <time name="dav">    0.86    0.86</time>
   <time name="total">    0.90    0.91</time>
   <energy>
    <i name="e_fr_energy">    -14.06305498 </i>
    <i name="e_wo_entrp">    -14.06007748 </i>
    <i name="e_0_energy">    -14.06156623 </i>
   </energy>
  </scstep>
  <scstep>
   <time name="dav">    0.63    0.64</time>
   <time name="total">    0.65    0.65</time>
   <energy>
    <i name="alphaZ">     79.61870385 </i>
    <i name="ewald">  -1531.60263765 </i>
    <i name="hartreedc">   -260.78568504 </i>
    <i name="XCdc">     32.88992588 </i>
    <i name="pawpsdc">   1826.42926834 </i>
    <i name="pawaedc">  -1932.51475757 </i>
    <i name="eentropy">     -0.00297470 </i>
    <i name="bandstr">    145.18187175 </i>
    <i name="atom">   1626.72322989 </i>
    <i name="e_fr_energy">    -14.06305525 </i>
    <i name="e_wo_entrp">    -14.06008055 </i>
    <i name="e_0_energy">    -14.06156790 </i>
   </energy>
  </scstep>
  <structure>
   <crystal>
    <varray name="basis" >
     <v>       1.23599995      -2.14081471       0.00000000 </v>
     <v>       1.23599995       2.14081471       0.00000000 </v>
     <v>       0.00000000       0.00000000       4.02114408 </v>
    </varray>
    <i name="volume">     21.28027152 </i>
    <varray name="rec_basis" >
     <v>       0.40453076      -0.23355594       0.00000000 </v>
     <v>       0.40453076       0.23355594       0.00000000 </v>
     <v>       0.00000000       0.00000000       0.24868544 </v>
    </varray>
   </crystal>
   <varray name="positions" >
    <v>       0.33333333       0.66666667       0.25000000 </v>
    <v>       0.66666667       0.33333333       0.75000000 </v>
   </varray>
  </structure>
  <varray name="forces" >
   <v>      -0.00000000       0.00000000       0.00000000 </v>
   <v>       0.00000000      -0.00000000      -0.00000000 </v>
  </varray>
  <varray name="stress" >
   <v>      30.66846754      -0.00000000       0.00000000 </v>
   <v>       0.00000000      30.66846754       0.00000000 </v>
   <v>      -0.00000000      -0.00000000      14.75953725 </v>
  </varray>
  <energy>
   <i name="e_fr_energy">    -14.06305525 </i>
   <i name="e_wo_entrp">    -14.06008055 </i>
   <i name="e_0_energy">    -14.06156790 </i>
  </energy>
  <time name="totalsc">   13.05   13.13</time>
  <eigenvalues>
   <array>
    <dimension dim="1">band</dimension>
    <dimension dim="2">kpoint</dimension>
    <dimension dim="3">spin</dimension>
    <field>eigene</field>
    <field>occ</field>
    <set>
     <set comment="spin 1">
      <set comment="kpoint 1">
       <r>    1.5177    1.0000 </r>
       <r>    5.3259    1.0000 </r>
       <r>    7.8899    1.0000 </r>
       <r>    7.9441    1.0000 </r>
       <r>    7.9441    1.0000 </r>
       <r>    8.2601    1.0000 </r>
       <r>    8.2601    1.0000 </r>
       <r>    8.6418    1.0000 </r>
       <r>    8.6418    1.0000 </r>
       <r>    9.7524    1.0000 </r>
       <r>    9.7524    1.0000 </r>
       <r>   10.3901    1.0000 </r>
       <r>   16.9917    0.0000 </r>
       <r>   32.7617    0.0000 </r>
       <r>   35.5738    0.0000 </r>
       <r>   35.5741    0.0000 </r>
      </set>
      <set comment="kpoint 2">
       <r>    1.7002    1.0000 </r>
       <r>    5.4374    1.0000 </r>
       <r>    7.7285    1.0000 </r>
       <r>    8.0304    1.0000 </r>
       <r>    8.0803    1.0000 </r>
       <r>    8.2190    1.0000 </r>
       <r>    8.3365    1.0000 </r>
       <r>    8.5334    1.0000 </r>
       <r>    8.5874    1.0000 </r>
       <r>    9.0485    1.0000 </r>
       <r>    9.7753    1.0000 </r>
       <r>   11.3227    0.0000 </r>
       <r>   17.0217    0.0000 </r>
       <r>   31.4527    0.0000 </r>
       <r>   33.5292    0.0000 </r>
       <r>   33.7672    0.0000 </r>
      </set>
      <set comment="kpoint 3">
       <r>    2.2334    1.0000 </r>
       <r>    5.7309    1.0000 </r>
       <r>    7.4969    1.0000 </r>
       <r>    7.9596    1.0000 </r>
       <r>    8.0702    1.0000 </r>
       <r>    8.2789    1.0000 </r>
       <r>    8.3241    1.0000 </r>
       <r>    8.4472    1.0000 </r>
       <r>    8.5559    1.0000 </r>
       <r>    8.6430    1.0000 </r>
       <r>    9.8278    1.0000 </r>
       <r>   12.6690    0.0000 </r>
       <r>   17.1236    0.0000 </r>
       <r>   28.2670    0.0000 </r>
       <r>   31.6350    0.0000 </r>
       <r>   32.6227    0.0000 </r>
      </set>
      <set comment="kpoint 4">
       <r>    3.0665    1.0000 </r>
       <r>    6.0536    1.0000 </r>
       <r>    7.2710    1.0000 </r>
       <r>    7.2949    1.0000 </r>
       <r>    7.9477    1.0000 </r>
       <r>    8.2659    1.0000 </r>
       <r>    8.4568    1.0000 </r>
       <r>    8.6438    1.0000 </r>
       <r>    8.6548    1.0000 </r>
       <r>    8.8851    1.0000 </r>
       <r>    9.8832    1.0000 </r>
       <r>   14.1737    0.0000 </r>
       <r>   17.3248    0.0000 </r>
       <r>   24.9682    0.0000 </r>
       <r>   29.7134    0.0000 </r>
       <r>   31.7527    0.0000 </r>
      </set>
      <set comment="kpoint 5">
       <r>    4.0788    1.0000 </r>
       <r>    6.1445    1.0000 </r>
       <r>    6.7183    1.0000 </r>
       <r>    7.2781    1.0000 </r>
       <r>    7.9498    1.0000 </r>
       <r>    8.0843    1.0000 </r>
       <r>    8.2836    1.0000 </r>
       <r>    9.0967    1.0000 </r>
       <r>    9.1247    1.0000 </r>
       <r>    9.2716    1.0000 </r>
       <r>    9.9266    1.0000 </r>
       <r>   15.8100    0.0000 </r>
       <r>   17.5939    0.0000 </r>
       <r>   21.9700    0.0000 </r>
       <r>   28.0741    0.0000 </r>
       <r>   29.4280    0.0000 </r>
      </set>
      <set comment="kpoint 6">
       <r>    5.0085    1.0000 </r>
       <r>    6.0060    1.0000 </r>
       <r>    6.3227    1.0000 </r>
       <r>    7.4672    1.0000 </r>
       <r>    7.9328    1.0000 </r>
       <r>    8.1201    1.0000 </r>
       <r>    8.1349    1.0000 </r>
       <r>    9.5140    1.0000 </r>
       <r>    9.6501    1.0000 </r>
       <r>    9.8504    1.0000 </r>
       <r>    9.9549    1.0000 </r>
       <r>   17.2618    0.0000 </r>
       <r>   17.5482    0.0000 </r>
       <r>   20.1184    0.0000 </r>
       <r>   26.7949    0.0000 </r>
       <r>   26.8721    0.0000 </r>
      </set>
      <set comment="kpoint 7">
       <r>    5.5372    1.0000 </r>
       <r>    5.8466    1.0000 </r>
       <r>    6.0864    1.0000 </r>
       <r>    7.8227    1.0000 </r>
       <r>    7.8332    1.0000 </r>
       <r>    8.0342    1.0000 </r>
       <r>    8.2882    1.0000 </r>
       <r>    9.8043    1.0000 </r>
       <r>    9.9429    1.0000 </r>
       <r>    9.9700    1.0000 </r>
       <r>   10.9369    0.0000 </r>
       <r>   15.3926    0.0000 </r>
       <r>   19.2896    0.0000 </r>
       <r>   20.4430    0.0000 </r>
       <r>   24.6482    0.0000 </r>
       <r>   25.8380    0.0000 </r>
      </set>
      <set comment="kpoint 8">
       <r>    5.7108    1.0000 </r>
       <r>    5.7466    1.0000 </r>
       <r>    6.0079    1.0000 </r>
       <r>    7.7985    1.0000 </r>
       <r>    7.9987    1.0000 </r>
       <r>    8.0216    1.0000 </r>
       <r>    8.3440    1.0000 </r>
       <r>    9.9068    1.0000 </r>
       <r>    9.9746    1.0000 </r>
       <r>   10.0558    1.0000 </r>
       <r>   11.9225    0.0000 </r>
       <r>   13.9869    0.0000 </r>
       <r>   20.3508    0.0000 </r>
       <r>   21.0272    0.0000 </r>
       <r>   23.4277    0.0000 </r>
       <r>   24.7272    0.0000 </r>
      </set>
      <set comment="kpoint 9">
       <r>    2.0584    1.0000 </r>
       <r>    5.6424    1.0000 </r>
       <r>    7.5539    1.0000 </r>
       <r>    8.1346    1.0000 </r>
       <r>    8.1799    1.0000 </r>
       <r>    8.2074    1.0000 </r>
       <r>    8.2084    1.0000 </r>
       <r>    8.4225    1.0000 </r>
       <r>    8.5022    1.0000 </r>
       <r>    8.7498    1.0000 </r>
       <r>    9.8067    1.0000 </r>
       <r>   12.2923    0.0000 </r>
       <r>   17.0884    0.0000 </r>
       <r>   29.6872    0.0000 </r>
       <r>   30.5515    0.0000 </r>
       <r>   34.7811    0.0000 </r>
      </set>
      <set comment="kpoint 10">
       <r>    2.7449    1.0000 </r>
       <r>    5.9712    1.0000 </r>
       <r>    7.3133    1.0000 </r>
       <r>    7.5271    1.0000 </r>
       <r>    8.0117    1.0000 </r>
       <r>    8.2299    1.0000 </r>
       <r>    8.4164    1.0000 </r>
       <r>    8.5386    1.0000 </r>
       <r>    8.6077    1.0000 </r>
       <r>    8.8202    1.0000 </r>
       <r>    9.8491    1.0000 </r>
       <r>   13.6294    0.0000 </r>
       <r>   17.2472    0.0000 </r>
       <r>   26.6532    0.0000 </r>
       <r>   28.6346    0.0000 </r>
       <r>   33.6954    0.0000 </r>
      </set>
      <set comment="kpoint 11">
       <r>    3.6818    1.0000 </r>
       <r>    6.2130    1.0000 </r>
       <r>    6.9437    1.0000 </r>
       <r>    7.1587    1.0000 </r>
       <r>    7.9400    1.0000 </r>
       <r>    8.0476    1.0000 </r>
       <r>    8.4404    1.0000 </r>
       <r>    8.7360    1.0000 </r>
       <r>    8.9671    1.0000 </r>
       <r>    9.2523    1.0000 </r>
       <r>    9.8890    1.0000 </r>
       <r>   15.1615    0.0000 </r>
       <r>   17.5231    0.0000 </r>
       <r>   23.4748    0.0000 </r>
       <r>   27.1665    0.0000 </r>
       <r>   30.8652    0.0000 </r>
      </set>
      <set comment="kpoint 12">
       <r>    4.6897    1.0000 </r>
       <r>    6.1612    1.0000 </r>
       <r>    6.4961    1.0000 </r>
       <r>    7.2350    1.0000 </r>
       <r>    7.9015    1.0000 </r>
       <r>    8.0336    1.0000 </r>
       <r>    8.2582    1.0000 </r>
       <r>    9.1702    1.0000 </r>
       <r>    9.4023    1.0000 </r>
       <r>    9.8016    1.0000 </r>
       <r>    9.9182    1.0000 </r>
       <r>   16.8349    0.0000 </r>
       <r>   17.7285    0.0000 </r>
       <r>   20.8269    0.0000 </r>
       <r>   25.9161    0.0000 </r>
       <r>   28.2073    0.0000 </r>
      </set>
      <set comment="kpoint 13">
       <r>    5.4346    1.0000 </r>
       <r>    5.9892    1.0000 </r>
       <r>    6.1965    1.0000 </r>
       <r>    7.5156    1.0000 </r>
       <r>    7.8095    1.0000 </r>
       <r>    8.0966    1.0000 </r>
       <r>    8.2210    1.0000 </r>
       <r>    9.6208    1.0000 </r>
       <r>    9.7513    1.0000 </r>
       <r>    9.9354    1.0000 </r>
       <r>   10.6010    0.0286 </r>
       <r>   16.5652    0.0000 </r>
       <r>   18.5934    0.0000 </r>
       <r>   20.1644    0.0000 </r>
       <r>   24.9451    0.0000 </r>
       <r>   25.7998    0.0000 </r>
      </set>
      <set comment="kpoint 14">
       <r>    5.7423    1.0000 </r>
       <r>    5.8605    1.0000 </r>
       <r>    6.0470    1.0000 </r>
       <r>    7.7728    1.0000 </r>
       <r>    7.8341    1.0000 </r>
       <r>    7.9957    1.0000 </r>
       <r>    8.3417    1.0000 </r>
       <r>    9.8814    1.0000 </r>
       <r>    9.9430    1.0000 </r>
       <r>    9.9504    1.0000 </r>
       <r>   11.7793    0.0000 </r>
       <r>   14.5817    0.0000 </r>
       <r>   20.1941    0.0000 </r>
       <r>   20.9554    0.0000 </r>
       <r>   23.8784    0.0000 </r>
       <r>   24.2451    0.0000 </r>
      </set>
      <set comment="kpoint 15">
       <r>    3.5449    1.0000 </r>
       <r>    6.2731    1.0000 </r>
       <r>    7.0519    1.0000 </r>
       <r>    7.0568    1.0000 </r>
       <r>    7.9666    1.0000 </r>
       <r>    7.9875    1.0000 </r>
       <r>    8.5322    1.0000 </r>
       <r>    8.5591    1.0000 </r>
       <r>    8.9438    1.0000 </r>
       <r>    9.2614    1.0000 </r>
       <r>    9.8592    1.0000 </r>
       <r>   14.9393    0.0000 </r>
       <r>   17.5043    0.0000 </r>
       <r>   25.0118    0.0000 </r>
       <r>   25.5375    0.0000 </r>
       <r>   32.0842    0.0000 </r>
      </set>
      <set comment="kpoint 16">
       <r>    4.5205    1.0000 </r>
       <r>    6.4134    1.0000 </r>
       <r>    6.6382    1.0000 </r>
       <r>    6.9161    1.0000 </r>
       <r>    7.8083    1.0000 </r>
       <r>    8.0053    1.0000 </r>
       <r>    8.3796    1.0000 </r>
       <r>    8.8162    1.0000 </r>
       <r>    9.3868    1.0000 </r>
       <r>    9.8387    1.0000 </r>
       <r>    9.8658    1.0000 </r>
       <r>   16.4760    0.0000 </r>
       <r>   17.9029    0.0000 </r>
       <r>   22.2019    0.0000 </r>
       <r>   24.0719    0.0000 </r>
       <r>   29.7302    0.0000 </r>
      </set>
      <set comment="kpoint 17">
       <r>    5.4182    1.0000 </r>
       <r>    6.2616    1.0000 </r>
       <r>    6.3305    1.0000 </r>
       <r>    7.0689    1.0000 </r>
       <r>    7.7071    1.0000 </r>
       <r>    8.1668    1.0000 </r>
       <r>    8.1891    1.0000 </r>
       <r>    9.1793    1.0000 </r>
       <r>    9.7407    1.0000 </r>
       <r>    9.8695    1.0000 </r>
       <r>   10.5993    0.0320 </r>
       <r>   17.8061    0.0000 </r>
       <r>   18.1712    0.0000 </r>
       <r>   20.2466    0.0000 </r>
       <r>   23.0701    0.0000 </r>
       <r>   27.2467    0.0000 </r>
      </set>
      <set comment="kpoint 18">
       <r>    5.8979    1.0000 </r>
       <r>    6.1000    1.0000 </r>
       <r>    6.1437    1.0000 </r>
       <r>    7.3895    1.0000 </r>
       <r>    7.6841    1.0000 </r>
       <r>    8.0133    1.0000 </r>
       <r>    8.3348    1.0000 </r>
       <r>    9.5695    1.0000 </r>
       <r>    9.8707    1.0000 </r>
       <r>    9.9138    1.0000 </r>
       <r>   11.6826    0.0000 </r>
       <r>   15.9225    0.0000 </r>
       <r>   19.9247    0.0000 </r>
       <r>   20.7252    0.0000 </r>
       <r>   22.3719    0.0000 </r>
       <r>   25.0076    0.0000 </r>
      </set>
      <set comment="kpoint 19">
       <r>    6.0026    1.0000 </r>
       <r>    6.0441    1.0000 </r>
       <r>    6.0812    1.0000 </r>
       <r>    7.5687    1.0000 </r>
       <r>    7.6979    1.0000 </r>
       <r>    7.9288    1.0000 </r>
       <r>    8.4005    1.0000 </r>
       <r>    9.7968    1.0000 </r>
       <r>    9.8707    1.0000 </r>
       <r>    9.9016    1.0000 </r>
       <r>   12.7171    0.0000 </r>
       <r>   14.4428    0.0000 </r>
       <r>   21.0626    0.0000 </r>
       <r>   21.5471    0.0000 </r>
       <r>   21.9425    0.0000 </r>
       <r>   23.7077    0.0000 </r>
      </set>
      <set comment="kpoint 20">
       <r>    5.4265    1.0000 </r>
       <r>    6.3961    1.0000 </r>
       <r>    6.5866    1.0000 </r>
       <r>    6.6762    1.0000 </r>
       <r>    7.6487    1.0000 </r>
       <r>    8.1504    1.0000 </r>
       <r>    8.2324    1.0000 </r>
       <r>    8.9845    1.0000 </r>
       <r>    9.7464    1.0000 </r>
       <r>    9.8354    1.0000 </r>
       <r>   10.6192    0.0079 </r>
       <r>   18.0312    0.0000 </r>
       <r>   18.3957    0.0000 </r>
       <r>   20.8500    0.0000 </r>
       <r>   21.6429    0.0000 </r>
       <r>   28.7326    0.0000 </r>
      </set>
      <set comment="kpoint 21">
       <r>    6.0826    1.0000 </r>
       <r>    6.2328    1.0000 </r>
       <r>    6.4275    1.0000 </r>
       <r>    6.8762    1.0000 </r>
       <r>    7.5901    1.0000 </r>
       <r>    8.0403    1.0000 </r>
       <r>    8.3386    1.0000 </r>
       <r>    9.2518    1.0000 </r>
       <r>    9.8108    1.0000 </r>
       <r>    9.9182    1.0000 </r>
       <r>   11.6859    0.0000 </r>
       <r>   17.6073    0.0000 </r>
       <r>   19.6592    0.0000 </r>
       <r>   19.7572    0.0000 </r>
       <r>   21.2390    0.0000 </r>
       <r>   26.5428    0.0000 </r>
      </set>
      <set comment="kpoint 22">
       <r>    6.1515    1.0000 </r>
       <r>    6.2919    1.0000 </r>
       <r>    6.3109    1.0000 </r>
       <r>    7.1666    1.0000 </r>
       <r>    7.6165    1.0000 </r>
       <r>    7.8734    1.0000 </r>
       <r>    8.4666    1.0000 </r>
       <r>    9.5516    1.0000 </r>
       <r>    9.7973    1.0000 </r>
       <r>    9.8803    1.0000 </r>
       <r>   13.0892    0.0000 </r>
       <r>   15.4996    0.0000 </r>
       <r>   19.5402    0.0000 </r>
       <r>   21.4672    0.0000 </r>
       <r>   21.9490    0.0000 </r>
       <r>   24.4944    0.0000 </r>
      </set>
      <set comment="kpoint 23">
       <r>    6.1889    1.0000 </r>
       <r>    6.4023    1.0000 </r>
       <r>    6.6283    1.0000 </r>
       <r>    6.8080    1.0000 </r>
       <r>    7.5737    1.0000 </r>
       <r>    7.8566    1.0000 </r>
       <r>    8.5091    1.0000 </r>
       <r>    9.4067    1.0000 </r>
       <r>    9.7668    1.0000 </r>
       <r>    9.8754    1.0000 </r>
       <r>   13.1310    0.0000 </r>
       <r>   17.2695    0.0000 </r>
       <r>   17.4083    0.0000 </r>
       <r>   21.5271    0.0000 </r>
       <r>   22.0597    0.0000 </r>
       <r>   25.7453    0.0000 </r>
      </set>
      <set comment="kpoint 24">
       <r>    6.1775    1.0000 </r>
       <r>    6.5147    1.0000 </r>
       <r>    6.5553    1.0000 </r>
       <r>    6.9271    1.0000 </r>
       <r>    7.6209    1.0000 </r>
       <r>    7.7346    1.0000 </r>
       <r>    8.5843    1.0000 </r>
       <r>    9.5739    1.0000 </r>
       <r>    9.7349    1.0000 </r>
       <r>    9.7508    1.0000 </r>
       <r>   14.5967    0.0000 </r>
       <r>   15.5210    0.0000 </r>
       <r>   17.2080    0.0000 </r>
       <r>   22.8446    0.0000 </r>
       <r>   22.9776    0.0000 </r>
       <r>   24.2714    0.0000 </r>
      </set>
      <set comment="kpoint 25">
       <r>    1.6195    1.0000 </r>
       <r>    5.3062    1.0000 </r>
       <r>    7.8633    1.0000 </r>
       <r>    7.9167    1.0000 </r>
       <r>    7.9167    1.0000 </r>
       <r>    8.2324    1.0000 </r>
       <r>    8.2324    1.0000 </r>
       <r>    8.7052    1.0000 </r>
       <r>    8.7052    1.0000 </r>
       <r>    9.7469    1.0000 </r>
       <r>    9.7469    1.0000 </r>
       <r>    9.9825    1.0000 </r>
       <r>   17.5984    0.0000 </r>
       <r>   32.7192    0.0000 </r>
       <r>   35.1806    0.0000 </r>
       <r>   35.6823    0.0000 </r>
      </set>
      <set comment="kpoint 26">
       <r>    1.8008    1.0000 </r>
       <r>    5.4218    1.0000 </r>
       <r>    7.7245    1.0000 </r>
       <r>    7.9973    1.0000 </r>
       <r>    8.0141    1.0000 </r>
       <r>    8.1648    1.0000 </r>
       <r>    8.3064    1.0000 </r>
       <r>    8.6152    1.0000 </r>
       <r>    8.6605    1.0000 </r>
       <r>    8.9721    1.0000 </r>
       <r>    9.7677    1.0000 </r>
       <r>   10.9802    0.0000 </r>
       <r>   17.6549    0.0000 </r>
       <r>   31.4881    0.0000 </r>
       <r>   33.5198    0.0000 </r>
       <r>   33.8614    0.0000 </r>
      </set>
      <set comment="kpoint 27">
       <r>    2.3300    1.0000 </r>
       <r>    5.7275    1.0000 </r>
       <r>    7.5061    1.0000 </r>
       <r>    7.8130    1.0000 </r>
       <r>    8.0379    1.0000 </r>
       <r>    8.2054    1.0000 </r>
       <r>    8.3334    1.0000 </r>
       <r>    8.4911    1.0000 </r>
       <r>    8.5977    1.0000 </r>
       <r>    8.7104    1.0000 </r>
       <r>    9.8151    1.0000 </r>
       <r>   12.2034    0.0000 </r>
       <r>   17.8430    0.0000 </r>
       <r>   28.3445    0.0000 </r>
       <r>   31.7456    0.0000 </r>
       <r>   32.5253    0.0000 </r>
      </set>
      <set comment="kpoint 28">
       <r>    3.1534    1.0000 </r>
       <r>    6.0680    1.0000 </r>
       <r>    7.1897    1.0000 </r>
       <r>    7.3188    1.0000 </r>
       <r>    7.8982    1.0000 </r>
       <r>    8.2552    1.0000 </r>
       <r>    8.3881    1.0000 </r>
       <r>    8.6970    1.0000 </r>
       <r>    8.7542    1.0000 </r>
       <r>    8.8676    1.0000 </r>
       <r>    9.8649    1.0000 </r>
       <r>   13.4996    0.0000 </r>
       <r>   18.2099    0.0000 </r>
       <r>   25.0563    0.0000 </r>
       <r>   29.8389    0.0000 </r>
       <r>   31.0381    0.0000 </r>
      </set>
      <set comment="kpoint 29">
       <r>    4.1431    1.0000 </r>
       <r>    6.1674    1.0000 </r>
       <r>    6.6882    1.0000 </r>
       <r>    7.2798    1.0000 </r>
       <r>    7.8786    1.0000 </r>
       <r>    8.1096    1.0000 </r>
       <r>    8.3557    1.0000 </r>
       <r>    9.1117    1.0000 </r>
       <r>    9.1317    1.0000 </r>
       <r>    9.2440    1.0000 </r>
       <r>    9.9047    1.0000 </r>
       <r>   14.8046    0.0000 </r>
       <r>   18.7567    0.0000 </r>
       <r>   22.0686    0.0000 </r>
       <r>   28.2127    0.0000 </r>
       <r>   28.5000    0.0000 </r>
      </set>
      <set comment="kpoint 30">
       <r>    5.0207    1.0000 </r>
       <r>    6.0157    1.0000 </r>
       <r>    6.3748    1.0000 </r>
       <r>    7.3210    1.0000 </r>
       <r>    7.9698    1.0000 </r>
       <r>    8.0887    1.0000 </r>
       <r>    8.3673    1.0000 </r>
       <r>    9.5234    1.0000 </r>
       <r>    9.6075    1.0000 </r>
       <r>    9.8110    1.0000 </r>
       <r>    9.9364    1.0000 </r>
       <r>   15.8665    0.0000 </r>
       <r>   18.6850    0.0000 </r>
       <r>   20.5536    0.0000 </r>
       <r>   25.9960    0.0000 </r>
       <r>   26.9443    0.0000 </r>
      </set>
      <set comment="kpoint 31">
       <r>    5.4663    1.0000 </r>
       <r>    5.8265    1.0000 </r>
       <r>    6.2624    1.0000 </r>
       <r>    7.3946    1.0000 </r>
       <r>    7.8754    1.0000 </r>
       <r>    8.2860    1.0000 </r>
       <r>    8.5369    1.0000 </r>
       <r>    9.7958    1.0000 </r>
       <r>    9.8716    1.0000 </r>
       <r>    9.9884    1.0000 </r>
       <r>   10.8763    0.0000 </r>
       <r>   15.1727    0.0000 </r>
       <r>   18.7415    0.0000 </r>
       <r>   21.0254    0.0000 </r>
       <r>   24.1992    0.0000 </r>
       <r>   26.1259    0.0000 </r>
      </set>
      <set comment="kpoint 32">
       <r>    5.5759    1.0000 </r>
       <r>    5.7318    1.0000 </r>
       <r>    6.2464    1.0000 </r>
       <r>    7.4278    1.0000 </r>
       <r>    7.8424    1.0000 </r>
       <r>    8.3446    1.0000 </r>
       <r>    8.6623    1.0000 </r>
       <r>    9.8654    1.0000 </r>
       <r>    9.9542    1.0000 </r>
       <r>   10.0530    1.0000 </r>
       <r>   11.8450    0.0000 </r>
       <r>   13.9238    0.0000 </r>
       <r>   19.9663    0.0000 </r>
       <r>   20.4099    0.0000 </r>
       <r>   24.2329    0.0000 </r>
       <r>   25.3203    0.0000 </r>
      </set>
      <set comment="kpoint 33">
       <r>    2.1565    1.0000 </r>
       <r>    5.6349    1.0000 </r>
       <r>    7.5605    1.0000 </r>
       <r>    7.9586    1.0000 </r>
       <r>    8.0829    1.0000 </r>
       <r>    8.1465    1.0000 </r>
       <r>    8.3205    1.0000 </r>
       <r>    8.4342    1.0000 </r>
       <r>    8.5980    1.0000 </r>
       <r>    8.7678    1.0000 </r>
       <r>    9.7963    1.0000 </r>
       <r>   11.8678    0.0000 </r>
       <r>   17.7779    0.0000 </r>
       <r>   29.7494    0.0000 </r>
       <r>   30.6374    0.0000 </r>
       <r>   34.5449    0.0000 </r>
      </set>
      <set comment="kpoint 34">
       <r>    2.8364    1.0000 </r>
       <r>    5.9800    1.0000 </r>
       <r>    7.3263    1.0000 </r>
       <r>    7.4242    1.0000 </r>
       <r>    7.9942    1.0000 </r>
       <r>    8.1678    1.0000 </r>
       <r>    8.4051    1.0000 </r>
       <r>    8.5264    1.0000 </r>
       <r>    8.7365    1.0000 </r>
       <r>    8.8183    1.0000 </r>
       <r>    9.8351    1.0000 </r>
       <r>   13.0416    0.0000 </r>
       <r>   18.0621    0.0000 </r>
       <r>   26.7378    0.0000 </r>
       <r>   28.7261    0.0000 </r>
       <r>   32.8007    0.0000 </r>
      </set>
      <set comment="kpoint 35">
       <r>    3.7584    1.0000 </r>
       <r>    6.2382    1.0000 </r>
       <r>    6.8821    1.0000 </r>
       <r>    7.1839    1.0000 </r>
       <r>    7.8585    1.0000 </r>
       <r>    8.1135    1.0000 </r>
       <r>    8.3941    1.0000 </r>
       <r>    8.7703    1.0000 </r>
       <r>    9.0156    1.0000 </r>
       <r>    9.2267    1.0000 </r>
       <r>    9.8753    1.0000 </r>
       <r>   14.3127    0.0000 </r>
       <r>   18.5570    0.0000 </r>
       <r>   23.5674    0.0000 </r>
       <r>   27.2672    0.0000 </r>
       <r>   30.0520    0.0000 </r>
      </set>
      <set comment="kpoint 36">
       <r>    4.7314    1.0000 </r>
       <r>    6.1854    1.0000 </r>
       <r>    6.4915    1.0000 </r>
       <r>    7.2121    1.0000 </r>
       <r>    7.8714    1.0000 </r>
       <r>    8.0826    1.0000 </r>
       <r>    8.3077    1.0000 </r>
       <r>    9.1616    1.0000 </r>
       <r>    9.4283    1.0000 </r>
       <r>    9.7084    1.0000 </r>
       <r>    9.9530    1.0000 </r>
       <r>   15.5589    0.0000 </r>
       <r>   19.0726    0.0000 </r>
       <r>   20.9866    0.0000 </r>
       <r>   26.0091    0.0000 </r>
       <r>   27.3995    0.0000 </r>
      </set>
      <set comment="kpoint 37">
       <r>    5.4023    1.0000 </r>
       <r>    5.9883    1.0000 </r>
       <r>    6.3085    1.0000 </r>
       <r>    7.2952    1.0000 </r>
       <r>    7.8675    1.0000 </r>
       <r>    8.2185    1.0000 </r>
       <r>    8.3400    1.0000 </r>
       <r>    9.5985    1.0000 </r>
       <r>    9.7680    1.0000 </r>
       <r>    9.8745    1.0000 </r>
       <r>   10.5858    0.0708 </r>
       <r>   16.0053    0.0000 </r>
       <r>   18.5055    0.0000 </r>
       <r>   20.8965    0.0000 </r>
       <r>   24.7849    0.0000 </r>
       <r>   25.3884    0.0000 </r>
      </set>
      <set comment="kpoint 38">
       <r>    5.6245    1.0000 </r>
       <r>    5.8359    1.0000 </r>
       <r>    6.2810    1.0000 </r>
       <r>    7.3796    1.0000 </r>
       <r>    7.8021    1.0000 </r>
       <r>    8.3564    1.0000 </r>
       <r>    8.4833    1.0000 </r>
       <r>    9.8351    1.0000 </r>
       <r>    9.9251    1.0000 </r>
       <r>    9.9517    1.0000 </r>
       <r>   11.7419    0.0000 </r>
       <r>   14.4962    0.0000 </r>
       <r>   19.5246    0.0000 </r>
       <r>   20.9852    0.0000 </r>
       <r>   24.0233    0.0000 </r>
       <r>   24.6586    0.0000 </r>
      </set>
      <set comment="kpoint 39">
       <r>    3.6254    1.0000 </r>
       <r>    6.3010    1.0000 </r>
       <r>    6.9773    1.0000 </r>
       <r>    7.0750    1.0000 </r>
       <r>    7.9443    1.0000 </r>
       <r>    7.9849    1.0000 </r>
       <r>    8.4625    1.0000 </r>
       <r>    8.6089    1.0000 </r>
       <r>    9.0138    1.0000 </r>
       <r>    9.2340    1.0000 </r>
       <r>    9.8527    1.0000 </r>
       <r>   14.1419    0.0000 </r>
       <r>   18.4957    0.0000 </r>
       <r>   25.0994    0.0000 </r>
       <r>   25.6411    0.0000 </r>
       <r>   31.3677    0.0000 </r>
      </set>
      <set comment="kpoint 40">
       <r>    4.5778    1.0000 </r>
       <r>    6.4467    1.0000 </r>
       <r>    6.5961    1.0000 </r>
       <r>    6.9458    1.0000 </r>
       <r>    7.7925    1.0000 </r>
       <r>    8.0317    1.0000 </r>
       <r>    8.3335    1.0000 </r>
       <r>    8.8375    1.0000 </r>
       <r>    9.4293    1.0000 </r>
       <r>    9.6859    1.0000 </r>
       <r>    9.9711    1.0000 </r>
       <r>   15.3631    0.0000 </r>
       <r>   19.1675    0.0000 </r>
       <r>   22.3035    0.0000 </r>
       <r>   24.1768    0.0000 </r>
       <r>   28.9381    0.0000 </r>
      </set>
      <set comment="kpoint 41">
       <r>    5.4238    1.0000 </r>
       <r>    6.2911    1.0000 </r>
       <r>    6.3480    1.0000 </r>
       <r>    7.0509    1.0000 </r>
       <r>    7.7435    1.0000 </r>
       <r>    8.1786    1.0000 </r>
       <r>    8.1980    1.0000 </r>
       <r>    9.1786    1.0000 </r>
       <r>    9.7728    1.0000 </r>
       <r>    9.7868    1.0000 </r>
       <r>   10.6260    0.0046 </r>
       <r>   16.4700    0.0000 </r>
       <r>   19.1440    0.0000 </r>
       <r>   20.8018    0.0000 </r>
       <r>   23.1730    0.0000 </r>
       <r>   26.4329    0.0000 </r>
      </set>
      <set comment="kpoint 42">
       <r>    5.7877    1.0000 </r>
       <r>    6.1024    1.0000 </r>
       <r>    6.3366    1.0000 </r>
       <r>    7.1985    1.0000 </r>
       <r>    7.7294    1.0000 </r>
       <r>    8.1529    1.0000 </r>
       <r>    8.3653    1.0000 </r>
       <r>    9.5601    1.0000 </r>
       <r>    9.7954    1.0000 </r>
       <r>    9.9376    1.0000 </r>
       <r>   11.7006    0.0000 </r>
       <r>   15.7761    0.0000 </r>
       <r>   19.1388    0.0000 </r>
       <r>   21.5462    0.0000 </r>
       <r>   22.4147    0.0000 </r>
       <r>   24.6138    0.0000 </r>
      </set>
      <set comment="kpoint 43">
       <r>    5.8285    1.0000 </r>
       <r>    6.0298    1.0000 </r>
       <r>    6.3709    1.0000 </r>
       <r>    7.2808    1.0000 </r>
       <r>    7.6853    1.0000 </r>
       <r>    8.2086    1.0000 </r>
       <r>    8.4309    1.0000 </r>
       <r>    9.7839    1.0000 </r>
       <r>    9.7936    1.0000 </r>
       <r>    9.9270    1.0000 </r>
       <r>   12.7341    0.0000 </r>
       <r>   14.4152    0.0000 </r>
       <r>   20.5197    0.0000 </r>
       <r>   20.8526    0.0000 </r>
       <r>   22.2072    0.0000 </r>
       <r>   24.5749    0.0000 </r>
      </set>
      <set comment="kpoint 44">
       <r>    5.4525    1.0000 </r>
       <r>    6.3476    1.0000 </r>
       <r>    6.6664    1.0000 </r>
       <r>    6.6922    1.0000 </r>
       <r>    7.6911    1.0000 </r>
       <r>    8.1222    1.0000 </r>
       <r>    8.2026    1.0000 </r>
       <r>    9.0016    1.0000 </r>
       <r>    9.7493    1.0000 </r>
       <r>    9.7819    1.0000 </r>
       <r>   10.6583    0.0002 </r>
       <r>   16.5520    0.0000 </r>
       <r>   19.9304    0.0000 </r>
       <r>   20.9500    0.0000 </r>
       <r>   21.8156    0.0000 </r>
       <r>   27.9020    0.0000 </r>
      </set>
      <set comment="kpoint 45">
       <r>    6.0313    1.0000 </r>
       <r>    6.2810    1.0000 </r>
       <r>    6.4689    1.0000 </r>
       <r>    6.8714    1.0000 </r>
       <r>    7.6531    1.0000 </r>
       <r>    8.0004    1.0000 </r>
       <r>    8.3451    1.0000 </r>
       <r>    9.2609    1.0000 </r>
       <r>    9.7289    1.0000 </r>
       <r>    9.9451    1.0000 </r>
       <r>   11.7301    0.0000 </r>
       <r>   17.1894    0.0000 </r>
       <r>   19.0444    0.0000 </r>
       <r>   20.3457    0.0000 </r>
       <r>   21.8997    0.0000 </r>
       <r>   25.7600    0.0000 </r>
      </set>
      <set comment="kpoint 46">
       <r>    6.0513    1.0000 </r>
       <r>    6.3423    1.0000 </r>
       <r>    6.4498    1.0000 </r>
       <r>    7.0614    1.0000 </r>
       <r>    7.6258    1.0000 </r>
       <r>    7.9275    1.0000 </r>
       <r>    8.4827    1.0000 </r>
       <r>    9.5553    1.0000 </r>
       <r>    9.7121    1.0000 </r>
       <r>    9.9011    1.0000 </r>
       <r>   13.1484    0.0000 </r>
       <r>   15.4948    0.0000 </r>
       <r>   19.4738    0.0000 </r>
       <r>   20.7517    0.0000 </r>
       <r>   22.0862    0.0000 </r>
       <r>   24.7213    0.0000 </r>
      </set>
      <set comment="kpoint 47">
       <r>    6.1943    1.0000 </r>
       <r>    6.4153    1.0000 </r>
       <r>    6.6767    1.0000 </r>
       <r>    6.7766    1.0000 </r>
       <r>    7.6276    1.0000 </r>
       <r>    7.8117    1.0000 </r>
       <r>    8.5044    1.0000 </r>
       <r>    9.4209    1.0000 </r>
       <r>    9.6806    1.0000 </r>
       <r>    9.8953    1.0000 </r>
       <r>   13.2005    0.0000 </r>
       <r>   17.1869    0.0000 </r>
       <r>   17.5096    0.0000 </r>
       <r>   20.6067    0.0000 </r>
       <r>   22.8571    0.0000 </r>
       <r>   24.9867    0.0000 </r>
      </set>
      <set comment="kpoint 48">
       <r>    6.1937    1.0000 </r>
       <r>    6.5435    1.0000 </r>
       <r>    6.5783    1.0000 </r>
       <r>    6.9052    1.0000 </r>
       <r>    7.6178    1.0000 </r>
       <r>    7.7302    1.0000 </r>
       <r>    8.5786    1.0000 </r>
       <r>    9.5887    1.0000 </r>
       <r>    9.6597    1.0000 </r>
       <r>    9.7541    1.0000 </r>
       <r>   14.7066    0.0000 </r>
       <r>   15.5465    0.0000 </r>
       <r>   17.2607    0.0000 </r>
       <r>   22.0659    0.0000 </r>
       <r>   22.4189    0.0000 </r>
       <r>   24.2369    0.0000 </r>
      </set>
      <set comment="kpoint 49">
       <r>    1.9204    1.0000 </r>
       <r>    5.2178    1.0000 </r>
       <r>    7.7901    1.0000 </r>
       <r>    7.8655    1.0000 </r>
       <r>    7.8655    1.0000 </r>
       <r>    8.1584    1.0000 </r>
       <r>    8.1584    1.0000 </r>
       <r>    8.8614    1.0000 </r>
       <r>    8.8614    1.0000 </r>
       <r>    9.1101    1.0000 </r>
       <r>    9.7242    1.0000 </r>
       <r>    9.7242    1.0000 </r>
       <r>   19.0940    0.0000 </r>
       <r>   32.3683    0.0000 </r>
       <r>   33.5418    0.0000 </r>
       <r>   35.1635    0.0000 </r>
      </set>
      <set comment="kpoint 50">
       <r>    2.0983    1.0000 </r>
       <r>    5.3444    1.0000 </r>
       <r>    7.7188    1.0000 </r>
       <r>    7.8749    1.0000 </r>
       <r>    7.9386    1.0000 </r>
       <r>    8.0176    1.0000 </r>
       <r>    8.2305    1.0000 </r>
       <r>    8.6225    1.0000 </r>
       <r>    8.8293    1.0000 </r>
       <r>    8.8724    1.0000 </r>
       <r>    9.7392    1.0000 </r>
       <r>   10.3821    1.0000 </r>
       <r>   19.1857    0.0000 </r>
       <r>   31.5646    0.0000 </r>
       <r>   33.0367    0.0000 </r>
       <r>   33.7934    0.0000 </r>
      </set>
      <set comment="kpoint 51">
       <r>    2.6152    1.0000 </r>
       <r>    5.6842    1.0000 </r>
       <r>    7.5316    1.0000 </r>
       <r>    7.5487    1.0000 </r>
       <r>    7.8725    1.0000 </r>
       <r>    8.1231    1.0000 </r>
       <r>    8.3136    1.0000 </r>
       <r>    8.4315    1.0000 </r>
       <r>    8.7810    1.0000 </r>
       <r>    8.8787    1.0000 </r>
       <r>    9.7730    1.0000 </r>
       <r>   11.3463    0.0000 </r>
       <r>   19.4737    0.0000 </r>
       <r>   28.5756    0.0000 </r>
       <r>   32.0752    0.0000 </r>
       <r>   32.0942    0.0000 </r>
      </set>
      <set comment="kpoint 52">
       <r>    3.4091    1.0000 </r>
       <r>    6.0772    1.0000 </r>
       <r>    7.0021    1.0000 </r>
       <r>    7.3687    1.0000 </r>
       <r>    7.7679    1.0000 </r>
       <r>    8.2456    1.0000 </r>
       <r>    8.2927    1.0000 </r>
       <r>    8.7263    1.0000 </r>
       <r>    8.8930    1.0000 </r>
       <r>    8.9563    1.0000 </r>
       <r>    9.8085    1.0000 </r>
       <r>   12.3652    0.0000 </r>
       <r>   19.9806    0.0000 </r>
       <r>   25.3188    0.0000 </r>
       <r>   29.9659    0.0000 </r>
       <r>   30.2113    0.0000 </r>
      </set>
      <set comment="kpoint 53">
       <r>    4.3296    1.0000 </r>
       <r>    6.1980    1.0000 </r>
       <r>    6.6114    1.0000 </r>
       <r>    7.2934    1.0000 </r>
       <r>    7.7804    1.0000 </r>
       <r>    8.1841    1.0000 </r>
       <r>    8.4431    1.0000 </r>
       <r>    9.1120    1.0000 </r>
       <r>    9.1891    1.0000 </r>
       <r>    9.2077    1.0000 </r>
       <r>    9.8421    1.0000 </r>
       <r>   13.4077    0.0000 </r>
       <r>   20.5996    0.0000 </r>
       <r>   22.3825    0.0000 </r>
       <r>   27.2970    0.0000 </r>
       <r>   28.6218    0.0000 </r>
      </set>
      <set comment="kpoint 54">
       <r>    5.0658    1.0000 </r>
       <r>    6.0218    1.0000 </r>
       <r>    6.4740    1.0000 </r>
       <r>    7.1396    1.0000 </r>
       <r>    8.0786    1.0000 </r>
       <r>    8.0893    1.0000 </r>
       <r>    8.7751    1.0000 </r>
       <r>    9.4777    1.0000 </r>
       <r>    9.5512    1.0000 </r>
       <r>    9.7019    1.0000 </r>
       <r>    9.8917    1.0000 </r>
       <r>   14.3788    0.0000 </r>
       <r>   19.3832    0.0000 </r>
       <r>   21.7643    0.0000 </r>
       <r>   25.0020    0.0000 </r>
       <r>   27.3835    0.0000 </r>
      </set>
      <set comment="kpoint 55">
       <r>    5.3606    1.0000 </r>
       <r>    5.8437    1.0000 </r>
       <r>    6.5324    1.0000 </r>
       <r>    7.0052    1.0000 </r>
       <r>    7.9997    1.0000 </r>
       <r>    8.3149    1.0000 </r>
       <r>    9.1788    1.0000 </r>
       <r>    9.6551    1.0000 </r>
       <r>    9.8412    1.0000 </r>
       <r>    9.9861    1.0000 </r>
       <r>   10.7010    0.0000 </r>
       <r>   14.5186    0.0000 </r>
       <r>   18.2823    0.0000 </r>
       <r>   21.0778    0.0000 </r>
       <r>   24.6614    0.0000 </r>
       <r>   26.5858    0.0000 </r>
      </set>
      <set comment="kpoint 56">
       <r>    5.4081    1.0000 </r>
       <r>    5.7765    1.0000 </r>
       <r>    6.5796    1.0000 </r>
       <r>    6.9562    1.0000 </r>
       <r>    7.9712    1.0000 </r>
       <r>    8.3842    1.0000 </r>
       <r>    9.3371    1.0000 </r>
       <r>    9.6934    1.0000 </r>
       <r>    9.9520    1.0000 </r>
       <r>   10.0447    1.0000 </r>
       <r>   11.6327    0.0000 </r>
       <r>   13.7226    0.0000 </r>
       <r>   19.2249    0.0000 </r>
       <r>   19.4421    0.0000 </r>
       <r>   25.7721    0.0000 </r>
       <r>   26.3088    0.0000 </r>
      </set>
      <set comment="kpoint 57">
       <r>    2.4462    1.0000 </r>
       <r>    5.5803    1.0000 </r>
       <r>    7.5849    1.0000 </r>
       <r>    7.6899    1.0000 </r>
       <r>    7.8849    1.0000 </r>
       <r>    8.0801    1.0000 </r>
       <r>    8.3387    1.0000 </r>
       <r>    8.3666    1.0000 </r>
       <r>    8.8188    1.0000 </r>
       <r>    8.8581    1.0000 </r>
       <r>    9.7602    1.0000 </r>
       <r>   11.0821    0.0000 </r>
       <r>   19.3763    0.0000 </r>
       <r>   29.9331    0.0000 </r>
       <r>   30.8856    0.0000 </r>
       <r>   33.1412    0.0000 </r>
      </set>
      <set comment="kpoint 58">
       <r>    3.1061    1.0000 </r>
       <r>    5.9721    1.0000 </r>
       <r>    7.1847    1.0000 </r>
       <r>    7.3744    1.0000 </r>
       <r>    7.8473    1.0000 </r>
       <r>    8.1631    1.0000 </r>
       <r>    8.2816    1.0000 </r>
       <r>    8.5882    1.0000 </r>
       <r>    8.8777    1.0000 </r>
       <r>    8.9219    1.0000 </r>
       <r>    9.7902    1.0000 </r>
       <r>   12.0086    0.0000 </r>
       <r>   19.7815    0.0000 </r>
       <r>   26.9889    0.0000 </r>
       <r>   28.9885    0.0000 </r>
       <r>   31.6803    0.0000 </r>
      </set>
      <set comment="kpoint 59">
       <r>    3.9823    1.0000 </r>
       <r>    6.2813    1.0000 </r>
       <r>    6.7332    1.0000 </r>
       <r>    7.2465    1.0000 </r>
       <r>    7.7303    1.0000 </r>
       <r>    8.1942    1.0000 </r>
       <r>    8.2986    1.0000 </r>
       <r>    8.8435    1.0000 </r>
       <r>    9.1354    1.0000 </r>
       <r>    9.1812    1.0000 </r>
       <r>    9.8331    1.0000 </r>
       <r>   13.0188    0.0000 </r>
       <r>   20.4046    0.0000 </r>
       <r>   23.8438    0.0000 </r>
       <r>   27.5298    0.0000 </r>
       <r>   28.9210    0.0000 </r>
      </set>
      <set comment="kpoint 60">
       <r>    4.8524    1.0000 </r>
       <r>    6.2106    1.0000 </r>
       <r>    6.4838    1.0000 </r>
       <r>    7.1974    1.0000 </r>
       <r>    7.8277    1.0000 </r>
       <r>    8.1736    1.0000 </r>
       <r>    8.4283    1.0000 </r>
       <r>    9.1526    1.0000 </r>
       <r>    9.5043    1.0000 </r>
       <r>    9.5383    1.0000 </r>
       <r>    9.9700    1.0000 </r>
       <r>   14.0661    0.0000 </r>
       <r>   20.4782    0.0000 </r>
       <r>   21.7286    0.0000 </r>
       <r>   25.9261    0.0000 </r>
       <r>   26.6882    0.0000 </r>
      </set>
      <set comment="kpoint 61">
       <r>    5.3579    1.0000 </r>
       <r>    6.0035    1.0000 </r>
       <r>    6.4916    1.0000 </r>
       <r>    7.0606    1.0000 </r>
       <r>    7.9121    1.0000 </r>
       <r>    8.2880    1.0000 </r>
       <r>    8.7513    1.0000 </r>
       <r>    9.5111    1.0000 </r>
       <r>    9.7311    1.0000 </r>
       <r>    9.8242    1.0000 </r>
       <r>   10.5480    0.3443 </r>
       <r>   14.8391    0.0000 </r>
       <r>   18.6174    0.0000 </r>
       <r>   21.8302    0.0000 </r>
       <r>   24.4412    0.0000 </r>
       <r>   25.6728    0.0000 </r>
      </set>
      <set comment="kpoint 62">
       <r>    5.4748    1.0000 </r>
       <r>    5.8776    1.0000 </r>
       <r>    6.6046    1.0000 </r>
       <r>    6.9615    1.0000 </r>
       <r>    7.8554    1.0000 </r>
       <r>    8.4374    1.0000 </r>
       <r>    9.0186    1.0000 </r>
       <r>    9.6490    1.0000 </r>
       <r>    9.9151    1.0000 </r>
       <r>    9.9762    1.0000 </r>
       <r>   11.6547    0.0000 </r>
       <r>   14.2188    0.0000 </r>
       <r>   18.7029    0.0000 </r>
       <r>   20.3225    0.0000 </r>
       <r>   24.8939    0.0000 </r>
       <r>   25.5233    0.0000 </r>
      </set>
      <set comment="kpoint 63">
       <r>    3.8614    1.0000 </r>
       <r>    6.3557    1.0000 </r>
       <r>    6.7876    1.0000 </r>
       <r>    7.1299    1.0000 </r>
       <r>    7.8238    1.0000 </r>
       <r>    8.0144    1.0000 </r>
       <r>    8.3444    1.0000 </r>
       <r>    8.7301    1.0000 </r>
       <r>    9.1490    1.0000 </r>
       <r>    9.1837    1.0000 </r>
       <r>    9.8284    1.0000 </r>
       <r>   12.8902    0.0000 </r>
       <r>   20.3296    0.0000 </r>
       <r>   25.3572    0.0000 </r>
       <r>   25.9464    0.0000 </r>
       <r>   30.2319    0.0000 </r>
      </set>
      <set comment="kpoint 64">
       <r>    4.7434    1.0000 </r>
       <r>    6.4638    1.0000 </r>
       <r>    6.5519    1.0000 </r>
       <r>    7.0251    1.0000 </r>
       <r>    7.7399    1.0000 </r>
       <r>    8.0747    1.0000 </r>
       <r>    8.2444    1.0000 </r>
       <r>    8.9216    1.0000 </r>
       <r>    9.4936    1.0000 </r>
       <r>    9.5316    1.0000 </r>
       <r>   10.0415    1.0000 </r>
       <r>   13.9183    0.0000 </r>
       <r>   21.0438    0.0000 </r>
       <r>   22.6199    0.0000 </r>
       <r>   24.4811    0.0000 </r>
       <r>   27.7600    0.0000 </r>
      </set>
      <set comment="kpoint 65">
       <r>    5.4515    1.0000 </r>
       <r>    6.2903    1.0000 </r>
       <r>    6.4266    1.0000 </r>
       <r>    7.0804    1.0000 </r>
       <r>    7.7572    1.0000 </r>
       <r>    8.1662    1.0000 </r>
       <r>    8.3109    1.0000 </r>
       <r>    9.1922    1.0000 </r>
       <r>    9.5920    1.0000 </r>
       <r>    9.8543    1.0000 </r>
       <r>   10.6871    0.0000 </r>
       <r>   14.9996    0.0000 </r>
       <r>   19.7042    0.0000 </r>
       <r>   22.1961    0.0000 </r>
       <r>   23.4358    0.0000 </r>
       <r>   25.4749    0.0000 </r>
      </set>
      <set comment="kpoint 66">
       <r>    5.6720    1.0000 </r>
       <r>    6.1571    1.0000 </r>
       <r>    6.5669    1.0000 </r>
       <r>    6.9996    1.0000 </r>
       <r>    7.6992    1.0000 </r>
       <r>    8.3639    1.0000 </r>
       <r>    8.5156    1.0000 </r>
       <r>    9.4989    1.0000 </r>
       <r>    9.6396    1.0000 </r>
       <r>    9.9952    1.0000 </r>
       <r>   11.7652    0.0000 </r>
       <r>   15.2718    0.0000 </r>
       <r>   18.5182    0.0000 </r>
       <r>   21.5733    0.0000 </r>
       <r>   22.8112    0.0000 </r>
       <r>   25.1090    0.0000 </r>
      </set>
      <set comment="kpoint 67">
       <r>    5.6832    1.0000 </r>
       <r>    6.0950    1.0000 </r>
       <r>    6.7233    1.0000 </r>
       <r>    6.9160    1.0000 </r>
       <r>    7.6393    1.0000 </r>
       <r>    8.5382    1.0000 </r>
       <r>    8.5428    1.0000 </r>
       <r>    9.5690    1.0000 </r>
       <r>    9.7864    1.0000 </r>
       <r>    9.9724    1.0000 </r>
       <r>   12.7940    0.0000 </r>
       <r>   14.3242    0.0000 </r>
       <r>   19.6238    0.0000 </r>
       <r>   19.7972    0.0000 </r>
       <r>   22.6611    0.0000 </r>
       <r>   26.1381    0.0000 </r>
      </set>
      <set comment="kpoint 68">
       <r>    5.5264    1.0000 </r>
       <r>    6.2673    1.0000 </r>
       <r>    6.7495    1.0000 </r>
       <r>    6.8283    1.0000 </r>
       <r>    7.7704    1.0000 </r>
       <r>    7.9928    1.0000 </r>
       <r>    8.1929    1.0000 </r>
       <r>    9.0728    1.0000 </r>
       <r>    9.5516    1.0000 </r>
       <r>    9.8662    1.0000 </r>
       <r>   10.7467    0.0000 </r>
       <r>   15.0392    0.0000 </r>
       <r>   21.2419    0.0000 </r>
       <r>   21.3412    0.0000 </r>
       <r>   22.5582    0.0000 </r>
       <r>   26.7915    0.0000 </r>
      </set>
      <set comment="kpoint 69">
       <r>    5.9724    1.0000 </r>
       <r>    6.3162    1.0000 </r>
       <r>    6.5529    1.0000 </r>
       <r>    6.9521    1.0000 </r>
       <r>    7.7110    1.0000 </r>
       <r>    7.9446    1.0000 </r>
       <r>    8.3713    1.0000 </r>
       <r>    9.2881    1.0000 </r>
       <r>    9.5370    1.0000 </r>
       <r>   10.0062    1.0000 </r>
       <r>   11.8569    0.0000 </r>
       <r>   16.1154    0.0000 </r>
       <r>   19.0423    0.0000 </r>
       <r>   20.7442    0.0000 </r>
       <r>   22.8266    0.0000 </r>
       <r>   25.1282    0.0000 </r>
      </set>
      <set comment="kpoint 70">
       <r>    5.9667    1.0000 </r>
       <r>    6.4304    1.0000 </r>
       <r>    6.6554    1.0000 </r>
       <r>    6.9108    1.0000 </r>
[...]
       </set>
       <set comment="band 12">
        <r>  0.0049  0.0454  0.0391  0.1335  0.0578  0.0152  0.0127  0.0202  0.1353 </r>
        <r>  0.0038  0.0352  0.0504  0.1035  0.0448  0.0197  0.0098  0.0261  0.1048 </r>
       </set>
       <set comment="band 13">
        <r>  0.1033  0.0101  0.0214  0.0075  0.0525  0.0381  0.0054  0.1125  0.0181 </r>
        <r>  0.2354  0.0230  0.0094  0.0170  0.1195  0.0167  0.0124  0.0494  0.0413 </r>
       </set>
       <set comment="band 14">
        <r>  0.2354  0.0230  0.0094  0.0170  0.1195  0.0167  0.0124  0.0494  0.0413 </r>
        <r>  0.1033  0.0101  0.0214  0.0075  0.0525  0.0381  0.0054  0.1125  0.0181 </r>
       </set>
       <set comment="band 15">
        <r>  0.0558  0.1065  0.0100  0.0355  0.0355  0.0658  0.0183  0.0251  0.0118 </r>
        <r>  0.0719  0.1374  0.0078  0.0458  0.0457  0.0510  0.0236  0.0195  0.0152 </r>
       </set>
       <set comment="band 16">
        <r>  0.0719  0.1374  0.0078  0.0458  0.0457  0.0510  0.0236  0.0195  0.0152 </r>
        <r>  0.0558  0.1065  0.0100  0.0355  0.0355  0.0658  0.0183  0.0251  0.0118 </r>
       </set>
      </set>
      <set comment="kpoint 140">
       <set comment="band 1">
        <r>  0.1670  0.0033  0.0083  0.0797  0.0155  0.0000  0.0151  0.0529  0.0554 </r>
        <r>  0.0282  0.0006  0.0492  0.0134  0.0026  0.0002  0.0025  0.3136  0.0093 </r>
       </set>
       <set comment="band 2">
        <r>  0.0282  0.0006  0.0492  0.0134  0.0026  0.0002  0.0025  0.3136  0.0093 </r>
        <r>  0.1670  0.0033  0.0083  0.0797  0.0155  0.0000  0.0151  0.0529  0.0554 </r>
       </set>
       <set comment="band 3">
        <r>  0.0217  0.0352  0.0044  0.0260  0.5652  0.0014  0.0283  0.0041  0.0458 </r>
        <r>  0.0038  0.0061  0.0252  0.0045  0.0984  0.0083  0.0049  0.0237  0.0080 </r>
       </set>
       <set comment="band 4">
        <r>  0.0038  0.0061  0.0252  0.0045  0.0984  0.0083  0.0049  0.0237  0.0080 </r>
        <r>  0.0217  0.0352  0.0044  0.0260  0.5652  0.0014  0.0283  0.0041  0.0458 </r>
       </set>
       <set comment="band 5">
        <r>  0.0019  0.0038  0.0000  0.0489  0.0708  0.0248  0.4049  0.0102  0.0652 </r>
        <r>  0.0004  0.0007  0.0000  0.0090  0.0130  0.1346  0.0746  0.0553  0.0120 </r>
       </set>
       <set comment="band 6">
        <r>  0.0004  0.0007  0.0000  0.0090  0.0130  0.1346  0.0746  0.0553  0.0120 </r>
        <r>  0.0019  0.0038  0.0000  0.0489  0.0708  0.0248  0.4049  0.0102  0.0652 </r>
       </set>
       <set comment="band 7">
        <r>  0.0053  0.0001  0.0001  0.0010  0.0749  0.0864  0.0113  0.0078  0.1283 </r>
        <r>  0.0008  0.0000  0.0005  0.0002  0.0115  0.5645  0.0017  0.0507  0.0196 </r>
       </set>
       <set comment="band 8">
        <r>  0.0008  0.0000  0.0005  0.0002  0.0115  0.5645  0.0017  0.0507  0.0196 </r>
        <r>  0.0053  0.0001  0.0001  0.0010  0.0749  0.0864  0.0113  0.0078  0.1283 </r>
       </set>
       <set comment="band 9">
        <r>  0.0004  0.0000  0.0004  0.0005  0.0070  0.0149  0.3337  0.0266  0.2485 </r>
        <r>  0.0001  0.0000  0.0028  0.0001  0.0011  0.0947  0.0524  0.1693  0.0390 </r>
       </set>
       <set comment="band 10">
        <r>  0.0001  0.0000  0.0028  0.0001  0.0011  0.0947  0.0524  0.1693  0.0390 </r>
        <r>  0.0004  0.0000  0.0004  0.0005  0.0070  0.0149  0.3337  0.0266  0.2485 </r>
       </set>
       <set comment="band 11">
        <r>  0.0027  0.0001  0.0540  0.0039  0.0008  0.0095  0.0007  0.2345  0.0121 </r>
        <r>  0.0792  0.0017  0.0018  0.1147  0.0232  0.0003  0.0194  0.0080  0.3544 </r>
       </set>
       <set comment="band 12">
        <r>  0.0792  0.0017  0.0018  0.1147  0.0232  0.0003  0.0194  0.0080  0.3544 </r>
        <r>  0.0027  0.0001  0.0540  0.0039  0.0008  0.0095  0.0007  0.2345  0.0121 </r>
       </set>
       <set comment="band 13">
        <r>  0.0003  0.0792  0.0482  0.0040  0.0957  0.0349  0.0022  0.0384  0.0000 </r>
        <r>  0.0007  0.2029  0.0188  0.0102  0.2451  0.0136  0.0057  0.0150  0.0001 </r>
       </set>
       <set comment="band 14">
        <r>  0.0007  0.2029  0.0188  0.0102  0.2451  0.0136  0.0057  0.0150  0.0001 </r>
        <r>  0.0003  0.0792  0.0482  0.0040  0.0957  0.0349  0.0022  0.0384  0.0000 </r>
       </set>
       <set comment="band 15">
        <r>  0.0858  0.0027  0.0032  0.0766  0.0029  0.0652  0.0263  0.0714  0.0018 </r>
        <r>  0.1866  0.0058  0.0015  0.1665  0.0063  0.0300  0.0571  0.0328  0.0039 </r>
       </set>
       <set comment="band 16">
        <r>  0.1866  0.0058  0.0015  0.1665  0.0063  0.0300  0.0571  0.0328  0.0039 </r>
        <r>  0.0858  0.0027  0.0032  0.0766  0.0029  0.0652  0.0263  0.0714  0.0018 </r>
       </set>
      </set>
      <set comment="kpoint 141">
       <set comment="band 1">
        <r>  0.1109  0.0106  0.0006  0.0593  0.0681  0.0003  0.0464  0.0124  0.0653 </r>
        <r>  0.0032  0.0003  0.0216  0.0017  0.0020  0.0121  0.0013  0.4327  0.0019 </r>
       </set>
       <set comment="band 2">
        <r>  0.0032  0.0003  0.0216  0.0017  0.0020  0.0121  0.0013  0.4327  0.0019 </r>
        <r>  0.1109  0.0106  0.0006  0.0593  0.0681  0.0003  0.0464  0.0124  0.0653 </r>
       </set>
       <set comment="band 3">
        <r>  0.0019  0.0054  0.0255  0.0017  0.0624  0.0417  0.0070  0.0392  0.0055 </r>
        <r>  0.0164  0.0458  0.0030  0.0142  0.5313  0.0049  0.0600  0.0046  0.0472 </r>
       </set>
       <set comment="band 4">
        <r>  0.0164  0.0458  0.0030  0.0142  0.5313  0.0049  0.0600  0.0046  0.0472 </r>
        <r>  0.0019  0.0054  0.0255  0.0017  0.0624  0.0417  0.0070  0.0392  0.0055 </r>
       </set>
       <set comment="band 5">
        <r>  0.0014  0.0017  0.0129  0.0189  0.0071  0.2229  0.0539  0.0083  0.0288 </r>
        <r>  0.0063  0.0076  0.0029  0.0838  0.0314  0.0504  0.2382  0.0019  0.1273 </r>
       </set>
       <set comment="band 6">
        <r>  0.0063  0.0076  0.0029  0.0838  0.0314  0.0504  0.2382  0.0019  0.1273 </r>
        <r>  0.0014  0.0017  0.0129  0.0189  0.0071  0.2229  0.0539  0.0083  0.0288 </r>
       </set>
       <set comment="band 7">
        <r>  0.0015  0.0002  0.0005  0.0007  0.0208  0.4093  0.0068  0.0747  0.0336 </r>
        <r>  0.0076  0.0012  0.0001  0.0034  0.1044  0.0815  0.0342  0.0149  0.1687 </r>
       </set>
       <set comment="band 8">
        <r>  0.0076  0.0012  0.0001  0.0034  0.1044  0.0815  0.0342  0.0149  0.1687 </r>
        <r>  0.0015  0.0002  0.0005  0.0007  0.0208  0.4093  0.0068  0.0747  0.0336 </r>
       </set>
       <set comment="band 9">
        <r>  0.0000  0.0000  0.0022  0.0012  0.0037  0.0586  0.1790  0.1368  0.0578 </r>
        <r>  0.0001  0.0000  0.0012  0.0021  0.0068  0.0321  0.3271  0.0748  0.1056 </r>
       </set>
       <set comment="band 10">
        <r>  0.0001  0.0000  0.0012  0.0021  0.0068  0.0321  0.3271  0.0748  0.1056 </r>
        <r>  0.0000  0.0000  0.0022  0.0012  0.0037  0.0586  0.1790  0.1368  0.0578 </r>
       </set>
       <set comment="band 11">
        <r>  0.0664  0.0057  0.0100  0.1667  0.0184  0.0010  0.0025  0.0187  0.3225 </r>
        <r>  0.0101  0.0009  0.0658  0.0255  0.0028  0.0067  0.0004  0.1227  0.0493 </r>
       </set>
       <set comment="band 12">
        <r>  0.0101  0.0009  0.0658  0.0255  0.0028  0.0067  0.0004  0.1227  0.0493 </r>
        <r>  0.0664  0.0057  0.0100  0.1667  0.0184  0.0010  0.0025  0.0187  0.3225 </r>
       </set>
       <set comment="band 13">
        <r>  0.0781  0.1377  0.0187  0.0243  0.1640  0.0210  0.0102  0.0301  0.0026 </r>
        <r>  0.0433  0.0764  0.0337  0.0135  0.0910  0.0378  0.0056  0.0542  0.0015 </r>
       </set>
       <set comment="band 14">
        <r>  0.0433  0.0764  0.0337  0.0135  0.0910  0.0378  0.0056  0.0542  0.0015 </r>
        <r>  0.0781  0.1377  0.0187  0.0243  0.1640  0.0210  0.0102  0.0301  0.0026 </r>
       </set>
       <set comment="band 15">
        <r>  0.0554  0.0217  0.0135  0.0297  0.0161  0.0850  0.0113  0.0599  0.0001 </r>
        <r>  0.1982  0.0776  0.0038  0.1061  0.0575  0.0238  0.0405  0.0167  0.0003 </r>
       </set>
       <set comment="band 16">
        <r>  0.1982  0.0776  0.0038  0.1061  0.0575  0.0238  0.0405  0.0167  0.0003 </r>
        <r>  0.0554  0.0217  0.0135  0.0297  0.0161  0.0850  0.0113  0.0599  0.0001 </r>
       </set>
      </set>
      <set comment="kpoint 142">
       <set comment="band 1">
        <r>  0.0317  0.0097  0.0027  0.0133  0.0620  0.0393  0.0234  0.2306  0.0279 </r>
        <r>  0.0444  0.0136  0.0019  0.0186  0.0870  0.0280  0.0328  0.1644  0.0391 </r>
       </set>
       <set comment="band 2">
        <r>  0.0444  0.0136  0.0019  0.0186  0.0870  0.0280  0.0328  0.1644  0.0391 </r>
        <r>  0.0317  0.0097  0.0027  0.0133  0.0620  0.0393  0.0234  0.2306  0.0279 </r>
       </set>
       <set comment="band 3">
        <r>  0.0015  0.0114  0.0079  0.0026  0.1082  0.0737  0.0581  0.0790  0.0201 </r>
        <r>  0.0037  0.0284  0.0032  0.0065  0.2686  0.0297  0.1443  0.0318  0.0498 </r>
       </set>
       <set comment="band 4">
        <r>  0.0037  0.0284  0.0032  0.0065  0.2686  0.0297  0.1443  0.0318  0.0498 </r>
        <r>  0.0015  0.0114  0.0079  0.0026  0.1082  0.0737  0.0581  0.0790  0.0201 </r>
       </set>
       <set comment="band 5">
        <r>  0.0092  0.0165  0.0146  0.0700  0.0620  0.1149  0.0399  0.0124  0.1208 </r>
        <r>  0.0060  0.0107  0.0225  0.0453  0.0401  0.1774  0.0258  0.0191  0.0782 </r>
       </set>
       <set comment="band 6">
        <r>  0.0060  0.0107  0.0225  0.0453  0.0401  0.1774  0.0258  0.0191  0.0782 </r>
        <r>  0.0092  0.0165  0.0146  0.0700  0.0620  0.1149  0.0399  0.0124  0.1208 </r>
       </set>
       <set comment="band 7">
        <r>  0.0010  0.0023  0.0022  0.0066  0.0547  0.2122  0.0083  0.0764  0.1083 </r>
        <r>  0.0018  0.0041  0.0012  0.0122  0.1003  0.1157  0.0151  0.0416  0.1986 </r>
       </set>
       <set comment="band 8">
        <r>  0.0018  0.0041  0.0012  0.0122  0.1003  0.1157  0.0151  0.0416  0.1986 </r>
        <r>  0.0010  0.0023  0.0022  0.0066  0.0547  0.2122  0.0083  0.0764  0.1083 </r>
       </set>
       <set comment="band 9">
        <r>  0.0005  0.0003  0.0003  0.0014  0.0159  0.0188  0.4998  0.0337  0.0523 </r>
        <r>  0.0001  0.0001  0.0013  0.0003  0.0035  0.0848  0.1106  0.1523  0.0116 </r>
       </set>
       <set comment="band 10">
        <r>  0.0001  0.0001  0.0013  0.0003  0.0035  0.0848  0.1106  0.1523  0.0116 </r>
        <r>  0.0005  0.0003  0.0003  0.0014  0.0159  0.0188  0.4998  0.0337  0.0523 </r>
       </set>
       <set comment="band 11">
        <r>  0.0161  0.0240  0.0431  0.1485  0.0287  0.0064  0.0027  0.0273  0.1744 </r>
        <r>  0.0120  0.0178  0.0580  0.1104  0.0213  0.0086  0.0020  0.0368  0.1297 </r>
       </set>
       <set comment="band 12">
        <r>  0.0120  0.0178  0.0580  0.1104  0.0213  0.0086  0.0020  0.0368  0.1297 </r>
        <r>  0.0161  0.0240  0.0431  0.1485  0.0287  0.0064  0.0027  0.0273  0.1744 </r>
       </set>
       <set comment="band 13">
        <r>  0.0681  0.0426  0.0252  0.0045  0.0641  0.0434  0.0039  0.0899  0.0071 </r>
        <r>  0.1627  0.1018  0.0106  0.0108  0.1532  0.0182  0.0093  0.0376  0.0170 </r>
       </set>
       <set comment="band 14">
        <r>  0.1627  0.1018  0.0106  0.0108  0.1532  0.0182  0.0093  0.0376  0.0170 </r>
        <r>  0.0681  0.0426  0.0252  0.0045  0.0641  0.0434  0.0039  0.0899  0.0071 </r>
       </set>
       <set comment="band 15">
        <r>  0.0367  0.0230  0.0166  0.0119  0.0107  0.1040  0.0062  0.0530  0.0016 </r>
        <r>  0.2111  0.1326  0.0029  0.0683  0.0617  0.0181  0.0358  0.0092  0.0090 </r>
       </set>
       <set comment="band 16">
        <r>  0.2111  0.1326  0.0029  0.0683  0.0617  0.0181  0.0358  0.0092  0.0090 </r>
        <r>  0.0367  0.0230  0.0166  0.0119  0.0107  0.1040  0.0062  0.0530  0.0016 </r>
       </set>
      </set>
      <set comment="kpoint 143">
       <set comment="band 1">
        <r>  0.0348  0.0126  0.0024  0.0248  0.0431  0.0001  0.0446  0.2325  0.0335 </r>
        <r>  0.0295  0.0107  0.0028  0.0210  0.0365  0.0001  0.0378  0.2742  0.0284 </r>
       </set>
       <set comment="band 2">
        <r>  0.0295  0.0107  0.0028  0.0210  0.0365  0.0001  0.0378  0.2742  0.0284 </r>
        <r>  0.0348  0.0126  0.0024  0.0248  0.0431  0.0001  0.0446  0.2325  0.0335 </r>
       </set>
       <set comment="band 3">
        <r>  0.0235  0.0592  0.0003  0.0009  0.3772  0.0071  0.1128  0.0003  0.0003 </r>
        <r>  0.0006  0.0015  0.0127  0.0000  0.0093  0.2868  0.0028  0.0138  0.0000 </r>
       </set>
       <set comment="band 4">
        <r>  0.0006  0.0015  0.0127  0.0000  0.0093  0.2868  0.0028  0.0138  0.0000 </r>
        <r>  0.0235  0.0592  0.0003  0.0009  0.3772  0.0071  0.1128  0.0003  0.0003 </r>
       </set>
       <set comment="band 5">
        <r>  0.0007  0.0104  0.0110  0.0806  0.1259  0.0453  0.0779  0.0003  0.1994 </r>
        <r>  0.0003  0.0049  0.0234  0.0377  0.0589  0.0968  0.0365  0.0006  0.0933 </r>
       </set>
       <set comment="band 6">
        <r>  0.0003  0.0049  0.0234  0.0377  0.0589  0.0968  0.0365  0.0006  0.0933 </r>
        <r>  0.0007  0.0104  0.0110  0.0806  0.1259  0.0453  0.0779  0.0003  0.1994 </r>
       </set>
       <set comment="band 7">
        <r>  0.0018  0.0001  0.0002  0.0025  0.0514  0.2383  0.0089  0.0855  0.0942 </r>
        <r>  0.0036  0.0002  0.0001  0.0051  0.1037  0.1180  0.0179  0.0423  0.1903 </r>
       </set>
       <set comment="band 8">
        <r>  0.0036  0.0002  0.0001  0.0051  0.1037  0.1180  0.0179  0.0423  0.1903 </r>
        <r>  0.0018  0.0001  0.0002  0.0025  0.0514  0.2383  0.0089  0.0855  0.0942 </r>
       </set>
       <set comment="band 9">
        <r>  0.0009  0.0000  0.0001  0.0023  0.0049  0.0062  0.5846  0.0116  0.0584 </r>
        <r>  0.0001  0.0000  0.0013  0.0001  0.0003  0.0963  0.0379  0.1788  0.0038 </r>
       </set>
       <set comment="band 10">
        <r>  0.0001  0.0000  0.0013  0.0001  0.0003  0.0963  0.0379  0.1788  0.0038 </r>
        <r>  0.0009  0.0000  0.0001  0.0023  0.0049  0.0062  0.5846  0.0116  0.0584 </r>
       </set>
       <set comment="band 11">
        <r>  0.0133  0.0026  0.0772  0.0653  0.0063  0.0046  0.0001  0.0625  0.0833 </r>
        <r>  0.0401  0.0077  0.0257  0.1959  0.0188  0.0015  0.0002  0.0208  0.2501 </r>
       </set>
       <set comment="band 12">
        <r>  0.0401  0.0077  0.0257  0.1959  0.0188  0.0015  0.0002  0.0208  0.2501 </r>
        <r>  0.0133  0.0026  0.0772  0.0653  0.0063  0.0046  0.0001  0.0625  0.0833 </r>
       </set>
       <set comment="band 13">
        <r>  0.0015  0.1355  0.0332  0.0053  0.1275  0.0250  0.0001  0.0480  0.0024 </r>
        <r>  0.0021  0.1913  0.0235  0.0075  0.1801  0.0177  0.0002  0.0340  0.0034 </r>
       </set>
       <set comment="band 14">
        <r>  0.0021  0.1913  0.0235  0.0075  0.1801  0.0177  0.0002  0.0340  0.0034 </r>
        <r>  0.0015  0.1355  0.0332  0.0053  0.1275  0.0250  0.0001  0.0480  0.0024 </r>
       </set>
       <set comment="band 15">
        <r>  0.2908  0.0000  0.0010  0.0534  0.0000  0.0541  0.0340  0.0333  0.0011 </r>
        <r>  0.1688  0.0000  0.0017  0.0310  0.0000  0.0932  0.0197  0.0574  0.0006 </r>
       </set>
       <set comment="band 16">
        <r>  0.1688  0.0000  0.0017  0.0310  0.0000  0.0932  0.0197  0.0574  0.0006 </r>
        <r>  0.2908  0.0000  0.0010  0.0534  0.0000  0.0541  0.0340  0.0333  0.0011 </r>
       </set>
      </set>
      <set comment="kpoint 144">
       <set comment="band 1">
        <r>  0.0274  0.0247  0.0003  0.0201  0.0750  0.0453  0.0547  0.1360  0.0412 </r>
        <r>  0.0161  0.0145  0.0004  0.0118  0.0439  0.0774  0.0320  0.2321  0.0242 </r>
       </set>
       <set comment="band 2">
        <r>  0.0161  0.0145  0.0004  0.0118  0.0439  0.0774  0.0320  0.2321  0.0242 </r>
        <r>  0.0274  0.0247  0.0003  0.0201  0.0750  0.0453  0.0547  0.1360  0.0412 </r>
       </set>
       <set comment="band 3">
        <r>  0.0148  0.0161  0.0000  0.0130  0.0532  0.1593  0.1027  0.0598  0.0312 </r>
        <r>  0.0124  0.0135  0.0000  0.0109  0.0447  0.1895  0.0863  0.0712  0.0263 </r>
       </set>
       <set comment="band 4">
        <r>  0.0124  0.0135  0.0000  0.0109  0.0447  0.1895  0.0863  0.0712  0.0263 </r>
        <r>  0.0148  0.0161  0.0000  0.0130  0.0532  0.1593  0.1027  0.0598  0.0312 </r>
       </set>
       <set comment="band 5">
        <r>  0.0021  0.0530  0.0028  0.0823  0.3165  0.0011  0.0019  0.0010  0.3146 </r>
        <r>  0.0001  0.0034  0.0442  0.0053  0.0203  0.0177  0.0001  0.0159  0.0202 </r>
       </set>
       <set comment="band 6">
        <r>  0.0001  0.0034  0.0442  0.0053  0.0203  0.0177  0.0001  0.0159  0.0202 </r>
        <r>  0.0021  0.0530  0.0028  0.0823  0.3165  0.0011  0.0019  0.0010  0.3146 </r>
       </set>
       <set comment="band 7">
        <r>  0.0000  0.0002  0.0005  0.0005  0.0126  0.2359  0.0002  0.1822  0.0173 </r>
        <r>  0.0006  0.0030  0.0000  0.0077  0.2004  0.0149  0.0033  0.0115  0.2739 </r>
       </set>
       <set comment="band 8">
        <r>  0.0006  0.0030  0.0000  0.0077  0.2004  0.0149  0.0033  0.0115  0.2739 </r>
        <r>  0.0000  0.0002  0.0005  0.0005  0.0126  0.2359  0.0002  0.1822  0.0173 </r>
       </set>
       <set comment="band 9">
        <r>  0.0023  0.0003  0.0000  0.0001  0.0069  0.0226  0.5668  0.0260  0.0038 </r>
        <r>  0.0005  0.0001  0.0002  0.0000  0.0014  0.1115  0.1151  0.1281  0.0008 </r>
       </set>
       <set comment="band 10">
        <r>  0.0005  0.0001  0.0002  0.0000  0.0014  0.1115  0.1151  0.1281  0.0008 </r>
        <r>  0.0023  0.0003  0.0000  0.0001  0.0069  0.0226  0.5668  0.0260  0.0038 </r>
       </set>
       <set comment="band 11">
        <r>  0.0031  0.0606  0.0580  0.1349  0.0702  0.0078  0.0005  0.0054  0.1365 </r>
        <r>  0.0022  0.0428  0.0820  0.0954  0.0496  0.0110  0.0004  0.0076  0.0966 </r>
       </set>
       <set comment="band 12">
        <r>  0.0022  0.0428  0.0820  0.0954  0.0496  0.0110  0.0004  0.0076  0.0966 </r>
        <r>  0.0031  0.0606  0.0580  0.1349  0.0702  0.0078  0.0005  0.0054  0.1365 </r>
       </set>
       <set comment="band 13">
        <r>  0.0021  0.0065  0.0225  0.0034  0.0063  0.0531  0.0001  0.1135  0.0028 </r>
        <r>  0.0613  0.1923  0.0008  0.1002  0.1873  0.0018  0.0023  0.0038  0.0832 </r>
       </set>
       <set comment="band 14">
        <r>  0.0613  0.1923  0.0008  0.1002  0.1873  0.0018  0.0023  0.0038  0.0832 </r>
        <r>  0.0021  0.0065  0.0225  0.0034  0.0063  0.0531  0.0001  0.1135  0.0028 </r>
       </set>
       <set comment="band 15">
        <r>  0.1379  0.0136  0.0035  0.0046  0.0040  0.1018  0.0138  0.0696  0.0014 </r>
        <r>  0.3330  0.0328  0.0014  0.0111  0.0097  0.0421  0.0332  0.0288  0.0033 </r>
       </set>
       <set comment="band 16">
        <r>  0.3330  0.0328  0.0014  0.0111  0.0097  0.0421  0.0332  0.0288  0.0033 </r>
        <r>  0.1379  0.0136  0.0035  0.0046  0.0040  0.1018  0.0138  0.0696  0.0014 </r>
       </set>
      </set>
     </set>
    </set>
   </array>
  </projected>
 </calculation>
 <structure name="finalpos" >
  <crystal>
   <varray name="basis" >
    <v>       1.23599995      -2.14081471       0.00000000 </v>
    <v>       1.23599995       2.14081471       0.00000000 </v>
    <v>       0.00000000       0.00000000       4.02114408 </v>
   </varray>
   <i name="volume">     21.28027152 </i>
   <varray name="rec_basis" >
    <v>       0.40453076      -0.23355594       0.00000000 </v>
    <v>       0.40453076       0.23355594       0.00000000 </v>
    <v>       0.00000000       0.00000000       0.24868544 </v>
   </varray>
  </crystal>
  <varray name="positions" >
   <v>       0.33333333       0.66666667       0.25000000 </v>
   <v>       0.66666667       0.33333333       0.75000000 </v>
  </varray>
 </structure>
</modeling>
