Pt-hcc                                  
   1.00000000000000     
     2.863091    0.000000    0.000000
    -1.431546    2.479510    0.000000
     0.000000    0.000000    4.960238
   Pt
     2
Direct
  0.000000  0.000000  0.000000
  0.333333  0.666667  0.500000
 
   40   40   72
 0.30836008038E+03 0.30795298939E+03 0.30595112541E+03 0.30032358939E+03 0.28860062534E+03
 0.26893042986E+03 0.24096995007E+03 0.20629400008E+03 0.16810315267E+03 0.13036586719E+03
 0.96709747458E+02 0.69516069333E+02 0.49501549359E+02 0.35874762654E+02 0.26856195500E+02
 0.20693488800E+02 0.16575671152E+02 0.13948975489E+02 0.12363780257E+02 0.11523910832E+02
 0.11261858986E+02 0.11523666565E+02 0.12364306553E+02 0.13948085055E+02 0.16577109685E+02
 0.20691166775E+02 0.26857594608E+02 0.35876129418E+02 0.49499361216E+02 0.69517285530E+02
 0.96709151662E+02 0.13036642513E+03 0.16810275233E+03 0.20629457397E+03 0.24096959285E+03
 0.26893074821E+03 0.28860050849E+03 0.30032333726E+03 0.30595108863E+03 0.30795327006E+03
 0.30795327006E+03 0.30795278371E+03 0.30673952015E+03 0.30287953749E+03 0.29408381868E+03
 0.27815447636E+03 0.25400016096E+03 0.22228051788E+03 0.18547629772E+03 0.14726535707E+03
 0.11152356050E+03 0.81261874950E+02 0.57992817543E+02 0.41583873352E+02 0.30675552126E+02
 0.23318714406E+02 0.18303133583E+02 0.15032015116E+02 0.12989547948E+02 0.11817257953E+02
 0.11283184138E+02 0.11283447130E+02 0.11816979952E+02 0.12989748616E+02 0.15031884806E+02
 0.18302911570E+02 0.23320740103E+02 0.30671902579E+02 0.41586448172E+02 0.57991873812E+02
 0.81262441246E+02 0.11152287322E+03 0.14726582511E+03 0.18547564628E+03 0.22228116968E+03
 0.25399947774E+03 0.27815529248E+03 0.29408348009E+03 0.30287990540E+03 0.30673952178E+03
 0.30595108863E+03 0.30674586725E+03 0.30595143932E+03 0.30287999120E+03 0.29575974619E+03
 0.28248314402E+03 0.26156768254E+03 0.23296068898E+03 0.19836569332E+03 0.16093219401E+03
 0.12442710155E+03 0.92201294089E+02 0.66372660392E+02 0.47466171837E+02 0.34612635906E+02
 0.26036829663E+02 0.20139823478E+02 0.16198233778E+02 0.13676261231E+02 0.12151519826E+02
 0.11340194163E+02 0.11087654640E+02 0.11339938465E+02 0.12151977590E+02 0.13675384932E+02
 0.16199575776E+02 0.20137325802E+02 0.26039457009E+02 0.34611976659E+02 0.47465661813E+02
 0.66373276419E+02 0.92200541255E+02 0.12442781395E+03 0.16093177726E+03 0.19836596733E+03
 0.23296075381E+03 0.26156812552E+03 0.28248300356E+03 0.29576086542E+03 0.30287990540E+03
 0.30032333726E+03 0.30289704289E+03 0.30289635228E+03 0.30032301743E+03 0.29408314375E+03
 0.28248357357E+03 0.26403471275E+03 0.23827001597E+03 0.20623983095E+03 0.17047527937E+03
 0.13438838056E+03 0.10137018235E+03 0.73903466189E+02 0.53063529203E+02 0.38472268659E+02
 0.28703129155E+02 0.21991857616E+02 0.17402695428E+02 0.14402172111E+02 0.12517880696E+02
 0.11431133737E+02 0.10932904927E+02 0.10933926990E+02 0.11430023646E+02 0.12518979831E+02
 0.14400907228E+02 0.17404224356E+02 0.21991175624E+02 0.28702052070E+02 0.38474185327E+02
 0.53061725905E+02 0.73905021992E+02 0.10136905025E+03 0.13438876018E+03 0.17047493806E+03
 0.20623995242E+03 0.23826987997E+03 0.26403524742E+03 0.28248300356E+03 0.29408348009E+03
 0.28860050849E+03 0.29410936390E+03 0.29579608046E+03 0.29410942708E+03 0.28860035660E+03
 0.27815523657E+03 0.26156714857E+03 0.23827004520E+03 0.20888135075E+03 0.17536447930E+03
 0.14065751479E+03 0.10795798882E+03 0.79876387726E+02 0.57857085684E+02 0.41965221989E+02
 0.31154944571E+02 0.23743175904E+02 0.18583910910E+02 0.15132502351E+02 0.12904069630E+02
 0.11548230321E+02 0.10818679954E+02 0.10591922567E+02 0.10818635861E+02 0.11548249615E+02
 0.12903894942E+02 0.15132679579E+02 0.18582866537E+02 0.23745532824E+02 0.31152575802E+02
 0.41967118827E+02 0.57855911526E+02 0.79876833235E+02 0.10795774337E+03 0.14065757793E+03
 0.17536460076E+03 0.20888143392E+03 0.23826987997E+03 0.26156812552E+03 0.27815529248E+03
 0.26893074821E+03 0.27818397720E+03 0.28253159488E+03 0.28253170197E+03 0.27818449513E+03
 0.26893038347E+03 0.25399973943E+03 0.23296130859E+03 0.20624007917E+03 0.17536434158E+03
 0.14279580036E+03 0.11139701784E+03 0.83710008568E+02 0.61364353771E+02 0.44765778929E+02
 0.33220800749E+02 0.25272696757E+02 0.19665367107E+02 0.15824940605E+02 0.13289707484E+02
 0.11682116677E+02 0.10741675240E+02 0.10307655910E+02 0.10308280258E+02 0.10740981663E+02
 0.11682875580E+02 0.13288839092E+02 0.15826434148E+02 0.19663224902E+02 0.25274549763E+02
 0.33219754894E+02 0.44766249057E+02 0.61364309466E+02 0.83709882959E+02 0.11139736254E+03
 0.14279497455E+03 0.17536460076E+03 0.20623995242E+03 0.23296075381E+03 0.25399947774E+03
 0.24096959285E+03 0.25402396875E+03 0.26161512913E+03 0.26409141093E+03 0.26161447806E+03
 0.25402363596E+03 0.24096999060E+03 0.22228124614E+03 0.19836552450E+03 0.17047493670E+03
 0.14065805356E+03 0.11139629801E+03 0.85031535659E+02 0.63216695561E+02 0.46580720939E+02
 0.34724233447E+02 0.26466922445E+02 0.20564678092E+02 0.16434098645E+02 0.13646491108E+02
 0.11823291713E+02 0.10693613303E+02 0.10079258431E+02 0.98845581732E+01 0.10079382570E+02
 0.10693340417E+02 0.11823641188E+02 0.13645684718E+02 0.16435276106E+02 0.20563950816E+02
 0.26467050196E+02 0.34724525948E+02 0.46580162474E+02 0.63217479143E+02 0.85030380829E+02
 0.11139736254E+03 0.14065757793E+03 0.17047493806E+03 0.19836596733E+03 0.22228116968E+03
 0.20629457397E+03 0.22229193582E+03 0.23299006275E+03 0.23831220798E+03 0.23831293999E+03
 0.23299076499E+03 0.22229291000E+03 0.20629415010E+03 0.18547599586E+03 0.16093248328E+03
 0.13438907914E+03 0.10795730354E+03 0.83710863531E+02 0.63216222032E+02 0.47209733292E+02
 0.35518027123E+02 0.27227074001E+02 0.21210494804E+02 0.16911267695E+02 0.13947477571E+02
 0.11955745052E+02 0.10669406655E+02 0.99000384816E+01 0.95412608221E+01 0.95407816950E+01
 0.99005606076E+01 0.10668945374E+02 0.11956478576E+02 0.13946588176E+02 0.16911654697E+02
 0.21210622637E+02 0.27226601736E+02 0.35518859772E+02 0.47208722684E+02 0.63217479143E+02
 0.83709882959E+02 0.10795774337E+03 0.13438876018E+03 0.16093177726E+03 0.18547564628E+03
 0.16810275233E+03 0.18546880158E+03 0.19836562631E+03 0.20624928167E+03 0.20889529338E+03
 0.20624883008E+03 0.19836481948E+03 0.18546848975E+03 0.16810344256E+03 0.14726603698E+03
 0.12442685597E+03 0.10136906009E+03 0.79877394200E+02 0.61363154458E+02 0.46581397202E+02
 0.35517652188E+02 0.27488316455E+02 0.21547898204E+02 0.17216107259E+02 0.14165643477E+02
 0.12064722295E+02 0.10660736862E+02 0.97664539393E+01 0.92714072142E+01 0.91115721887E+01
 0.92713859442E+01 0.97664890228E+01 0.10660553031E+02 0.12065033273E+02 0.14165750431E+02
 0.17215506364E+02 0.21548658039E+02 0.27487168439E+02 0.35518859772E+02 0.46580162474E+02
 0.61364309466E+02 0.79876833235E+02 0.10136905025E+03 0.12442781395E+03 0.14726582511E+03
 0.13036642513E+03 0.14724056013E+03 0.16089572993E+03 0.17043810355E+03 0.17532982794E+03
 0.17532997061E+03 0.17043882330E+03 0.16089676442E+03 0.14724118616E+03 0.13036585310E+03
 0.11152276688E+03 0.92201848304E+02 0.73904278874E+02 0.57855485448E+02 0.44767341395E+02
 0.34723182448E+02 0.27227817371E+02 0.21547481026E+02 0.17321285837E+02 0.14280105653E+02
 0.12136768818E+02 0.10659845779E+02 0.96748325705E+01 0.90708768822E+01 0.87829215983E+01
 0.87828839627E+01 0.90710080572E+01 0.96748842748E+01 0.10659777074E+02 0.12136431244E+02
 0.14280781077E+02 0.17320361796E+02 0.21548658039E+02 0.27226601736E+02 0.34724525948E+02
 0.44766249057E+02 0.57855911526E+02 0.73905021992E+02 0.92200541255E+02 0.11152287322E+03
 0.96709151662E+02 0.11148240753E+03 0.12436012864E+03 0.13430604373E+03 0.14056902768E+03
 0.14270491503E+03 0.14056883303E+03 0.13430558901E+03 0.12435891615E+03 0.11148191700E+03
 0.96709635538E+02 0.81262677999E+02 0.66371576737E+02 0.53062993327E+02 0.41966672912E+02
 0.33218869712E+02 0.26468243451E+02 0.21209538621E+02 0.17216730827E+02 0.14279967126E+02
 0.12161852178E+02 0.10661312678E+02 0.96210657277E+01 0.89384720189E+01 0.85490320920E+01
 0.84230165077E+01 0.85489625743E+01 0.89385028448E+01 0.96211079048E+01 0.10661696485E+02
 0.12161120967E+02 0.14280781077E+02 0.17215506364E+02 0.21210622637E+02 0.26467050196E+02
 0.33219754894E+02 0.41967118827E+02 0.53061725905E+02 0.66373276419E+02 0.81262441246E+02
 0.69517285530E+02 0.81214049165E+02 0.92111468073E+02 0.10125069587E+03 0.10782138926E+03
 0.11125286484E+03 0.11125262701E+03 0.10782149911E+03 0.10125110000E+03 0.92112915797E+02
 0.81214506580E+02 0.69516383689E+02 0.57991039940E+02 0.47467660934E+02 0.38472000301E+02
 0.31153835219E+02 0.25274735807E+02 0.20563123360E+02 0.16912573709E+02 0.14164651729E+02
 0.12137280233E+02 0.10660895994E+02 0.96038414734E+01 0.88720293855E+01 0.84094109023E+01
 0.81840210774E+01 0.81843927839E+01 0.84091642573E+01 0.88722531856E+01 0.96033104792E+01
 0.10661696485E+02 0.12136431244E+02 0.14165750431E+02 0.16911654697E+02 0.20563950816E+02
 0.25274549763E+02 0.31152575802E+02 0.38474185327E+02 0.47465661813E+02 0.57991873812E+02
 0.49499361216E+02 0.57942337290E+02 0.66275294421E+02 0.73767826043E+02 0.79710528869E+02
 0.83527253349E+02 0.84842034679E+02 0.83527611286E+02 0.79710446940E+02 0.73766859486E+02
 0.66273346563E+02 0.57941437725E+02 0.49501393061E+02 0.41586431115E+02 0.34609676717E+02
 0.28704894727E+02 0.23743088299E+02 0.19664126231E+02 0.16435254847E+02 0.13946419349E+02
 0.12065599906E+02 0.10659429894E+02 0.96214869555E+01 0.88720381410E+01 0.83627203605E+01
 0.80649459104E+01 0.79671349391E+01 0.80649061161E+01 0.83628398709E+01 0.88722531856E+01
 0.96211079048E+01 0.10659777074E+02 0.12065033273E+02 0.13946588176E+02 0.16435276106E+02
 0.19663224902E+02 0.23745532824E+02 0.28702052070E+02 0.34611976659E+02 0.41586448172E+02
 0.35876129418E+02 0.41540169397E+02 0.47372279816E+02 0.52924116149E+02 0.57682422365E+02
 0.61165355341E+02 0.63005793501E+02 0.63005175334E+02 0.61164963630E+02 0.57682196474E+02
 0.52925751580E+02 0.47374292253E+02 0.41540308991E+02 0.35872471671E+02 0.30674296497E+02
 0.26039909018E+02 0.21989235133E+02 0.18585301102E+02 0.15825252445E+02 0.13646093735E+02
 0.11956285904E+02 0.10660236918E+02 0.96749722067E+01 0.89382688977E+01 0.84092539500E+01
 0.80650817078E+01 0.78949185163E+01 0.78949709771E+01 0.80649061161E+01 0.84091642573E+01
 0.89385028448E+01 0.96748842748E+01 0.10660553031E+02 0.11956478576E+02 0.13645684718E+02
 0.15826434148E+02 0.18582866537E+02 0.21991175624E+02 0.26039457009E+02 0.30671902579E+02
 0.26857594608E+02 0.30633676733E+02 0.34532097246E+02 0.38350350619E+02 0.41804453348E+02
 0.44573060258E+02 0.46368384813E+02 0.46990566090E+02 0.46368951690E+02 0.44573769721E+02
 0.41803779451E+02 0.38348052904E+02 0.34529827864E+02 0.30635943383E+02 0.26859894559E+02
 0.23317654908E+02 0.20138665999E+02 0.17404756396E+02 0.15131148991E+02 0.13289631555E+02
 0.11823411443E+02 0.10669071812E+02 0.97668385636E+01 0.90709031684E+01 0.85492166307E+01
 0.81842697507E+01 0.79669544530E+01 0.78949185163E+01 0.79671349391E+01 0.81843927839E+01
 0.85489625743E+01 0.90710080572E+01 0.97664890228E+01 0.10668945374E+02 0.11823641188E+02
 0.13288839092E+02 0.15132679579E+02 0.17404224356E+02 0.20137325802E+02 0.23320740103E+02
 0.20691166775E+02 0.23290910115E+02 0.25975248018E+02 0.28598655408E+02 0.31013189281E+02
 0.33050804368E+02 0.34533752357E+02 0.35316252272E+02 0.35316009777E+02 0.34532846698E+02
 0.33050275265E+02 0.31014715820E+02 0.28601582987E+02 0.25975852528E+02 0.23287901274E+02
 0.20691330219E+02 0.18304851893E+02 0.16198381392E+02 0.14401004275E+02 0.12905091710E+02
 0.11682338207E+02 0.10693441194E+02 0.99004262148E+01 0.92709727309E+01 0.87829906005E+01
 0.84227234147E+01 0.81842697507E+01 0.80650817078E+01 0.80649459104E+01 0.81840210774E+01
 0.84230165077E+01 0.87828839627E+01 0.92713859442E+01 0.99005606076E+01 0.10693340417E+02
 0.11682875580E+02 0.12903894942E+02 0.14400907228E+02 0.16199575776E+02 0.18302911570E+02
 0.16577109685E+02 0.18280979076E+02 0.20088572085E+02 0.21911644116E+02 0.23636051827E+02
 0.25138929227E+02 0.26308751209E+02 0.27053153529E+02 0.27308823426E+02 0.27053746200E+02
 0.26309643252E+02 0.25138854076E+02 0.23633540909E+02 0.21909656188E+02 0.20089832386E+02
 0.18282905938E+02 0.16576561663E+02 0.15031066022E+02 0.13676357569E+02 0.12518851947E+02
 0.11547150028E+02 0.10741470014E+02 0.10079237114E+02 0.95410324816E+01 0.91119240047E+01
 0.87829906005E+01 0.85492166307E+01 0.84092539500E+01 0.83627203605E+01 0.84094109023E+01
 0.85490320920E+01 0.87829215983E+01 0.91115721887E+01 0.95407816950E+01 0.10079382570E+02
 0.10740981663E+02 0.11548249615E+02 0.12518979831E+02 0.13675384932E+02 0.15031884806E+02
 0.13948085055E+02 0.15016075406E+02 0.16163985353E+02 0.17345693174E+02 0.18500901011E+02
 0.19558140370E+02 0.20438289548E+02 0.21070133393E+02 0.21400422513E+02 0.21400013359E+02
 0.21069467033E+02 0.20437733826E+02 0.19559281775E+02 0.18503400955E+02 0.17346338497E+02
 0.16162782996E+02 0.15015279305E+02 0.13948584973E+02 0.12990323442E+02 0.12151150059E+02
 0.11430384960E+02 0.10819559487E+02 0.10307939615E+02 0.98845619960E+01 0.95410324816E+01
 0.92709727309E+01 0.90709031684E+01 0.89382688977E+01 0.88720381410E+01 0.88720293855E+01
 0.89384720189E+01 0.90708768822E+01 0.92714072142E+01 0.95412608221E+01 0.98845581732E+01
 0.10308280258E+02 0.10818635861E+02 0.11430023646E+02 0.12151977590E+02 0.12989748616E+02
 0.12364306553E+02 0.12978469357E+02 0.13650081363E+02 0.14359435065E+02 0.15074004808E+02
 0.15750368087E+02 0.16343863175E+02 0.16808700447E+02 0.17105315547E+02 0.17207662752E+02
 0.17105871266E+02 0.16809268226E+02 0.16343583589E+02 0.15749069850E+02 0.15072357918E+02
 0.14359466533E+02 0.13650985198E+02 0.12978990580E+02 0.12363864902E+02 0.11816782383E+02
 0.11340523070E+02 0.10933464171E+02 0.10590911044E+02 0.10307939615E+02 0.10079237114E+02
 0.99004262148E+01 0.97668385636E+01 0.96749722067E+01 0.96214869555E+01 0.96038414734E+01
 0.96210657277E+01 0.96748325705E+01 0.97664539393E+01 0.99000384816E+01 0.10079258431E+02
 0.10307655910E+02 0.10591922567E+02 0.10933926990E+02 0.11339938465E+02 0.11816979952E+02
 0.11523666565E+02 0.11808457294E+02 0.12133591240E+02 0.12489565630E+02 0.12862762902E+02
 0.13235865968E+02 0.13582022053E+02 0.13873823063E+02 0.14085655347E+02 0.14196790255E+02
 0.14196619979E+02 0.14085073979E+02 0.13873918752E+02 0.13582582744E+02 0.13236775552E+02
 0.12863964764E+02 0.12489444898E+02 0.12132750278E+02 0.11808268759E+02 0.11523852081E+02
 0.11283393487E+02 0.11087022735E+02 0.10933464171E+02 0.10819559487E+02 0.10741470014E+02
 0.10693441194E+02 0.10669071812E+02 0.10660236918E+02 0.10659429894E+02 0.10660895994E+02
 0.10661312678E+02 0.10659845779E+02 0.10660736862E+02 0.10669406655E+02 0.10693613303E+02
 0.10741675240E+02 0.10818679954E+02 0.10932904927E+02 0.11087654640E+02 0.11283447130E+02
 0.11261858986E+02 0.11276301832E+02 0.11325580435E+02 0.11408353466E+02 0.11519340775E+02
 0.11646975082E+02 0.11781589404E+02 0.11908864277E+02 0.12013585626E+02 0.12082966359E+02
 0.12107246439E+02 0.12083240219E+02 0.12013667906E+02 0.11908557870E+02 0.11781144068E+02
 0.11646376809E+02 0.11518126362E+02 0.11408657003E+02 0.11326101515E+02 0.11276229160E+02
 0.11261588107E+02 0.11283393487E+02 0.11340523070E+02 0.11430384960E+02 0.11547150028E+02
 0.11682338207E+02 0.11823411443E+02 0.11956285904E+02 0.12065599906E+02 0.12137280233E+02
 0.12161852178E+02 0.12136768818E+02 0.12064722295E+02 0.11955745052E+02 0.11823291713E+02
 0.11682116677E+02 0.11548230321E+02 0.11431133737E+02 0.11340194163E+02 0.11283184138E+02
 0.11523910832E+02 0.11276000859E+02 0.11074487029E+02 0.10915858853E+02 0.10796490442E+02
 0.10715652409E+02 0.10665451700E+02 0.10639315420E+02 0.10629745982E+02 0.10628408048E+02
 0.10629529646E+02 0.10629388175E+02 0.10628548721E+02 0.10629767240E+02 0.10639612270E+02
 0.10665688480E+02 0.10716182265E+02 0.10797447987E+02 0.10915412548E+02 0.11073885515E+02
 0.11276229160E+02 0.11523852081E+02 0.11816782383E+02 0.12151150059E+02 0.12518851947E+02
 0.12905091710E+02 0.13289631555E+02 0.13646093735E+02 0.13946419349E+02 0.14164651729E+02
 0.14279967126E+02 0.14280105653E+02 0.14165643477E+02 0.13947477571E+02 0.13646491108E+02
 0.13289707484E+02 0.12904069630E+02 0.12517880696E+02 0.12151519826E+02 0.11817257953E+02
 0.12363780257E+02 0.11808717218E+02 0.11325789999E+02 0.10914829031E+02 0.10572128714E+02
 0.10288116288E+02 0.10060187073E+02 0.98828880313E+01 0.97511595145E+01 0.96613153832E+01
 0.96090755753E+01 0.95920939902E+01 0.96088863797E+01 0.96611941282E+01 0.97511484787E+01
 0.98827261204E+01 0.10059857755E+02 0.10287774853E+02 0.10571033001E+02 0.10915412548E+02
 0.11326101515E+02 0.11808268759E+02 0.12363864902E+02 0.12990323442E+02 0.13676357569E+02
 0.14401004275E+02 0.15131148991E+02 0.15825252445E+02 0.16435254847E+02 0.16912573709E+02
 0.17216730827E+02 0.17321285837E+02 0.17216107259E+02 0.16911267695E+02 0.16434098645E+02
 0.15824940605E+02 0.15132502351E+02 0.14402172111E+02 0.13676261231E+02 0.12989547948E+02
 0.13948975489E+02 0.12978201916E+02 0.12133047054E+02 0.11409364075E+02 0.10796478637E+02
 0.10287470475E+02 0.98677512773E+01 0.95286614105E+01 0.92639225163E+01 0.90682125049E+01
 0.89392513103E+01 0.88750554905E+01 0.88753962760E+01 0.89393882113E+01 0.90684174240E+01
 0.92638203842E+01 0.95289885525E+01 0.98678973455E+01 0.10287774853E+02 0.10797447987E+02
 0.11408657003E+02 0.12132750278E+02 0.12978990580E+02 0.13948584973E+02 0.15031066022E+02
 0.16198381392E+02 0.17404756396E+02 0.18585301102E+02 0.19664126231E+02 0.20563123360E+02
 0.21209538621E+02 0.21547481026E+02 0.21547898204E+02 0.21210494804E+02 0.20564678092E+02
 0.19665367107E+02 0.18583910910E+02 0.17402695428E+02 0.16198233778E+02 0.15032015116E+02
 0.16575671152E+02 0.15016197453E+02 0.13650903630E+02 0.12488402857E+02 0.11519264678E+02
 0.10716317488E+02 0.10060063159E+02 0.95291942818E+01 0.91075861240E+01 0.87861522191E+01
 0.85586398983E+01 0.84228557830E+01 0.83772724026E+01 0.84226657951E+01 0.85584817125E+01
 0.87861367106E+01 0.91075853534E+01 0.95289885525E+01 0.10059857755E+02 0.10716182265E+02
 0.11518126362E+02 0.12489444898E+02 0.13650985198E+02 0.15015279305E+02 0.16576561663E+02
 0.18304851893E+02 0.20138665999E+02 0.21989235133E+02 0.23743088299E+02 0.25274735807E+02
 0.26468243451E+02 0.27227817371E+02 0.27488316455E+02 0.27227074001E+02 0.26466922445E+02
 0.25272696757E+02 0.23743175904E+02 0.21991857616E+02 0.20139823478E+02 0.18303133583E+02
 0.20693488800E+02 0.18281216855E+02 0.16162567539E+02 0.14360643025E+02 0.12862829211E+02
 0.11646182099E+02 0.10665709318E+02 0.98823579049E+01 0.92639907814E+01 0.87859086697E+01
 0.84346167510E+01 0.82024227155E+01 0.80871761899E+01 0.80869639069E+01 0.82027595040E+01
 0.84346107644E+01 0.87861367106E+01 0.92638203842E+01 0.98827261204E+01 0.10665688480E+02
 0.11646376809E+02 0.12863964764E+02 0.14359466533E+02 0.16162782996E+02 0.18282905938E+02
 0.20691330219E+02 0.23317654908E+02 0.26039909018E+02 0.28704894727E+02 0.31153835219E+02
 0.33218869712E+02 0.34723182448E+02 0.35517652188E+02 0.35518027123E+02 0.34724233447E+02
 0.33220800749E+02 0.31154944571E+02 0.28703129155E+02 0.26036829663E+02 0.23318714406E+02
 0.26856195500E+02 0.23288857595E+02 0.20091142262E+02 0.17344187987E+02 0.15073851579E+02
 0.13236709571E+02 0.11781243705E+02 0.10639849977E+02 0.97511470933E+01 0.90684433412E+01
 0.85586570233E+01 0.82028645180E+01 0.79913549331E+01 0.79214309755E+01 0.79914314034E+01
 0.82027595040E+01 0.85584817125E+01 0.90684174240E+01 0.97511484787E+01 0.10639612270E+02
 0.11781144068E+02 0.13236775552E+02 0.15072357918E+02 0.17346338497E+02 0.20089832386E+02
 0.23287901274E+02 0.26859894559E+02 0.30674296497E+02 0.34609676717E+02 0.38472000301E+02
 0.41966672912E+02 0.44767341395E+02 0.46581397202E+02 0.47209733292E+02 0.46580720939E+02
 0.44765778929E+02 0.41965221989E+02 0.38472268659E+02 0.34612635906E+02 0.30675552126E+02
 0.35874762654E+02 0.30637364262E+02 0.25972749263E+02 0.21912333007E+02 0.18501927981E+02
 0.15748869333E+02 0.13582818693E+02 0.11908108537E+02 0.10630002741E+02 0.96610148147E+01
 0.89394127570E+01 0.84223614924E+01 0.80872578760E+01 0.79212185442E+01 0.79214309755E+01
 0.80869639069E+01 0.84226657951E+01 0.89393882113E+01 0.96611941282E+01 0.10629767240E+02
 0.11908557870E+02 0.13582582744E+02 0.15749069850E+02 0.18503400955E+02 0.21909656188E+02
 0.25975852528E+02 0.30635943383E+02 0.35872471671E+02 0.41586431115E+02 0.47467660934E+02
 0.53062993327E+02 0.57855485448E+02 0.61363154458E+02 0.63216222032E+02 0.63216695561E+02
 0.61364353771E+02 0.57857085684E+02 0.53063529203E+02 0.47466171837E+02 0.41583873352E+02
 0.49501549359E+02 0.41537680750E+02 0.34532811970E+02 0.28599770734E+02 0.23633900045E+02
 0.19560310635E+02 0.16342717599E+02 0.13874716061E+02 0.12013257486E+02 0.10628809905E+02
 0.96088739963E+01 0.88756439506E+01 0.83770907015E+01 0.80872578760E+01 0.79913549331E+01
 0.80871761899E+01 0.83772724026E+01 0.88753962760E+01 0.96088863797E+01 0.10628548721E+02
 0.12013667906E+02 0.13873918752E+02 0.16343583589E+02 0.19559281775E+02 0.23633540909E+02
 0.28601582987E+02 0.34529827864E+02 0.41540308991E+02 0.49501393061E+02 0.57991039940E+02
 0.66371576737E+02 0.73904278874E+02 0.79877394200E+02 0.83710863531E+02 0.85031535659E+02
 0.83710008568E+02 0.79876387726E+02 0.73903466189E+02 0.66372660392E+02 0.57992817543E+02
 0.69516069333E+02 0.57943341764E+02 0.47372685318E+02 0.38348616030E+02 0.31015596153E+02
 0.25137048799E+02 0.20439072876E+02 0.16808168015E+02 0.14085690297E+02 0.12082781371E+02
 0.10629664291E+02 0.95915889803E+01 0.88756439506E+01 0.84223614924E+01 0.82028645180E+01
 0.82024227155E+01 0.84228557830E+01 0.88750554905E+01 0.95920939902E+01 0.10629388175E+02
 0.12083240219E+02 0.14085073979E+02 0.16809268226E+02 0.20437733826E+02 0.25138854076E+02
 0.31014715820E+02 0.38348052904E+02 0.47374292253E+02 0.57941437725E+02 0.69516383689E+02
 0.81262677999E+02 0.92201848304E+02 0.10136906009E+03 0.10795730354E+03 0.11139629801E+03
 0.11139701784E+03 0.10795798882E+03 0.10137018235E+03 0.92201294089E+02 0.81261874950E+02
 0.96709747458E+02 0.81213363813E+02 0.66274661924E+02 0.52926031025E+02 0.41802568649E+02
 0.33052009942E+02 0.26308627859E+02 0.21070070498E+02 0.17105651943E+02 0.14196583323E+02
 0.12107369438E+02 0.10629664291E+02 0.96088739963E+01 0.89394127570E+01 0.85586570233E+01
 0.84346167510E+01 0.85586398983E+01 0.89392513103E+01 0.96090755753E+01 0.10629529646E+02
 0.12107246439E+02 0.14196619979E+02 0.17105871266E+02 0.21069467033E+02 0.26309643252E+02
 0.33050275265E+02 0.41803779451E+02 0.52925751580E+02 0.66273346563E+02 0.81214506580E+02
 0.96709635538E+02 0.11152276688E+03 0.12442685597E+03 0.13438907914E+03 0.14065805356E+03
 0.14279580036E+03 0.14065751479E+03 0.13438838056E+03 0.12442710155E+03 0.11152356050E+03
 0.13036586719E+03 0.11148297632E+03 0.92112247385E+02 0.73766157799E+02 0.57683517568E+02
 0.44572566542E+02 0.34533531136E+02 0.27053418772E+02 0.21399932557E+02 0.17207780894E+02
 0.14196583323E+02 0.12082781371E+02 0.10628809905E+02 0.96610148147E+01 0.90684433412E+01
 0.87859086697E+01 0.87861522191E+01 0.90682125049E+01 0.96613153832E+01 0.10628408048E+02
 0.12082966359E+02 0.14196790255E+02 0.17207662752E+02 0.21400013359E+02 0.27053746200E+02
 0.34532846698E+02 0.44573769721E+02 0.57682196474E+02 0.73766859486E+02 0.92112915797E+02
 0.11148191700E+03 0.13036585310E+03 0.14726603698E+03 0.16093248328E+03 0.17047493670E+03
 0.17536434158E+03 0.17536447930E+03 0.17047527937E+03 0.16093219401E+03 0.14726535707E+03
 0.16810315267E+03 0.14724011782E+03 0.12435926484E+03 0.10125169000E+03 0.79709894838E+02
 0.61165770430E+02 0.46368672755E+02 0.35315930781E+02 0.27309193753E+02 0.21399932557E+02
 0.17105651943E+02 0.14085690297E+02 0.12013257486E+02 0.10630002741E+02 0.97511470933E+01
 0.92639907814E+01 0.91075861240E+01 0.92639225163E+01 0.97511595145E+01 0.10629745982E+02
 0.12013585626E+02 0.14085655347E+02 0.17105315547E+02 0.21400422513E+02 0.27308823426E+02
 0.35316009777E+02 0.46368951690E+02 0.61164963630E+02 0.79710446940E+02 0.10125110000E+03
 0.12435891615E+03 0.14724118616E+03 0.16810344256E+03 0.18547599586E+03 0.19836552450E+03
 0.20624007917E+03 0.20888135075E+03 0.20623983095E+03 0.19836569332E+03 0.18547629772E+03
 0.20629400008E+03 0.18546918816E+03 0.16089629894E+03 0.13430516445E+03 0.10782201563E+03
 0.83526784487E+02 0.63005428019E+02 0.46990818466E+02 0.35315930781E+02 0.27053418772E+02
 0.21070070498E+02 0.16808168015E+02 0.13874716061E+02 0.11908108537E+02 0.10639849977E+02
 0.98823579049E+01 0.95291942818E+01 0.95286614105E+01 0.98828880313E+01 0.10639315420E+02
 0.11908864277E+02 0.13873823063E+02 0.16808700447E+02 0.21070133393E+02 0.27053153529E+02
 0.35316252272E+02 0.46990566090E+02 0.63005175334E+02 0.83527611286E+02 0.10782149911E+03
 0.13430558901E+03 0.16089676442E+03 0.18546848975E+03 0.20629415010E+03 0.22228124614E+03
 0.23296130859E+03 0.23827004520E+03 0.23827001597E+03 0.23296068898E+03 0.22228051788E+03
 0.24096995007E+03 0.22229199875E+03 0.19836491895E+03 0.17043898533E+03 0.14056824843E+03
 0.11125307163E+03 0.84842287469E+02 0.63005428019E+02 0.46368672755E+02 0.34533531136E+02
 0.26308627859E+02 0.20439072876E+02 0.16342717599E+02 0.13582818693E+02 0.11781243705E+02
 0.10665709318E+02 0.10060063159E+02 0.98677512773E+01 0.10060187073E+02 0.10665451700E+02
 0.11781589404E+02 0.13582022053E+02 0.16343863175E+02 0.20438289548E+02 0.26308751209E+02
 0.34533752357E+02 0.46368384813E+02 0.63005793501E+02 0.84842034679E+02 0.11125262701E+03
 0.14056883303E+03 0.17043882330E+03 0.19836481948E+03 0.22229291000E+03 0.24096999060E+03
 0.25399973943E+03 0.26156714857E+03 0.26403471275E+03 0.26156768254E+03 0.25400016096E+03
 0.26893042986E+03 0.25402392835E+03 0.23299070216E+03 0.20624841364E+03 0.17533057062E+03
 0.14270432606E+03 0.11125307163E+03 0.83526784487E+02 0.61165770430E+02 0.44572566542E+02
 0.33052009942E+02 0.25137048799E+02 0.19560310635E+02 0.15748869333E+02 0.13236709571E+02
 0.11646182099E+02 0.10716317488E+02 0.10287470475E+02 0.10288116288E+02 0.10715652409E+02
 0.11646975082E+02 0.13235865968E+02 0.15750368087E+02 0.19558140370E+02 0.25138929227E+02
 0.33050804368E+02 0.44573060258E+02 0.61165355341E+02 0.83527253349E+02 0.11125286484E+03
 0.14270491503E+03 0.17532997061E+03 0.20624883008E+03 0.23299076499E+03 0.25402363596E+03
 0.26893038347E+03 0.27815523657E+03 0.28248357357E+03 0.28248314402E+03 0.27815447636E+03
 0.28860062534E+03 0.27818442195E+03 0.26161473785E+03 0.23831350795E+03 0.20889443011E+03
 0.17533057062E+03 0.14056824843E+03 0.10782201563E+03 0.79709894838E+02 0.57683517568E+02
 0.41802568649E+02 0.31015596153E+02 0.23633900045E+02 0.18501927981E+02 0.15073851579E+02
 0.12862829211E+02 0.11519264678E+02 0.10796478637E+02 0.10572128714E+02 0.10796490442E+02
 0.11519340775E+02 0.12862762902E+02 0.15074004808E+02 0.18500901011E+02 0.23636051827E+02
 0.31013189281E+02 0.41804453348E+02 0.57682422365E+02 0.79710528869E+02 0.10782138926E+03
 0.14056902768E+03 0.17532982794E+03 0.20889529338E+03 0.23831293999E+03 0.26161447806E+03
 0.27818449513E+03 0.28860035660E+03 0.29408314375E+03 0.29575974619E+03 0.29408381868E+03
 0.30032358939E+03 0.29410917763E+03 0.28253232657E+03 0.26409060015E+03 0.23831350795E+03
 0.20624841364E+03 0.17043898533E+03 0.13430516445E+03 0.10125169000E+03 0.73766157799E+02
 0.52926031025E+02 0.38348616030E+02 0.28599770734E+02 0.21912333007E+02 0.17344187987E+02
 0.14360643025E+02 0.12488402857E+02 0.11409364075E+02 0.10914829031E+02 0.10915858853E+02
 0.11408353466E+02 0.12489565630E+02 0.14359435065E+02 0.17345693174E+02 0.21911644116E+02
 0.28598655408E+02 0.38350350619E+02 0.52924116149E+02 0.73767826043E+02 0.10125069587E+03
 0.13430604373E+03 0.17043810355E+03 0.20624928167E+03 0.23831220798E+03 0.26409141093E+03
 0.28253170197E+03 0.29410942708E+03 0.30032301743E+03 0.30287999120E+03 0.30287953749E+03
 0.30595112541E+03 0.30289665492E+03 0.29579663784E+03 0.28253232657E+03 0.26161473785E+03
 0.23299070216E+03 0.19836491895E+03 0.16089629894E+03 0.12435926484E+03 0.92112247385E+02
 0.66274661924E+02 0.47372685318E+02 0.34532811970E+02 0.25972749263E+02 0.20091142262E+02
 0.16162567539E+02 0.13650903630E+02 0.12133047054E+02 0.11325789999E+02 0.11074487029E+02
 0.11325580435E+02 0.12133591240E+02 0.13650081363E+02 0.16163985353E+02 0.20088572085E+02
 0.25975248018E+02 0.34532097246E+02 0.47372279816E+02 0.66275294421E+02 0.92111468073E+02
 0.12436012864E+03 0.16089572993E+03 0.19836562631E+03 0.23299006275E+03 0.26161512913E+03
 0.28253159488E+03 0.29579608046E+03 0.30289635228E+03 0.30595143932E+03 0.30673952015E+03
 0.30795298939E+03 0.30674658793E+03 0.30289665492E+03 0.29410917763E+03 0.27818442195E+03
 0.25402392835E+03 0.22229199875E+03 0.18546918816E+03 0.14724011782E+03 0.11148297632E+03
 0.81213363813E+02 0.57943341764E+02 0.41537680750E+02 0.30637364262E+02 0.23288857595E+02
 0.18281216855E+02 0.15016197453E+02 0.12978201916E+02 0.11808717218E+02 0.11276000859E+02
 0.11276301832E+02 0.11808457294E+02 0.12978469357E+02 0.15016075406E+02 0.18280979076E+02
 0.23290910115E+02 0.30633676733E+02 0.41540169397E+02 0.57942337290E+02 0.81214049165E+02
 0.11148240753E+03 0.14724056013E+03 0.18546880158E+03 0.22229193582E+03 0.25402396875E+03
 0.27818397720E+03 0.29410936390E+03 0.30289704289E+03 0.30674586725E+03 0.30795278371E+03
 0.30816274764E+03 0.30766422864E+03 0.30540614433E+03 0.29940916469E+03 0.28728232316E+03
 0.26725891284E+03 0.23907240892E+03 0.20434273415E+03 0.16627424106E+03 0.12879871478E+03
 0.95480955715E+02 0.68632653331E+02 0.48914487342E+02 0.35502431331E+02 0.26609009394E+02
 0.20520582964E+02 0.16453426956E+02 0.13856850727E+02 0.12289613699E+02 0.11457903096E+02
 0.11198912742E+02 0.11457665730E+02 0.12290125749E+02 0.13855976355E+02 0.16454848390E+02
 0.20518275678E+02 0.26610802831E+02 0.35503246637E+02 0.48912546994E+02 0.68633858408E+02