    2    2  100    1
  0.1760652E+02  0.2863091E-09  0.2863091E-09  0.4960238E-09  0.5000000E-15
  1.000000000000000E-004
  CAR 
 Pt-hcc                                  
     32     70     24
 
  0.0000000E+00  0.0000000E+00  0.0000000E+00  0.1250000E-02
      1        -42.980487   1.000000
      2        -42.915834   1.000000
      3        -42.915833   1.000000
      4        -42.888518   1.000000
      5        -42.888517   1.000000
      6        -42.764478   1.000000
      7          0.604767   1.000000
      8          3.145572   1.000000
      9          5.933120   1.000000
     10          6.344929   1.000000
     11          6.344930   1.000000
     12          6.647434   1.000000
     13          6.647435   1.000000
     14          7.712163   1.000000
     15          7.712164   1.000000
     16          8.981074   1.000000
     17          9.031842   0.999999
     18          9.031843   0.999999
     19         13.254610   0.000000
     20         24.395457   0.000000
     21         24.853509   0.000000
     22         26.371652   0.000000
     23         29.046026   0.000000
     24         29.046026   0.000000
 
  0.1000000E+00  0.0000000E+00  0.0000000E+00  0.7500000E-02
      1        -42.972703   1.000000
      2        -42.939367   1.000000
      3        -42.922589   1.000000
      4        -42.912413   1.000000
      5        -42.893348   1.000000
      6        -42.766081   1.000000
      7          0.930140   1.000000
      8          3.435988   1.000000
      9          5.875480   1.000000
     10          6.359873   1.000000
     11          6.528301   1.000000
     12          6.578627   1.000000
     13          6.869165   1.000000
     14          7.285938   1.000000
     15          7.573749   1.000000
     16          7.762624   1.000000
     17          9.080491   0.999521
     18         10.775504   0.000000
     19         13.233361   0.000000
     20         24.609147   0.000000
     21         25.326829   0.000000
     22         26.310067   0.000000
     23         27.619903   0.000000
     24         27.846348   0.000000
 
  0.2000000E+00  0.0000000E+00  0.0000000E+00  0.7500000E-02
      1        -43.001135   1.000000
      2        -42.975967   1.000000
      3        -42.951766   1.000000
      4        -42.940465   1.000000
      5        -42.906912   1.000000
      6        -42.772214   1.000000
      7          1.826682   1.000000
      8          4.086932   1.000000
      9          5.684359   1.000000
     10          6.122955   1.000000
     11          6.135535   1.000000
     12          6.884034   1.000000
     13          7.237557   1.000000
     14          7.263200   1.000000
     15          7.302821   1.000000
     16          7.488356   1.000000
     17          9.158516   0.863346
     18         12.738851   0.000000
     19         13.213768   0.000000
     20         22.360599   0.000000
     21         25.355056   0.000000
     22         25.905163   0.000000
     23         26.664375   0.000000
     24         26.942469   0.000000
 
  0.3000000E+00  0.0000000E+00  0.0000000E+00  0.7500000E-02
      1        -43.078404   1.000000
      2        -43.052292   1.000000
      3        -42.962063   1.000000
      4        -42.923919   1.000000
      5        -42.922382   1.000000
      6        -42.783781   1.000000
      7          2.960043   1.000000
      8          4.239915   1.000000
      9          5.231756   1.000000
     10          5.909842   1.000000
     11          6.201826   1.000000
     12          6.875631   1.000000
     13          6.939059   1.000000
     14          7.850154   1.000000
     15          8.173763   1.000000
     16          8.358165   1.000000
     17          9.201403   0.453213
     18         13.409098   0.000000
     19         14.772397   0.000000
     20         18.706293   0.000000
     21         23.179454   0.000000
     22         24.262849   0.000000
     23         24.716776   0.000000
     24         26.496126   0.000000
 
  0.4000000E+00  0.2775558E-16  0.0000000E+00  0.7500000E-02
      1        -43.140268   1.000000
      2        -43.113442   1.000000
      3        -42.978925   1.000000
      4        -42.937315   1.000000
      5        -42.892409   1.000000
      6        -42.798311   1.000000
      7          3.640424   1.000000
      8          3.975296   1.000000
      9          4.675410   1.000000
     10          6.350120   1.000000
     11          6.561639   1.000000
     12          6.707117   1.000000
     13          6.912783   1.000000
     14          9.059104   0.999953
     15          9.202852   0.437023
     16          9.211535   0.343061
     17          9.452115   0.000000
     18         14.318331   0.000000
     19         15.204330   0.000000
     20         16.637025   0.000000
     21         20.533107   0.000000
     22         21.487370   0.000000
     23         22.733426   0.000000
     24         25.306348   0.000000
 
  0.5000000E+00  0.5551115E-16  0.0000000E+00  0.3750000E-02
      1        -43.164419   1.000000
      2        -43.135928   1.000000
      3        -42.985530   1.000000
      4        -42.942874   1.000000
      5        -42.877321   1.000000
      6        -42.807616   1.000000
      7          3.808056   1.000000
      8          3.810026   1.000000
      9          4.488410   1.000000
     10          6.447034   1.000000
     11          6.623501   1.000000
     12          6.783740   1.000000
     13          7.120887   1.000000
     14          9.210885   0.349847
     15          9.424600   0.000000
     16          9.590336   0.000000
     17         11.295321   0.000000
     18         12.575900   0.000000
     19         15.976341   0.000000
     20         17.578867   0.000000
     21         17.756170   0.000000
     22         20.813940   0.000000
     23         21.939562   0.000000
     24         24.839078   0.000000
 
  0.1000000E+00  0.1000000E+00  0.0000000E+00  0.7500000E-02
      1        -42.978539   1.000000
      2        -42.961067   1.000000
      3        -42.958485   1.000000
      4        -42.931404   1.000000
      5        -42.906225   1.000000
      6        -42.770368   1.000000
      7          1.547623   1.000000
      8          3.945726   1.000000
      9          5.652449   1.000000
     10          6.283482   1.000000
     11          6.483364   1.000000
     12          6.549817   1.000000
     13          7.070927   1.000000
     14          7.103082   1.000000
     15          7.362780   1.000000
     16          7.644556   1.000000
     17          9.097592   0.997589
     18         12.214396   0.000000
     19         13.214596   0.000000
     20         24.026999   0.000000
     21         24.230683   0.000000
     22         26.149091   0.000000
     23         27.020029   0.000000
     24         27.464181   0.000000
 
  0.2000000E+00  0.1000000E+00  0.0000000E+00  0.1500000E-01
      1        -43.042854   1.000000
      2        -43.025647   1.000000
      3        -42.956228   1.000000
      4        -42.933079   1.000000
      5        -42.926171   1.000000
      6        -42.779175   1.000000
      7          2.622957   1.000000
      8          4.512940   1.000000
      9          5.500666   1.000000
     10          5.582113   1.000000
     11          6.055106   1.000000
     12          6.697176   1.000000
     13          7.061832   1.000000
     14          7.337854   1.000000
     15          7.957113   1.000000
     16          8.285965   1.000000
     17          9.097703   0.997565
     18         13.317543   0.000000
     19         14.111239   0.000000
     20         20.552356   0.000000
     21         22.482412   0.000000
     22         25.220822   0.000000
     23         26.860743   0.000000
     24         26.878570   0.000000
 
  0.3000000E+00  0.1000000E+00  0.0000000E+00  0.1500000E-01
      1        -43.109730   1.000000
      2        -43.086913   1.000000
      3        -42.982007   1.000000
      4        -42.945258   1.000000
      5        -42.902811   1.000000
      6        -42.792843   1.000000
      7          3.641728   1.000000
      8          4.334475   1.000000
      9          4.923139   1.000000
     10          5.920697   1.000000
     11          6.437465   1.000000
     12          6.450461   1.000000
     13          6.930130   1.000000
     14          7.980042   1.000000
     15          8.852008   1.000000
     16          9.087015   0.999089
     17          9.484504   0.000000
     18         13.950536   0.000000
     19         16.090662   0.000000
     20         16.908410   0.000000
     21         20.530358   0.000000
     22         23.183708   0.000000
     23         23.657058   0.000000
     24         25.607176   0.000000
 
  0.4000000E+00  0.1000000E+00  0.0000000E+00  0.1500000E-01
      1        -43.151400   1.000000
      2        -43.123979   1.000000
      3        -42.997716   1.000000
      4        -42.956905   1.000000
      5        -42.877665   1.000000
      6        -42.807406   1.000000
      7          3.998490   1.000000
      8          4.095137   1.000000
      9          4.582857   1.000000
     10          6.404563   1.000000
     11          6.593638   1.000000
     12          6.602379   1.000000
     13          6.875490   1.000000
     14          8.996900   1.000000
     15          9.073441   0.999769
     16          9.300052   0.001820
     17         11.008241   0.000000
     18         13.706027   0.000000
     19         15.583779   0.000000
     20         17.699474   0.000000
     21         18.314029   0.000000
     22         20.623994   0.000000
     23         22.348195   0.000000
     24         24.723576   0.000000
 
  0.2000000E+00  0.2000000E+00  0.0000000E+00  0.7500000E-02
      1        -43.080755   1.000000
      2        -43.080460   1.000000
      3        -42.985881   1.000000
      4        -42.959567   1.000000
      5        -42.906523   1.000000
      6        -42.790842   1.000000
      7          3.742463   1.000000
      8          5.049663   1.000000
      9          5.095766   1.000000
     10          5.122056   1.000000
     11          6.232874   1.000000
     12          6.291665   1.000000
     13          7.093420   1.000000
     14          7.364922   1.000000
     15          8.842155   1.000000
     16          8.953207   1.000000
     17          9.552886   0.000000
     18         13.891838   0.000000
     19         15.945763   0.000000
     20         18.352419   0.000000
     21         19.281067   0.000000
     22         24.424897   0.000000
     23         24.846981   0.000000
     24         25.582686   0.000000
 
  0.3000000E+00  0.2000000E+00  0.0000000E+00  0.1500000E-01
      1        -43.121488   1.000000
      2        -43.102838   1.000000
      3        -43.019725   1.000000
      4        -42.987891   1.000000
      5        -42.878070   1.000000
      6        -42.807109   1.000000
      7          4.507753   1.000000
      8          4.761812   1.000000
      9          4.772272   1.000000
     10          5.735319   1.000000
     11          6.169661   1.000000
     12          6.690517   1.000000
     13          6.704563   1.000000
     14          8.023748   1.000000
     15          8.842088   1.000000
     16          9.200776   0.460245
     17         11.009608   0.000000
     18         14.832652   0.000000
     19         15.862113   0.000000
     20         17.512203   0.000000
     21         17.888127   0.000000
     22         21.905696   0.000000
     23         23.332191   0.000000
     24         24.263504   0.000000
 
  0.4000000E+00  0.2000000E+00  0.0000000E+00  0.7500000E-02
      1        -43.136250   1.000000
      2        -43.108334   1.000000
      3        -43.035589   1.000000
      4        -42.998678   1.000000
      5        -42.861681   1.000000
      6        -42.818527   1.000000
      7          4.630142   1.000000
      8          4.633608   1.000000
      9          4.659826   1.000000
     10          6.236224   1.000000
     11          6.282926   1.000000
     12          6.378398   1.000000
     13          6.932437   1.000000
     14          8.654911   1.000000
     15          8.801718   1.000000
     16          9.039729   0.999996
     17         12.560599   0.000000
     18         12.918967   0.000000
     19         16.243120   0.000000
     20         17.623830   0.000000
     21         19.058038   0.000000
     22         19.822052   0.000000
     23         22.279148   0.000000
     24         23.957308   0.000000
 
  0.3000000E+00  0.3000000E+00  0.0000000E+00  0.7500000E-02
      1        -43.112639   1.000000
      2        -43.091519   1.000000
      3        -43.060452   1.000000
      4        -43.033303   1.000000
      5        -42.852661   1.000000
      6        -42.825968   1.000000
      7          4.741998   1.000000
      8          5.021588   1.000000
      9          5.254265   1.000000
     10          5.641109   1.000000
     11          6.130731   1.000000
     12          6.357347   1.000000
     13          7.007508   1.000000
     14          8.321532   1.000000
     15          8.666923   1.000000
     16          8.910736   1.000000
     17         12.499006   0.000000
     18         13.754082   0.000000
     19         15.204245   0.000000
     20         18.300682   0.000000
     21         19.869030   0.000000
     22         20.902737   0.000000
     23         21.608606   0.000000
     24         22.154390   0.000000
 
  0.0000000E+00  0.0000000E+00  0.1250000E+00  0.2500000E-02
      1        -42.972093   1.000000
      2        -42.914469   1.000000
      3        -42.914469   1.000000
      4        -42.889265   1.000000
      5        -42.889264   1.000000
      6        -42.772622   1.000000
      7          0.725515   1.000000
      8          3.119877   1.000000
      9          5.906287   1.000000
     10          6.328585   1.000000
     11          6.328585   1.000000
     12          6.615697   1.000000
     13          6.615698   1.000000
     14          7.793769   1.000000
     15          7.793769   1.000000
     16          8.352402   1.000000
     17          9.008119   1.000000
     18          9.008120   1.000000
     19         14.130862   0.000000
     20         23.932363   0.000000
     21         25.256583   0.000000
     22         26.114571   0.000000
     23         28.763374   0.000000
     24         28.763374   0.000000
 
  0.1000000E+00  0.0000000E+00  0.1250000E+00  0.1500000E-01
      1        -42.966403   1.000000
      2        -42.936968   1.000000
      3        -42.921336   1.000000
      4        -42.913939   1.000000
      5        -42.894365   1.000000
      6        -42.773992   1.000000
      7          1.048811   1.000000
      8          3.416285   1.000000
      9          5.878483   1.000000
     10          6.288840   1.000000
     11          6.447218   1.000000
     12          6.554630   1.000000
     13          6.833818   1.000000
     14          7.262668   1.000000
     15          7.669952   1.000000
     16          7.724168   1.000000
     17          9.048005   0.999988
     18         10.194089   0.000000
     19         14.241961   0.000000
     20         24.286841   0.000000
     21         25.525853   0.000000
     22         26.235946   0.000000
     23         27.327908   0.000000
     24         27.620621   0.000000
 
  0.2000000E+00  0.0000000E+00  0.1250000E+00  0.1500000E-01
      1        -43.003200   1.000000
      2        -42.977812   1.000000
      3        -42.942350   1.000000
      4        -42.939028   1.000000
      5        -42.908294   1.000000
      6        -42.778621   1.000000
      7          1.933302   1.000000
      8          4.088869   1.000000
      9          5.711387   1.000000
     10          5.896235   1.000000
     11          6.144264   1.000000
     12          6.801305   1.000000
     13          7.104593   1.000000
     14          7.390431   1.000000
     15          7.465010   1.000000
     16          7.534573   1.000000
     17          9.109073   0.993683
     18         11.510914   0.000000
     19         14.723938   0.000000
     20         22.465587   0.000000
     21         25.506891   0.000000
     22         25.605359   0.000000
     23         26.153638   0.000000
     24         27.220474   0.000000
 
  0.3000000E+00  0.0000000E+00  0.1250000E+00  0.1500000E-01
      1        -43.078863   1.000000
      2        -43.054336   1.000000
      3        -42.960492   1.000000
      4        -42.925160   1.000000
      5        -42.915353   1.000000
      6        -42.787642   1.000000
      7          3.016776   1.000000
      8          4.261221   1.000000
      9          5.206867   1.000000
     10          5.774912   1.000000
     11          6.227101   1.000000
     12          6.960617   1.000000
     13          6.990979   1.000000
     14          7.895042   1.000000
     15          8.192348   1.000000
     16          8.318554   1.000000
     17          9.144086   0.933661
     18         12.475095   0.000000
     19         15.769250   0.000000
     20         18.949376   0.000000
     21         23.390828   0.000000
     22         23.503194   0.000000
     23         25.064431   0.000000
     24         26.837271   0.000000
 
  0.4000000E+00  0.2775558E-16  0.1250000E+00  0.1500000E-01
      1        -43.140783   1.000000
      2        -43.115343   1.000000
      3        -42.977759   1.000000
      4        -42.939011   1.000000
      5        -42.887281   1.000000
      6        -42.800532   1.000000
      7          3.594077   1.000000
      8          3.986316   1.000000
      9          4.795716   1.000000
     10          5.821966   1.000000
     11          6.725507   1.000000
     12          6.778438   1.000000
     13          7.400214   1.000000
     14          8.998725   1.000000
     15          9.072974   0.999780
     16          9.283994   0.007072
     17          9.377332   0.000000
     18         13.549564   0.000000
     19         15.236152   0.000000
     20         17.397549   0.000000
     21         20.285906   0.000000
     22         21.726915   0.000000
     23         23.041584   0.000000
     24         25.519789   0.000000
 
  0.5000000E+00  0.5551115E-16  0.1250000E+00  0.7500000E-02
      1        -43.164739   1.000000
      2        -43.138582   1.000000
      3        -42.983852   1.000000
      4        -42.944523   1.000000
      5        -42.873409   1.000000
      6        -42.808859   1.000000
      7          3.690677   1.000000
      8          3.833697   1.000000
      9          4.664232   1.000000
     10          5.881075   1.000000
     11          6.699464   1.000000
     12          6.852115   1.000000
     13          7.801259   1.000000
     14          9.067764   0.999875
     15          9.441791   0.000000
     16          9.585287   0.000000
     17         11.118505   0.000000
     18         12.498884   0.000000
     19         15.799486   0.000000
     20         16.381004   0.000000
     21         19.196469   0.000000
     22         21.063881   0.000000
     23         22.096147   0.000000
     24         25.088297   0.000000
 
  0.1000000E+00  0.1000000E+00  0.1250000E+00  0.1500000E-01
      1        -42.981355   1.000000
      2        -42.961665   1.000000
      3        -42.947460   1.000000
      4        -42.930913   1.000000
      5        -42.906939   1.000000
      6        -42.776962   1.000000
      7          1.659899   1.000000
      8          3.940314   1.000000
      9          5.678571   1.000000
     10          6.070632   1.000000
     11          6.364621   1.000000
     12          6.578052   1.000000
     13          7.015764   1.000000
     14          7.204270   1.000000
     15          7.445255   1.000000
     16          7.696960   1.000000
     17          9.055030   0.999971
     18         11.206978   0.000000
     19         14.545645   0.000000
     20         24.045562   0.000000
     21         24.317409   0.000000
     22         25.875991   0.000000
     23         26.553363   0.000000
     24         27.716513   0.000000
 
  0.2000000E+00  0.1000000E+00  0.1250000E+00  0.3000000E-01
      1        -43.043794   1.000000
      2        -43.027074   1.000000
      3        -42.955463   1.000000
      4        -42.928591   1.000000
      5        -42.924110   1.000000
      6        -42.784054   1.000000
      7          2.709606   1.000000
      8          4.538531   1.000000
      9          5.417764   1.000000
     10          5.558510   1.000000
     11          6.039540   1.000000
     12          6.603961   1.000000
     13          7.196275   1.000000
     14          7.320496   1.000000
     15          8.050496   1.000000
     16          8.242878   1.000000
     17          9.055822   0.999968
     18         12.212740   0.000000
     19         15.399442   0.000000
     20         20.717647   0.000000
     21         22.601116   0.000000
     22         24.961394   0.000000
     23         26.072225   0.000000
     24         27.622396   0.000000
 
  0.3000000E+00  0.1000000E+00  0.1250000E+00  0.3000000E-01
      1        -43.110308   1.000000
      2        -43.088797   1.000000
      3        -42.981025   1.000000
      4        -42.946977   1.000000
      5        -42.896838   1.000000
      6        -42.795782   1.000000
      7          3.641880   1.000000
      8          4.363059   1.000000
      9          4.965679   1.000000
     10          5.693304   1.000000
     11          6.408725   1.000000
     12          6.738174   1.000000
     13          6.942212   1.000000
     14          7.994031   1.000000
     15          8.890430   1.000000
     16          8.937505   1.000000
     17          9.529437   0.000000
     18         13.245105   0.000000
     19         16.280790   0.000000
     20         17.653084   0.000000
     21         20.588116   0.000000
     22         22.593035   0.000000
     23         24.159639   0.000000
     24         25.672391   0.000000
 
  0.4000000E+00  0.1000000E+00  0.1250000E+00  0.3000000E-01
      1        -43.151618   1.000000
      2        -43.126249   1.000000
      3        -42.996466   1.000000
      4        -42.958690   1.000000
      5        -42.873267   1.000000
      6        -42.808431   1.000000
      7          3.889330   1.000000
      8          4.107968   1.000000
      9          4.782569   1.000000
     10          5.828385   1.000000
     11          6.486119   1.000000
     12          6.956044   1.000000
     13          7.335406   1.000000
     14          8.904301   1.000000
     15          9.001321   1.000000
     16          9.334168   0.000054
     17         10.977642   0.000000
     18         13.592953   0.000000
     19         15.160426   0.000000
     20         17.504192   0.000000
     21         18.881655   0.000000
     22         20.869268   0.000000
     23         22.601003   0.000000
     24         24.677181   0.000000
 
  0.2000000E+00  0.2000000E+00  0.1250000E+00  0.1500000E-01
      1        -43.081833   1.000000
      2        -43.080998   1.000000
      3        -42.985421   1.000000
      4        -42.960923   1.000000
      5        -42.899982   1.000000
      6        -42.793904   1.000000
      7          3.781854   1.000000
      8          4.943886   1.000000
      9          5.139511   1.000000
     10          5.197194   1.000000
     11          6.244778   1.000000
     12          6.270881   1.000000
     13          6.992639   1.000000
     14          7.496008   1.000000
     15          8.781711   1.000000
     16          8.932466   1.000000
     17          9.609794   0.000000
     18         13.203581   0.000000
     19         16.526690   0.000000
     20         18.743125   0.000000
     21         19.420925   0.000000
     22         24.031162   0.000000
     23         24.106955   0.000000
     24         26.201670   0.000000
 
  0.3000000E+00  0.2000000E+00  0.1250000E+00  0.3000000E-01
      1        -43.121448   1.000000
      2        -43.104633   1.000000
      3        -43.019073   1.000000
      4        -42.989620   1.000000
      5        -42.873362   1.000000
      6        -42.808157   1.000000
      7          4.404529   1.000000
      8          4.776787   1.000000
      9          4.923268   1.000000
     10          5.575234   1.000000
     11          6.279171   1.000000
     12          6.600228   1.000000
     13          6.827677   1.000000
     14          8.076310   1.000000
     15          8.679865   1.000000
     16          9.282241   0.008109
     17         11.048422   0.000000
     18         14.806787   0.000000
     19         15.287154   0.000000
     20         17.558247   0.000000
     21         18.675945   0.000000
     22         21.427789   0.000000
     23         23.347907   0.000000
     24         24.025794   0.000000
 
  0.4000000E+00  0.2000000E+00  0.1250000E+00  0.1500000E-01
      1        -43.136205   1.000000
      2        -43.110824   1.000000
      3        -43.034962   1.000000
      4        -43.000531   1.000000
      5        -42.858244   1.000000
      6        -42.818274   1.000000
      7          4.390973   1.000000
      8          4.673254   1.000000
      9          4.999499   1.000000
     10          5.766451   1.000000
     11          6.163872   1.000000
     12          6.771141   1.000000
     13          7.076666   1.000000
     14          8.633217   1.000000
     15          8.675752   1.000000
     16          9.100953   0.996771
     17         12.645464   0.000000
     18         12.957419   0.000000
     19         16.227310   0.000000
     20         17.295058   0.000000
     21         18.268705   0.000000
     22         20.966420   0.000000
     23         22.480870   0.000000
     24         23.019407   0.000000
 
  0.3000000E+00  0.3000000E+00  0.1250000E+00  0.1500000E-01
      1        -43.111666   1.000000
      2        -43.093288   1.000000
      3        -43.061357   1.000000
      4        -43.035383   1.000000
      5        -42.849720   1.000000
      6        -42.824955   1.000000
      7          4.766374   1.000000
      8          5.006425   1.000000
      9          5.290389   1.000000
     10          5.550727   1.000000
     11          6.231752   1.000000
     12          6.269415   1.000000
     13          7.016234   1.000000
     14          8.399158   1.000000
     15          8.496419   1.000000
     16          8.986848   1.000000
     17         12.586187   0.000000
     18         13.888388   0.000000
     19         15.416207   0.000000
     20         17.478358   0.000000
     21         19.938064   0.000000
     22         20.137628   0.000000
     23         21.806436   0.000000
     24         23.144778   0.000000
 
  0.0000000E+00  0.0000000E+00  0.2500000E+00  0.2500000E-02
      1        -42.949242   1.000000
      2        -42.911637   1.000000
      3        -42.911636   1.000000
      4        -42.892272   1.000000
      5        -42.892272   1.000000
      6        -42.797110   1.000000
      7          1.074169   1.000000
      8          3.007200   1.000000
      9          5.845043   1.000000
     10          6.302174   1.000000
     11          6.302175   1.000000
     12          6.533542   1.000000
     13          6.533543   1.000000
     14          7.256543   1.000000
     15          8.004088   1.000000
     16          8.004088   1.000000
     17          8.926685   1.000000
     18          8.926685   1.000000
     19         15.989416   0.000000
     20         23.300467   0.000000
     21         25.321074   0.000000
     22         25.558040   0.000000
     23         28.444710   0.000000
     24         28.444710   0.000000
 
  0.1000000E+00  0.0000000E+00  0.2500000E+00  0.1500000E-01
      1        -42.951908   1.000000
      2        -42.926959   1.000000
      3        -42.918394   1.000000
      4        -42.918019   1.000000
      5        -42.897742   1.000000
      6        -42.796151   1.000000
      7          1.392197   1.000000
      8          3.317254   1.000000
      9          5.868960   1.000000
     10          6.160719   1.000000
     11          6.236555   1.000000
     12          6.516642   1.000000
     13          6.746639   1.000000
     14          6.896028   1.000000
     15          7.907458   1.000000
     16          7.913915   1.000000
     17          8.944006   1.000000
     18          9.494628   0.000000
     19         16.158741   0.000000
     20         23.692029   0.000000
     21         25.494510   0.000000
     22         25.825010   0.000000
     23         26.999588   0.000000
     24         27.707037   0.000000
 
  0.2000000E+00  0.0000000E+00  0.2500000E+00  0.1500000E-01
      1        -43.004160   1.000000
      2        -42.982654   1.000000
      3        -42.935435   1.000000
      4        -42.919122   1.000000
      5        -42.912081   1.000000
      6        -42.796306   1.000000
      7          2.242751   1.000000
      8          4.041736   1.000000
      9          5.574586   1.000000
     10          5.800643   1.000000
     11          5.951009   1.000000
     12          6.632600   1.000000
     13          7.034439   1.000000
     14          7.327695   1.000000
     15          7.792006   1.000000
     16          7.823190   1.000000
     17          8.962629   1.000000
     18         10.386045   0.000000
     19         16.663241   0.000000
     20         22.775260   0.000000
     21         24.749597   0.000000
     22         25.406167   0.000000
     23         25.959982   0.000000
     24         27.242371   0.000000
 
  0.3000000E+00  0.0000000E+00  0.2500000E+00  0.1500000E-01
      1        -43.079501   1.000000
      2        -43.059640   1.000000
      3        -42.956424   1.000000
      4        -42.929481   1.000000
      5        -42.896397   1.000000
      6        -42.800099   1.000000
      7          3.184236   1.000000