PROCAR lm decomposed
# of k-points:   70         # of bands:   24         # of ions:    2

 k-point     1 :    0.00000000 0.00000000 0.00000000     weight = 0.00125000

band     1 # energy  -42.98048685 # occ.  2.00000000
 
ion      s     py     pz     px    dxy    dyz    dz2    dxz  x2-y2    tot
    1  0.000  0.000  0.493  0.000  0.000  0.000  0.000  0.000  0.000  0.493
    2  0.000  0.000  0.493  0.000  0.000  0.000  0.000  0.000  0.000  0.493
tot    0.000  0.000  0.986  0.000  0.000  0.000  0.000  0.000  0.000  0.986
 
band     2 # energy  -42.91583374 # occ.  2.00000000
 
ion      s     py     pz     px    dxy    dyz    dz2    dxz  x2-y2    tot
    1  0.000  0.124  0.000  0.373  0.000  0.000  0.000  0.000  0.000  0.497
    2  0.000  0.124  0.000  0.373  0.000  0.000  0.000  0.000  0.000  0.497
tot    0.000  0.249  0.000  0.746  0.000  0.000  0.000  0.000  0.000  0.994
 
band     3 # energy  -42.91583288 # occ.  2.00000000
 
ion      s     py     pz     px    dxy    dyz    dz2    dxz  x2-y2    tot
    1  0.000  0.373  0.000  0.124  0.000  0.000  0.000  0.000  0.000  0.497
    2  0.000  0.373  0.000  0.124  0.000  0.000  0.000  0.000  0.000  0.497
tot    0.000  0.746  0.000  0.249  0.000  0.000  0.000  0.000  0.000  0.994
 
band     4 # energy  -42.88851814 # occ.  2.00000000
 
ion      s     py     pz     px    dxy    dyz    dz2    dxz  x2-y2    tot
    1  0.000  0.124  0.000  0.373  0.000  0.000  0.000  0.000  0.000  0.498
    2  0.000  0.124  0.000  0.373  0.000  0.000  0.000  0.000  0.000  0.498
tot    0.000  0.249  0.000  0.746  0.000  0.000  0.000  0.000  0.000  0.995
 
band     5 # energy  -42.88851728 # occ.  2.00000000
 
ion      s     py     pz     px    dxy    dyz    dz2    dxz  x2-y2    tot
    1  0.000  0.373  0.000  0.124  0.000  0.000  0.000  0.000  0.000  0.498
    2  0.000  0.373  0.000  0.124  0.000  0.000  0.000  0.000  0.000  0.498
tot    0.000  0.746  0.000  0.249  0.000  0.000  0.000  0.000  0.000  0.995
 
band     6 # energy  -42.76447840 # occ.  2.00000000
 
ion      s     py     pz     px    dxy    dyz    dz2    dxz  x2-y2    tot
    1  0.000  0.000  0.497  0.000  0.000  0.000  0.000  0.000  0.000  0.497
    2  0.000  0.000  0.497  0.000  0.000  0.000  0.000  0.000  0.000  0.497
tot    0.000  0.000  0.994  0.000  0.000  0.000  0.000  0.000  0.000  0.994
 
band     7 # energy    0.60476652 # occ.  2.00000000
 
ion      s     py     pz     px    dxy    dyz    dz2    dxz  x2-y2    tot
    1  0.176  0.000  0.000  0.000  0.000  0.000  0.000  0.000  0.000  0.176
    2  0.176  0.000  0.000  0.000  0.000  0.000  0.000  0.000  0.000  0.176
tot    0.351  0.000  0.000  0.000  0.000  0.000  0.001  0.000  0.000  0.352
 
band     8 # energy    3.14557211 # occ.  2.00000000
 
ion      s     py     pz     px    dxy    dyz    dz2    dxz  x2-y2    tot
    1  0.075  0.000  0.000  0.000  0.000  0.000  0.225  0.000  0.000  0.300
    2  0.075  0.000  0.000  0.000  0.000  0.000  0.225  0.000  0.000  0.300
tot    0.150  0.000  0.000  0.000  0.000  0.000  0.450  0.000  0.000  0.600
 
band     9 # energy    5.93311968 # occ.  2.00000000
 
ion      s     py     pz     px    dxy    dyz    dz2    dxz  x2-y2    tot
    1  0.000  0.000  0.000  0.000  0.000  0.000  0.408  0.000  0.000  0.408
    2  0.000  0.000  0.000  0.000  0.000  0.000  0.408  0.000  0.000  0.408
tot    0.000  0.000  0.000  0.000  0.000  0.000  0.816  0.000  0.000  0.816
 
band    10 # energy    6.34492880 # occ.  2.00000000
 
ion      s     py     pz     px    dxy    dyz    dz2    dxz  x2-y2    tot
    1  0.000  0.000  0.000  0.000  0.104  0.000  0.000  0.000  0.313  0.418
    2  0.000  0.000  0.000  0.000  0.104  0.000  0.000  0.000  0.313  0.417
tot    0.000  0.000  0.000  0.000  0.209  0.000  0.000  0.000  0.626  0.835
 
band    11 # energy    6.34492967 # occ.  2.00000000
 
ion      s     py     pz     px    dxy    dyz    dz2    dxz  x2-y2    tot
    1  0.000  0.000  0.000  0.000  0.313  0.000  0.000  0.000  0.104  0.418
    2  0.000  0.000  0.000  0.000  0.313  0.000  0.000  0.000  0.104  0.417
tot    0.000  0.000  0.000  0.000  0.626  0.000  0.000  0.000  0.209  0.835
 
band    12 # energy    6.64743405 # occ.  2.00000000
 
ion      s     py     pz     px    dxy    dyz    dz2    dxz  x2-y2    tot
    1  0.000  0.000  0.000  0.000  0.107  0.000  0.000  0.000  0.320  0.427
    2  0.000  0.000  0.000  0.000  0.107  0.000  0.000  0.000  0.320  0.427
tot    0.000  0.000  0.000  0.000  0.213  0.000  0.000  0.000  0.640  0.853
 
band    13 # energy    6.64743495 # occ.  2.00000000
 
ion      s     py     pz     px    dxy    dyz    dz2    dxz  x2-y2    tot
    1  0.000  0.000  0.000  0.000  0.320  0.000  0.000  0.000  0.107  0.427
    2  0.000  0.000  0.000  0.000  0.320  0.000  0.000  0.000  0.107  0.427
tot    0.000  0.000  0.000  0.000  0.640  0.000  0.000  0.000  0.213  0.853
 
band    14 # energy    7.71216333 # occ.  2.00000000
 
ion      s     py     pz     px    dxy    dyz    dz2    dxz  x2-y2    tot
    1  0.000  0.000  0.000  0.000  0.000  0.110  0.000  0.330  0.000  0.440
    2  0.000  0.000  0.000  0.000  0.000  0.110  0.000  0.330  0.000  0.440
tot    0.000  0.000  0.000  0.000  0.000  0.220  0.000  0.660  0.000  0.880
 
band    15 # energy    7.71216361 # occ.  2.00000000
 
ion      s     py     pz     px    dxy    dyz    dz2    dxz  x2-y2    tot
    1  0.000  0.000  0.000  0.000  0.000  0.330  0.000  0.110  0.000  0.440
    2  0.000  0.000  0.000  0.000  0.000  0.330  0.000  0.110  0.000  0.440
tot    0.000  0.000  0.000  0.000  0.000  0.660  0.000  0.220  0.000  0.880
 
band    16 # energy    8.98107355 # occ.  2.00000000
 
ion      s     py     pz     px    dxy    dyz    dz2    dxz  x2-y2    tot
    1  0.000  0.000  0.074  0.000  0.000  0.000  0.000  0.000  0.000  0.074
    2  0.000  0.000  0.074  0.000  0.000  0.000  0.000  0.000  0.000  0.074
tot    0.000  0.000  0.147  0.000  0.000  0.000  0.000  0.000  0.000  0.147
 
band    17 # energy    9.03184237 # occ.  1.99999711
 
ion      s     py     pz     px    dxy    dyz    dz2    dxz  x2-y2    tot
    1  0.000  0.000  0.000  0.000  0.000  0.115  0.000  0.346  0.000  0.462
    2  0.000  0.000  0.000  0.000  0.000  0.115  0.000  0.346  0.000  0.462
tot    0.000  0.000  0.000  0.000  0.000  0.231  0.000  0.692  0.000  0.923
 
band    18 # energy    9.03184269 # occ.  1.99999711
 
ion      s     py     pz     px    dxy    dyz    dz2    dxz  x2-y2    tot
    1  0.000  0.000  0.000  0.000  0.000  0.346  0.000  0.115  0.000  0.462
    2  0.000  0.000  0.000  0.000  0.000  0.346  0.000  0.115  0.000  0.462
tot    0.000  0.000  0.000  0.000  0.000  0.692  0.000  0.231  0.000  0.923
 
band    19 # energy   13.25460954 # occ.  0.00000000
 
ion      s     py     pz     px    dxy    dyz    dz2    dxz  x2-y2    tot
    1  0.166  0.000  0.000  0.000  0.000  0.000  0.226  0.000  0.000  0.392
    2  0.166  0.000  0.000  0.000  0.000  0.000  0.226  0.000  0.000  0.392
tot    0.332  0.000  0.000  0.000  0.000  0.000  0.451  0.000  0.000  0.783
 
band    20 # energy   24.39545677 # occ.  0.00000000
 
ion      s     py     pz     px    dxy    dyz    dz2    dxz  x2-y2    tot
    1  0.003  0.000  0.000  0.000  0.000  0.000  0.002  0.000  0.000  0.005
    2  0.003  0.000  0.000  0.000  0.000  0.000  0.002  0.000  0.000  0.005
tot    0.007  0.000  0.000  0.000  0.000  0.000  0.004  0.000  0.000  0.011
 
band    21 # energy   24.85350853 # occ.  0.00000000
 
ion      s     py     pz     px    dxy    dyz    dz2    dxz  x2-y2    tot
    1  0.000  0.000  0.023  0.000  0.000  0.000  0.000  0.000  0.000  0.023
    2  0.000  0.000  0.023  0.000  0.000  0.000  0.000  0.000  0.000  0.023
tot    0.000  0.000  0.047  0.000  0.000  0.000  0.000  0.000  0.000  0.047
 
band    22 # energy   26.37165166 # occ.  0.00000000
 
ion      s     py     pz     px    dxy    dyz    dz2    dxz  x2-y2    tot
    1  0.001  0.000  0.000  0.000  0.000  0.000  0.015  0.000  0.000  0.016
    2  0.001  0.000  0.000  0.000  0.000  0.000  0.015  0.000  0.000  0.016
tot    0.001  0.000  0.000  0.000  0.000  0.000  0.031  0.000  0.000  0.032
 
band    23 # energy   29.04602636 # occ.  0.00000000
 
ion      s     py     pz     px    dxy    dyz    dz2    dxz  x2-y2    tot
    1  0.000  0.032  0.000  0.091  0.014  0.000  0.000  0.000  0.005  0.141
    2  0.000  0.032  0.000  0.091  0.014  0.000  0.000  0.000  0.005  0.141
tot    0.000  0.063  0.000  0.183  0.027  0.000  0.000  0.000  0.009  0.282
 
band    24 # energy   29.04602637 # occ.  0.00000000
 
ion      s     py     pz     px    dxy    dyz    dz2    dxz  x2-y2    tot
    1  0.000  0.091  0.000  0.032  0.005  0.000  0.000  0.000  0.014  0.141
    2  0.000  0.091  0.000  0.032  0.005  0.000  0.000  0.000  0.014  0.141
tot    0.000  0.183  0.000  0.063  0.009  0.000  0.000  0.000  0.027  0.282
 

 k-point     2 :    0.10000000 0.00000000 0.00000000     weight = 0.00750000

band     1 # energy  -42.97270266 # occ.  2.00000000
 
ion      s     py     pz     px    dxy    dyz    dz2    dxz  x2-y2    tot
    1  0.000  0.000  0.493  0.000  0.000  0.000  0.000  0.000  0.000  0.493
    2  0.000  0.000  0.493  0.000  0.000  0.000  0.000  0.000  0.000  0.493
tot    0.000  0.000  0.986  0.000  0.000  0.000  0.000  0.000  0.000  0.986
 
band     2 # energy  -42.93936714 # occ.  2.00000000
 
ion      s     py     pz     px    dxy    dyz    dz2    dxz  x2-y2    tot
    1  0.000  0.124  0.000  0.373  0.000  0.000  0.000  0.000  0.000  0.497
    2  0.000  0.124  0.000  0.373  0.000  0.000  0.000  0.000  0.000  0.497
tot    0.000  0.248  0.000  0.745  0.000  0.000  0.000  0.000  0.000  0.994
 
band     3 # energy  -42.92258892 # occ.  2.00000000
 
ion      s     py     pz     px    dxy    dyz    dz2    dxz  x2-y2    tot
    1  0.000  0.373  0.000  0.124  0.000  0.000  0.000  0.000  0.000  0.497
    2  0.000  0.373  0.000  0.124  0.000  0.000  0.000  0.000  0.000  0.497
tot    0.000  0.746  0.000  0.249  0.000  0.000  0.000  0.000  0.000  0.994
 
band     4 # energy  -42.91241304 # occ.  2.00000000
 
ion      s     py     pz     px    dxy    dyz    dz2    dxz  x2-y2    tot
    1  0.000  0.124  0.000  0.373  0.000  0.000  0.000  0.000  0.000  0.497
    2  0.000  0.124  0.000  0.373  0.000  0.000  0.000  0.000  0.000  0.497
tot    0.000  0.249  0.000  0.746  0.000  0.000  0.000  0.000  0.000  0.994
 
band     5 # energy  -42.89334810 # occ.  2.00000000
 
ion      s     py     pz     px    dxy    dyz    dz2    dxz  x2-y2    tot
    1  0.000  0.373  0.000  0.124  0.000  0.000  0.000  0.000  0.000  0.498
    2  0.000  0.373  0.000  0.124  0.000  0.000  0.000  0.000  0.000  0.498
tot    0.000  0.746  0.000  0.249  0.000  0.000  0.000  0.000  0.000  0.995
 
band     6 # energy  -42.76608105 # occ.  2.00000000
 
ion      s     py     pz     px    dxy    dyz    dz2    dxz  x2-y2    tot
    1  0.000  0.000  0.497  0.000  0.000  0.000  0.000  0.000  0.000  0.497
    2  0.000  0.000  0.497  0.000  0.000  0.000  0.000  0.000  0.000  0.497
tot    0.000  0.000  0.994  0.000  0.000  0.000  0.000  0.000  0.000  0.994
 
band     7 # energy    0.93014008 # occ.  2.00000000
 
ion      s     py     pz     px    dxy    dyz    dz2    dxz  x2-y2    tot
    1  0.173  0.000  0.000  0.001  0.000  0.000  0.000  0.000  0.000  0.175
    2  0.173  0.000  0.000  0.001  0.000  0.000  0.000  0.000  0.000  0.175
tot    0.345  0.001  0.000  0.003  0.001  0.000  0.000  0.000  0.000  0.350
 
band     8 # energy    3.43598765 # occ.  2.00000000
 
ion      s     py     pz     px    dxy    dyz    dz2    dxz  x2-y2    tot
    1  0.069  0.000  0.000  0.001  0.002  0.000  0.230  0.000  0.001  0.303
    2  0.069  0.000  0.000  0.001  0.002  0.000  0.230  0.000  0.001  0.303
tot    0.138  0.001  0.000  0.003  0.003  0.000  0.460  0.000  0.001  0.605
 
band     9 # energy    5.87548006 # occ.  2.00000000
 
ion      s     py     pz     px    dxy    dyz    dz2    dxz  x2-y2    tot
    1  0.000  0.000  0.000  0.000  0.116  0.000  0.250  0.000  0.039  0.404
    2  0.000  0.000  0.000  0.000  0.116  0.000  0.250  0.000  0.039  0.404
tot    0.000  0.000  0.000  0.001  0.231  0.000  0.499  0.000  0.077  0.808
 
band    10 # energy    6.35987347 # occ.  2.00000000
 
ion      s     py     pz     px    dxy    dyz    dz2    dxz  x2-y2    tot
    1  0.000  0.000  0.000  0.000  0.210  0.000  0.135  0.000  0.070  0.415
    2  0.000  0.000  0.000  0.000  0.210  0.000  0.135  0.000  0.070  0.415
tot    0.000  0.000  0.000  0.000  0.420  0.000  0.270  0.000  0.140  0.830
 
band    11 # energy    6.52830129 # occ.  2.00000000
 
ion      s     py     pz     px    dxy    dyz    dz2    dxz  x2-y2    tot
    1  0.001  0.000  0.000  0.000  0.294  0.000  0.026  0.000  0.098  0.420
    2  0.001  0.000  0.000  0.000  0.294  0.000  0.026  0.000  0.098  0.420
tot    0.003  0.000  0.000  0.000  0.588  0.000  0.053  0.000  0.196  0.840
 
band    12 # energy    6.57862693 # occ.  2.00000000
 
ion      s     py     pz     px    dxy    dyz    dz2    dxz  x2-y2    tot
    1  0.000  0.000  0.000  0.000  0.105  0.000  0.000  0.000  0.315  0.420
    2  0.000  0.000  0.000  0.000  0.105  0.000  0.000  0.000  0.315  0.420
tot    0.000  0.001  0.000  0.000  0.210  0.000  0.000  0.000  0.629  0.839
 
band    13 # energy    6.86916528 # occ.  2.00000000
 
ion      s     py     pz     px    dxy    dyz    dz2    dxz  x2-y2    tot
    1  0.000  0.000  0.000  0.000  0.107  0.000  0.000  0.000  0.321  0.429
    2  0.000  0.000  0.000  0.000  0.107  0.000  0.000  0.000  0.321  0.429
tot    0.000  0.001  0.000  0.000  0.214  0.000  0.000  0.000  0.643  0.858
 
band    14 # energy    7.28593808 # occ.  2.00000000
 
ion      s     py     pz     px    dxy    dyz    dz2    dxz  x2-y2    tot
    1  0.000  0.000  0.012  0.000  0.000  0.088  0.000  0.264  0.000  0.364
    2  0.000  0.000  0.012  0.000  0.000  0.088  0.000  0.264  0.000  0.364
tot    0.000  0.000  0.023  0.000  0.000  0.176  0.000  0.529  0.000  0.728
 
band    15 # energy    7.57374879 # occ.  2.00000000
 
ion      s     py     pz     px    dxy    dyz    dz2    dxz  x2-y2    tot
    1  0.000  0.000  0.000  0.000  0.000  0.327  0.000  0.109  0.000  0.436
    2  0.000  0.000  0.000  0.000  0.000  0.327  0.000  0.109  0.000  0.436
tot    0.000  0.000  0.000  0.000  0.000  0.654  0.000  0.218  0.000  0.872
 
band    16 # energy    7.76262365 # occ.  2.00000000
 
ion      s     py     pz     px    dxy    dyz    dz2    dxz  x2-y2    tot
    1  0.000  0.000  0.018  0.000  0.000  0.082  0.000  0.247  0.000  0.347
    2  0.000  0.000  0.018  0.000  0.000  0.082  0.000  0.247  0.000  0.347
tot    0.000  0.000  0.035  0.000  0.000  0.165  0.000  0.494  0.000  0.693
 
band    17 # energy    9.08049131 # occ.  1.99904122
 
ion      s     py     pz     px    dxy    dyz    dz2    dxz  x2-y2    tot
    1  0.000  0.000  0.000  0.000  0.000  0.348  0.000  0.116  0.000  0.464
    2  0.000  0.000  0.000  0.000  0.000  0.348  0.000  0.116  0.000  0.464
tot    0.000  0.000  0.000  0.000  0.000  0.696  0.000  0.232  0.000  0.928
 
band    18 # energy   10.77550403 # occ.  0.00000000
 
ion      s     py     pz     px    dxy    dyz    dz2    dxz  x2-y2    tot
    1  0.000  0.000  0.045  0.000  0.000  0.053  0.000  0.160  0.000  0.258
    2  0.000  0.000  0.045  0.000  0.000  0.053  0.000  0.160  0.000  0.258
tot    0.000  0.000  0.090  0.000  0.000  0.106  0.000  0.319  0.000  0.516
 
band    19 # energy   13.23336123 # occ.  0.00000000
 
ion      s     py     pz     px    dxy    dyz    dz2    dxz  x2-y2    tot
    1  0.167  0.000  0.000  0.001  0.001  0.000  0.217  0.000  0.000  0.387
    2  0.167  0.000  0.000  0.001  0.001  0.000  0.217  0.000  0.000  0.387
tot    0.334  0.000  0.000  0.001  0.003  0.000  0.434  0.000  0.001  0.773
 
band    20 # energy   24.60914744 # occ.  0.00000000
 
ion      s     py     pz     px    dxy    dyz    dz2    dxz  x2-y2    tot
    1  0.006  0.002  0.000  0.006  0.020  0.000  0.004  0.000  0.007  0.044
    2  0.006  0.002  0.000  0.006  0.020  0.000  0.004  0.000  0.007  0.044
tot    0.012  0.004  0.000  0.013  0.040  0.000  0.007  0.000  0.013  0.089
 
band    21 # energy   25.32682884 # occ.  0.00000000
 
ion      s     py     pz     px    dxy    dyz    dz2    dxz  x2-y2    tot
    1  0.000  0.000  0.021  0.000  0.000  0.002  0.000  0.005  0.000  0.027
    2  0.000  0.000  0.021  0.000  0.000  0.002  0.000  0.005  0.000  0.027
tot    0.000  0.000  0.041  0.000  0.000  0.003  0.000  0.009  0.000  0.054
 
band    22 # energy   26.31006657 # occ.  0.00000000
 
ion      s     py     pz     px    dxy    dyz    dz2    dxz  x2-y2    tot
    1  0.006  0.009  0.000  0.026  0.018  0.000  0.023  0.000  0.006  0.087
    2  0.006  0.009  0.000  0.026  0.018  0.000  0.023  0.000  0.006  0.087
tot    0.012  0.017  0.000  0.052  0.035  0.000  0.045  0.000  0.012  0.173
 
band    23 # energy   27.61990280 # occ.  0.00000000
 
ion      s     py     pz     px    dxy    dyz    dz2    dxz  x2-y2    tot
    1  0.000  0.082  0.000  0.027  0.009  0.000  0.000  0.000  0.026  0.144
    2  0.000  0.082  0.000  0.027  0.009  0.000  0.000  0.000  0.026  0.144
tot    0.000  0.164  0.000  0.055  0.017  0.000  0.000  0.000  0.052  0.287
 
band    24 # energy   27.84634779 # occ.  0.00000000
 
ion      s     py     pz     px    dxy    dyz    dz2    dxz  x2-y2    tot
    1  0.004  0.016  0.000  0.049  0.005  0.000  0.000  0.000  0.002  0.075
    2  0.004  0.016  0.000  0.049  0.005  0.000  0.000  0.000  0.002  0.075
tot    0.008  0.032  0.000  0.097  0.010  0.000  0.000  0.000  0.003  0.151
 

 k-point     3 :    0.20000000 0.00000000 0.00000000     weight = 0.00750000

band     1 # energy  -43.00113501 # occ.  2.00000000
 
ion      s     py     pz     px    dxy    dyz    dz2    dxz  x2-y2    tot
    1  0.000  0.124  0.000  0.372  0.000  0.000  0.000  0.000  0.000  0.496
    2  0.000  0.124  0.000  0.372  0.000  0.000  0.000  0.000  0.000  0.496
tot    0.000  0.248  0.000  0.743  0.000  0.000  0.000  0.000  0.000  0.991
 
band     2 # energy  -42.97596701 # occ.  2.00000000
 
ion      s     py     pz     px    dxy    dyz    dz2    dxz  x2-y2    tot
    1  0.000  0.124  0.000  0.372  0.000  0.000  0.000  0.000  0.000  0.496
    2  0.000  0.124  0.000  0.372  0.000  0.000  0.000  0.000  0.000  0.496
tot    0.000  0.248  0.000  0.744  0.000  0.000  0.000  0.000  0.000  0.992
 
band     3 # energy  -42.95176621 # occ.  2.00000000
 
ion      s     py     pz     px    dxy    dyz    dz2    dxz  x2-y2    tot
    1  0.000  0.000  0.493  0.000  0.000  0.000  0.000  0.000  0.000  0.493
    2  0.000  0.000  0.493  0.000  0.000  0.000  0.000  0.000  0.000  0.493
tot    0.000  0.000  0.987  0.000  0.000  0.000  0.000  0.000  0.000  0.987
 
band     4 # energy  -42.94046542 # occ.  2.00000000
 
ion      s     py     pz     px    dxy    dyz    dz2    dxz  x2-y2    tot
    1  0.000  0.373  0.000  0.124  0.000  0.000  0.000  0.000  0.000  0.497
    2  0.000  0.373  0.000  0.124  0.000  0.000  0.000  0.000  0.000  0.497
tot    0.000  0.745  0.000  0.248  0.000  0.000  0.000  0.000  0.000  0.994
 
band     5 # energy  -42.90691247 # occ.  2.00000000
 
ion      s     py     pz     px    dxy    dyz    dz2    dxz  x2-y2    tot
    1  0.000  0.373  0.000  0.124  0.000  0.000  0.000  0.000  0.000  0.497
    2  0.000  0.373  0.000  0.124  0.000  0.000  0.000  0.000  0.000  0.497
tot    0.000  0.746  0.000  0.249  0.000  0.000  0.000  0.000  0.000  0.995
 
band     6 # energy  -42.77221369 # occ.  2.00000000
 
ion      s     py     pz     px    dxy    dyz    dz2    dxz  x2-y2    tot
    1  0.000  0.000  0.497  0.000  0.000  0.000  0.000  0.000  0.000  0.497
    2  0.000  0.000  0.497  0.000  0.000  0.000  0.000  0.000  0.000  0.497
tot    0.000  0.000  0.994  0.000  0.000  0.000  0.000  0.000  0.000  0.994
 
band     7 # energy    1.82668153 # occ.  2.00000000
 
ion      s     py     pz     px    dxy    dyz    dz2    dxz  x2-y2    tot
    1  0.161  0.002  0.000  0.005  0.005  0.000  0.001  0.000  0.002  0.175
    2  0.161  0.002  0.000  0.005  0.005  0.000  0.001  0.000  0.002  0.175
tot    0.322  0.003  0.000  0.010  0.011  0.000  0.001  0.000  0.004  0.351
 
band     8 # energy    4.08693169 # occ.  2.00000000
 
ion      s     py     pz     px    dxy    dyz    dz2    dxz  x2-y2    tot
    1  0.047  0.001  0.000  0.003  0.036  0.000  0.219  0.000  0.012  0.319
    2  0.047  0.001  0.000  0.003  0.036  0.000  0.219  0.000  0.012  0.319
tot    0.094  0.002  0.000  0.006  0.072  0.000  0.438  0.000  0.024  0.637
 
band     9 # energy    5.68435921 # occ.  2.00000000
 
ion      s     py     pz     px    dxy    dyz    dz2    dxz  x2-y2    tot
    1  0.003  0.001  0.000  0.003  0.186  0.000  0.127  0.000  0.062  0.382
    2  0.003  0.001  0.000  0.003  0.186  0.000  0.127  0.000  0.062  0.382
tot    0.005  0.002  0.000  0.005  0.373  0.000  0.254  0.000  0.124  0.763
 
band    10 # energy    6.12295472 # occ.  2.00000000
 
ion      s     py     pz     px    dxy    dyz    dz2    dxz  x2-y2    tot
    1  0.005  0.000  0.000  0.001  0.258  0.000  0.052  0.000  0.086  0.402
    2  0.005  0.000  0.000  0.001  0.258  0.000  0.052  0.000  0.086  0.402
tot    0.009  0.001  0.000  0.002  0.515  0.000  0.105  0.000  0.172  0.804
 
band    11 # energy    6.13553535 # occ.  2.00000000
 
ion      s     py     pz     px    dxy    dyz    dz2    dxz  x2-y2    tot
    1  0.000  0.000  0.014  0.000  0.000  0.077  0.000  0.232  0.000  0.323
    2  0.000  0.000  0.014  0.000  0.000  0.077  0.000  0.232  0.000  0.323
tot    0.000  0.000  0.028  0.000  0.000  0.155  0.000  0.464  0.000  0.647
 
band    12 # energy    6.88403423 # occ.  2.00000000
 
ion      s     py     pz     px    dxy    dyz    dz2    dxz  x2-y2    tot
    1  0.003  0.000  0.000  0.001  0.109  0.000  0.267  0.000  0.036  0.417
    2  0.003  0.000  0.000  0.001  0.109  0.000  0.267  0.000  0.036  0.417
tot    0.006  0.001  0.000  0.002  0.218  0.000  0.534  0.000  0.073  0.834
 
band    13 # energy    7.23755715 # occ.  2.00000000
 
ion      s     py     pz     px    dxy    dyz    dz2    dxz  x2-y2    tot
    1  0.000  0.001  0.000  0.000  0.107  0.000  0.000  0.000  0.320  0.427
    2  0.000  0.001  0.000  0.000  0.107  0.000  0.000  0.000  0.320  0.427
tot    0.000  0.001  0.000  0.000  0.213  0.000  0.000  0.000  0.639  0.854
 
band    14 # energy    7.26320024 # occ.  2.00000000
 
ion      s     py     pz     px    dxy    dyz    dz2    dxz  x2-y2    tot
    1  0.000  0.000  0.000  0.000  0.000  0.321  0.000  0.107  0.000  0.428
    2  0.000  0.000  0.000  0.000  0.000  0.321  0.000  0.107  0.000  0.428
tot    0.000  0.000  0.000  0.000  0.000  0.641  0.000  0.214  0.000  0.855
 
band    15 # energy    7.30282120 # occ.  2.00000000
 
ion      s     py     pz     px    dxy    dyz    dz2    dxz  x2-y2    tot
    1  0.000  0.000  0.007  0.000  0.000  0.095  0.000  0.286  0.000  0.389
    2  0.000  0.000  0.007  0.000  0.000  0.095  0.000  0.286  0.000  0.389
tot    0.000  0.000  0.015  0.000  0.000  0.191  0.000  0.573  0.000  0.779
 
band    16 # energy    7.48835606 # occ.  2.00000000
 
ion      s     py     pz     px    dxy    dyz    dz2    dxz  x2-y2    tot
    1  0.000  0.001  0.000  0.000  0.109  0.000  0.000  0.000  0.326  0.436
    2  0.000  0.001  0.000  0.000  0.109  0.000  0.000  0.000  0.326  0.436
tot    0.000  0.001  0.000  0.000  0.217  0.000  0.000  0.000  0.652  0.871
 
band    17 # energy    9.15851612 # occ.  1.72669237
 
ion      s     py     pz     px    dxy    dyz    dz2    dxz  x2-y2    tot
    1  0.000  0.000  0.000  0.000  0.000  0.350  0.000  0.117  0.000  0.467
    2  0.000  0.000  0.000  0.000  0.000  0.350  0.000  0.117  0.000  0.467
tot    0.000  0.000  0.000  0.000  0.000  0.701  0.000  0.234  0.000  0.934
 
band    18 # energy   12.73885148 # occ.  0.00000000
 
ion      s     py     pz     px    dxy    dyz    dz2    dxz  x2-y2    tot
    1  0.000  0.000  0.055  0.000  0.000  0.046  0.000  0.139  0.000  0.240
    2  0.000  0.000  0.055  0.000  0.000  0.046  0.000  0.139  0.000  0.240
tot    0.000  0.000  0.110  0.000  0.000  0.093  0.000  0.278  0.000  0.480
 
band    19 # energy   13.21376774 # occ.  0.00000000
 
ion      s     py     pz     px    dxy    dyz    dz2    dxz  x2-y2    tot
    1  0.172  0.001  0.000  0.003  0.005  0.000  0.186  0.000  0.002  0.368
    2  0.172  0.001  0.000  0.003  0.005  0.000  0.186  0.000  0.002  0.368
tot    0.345  0.002  0.000  0.005  0.010  0.000  0.372  0.000  0.003  0.736
 
band    20 # energy   22.36059861 # occ.  0.00000000
 
ion      s     py     pz     px    dxy    dyz    dz2    dxz  x2-y2    tot
    1  0.028  0.016  0.000  0.049  0.047  0.000  0.026  0.000  0.016  0.182
    2  0.028  0.016  0.000  0.049  0.047  0.000  0.026  0.000  0.016  0.182
tot    0.057  0.033  0.000  0.098  0.093  0.000  0.052  0.000  0.031  0.364
 
band    21 # energy   25.35505585 # occ.  0.00000000
 
ion      s     py     pz     px    dxy    dyz    dz2    dxz  x2-y2    tot
    1  0.000  0.076  0.000  0.025  0.010  0.000  0.000  0.000  0.030  0.141
    2  0.000  0.076  0.000  0.025  0.010  0.000  0.000  0.000  0.030  0.141
tot    0.000  0.153  0.000  0.051  0.020  0.000  0.000  0.000  0.059  0.283
 
band    22 # energy   25.90516256 # occ.  0.00000000
 
ion      s     py     pz     px    dxy    dyz    dz2    dxz  x2-y2    tot
    1  0.000  0.000  0.013  0.000  0.000  0.003  0.000  0.008  0.000  0.023
    2  0.000  0.000  0.013  0.000  0.000  0.003  0.000  0.008  0.000  0.023
tot    0.000  0.000  0.027  0.000  0.000  0.005  0.000  0.015  0.000  0.047
 
band    23 # energy   26.66437497 # occ.  0.00000000
 
ion      s     py     pz     px    dxy    dyz    dz2    dxz  x2-y2    tot
    1  0.005  0.003  0.000  0.008  0.035  0.000  0.014  0.000  0.012  0.078
    2  0.005  0.003  0.000  0.008  0.035  0.000  0.014  0.000  0.012  0.078
tot    0.011  0.006  0.000  0.017  0.070  0.000  0.029  0.000  0.023  0.155
 
band    24 # energy   26.94246868 # occ.  0.00000000
 
ion      s     py     pz     px    dxy    dyz    dz2    dxz  x2-y2    tot
    1  0.000  0.000  0.003  0.000  0.000  0.015  0.000  0.046  0.000  0.063
    2  0.000  0.000  0.003  0.000  0.000  0.015  0.000  0.046  0.000  0.063
tot    0.000  0.000  0.005  0.000  0.000  0.030  0.000  0.091  0.000  0.127
 

 k-point     4 :    0.30000000 0.00000000 0.00000000     weight = 0.00750000

band     1 # energy  -43.07840402 # occ.  2.00000000
 
ion      s     py     pz     px    dxy    dyz    dz2    dxz  x2-y2    tot
    1  0.000  0.124  0.000  0.371  0.000  0.000  0.000  0.000  0.000  0.494
    2  0.000  0.124  0.000  0.371  0.000  0.000  0.000  0.000  0.000  0.494
tot    0.000  0.247  0.000  0.741  0.000  0.000  0.000  0.000  0.000  0.989
 
band     2 # energy  -43.05229203 # occ.  2.00000000
 
ion      s     py     pz     px    dxy    dyz    dz2    dxz  x2-y2    tot
    1  0.000  0.124  0.000  0.371  0.000  0.000  0.000  0.000  0.000  0.495
    2  0.000  0.124  0.000  0.371  0.000  0.000  0.000  0.000  0.000  0.495
tot    0.000  0.247  0.000  0.742  0.000  0.000  0.000  0.000  0.000  0.990
 
band     3 # energy  -42.96206309 # occ.  2.00000000
 
ion      s     py     pz     px    dxy    dyz    dz2    dxz  x2-y2    tot
    1  0.000  0.372  0.000  0.124  0.000  0.000  0.000  0.000  0.000  0.496
    2  0.000  0.372  0.000  0.124  0.000  0.000  0.000  0.000  0.000  0.496
tot    0.000  0.745  0.000  0.248  0.000  0.000  0.000  0.000  0.000  0.993
 
band     4 # energy  -42.92391877 # occ.  2.00000000
 
ion      s     py     pz     px    dxy    dyz    dz2    dxz  x2-y2    tot
    1  0.000  0.373  0.000  0.124  0.000  0.000  0.000  0.000  0.000  0.497
    2  0.000  0.373  0.000  0.124  0.000  0.000  0.000  0.000  0.000  0.497
tot    0.000  0.746  0.000  0.249  0.000  0.000  0.000  0.000  0.000  0.994
 
band     5 # energy  -42.92238168 # occ.  2.00000000
 
ion      s     py     pz     px    dxy    dyz    dz2    dxz  x2-y2    tot
    1  0.000  0.000  0.494  0.000  0.000  0.000  0.000  0.000  0.000  0.494
    2  0.000  0.000  0.494  0.000  0.000  0.000  0.000  0.000  0.000  0.494
tot    0.000  0.000  0.988  0.000  0.000  0.000  0.000  0.000  0.000  0.988
 
band     6 # energy  -42.78378057 # occ.  2.00000000
 
ion      s     py     pz     px    dxy    dyz    dz2    dxz  x2-y2    tot
    1  0.000  0.000  0.497  0.000  0.000  0.000  0.000  0.000  0.000  0.497
    2  0.000  0.000  0.497  0.000  0.000  0.000  0.000  0.000  0.000  0.497
tot    0.000  0.000  0.993  0.000  0.000  0.000  0.000  0.000  0.000  0.993
 
band     7 # energy    2.96004272 # occ.  2.00000000
 
ion      s     py     pz     px    dxy    dyz    dz2    dxz  x2-y2    tot
    1  0.130  0.002  0.000  0.007  0.043  0.000  0.005  0.000  0.014  0.202
    2  0.130  0.002  0.000  0.007  0.043  0.000  0.005  0.000  0.014  0.202
tot    0.259  0.005  0.000  0.014  0.087  0.000  0.011  0.000  0.029  0.404
 
band     8 # energy    4.23991511 # occ.  2.00000000
 
ion      s     py     pz     px    dxy    dyz    dz2    dxz  x2-y2    tot
    1  0.019  0.000  0.000  0.001  0.159  0.000  0.120  0.000  0.053  0.351
    2  0.019  0.000  0.000  0.001  0.159  0.000  0.120  0.000  0.053  0.351
tot    0.038  0.001  0.000  0.002  0.317  0.000  0.239  0.000  0.106  0.702
 
band     9 # energy    5.23175583 # occ.  2.00000000
 
ion      s     py     pz     px    dxy    dyz    dz2    dxz  x2-y2    tot
    1  0.000  0.000  0.009  0.000  0.000  0.080  0.000  0.240  0.000  0.329
    2  0.000  0.000  0.009  0.000  0.000  0.080  0.000  0.240  0.000  0.329
tot    0.000  0.000  0.017  0.000  0.000  0.160  0.000  0.480  0.000  0.658
 
band    10 # energy    5.90984183 # occ.  2.00000000
 
ion      s     py     pz     px    dxy    dyz    dz2    dxz  x2-y2    tot
    1  0.011  0.002  0.000  0.007  0.213  0.000  0.044  0.000  0.071  0.349
    2  0.011  0.002  0.000  0.007  0.213  0.000  0.044  0.000  0.071  0.349
tot    0.023  0.005  0.000  0.014  0.425  0.000  0.088  0.000  0.142  0.697
 
band    11 # energy    6.20182615 # occ.  2.00000000
 
ion      s     py     pz     px    dxy    dyz    dz2    dxz  x2-y2    tot