<?xml version="1.0" encoding="ISO-8859-1"?>
<modeling>
 <generator>
  <i name="program" type="string">vasp </i>
  <i name="version" type="string">6.3.2  </i>
  <i name="subversion" type="string">27Jun22 (build Aug 12 2022 00:53:59) complex                          parallel </i>
  <i name="platform" type="string">tv2STD </i>
  <i name="date" type="string">2024 12 03 </i>
  <i name="time" type="string">02:20:14 </i>
 </generator>
 <incar>
  <i type="string" name="SYSTEM">Pt-hcc</i>
  <i type="int" name="ISTART">     0</i>
  <i type="string" name="PREC">Accurate      normal | accurate</i>
  <i type="string" name="ALGO">Normal     Normal, Fast, Very_Fast</i>
  <i type="logical" name="ADDGRID"> F  </i>
  <i type="int" name="ICHARG">     2</i>
  <i type="int" name="INIWAV">     1</i>
  <i type="int" name="NELM">   100</i>
  <i type="int" name="IBRION">     2</i>
  <i name="EDIFF">      0.00000100</i>
  <i name="EDIFFG">     -0.02000000</i>
  <i type="int" name="NSW">   100</i>
  <i type="int" name="ISIF">     2</i>
  <i type="int" name="ISYM">     1</i>
  <i name="ENCUT">    450.00000000</i>
  <i type="logical" name="LREAL"> F  </i>
  <i type="int" name="ISMEAR">     0</i>
  <i name="SIGMA">      0.05000000</i>
  <i type="int" name="NWRITE">     2</i>
  <i type="logical" name="LWAVE"> T  </i>
  <i type="logical" name="LCHARG"> T  </i>
  <i type="int" name="LORBIT">    11</i>
 </incar>
 <primitive_cell>
  <structure name="primitive_cell" >
   <crystal>
    <varray name="basis" >
     <v>       2.86309101       0.00000000       0.00000000 </v>
     <v>      -1.43154550       2.47950955       0.00000000 </v>
     <v>       0.00000000       0.00000000       4.96023845 </v>
    </varray>
    <i name="volume">     35.21303768 </i>
    <varray name="rec_basis" >
     <v>       0.34927287       0.20165278       0.00000000 </v>
     <v>       0.00000000       0.40330557       0.00000000 </v>
     <v>       0.00000000       0.00000000       0.20160321 </v>
    </varray>
   </crystal>
   <varray name="positions" >
    <v>       0.00000000       0.00000000       0.00000000 </v>
    <v>       0.33333333       0.66666667       0.50000000 </v>
   </varray>
  </structure>
  <varray name="primitive_index" >
   <v type="int" >        1 </v>
   <v type="int" >        2 </v>
  </varray>
 </primitive_cell>
 <kpoints>
  <generation param="Gamma">
   <v type="int" name="divisions">      10       10        8 </v>
   <v name="usershift">      0.00000000       0.00000000       0.00000000 </v>
   <v name="genvec1">      0.10000000       0.00000000       0.00000000 </v>
   <v name="genvec2">      0.00000000       0.10000000       0.00000000 </v>
   <v name="genvec3">      0.00000000       0.00000000       0.12500000 </v>
   <v name="shift">      0.00000000       0.00000000       0.00000000 </v>
  </generation>
  <varray name="kpointlist" >
   <v>       0.00000000       0.00000000       0.00000000 </v>
   <v>       0.10000000       0.00000000       0.00000000 </v>
   <v>       0.20000000       0.00000000       0.00000000 </v>
   <v>       0.30000000       0.00000000       0.00000000 </v>
   <v>       0.40000000       0.00000000       0.00000000 </v>
   <v>       0.50000000       0.00000000       0.00000000 </v>
   <v>       0.10000000       0.10000000       0.00000000 </v>
   <v>       0.20000000       0.10000000       0.00000000 </v>
   <v>       0.30000000       0.10000000       0.00000000 </v>
   <v>       0.40000000       0.10000000       0.00000000 </v>
   <v>       0.20000000       0.20000000       0.00000000 </v>
   <v>       0.30000000       0.20000000       0.00000000 </v>
   <v>       0.40000000       0.20000000       0.00000000 </v>
   <v>       0.30000000       0.30000000       0.00000000 </v>
   <v>       0.00000000       0.00000000       0.12500000 </v>
   <v>       0.10000000       0.00000000       0.12500000 </v>
   <v>       0.20000000       0.00000000       0.12500000 </v>
   <v>       0.30000000       0.00000000       0.12500000 </v>
   <v>       0.40000000       0.00000000       0.12500000 </v>
   <v>       0.50000000       0.00000000       0.12500000 </v>
   <v>       0.10000000       0.10000000       0.12500000 </v>
   <v>       0.20000000       0.10000000       0.12500000 </v>
   <v>       0.30000000       0.10000000       0.12500000 </v>
   <v>       0.40000000       0.10000000       0.12500000 </v>
   <v>       0.20000000       0.20000000       0.12500000 </v>
   <v>       0.30000000       0.20000000       0.12500000 </v>
   <v>       0.40000000       0.20000000       0.12500000 </v>
   <v>       0.30000000       0.30000000       0.12500000 </v>
   <v>       0.00000000       0.00000000       0.25000000 </v>
   <v>       0.10000000       0.00000000       0.25000000 </v>
   <v>       0.20000000       0.00000000       0.25000000 </v>
   <v>       0.30000000       0.00000000       0.25000000 </v>
   <v>       0.40000000       0.00000000       0.25000000 </v>
   <v>       0.50000000       0.00000000       0.25000000 </v>
   <v>       0.10000000       0.10000000       0.25000000 </v>
   <v>       0.20000000       0.10000000       0.25000000 </v>
   <v>       0.30000000       0.10000000       0.25000000 </v>
   <v>       0.40000000       0.10000000       0.25000000 </v>
   <v>       0.20000000       0.20000000       0.25000000 </v>
   <v>       0.30000000       0.20000000       0.25000000 </v>
   <v>       0.40000000       0.20000000       0.25000000 </v>
   <v>       0.30000000       0.30000000       0.25000000 </v>
   <v>       0.00000000       0.00000000       0.37500000 </v>
   <v>       0.10000000       0.00000000       0.37500000 </v>
   <v>       0.20000000       0.00000000       0.37500000 </v>
   <v>       0.30000000       0.00000000       0.37500000 </v>
   <v>       0.40000000       0.00000000       0.37500000 </v>
   <v>       0.50000000       0.00000000       0.37500000 </v>
   <v>       0.10000000       0.10000000       0.37500000 </v>
   <v>       0.20000000       0.10000000       0.37500000 </v>
   <v>       0.30000000       0.10000000       0.37500000 </v>
   <v>       0.40000000       0.10000000       0.37500000 </v>
   <v>       0.20000000       0.20000000       0.37500000 </v>
   <v>       0.30000000       0.20000000       0.37500000 </v>
   <v>       0.40000000       0.20000000       0.37500000 </v>
   <v>       0.30000000       0.30000000       0.37500000 </v>
   <v>       0.00000000       0.00000000       0.50000000 </v>
   <v>       0.10000000       0.00000000       0.50000000 </v>
   <v>       0.20000000       0.00000000       0.50000000 </v>
   <v>       0.30000000       0.00000000       0.50000000 </v>
   <v>       0.40000000       0.00000000       0.50000000 </v>
   <v>       0.50000000       0.00000000       0.50000000 </v>
   <v>       0.10000000       0.10000000       0.50000000 </v>
   <v>       0.20000000       0.10000000       0.50000000 </v>
   <v>       0.30000000       0.10000000       0.50000000 </v>
   <v>       0.40000000       0.10000000       0.50000000 </v>
   <v>       0.20000000       0.20000000       0.50000000 </v>
   <v>       0.30000000       0.20000000       0.50000000 </v>
   <v>       0.40000000       0.20000000       0.50000000 </v>
   <v>       0.30000000       0.30000000       0.50000000 </v>
  </varray>
  <varray name="weights" >
   <v>       0.00125000 </v>
   <v>       0.00750000 </v>
   <v>       0.00750000 </v>
   <v>       0.00750000 </v>
   <v>       0.00750000 </v>
   <v>       0.00375000 </v>
   <v>       0.00750000 </v>
   <v>       0.01500000 </v>
   <v>       0.01500000 </v>
   <v>       0.01500000 </v>
   <v>       0.00750000 </v>
   <v>       0.01500000 </v>
   <v>       0.00750000 </v>
   <v>       0.00750000 </v>
   <v>       0.00250000 </v>
   <v>       0.01500000 </v>
   <v>       0.01500000 </v>
   <v>       0.01500000 </v>
   <v>       0.01500000 </v>
   <v>       0.00750000 </v>
   <v>       0.01500000 </v>
   <v>       0.03000000 </v>
   <v>       0.03000000 </v>
   <v>       0.03000000 </v>
   <v>       0.01500000 </v>
   <v>       0.03000000 </v>
   <v>       0.01500000 </v>
   <v>       0.01500000 </v>
   <v>       0.00250000 </v>
   <v>       0.01500000 </v>
   <v>       0.01500000 </v>
   <v>       0.01500000 </v>
   <v>       0.01500000 </v>
   <v>       0.00750000 </v>
   <v>       0.01500000 </v>
   <v>       0.03000000 </v>
   <v>       0.03000000 </v>
   <v>       0.03000000 </v>
   <v>       0.01500000 </v>
   <v>       0.03000000 </v>
   <v>       0.01500000 </v>
   <v>       0.01500000 </v>
   <v>       0.00250000 </v>
   <v>       0.01500000 </v>
   <v>       0.01500000 </v>
   <v>       0.01500000 </v>
   <v>       0.01500000 </v>
   <v>       0.00750000 </v>
   <v>       0.01500000 </v>
   <v>       0.03000000 </v>
   <v>       0.03000000 </v>
   <v>       0.03000000 </v>
   <v>       0.01500000 </v>
   <v>       0.03000000 </v>
   <v>       0.01500000 </v>
   <v>       0.01500000 </v>
   <v>       0.00125000 </v>
   <v>       0.00750000 </v>
   <v>       0.00750000 </v>
   <v>       0.00750000 </v>
   <v>       0.00750000 </v>
   <v>       0.00375000 </v>
   <v>       0.00750000 </v>
   <v>       0.01500000 </v>
   <v>       0.01500000 </v>
   <v>       0.01500000 </v>
   <v>       0.00750000 </v>
   <v>       0.01500000 </v>
   <v>       0.00750000 </v>
   <v>       0.00750000 </v>
  </varray>
 </kpoints>
 <parameters>
  <separator name="general" >
   <i type="string" name="SYSTEM">Pt-hcc</i>
   <i type="logical" name="LCOMPAT"> F  </i>
  </separator>
  <separator name="electronic" >
   <i type="string" name="PREC">accura</i>
   <i name="ENMAX">    450.00000000</i>
   <i name="ENAUG">    527.01400000</i>
   <i name="EDIFF">      0.00000100</i>
   <i type="int" name="IALGO">    38</i>
   <i type="int" name="IWAVPR">    11</i>
   <i type="int" name="NBANDS">    24</i>
   <i type="int" name="NBANDSLOW">    -1</i>
   <i type="int" name="NBANDSHIGH">    -1</i>
   <i name="NELECT">     32.00000000</i>
   <i type="int" name="TURBO">     0</i>
   <i type="int" name="IRESTART">     0</i>
   <i type="int" name="NREBOOT">     0</i>
   <i type="int" name="NMIN">     0</i>
   <i name="EREF">      0.00000000</i>
   <separator name="electronic smearing" >
    <i type="int" name="ISMEAR">     0</i>
    <i name="SIGMA">      0.05000000</i>
    <i name="KSPACING">      0.50000000</i>
    <i type="logical" name="KGAMMA"> T  </i>
    <i type="logical" name="KBLOWUP"> T  </i>
   </separator>
   <separator name="electronic projectors" >
    <i type="logical" name="LREAL"> F  </i>
    <v name="ROPT">      0.00000000</v>
    <i type="int" name="LMAXPAW">  -100</i>
    <i type="int" name="LMAXMIX">     2</i>
    <i type="logical" name="NLSPLINE"> F  </i>
   </separator>
   <separator name="electronic startup" >
    <i type="int" name="ISTART">     0</i>
    <i type="int" name="ICHARG">     2</i>
    <i type="int" name="INIWAV">     1</i>
   </separator>
   <separator name="electronic spin" >
    <i type="int" name="ISPIN">     1</i>
    <i type="logical" name="LNONCOLLINEAR"> F  </i>
    <v name="MAGMOM">      1.00000000      1.00000000</v>
    <i name="NUPDOWN">     -1.00000000</i>
    <i type="logical" name="LSORBIT"> F  </i>
    <v name="SAXIS">      0.00000000      0.00000000      1.00000000</v>
    <i type="logical" name="LSPIRAL"> F  </i>
    <v name="QSPIRAL">      0.00000000      0.00000000      0.00000000</v>
    <i type="logical" name="LZEROZ"> F  </i>
   </separator>
   <separator name="electronic exchange-correlation" >
    <i type="logical" name="LASPH"> F  </i>
    <i type="logical" name="LMETAGGA"> F  </i>
   </separator>
   <separator name="electronic convergence" >
    <i type="int" name="NELM">   100</i>
    <i type="int" name="NELMDL">    -5</i>
    <i type="int" name="NELMIN">     2</i>
    <i name="ENINI">    450.00000000</i>
    <separator name="electronic convergence detail" >
     <i type="logical" name="LDIAG"> T  </i>
     <i type="logical" name="LSUBROT"> F  </i>
     <i name="WEIMIN">      0.00100000</i>
     <i name="EBREAK">      0.00000001</i>
     <i name="DEPER">      0.30000000</i>
     <i type="int" name="NRMM">     4</i>
     <i name="TIME">      0.40000000</i>
    </separator>
   </separator>
   <separator name="electronic mixer" >
    <i name="AMIX">      0.40000000</i>
    <i name="BMIX">      1.00000000</i>
    <i name="AMIN">      0.10000000</i>
    <i name="AMIX_MAG">      1.60000000</i>
    <i name="BMIX_MAG">      1.00000000</i>
    <separator name="electronic mixer details" >
     <i type="int" name="IMIX">     4</i>
     <i type="logical" name="MIXFIRST"> F  </i>
     <i type="int" name="MAXMIX">   -45</i>
     <i name="WC">    100.00000000</i>
     <i type="int" name="INIMIX">     1</i>
     <i type="int" name="MIXPRE">     1</i>
     <i type="int" name="MREMOVE">     5</i>
    </separator>
   </separator>
   <separator name="electronic dipolcorrection" >
    <i type="logical" name="LDIPOL"> F  </i>
    <i type="logical" name="LMONO"> F  </i>
    <i type="int" name="IDIPOL">     0</i>
    <i name="EPSILON">      1.00000000</i>
    <v name="DIPOL">   -100.00000000   -100.00000000   -100.00000000</v>
    <i name="EFIELD">      0.00000000</i>
   </separator>
  </separator>
  <separator name="grids" >
   <i type="int" name="NGX">    20</i>
   <i type="int" name="NGY">    20</i>
   <i type="int" name="NGZ">    36</i>
   <i type="int" name="NGXF">    40</i>
   <i type="int" name="NGYF">    40</i>
   <i type="int" name="NGZF">    72</i>
   <i type="logical" name="ADDGRID"> F  </i>
  </separator>
  <separator name="ionic" >
   <i type="int" name="NSW">   100</i>
   <i type="int" name="IBRION">     2</i>
   <i type="int" name="MDALGO">     0</i>
   <i type="int" name="ISIF">     2</i>
   <i name="PSTRESS">      0.00000000</i>
   <i name="EDIFFG">     -0.02000000</i>
   <i type="int" name="NFREE">     1</i>
   <i name="POTIM">      0.50000000</i>
   <i name="SMASS">     -3.00000000</i>
   <i name="SCALEE">      1.00000000</i>
  </separator>
  <separator name="ionic md" >
   <i name="TEBEG">      0.00010000</i>
   <i name="TEEND">      0.00010000</i>
   <i type="int" name="NBLOCK">     1</i>
   <i type="int" name="KBLOCK">   100</i>
   <i type="int" name="NPACO">   256</i>
   <i name="APACO">     10.00000000</i>
  </separator>
  <separator name="symmetry" >
   <i type="int" name="ISYM">     1</i>
   <i name="SYMPREC">      0.00001000</i>
  </separator>
  <separator name="dos" >
   <i type="int" name="LORBIT">    11</i>
   <v name="RWIGS">     -1.00000000</v>
   <i type="int" name="NEDOS">   301</i>
   <i name="EMIN">     10.00000000</i>
   <i name="EMAX">    -10.00000000</i>
   <i name="EFERMI">      0.00000000</i>
  </separator>
  <separator name="writing" >
   <i type="int" name="NWRITE">     2</i>
   <i type="logical" name="LWAVE"> T  </i>
   <i type="logical" name="LDOWNSAMPLE"> F  </i>
   <i type="logical" name="LCHARG"> T  </i>
   <i type="logical" name="LPARD"> F  </i>
   <i type="logical" name="LVTOT"> F  </i>
   <i type="logical" name="LVHAR"> F  </i>
   <i type="logical" name="LELF"> F  </i>
   <i type="logical" name="LOPTICS"> F  </i>
   <v name="STM">      0.00000000      0.00000000      0.00000000      0.00000000      0.00000000      0.00000000      0.00000000</v>
  </separator>
  <separator name="performance" >
   <i type="int" name="NPAR">    24</i>
   <i type="int" name="NSIM">     4</i>
   <i type="int" name="NBLK">    -1</i>
   <i type="logical" name="LPLANE"> T  </i>
   <i type="logical" name="LSCALAPACK"> T  </i>
   <i type="logical" name="LSCAAWARE"> F  </i>
   <i type="logical" name="LSCALU"> F  </i>
   <i type="logical" name="LASYNC"> F  </i>
   <i type="logical" name="LORBITALREAL"> F  </i>
  </separator>
  <separator name="miscellaneous" >
   <i type="int" name="IDIOT">     3</i>
   <i type="int" name="PHON_NSTRUCT">    -1</i>
   <i type="logical" name="LMUSIC"> F  </i>
   <v name="POMASS">    195.08000000</v>
   <v name="DARWINR">      0.00000000</v>
   <v name="DARWINV">      1.00000000</v>
   <i type="logical" name="LCORR"> T  </i>
  </separator>
  <i type="logical" name="GGA_COMPAT"> T  </i>
  <i type="logical" name="LBERRY"> F  </i>
  <i type="int" name="ICORELEVEL">     0</i>
  <i type="logical" name="LDAU"> F  </i>
  <i type="int" name="I_CONSTRAINED_M">     0</i>
  <separator name="electronic exchange-correlation" >
   <i type="string" name="GGA">--</i>
   <i type="int" name="VOSKOWN">     0</i>
   <i type="logical" name="LHFCALC"> F  </i>
   <i type="string" name="PRECFOCK"></i>
   <i type="logical" name="LSYMGRAD"> F  </i>
   <i type="logical" name="LHFONE"> F  </i>
   <i type="logical" name="LRHFCALC"> F  </i>
   <i type="logical" name="LTHOMAS"> F  </i>
   <i type="logical" name="LMODELHF"> F  </i>
   <i type="logical" name="LFOCKACE"> F  </i>
   <i name="ENCUT4O">     -1.00000000</i>
   <i type="int" name="EXXOEP">     0</i>
   <i type="int" name="FOURORBIT">     0</i>
   <i name="AEXX">      0.00000000</i>
   <i name="HFALPHA">      0.00000000</i>
   <i name="MCALPHA">      0.00000000</i>
   <i name="ALDAX">      1.00000000</i>
   <i name="AGGAX">      1.00000000</i>
   <i name="ALDAC">      1.00000000</i>
   <i name="AGGAC">      1.00000000</i>
   <i type="int" name="NKREDX">     1</i>
   <i type="int" name="NKREDY">     1</i>
   <i type="int" name="NKREDZ">     1</i>
   <i type="logical" name="SHIFTRED"> F  </i>
   <i type="logical" name="ODDONLY"> F  </i>
   <i type="logical" name="EVENONLY"> F  </i>
   <i type="int" name="LMAXFOCK">     0</i>
   <i type="int" name="NMAXFOCKAE">     0</i>
   <i type="logical" name="LFOCKAEDFT"> F  </i>
   <i name="HFSCREEN">      0.00000000</i>
   <i name="HFSCREENC">      0.00000000</i>
   <i type="int" name="NBANDSGWLOW">     0</i>
  </separator>
  <separator name="vdW DFT" >
   <i type="logical" name="LUSE_VDW"> F  </i>
   <i name="Zab_VDW">     -0.84910000</i>
   <i name="PARAM1">      0.12340000</i>
   <i name="PARAM2">      1.00000000</i>
   <i name="PARAM3">      0.00000000</i>
  </separator>
  <separator name="model GW" >
   <i type="int" name="MODEL_GW">     0</i>
   <i name="MODEL_EPS0">     10.56391130</i>
   <i name="MODEL_ALPHA">      1.00000000</i>
  </separator>
  <separator name="linear response parameters" >
   <i type="logical" name="LEPSILON"> F  </i>
   <i type="logical" name="LRPA"> F  </i>
   <i type="logical" name="LNABLA"> F  </i>
   <i type="logical" name="LVEL"> F  </i>
   <i name="CSHIFT">      0.10000000</i>
   <i name="OMEGAMAX">     -1.00000000</i>
   <i name="DEG_THRESHOLD">      0.00200000</i>
   <i name="RTIME">     -0.10000000</i>
   <i name="WPLASMAI">      0.00000000</i>
   <v name="DFIELD">      0.00000000      0.00000000      0.00000000</v>
   <v name="WPLASMA">      0.00000000      0.00000000      0.00000000      0.00000000      0.00000000      0.00000000      0.00000000      0.00000000      0.00000000</v>
  </separator>
  <separator name="orbital magnetization" >
   <i type="logical" name="NUCIND"> F  </i>
   <v name="MAGPOS">      0.00000000      0.00000000      0.00000000</v>
   <i type="logical" name="LNICSALL"> T  </i>
   <i type="logical" name="ORBITALMAG"> F  </i>
   <i type="logical" name="LMAGBLOCH"> F  </i>
   <i type="logical" name="LCHIMAG"> F  </i>
   <i type="logical" name="LGAUGE"> T  </i>
   <i type="int" name="MAGATOM">     0</i>
   <v name="MAGDIPOL">      0.00000000      0.00000000      0.00000000</v>
   <v name="AVECCONST">      0.00000000      0.00000000      0.00000000</v>
  </separator>
  <separator name="response functions" >
   <i type="logical" name="LFINITE_TEMPERATURE"> F  </i>
   <i type="logical" name="LADDER"> F  </i>
   <i type="logical" name="LRPAFORCE"> F  </i>
   <i type="logical" name="LFXC"> F  </i>
   <i type="logical" name="LHARTREE"> T  </i>
   <i type="int" name="IBSE">     0</i>
   <v type="int" name="KPOINT">    -1     0     0     0</v>
   <i type="logical" name="LTCTC"> F  </i>
   <i type="logical" name="LTCTE"> F  </i>
   <i type="logical" name="LTETE"> F  </i>
   <i type="logical" name="LTRIPLET"> F  </i>
   <i type="logical" name="LFXCEPS"> F  </i>
   <i type="logical" name="LFXHEG"> F  </i>
   <i type="int" name="NATURALO">     2</i>
   <i type="logical" name="LHOLEGF"> F  </i>
   <i type="logical" name="L2ORDER"> F  </i>
   <i type="logical" name="LDMP1"> F  </i>
   <i type="logical" name="LMP2LT"> F  </i>
   <i type="logical" name="LSMP2LT"> F  </i>
   <i type="logical" name="LGWLF"> F  </i>
   <i name="ENCUTGW">     -2.00000000</i>
   <i name="ENCUTGWSOFT">     -2.00000000</i>
   <i name="ENCUTLF">     -1.00000000</i>
   <i type="logical" name="LESF_SPLINES"> F  </i>
   <i type="int" name="LMAXMP2">    -1</i>
   <i name="SCISSOR">      0.00000000</i>
   <i type="int" name="NOMEGA">     0</i>
   <i type="int" name="NOMEGAR">     0</i>
   <i type="int" name="NBANDSGW">    -1</i>
   <i type="int" name="NBANDSO">    -1</i>
   <i type="int" name="NBANDSV">    -1</i>
   <i type="int" name="NELMGW">     1</i>
   <i type="int" name="NELMHF">     1</i>
   <i type="int" name="DIM">     3</i>
   <i type="int" name="IESPILON">     4</i>
   <i type="int" name="ANTIRES">     0</i>
   <i name="OMEGAMAX">    -30.00000000</i>
   <i name="OMEGAMIN">    -30.00000000</i>
   <i name="OMEGATL">   -200.00000000</i>
   <i type="int" name="OMEGAGRID">     0</i>
   <i name="CSHIFT">     -0.10000000</i>
   <i type="logical" name="LSELFENERGY"> F  </i>
   <i type="logical" name="LSPECTRAL"> F  </i>
   <i type="logical" name="LSPECTRALGW"> F  </i>
   <i type="logical" name="LSINGLES"> F  </i>
   <i type="logical" name="LFERMIGW"> F  </i>
   <i type="logical" name="ODDONLYGW"> F  </i>
   <i type="logical" name="EVENONLYGW"> F  </i>
   <i type="int" name="NKREDLFX">     1</i>
   <i type="int" name="NKREDLFY">     1</i>
   <i type="int" name="NKREDLFZ">     1</i>
   <i type="int" name="MAXMEM">  2800</i>
   <i type="int" name="TELESCOPE">     0</i>
   <i type="int" name="NTAUPAR">    -1</i>
   <i type="int" name="NOMEGAPAR">    -1</i>
   <i name="DAMP_NEWTON">      0.80000001</i>
   <i name="LAMBDA">      1.00000000</i>
  </separator>
  <separator name="External order field" >
   <i name="OFIELD_KAPPA">      0.00000000</i>
   <v name="OFIELD_K">      0.00000000      0.00000000      0.00000000</v>
   <i name="OFIELD_Q6_NEAR">      0.00000000</i>
   <i name="OFIELD_Q6_FAR">      0.00000000</i>
   <i name="OFIELD_A">      0.00000000</i>
  </separator>
  <separator name="optional k-points parameters" >
   <i type="int" name="KPOINTS_OPT_MODE">     1</i>
   <i type="logical" name="LKPOINTS_OPT"> F  </i>
  </separator>
 </parameters>
 <atominfo>
  <atoms>       2 </atoms>
  <types>       1 </types>
  <array name="atoms" >
   <dimension dim="1">ion</dimension>
   <field type="string">element</field>
   <field type="int">atomtype</field>
   <set>
    <rc><c>Pt</c><c>   1</c></rc>
    <rc><c>Pt</c><c>   1</c></rc>
   </set>
  </array>
  <array name="atomtypes" >
   <dimension dim="1">type</dimension>
   <field type="int">atomspertype</field>
   <field type="string">element</field>
   <field>mass</field>
   <field>valence</field>
   <field type="string">pseudopotential</field>
   <set>
    <rc><c>   2</c><c>Pt</c><c>    195.08000000</c><c>     16.00000000</c><c>  PAW_PBE Pt_pv 12Dec2005               </c></rc>
   </set>
  </array>
 </atominfo>
 <structure name="initialpos" >
  <crystal>
   <varray name="basis" >
    <v>       2.86309101       0.00000000       0.00000000 </v>
    <v>      -1.43154550       2.47950955       0.00000000 </v>
    <v>       0.00000000       0.00000000       4.96023845 </v>
   </varray>
   <i name="volume">     35.21303768 </i>
   <varray name="rec_basis" >
    <v>       0.34927287       0.20165278       0.00000000 </v>
    <v>       0.00000000       0.40330557       0.00000000 </v>
    <v>       0.00000000       0.00000000       0.20160321 </v>
   </varray>
  </crystal>
  <varray name="positions" >
   <v>       0.00000000       0.00000000       0.00000000 </v>
   <v>       0.33333333       0.66666667       0.50000000 </v>
  </varray>
 </structure>
 <calculation>
  <scstep>
   <time name="dav">    0.32    0.32</time>
   <time name="total">    0.32    0.33</time>
   <energy>
    <i name="alphaZ">    272.54888735 </i>
    <i name="ewald">  -4090.50876976 </i>
    <i name="hartreedc">   -892.20863005 </i>
    <i name="XCdc">    126.35009568 </i>
    <i name="pawpsdc">   4131.50523274 </i>
    <i name="pawaedc">  -4061.67189606 </i>
    <i name="eentropy">     -0.00053309 </i>
    <i name="bandstr">   -197.28513775 </i>
    <i name="atom">   4856.42966544 </i>
    <i name="e_fr_energy">    145.15891452 </i>
    <i name="e_wo_entrp">    145.15944760 </i>
    <i name="e_0_energy">    145.15918106 </i>
   </energy>
  </scstep>
  <scstep>
   <time name="dav">    0.35    0.35</time>
   <time name="total">    0.35    0.35</time>
   <energy>
    <i name="e_fr_energy">    -10.84240748 </i>
    <i name="e_wo_entrp">    -10.83806937 </i>
    <i name="e_0_energy">    -10.84023843 </i>
   </energy>
  </scstep>
  <scstep>
   <time name="dav">    0.44    0.44</time>
   <time name="total">    0.44    0.44</time>
   <energy>
    <i name="e_fr_energy">    -12.49935842 </i>
    <i name="e_wo_entrp">    -12.49409961 </i>
    <i name="e_0_energy">    -12.49672901 </i>
   </energy>
  </scstep>
  <scstep>
   <time name="dav">    0.65    0.65</time>
   <time name="total">    0.65    0.65</time>
   <energy>
    <i name="e_fr_energy">    -12.50537343 </i>
    <i name="e_wo_entrp">    -12.50013000 </i>
    <i name="e_0_energy">    -12.50275171 </i>
   </energy>
  </scstep>
  <scstep>
   <time name="dav">    0.45    0.46</time>
   <time name="total">    0.48    0.48</time>
   <energy>
    <i name="e_fr_energy">    -12.50537447 </i>
    <i name="e_wo_entrp">    -12.50013103 </i>
    <i name="e_0_energy">    -12.50275275 </i>
   </energy>
  </scstep>
  <scstep>
   <time name="dav">    0.34    0.35</time>
   <time name="total">    0.37    0.38</time>
   <energy>
    <i name="e_fr_energy">    -11.80768035 </i>
    <i name="e_wo_entrp">    -11.80207825 </i>
    <i name="e_0_energy">    -11.80487930 </i>
   </energy>
  </scstep>
  <scstep>
   <time name="dav">    0.50    0.50</time>
   <time name="total">    0.53    0.53</time>
   <energy>
    <i name="e_fr_energy">    -11.78535929 </i>
    <i name="e_wo_entrp">    -11.77917373 </i>
    <i name="e_0_energy">    -11.78226651 </i>
   </energy>
  </scstep>
  <scstep>
   <time name="dav">    0.37    0.37</time>
   <time name="total">    0.40    0.40</time>
   <energy>
    <i name="e_fr_energy">    -11.78370593 </i>
    <i name="e_wo_entrp">    -11.77742081 </i>
    <i name="e_0_energy">    -11.78056337 </i>
   </energy>
  </scstep>
  <scstep>
   <time name="dav">    0.52    0.52</time>
   <time name="total">    0.55    0.55</time>
   <energy>
    <i name="e_fr_energy">    -11.78364685 </i>
    <i name="e_wo_entrp">    -11.77738851 </i>
    <i name="e_0_energy">    -11.78051768 </i>
   </energy>
  </scstep>
  <scstep>
   <time name="dav">    0.40    0.40</time>
   <time name="total">    0.43    0.43</time>
   <energy>
    <i name="e_fr_energy">    -11.78366543 </i>
    <i name="e_wo_entrp">    -11.77741310 </i>
    <i name="e_0_energy">    -11.78053927 </i>
   </energy>
  </scstep>
  <scstep>
   <time name="dav">    0.40    0.40</time>
   <time name="total">    0.40    0.40</time>
   <energy>
    <i name="alphaZ">    272.54888735 </i>
    <i name="ewald">  -4090.50876976 </i>
    <i name="hartreedc">   -853.02384788 </i>
    <i name="XCdc">    124.64568293 </i>
    <i name="pawpsdc">   4387.34836344 </i>
    <i name="pawaedc">  -4321.53678316 </i>
    <i name="eentropy">     -0.00625356 </i>
    <i name="bandstr">   -387.68061014 </i>
    <i name="atom">   4856.42966544 </i>
    <i name="e_fr_energy">    -11.78366533 </i>
    <i name="e_wo_entrp">    -11.77741177 </i>
    <i name="e_0_energy">    -11.78053855 </i>
   </energy>
  </scstep>
  <structure>
   <crystal>
    <varray name="basis" >
     <v>       2.86309101       0.00000000       0.00000000 </v>
     <v>      -1.43154550       2.47950955       0.00000000 </v>
     <v>       0.00000000       0.00000000       4.96023845 </v>
    </varray>
    <i name="volume">     35.21303768 </i>
    <varray name="rec_basis" >
     <v>       0.34927287       0.20165278       0.00000000 </v>
     <v>       0.00000000       0.40330557       0.00000000 </v>
     <v>       0.00000000       0.00000000       0.20160321 </v>
    </varray>
   </crystal>
   <varray name="positions" >
    <v>       0.00000000       0.00000000       0.00000000 </v>
    <v>       0.33333333       0.66666667       0.50000000 </v>
   </varray>
  </structure>
  <varray name="forces" >
   <v>      -0.00000000       0.00000000       0.00000000 </v>
   <v>       0.00000000      -0.00000000       0.00000000 </v>
  </varray>
  <varray name="stress" >
   <v>    -225.83004503      -0.00000000       0.00000000 </v>
   <v>       0.00000000    -225.83004503       0.00000000 </v>
   <v>       0.00000000       0.00000000    -197.45728950 </v>
  </varray>
  <energy>
   <i name="e_fr_energy">    -11.78366533 </i>
   <i name="e_wo_entrp">    -11.77741177 </i>
   <i name="e_0_energy">    -11.78053855 </i>
  </energy>
  <time name="totalsc">    5.31    5.41</time>
  <eigenvalues>
   <array>
    <dimension dim="1">band</dimension>
    <dimension dim="2">kpoint</dimension>
    <dimension dim="3">spin</dimension>
    <field>eigene</field>
    <field>occ</field>
    <set>
     <set comment="spin 1">
      <set comment="kpoint 1">
       <r>  -42.9805    1.0000 </r>
       <r>  -42.9158    1.0000 </r>
       <r>  -42.9158    1.0000 </r>
       <r>  -42.8885    1.0000 </r>
       <r>  -42.8885    1.0000 </r>
       <r>  -42.7645    1.0000 </r>
       <r>    0.6048    1.0000 </r>
       <r>    3.1456    1.0000 </r>
       <r>    5.9331    1.0000 </r>
       <r>    6.3449    1.0000 </r>
       <r>    6.3449    1.0000 </r>
       <r>    6.6474    1.0000 </r>
       <r>    6.6474    1.0000 </r>
       <r>    7.7122    1.0000 </r>
       <r>    7.7122    1.0000 </r>
       <r>    8.9811    1.0000 </r>
       <r>    9.0318    1.0000 </r>
       <r>    9.0318    1.0000 </r>
       <r>   13.2546    0.0000 </r>
       <r>   24.3955    0.0000 </r>
       <r>   24.8535    0.0000 </r>
       <r>   26.3717    0.0000 </r>
       <r>   29.0460    0.0000 </r>
       <r>   29.0460    0.0000 </r>
      </set>
      <set comment="kpoint 2">
       <r>  -42.9727    1.0000 </r>
       <r>  -42.9394    1.0000 </r>
       <r>  -42.9226    1.0000 </r>
       <r>  -42.9124    1.0000 </r>
       <r>  -42.8933    1.0000 </r>
       <r>  -42.7661    1.0000 </r>
       <r>    0.9301    1.0000 </r>
       <r>    3.4360    1.0000 </r>
       <r>    5.8755    1.0000 </r>
       <r>    6.3599    1.0000 </r>
       <r>    6.5283    1.0000 </r>
       <r>    6.5786    1.0000 </r>
       <r>    6.8692    1.0000 </r>
       <r>    7.2859    1.0000 </r>
       <r>    7.5737    1.0000 </r>
       <r>    7.7626    1.0000 </r>
       <r>    9.0805    0.9995 </r>
       <r>   10.7755    0.0000 </r>
       <r>   13.2334    0.0000 </r>
       <r>   24.6091    0.0000 </r>
       <r>   25.3268    0.0000 </r>
       <r>   26.3101    0.0000 </r>
       <r>   27.6199    0.0000 </r>
       <r>   27.8463    0.0000 </r>
      </set>
      <set comment="kpoint 3">
       <r>  -43.0011    1.0000 </r>
       <r>  -42.9760    1.0000 </r>
       <r>  -42.9518    1.0000 </r>
       <r>  -42.9405    1.0000 </r>
       <r>  -42.9069    1.0000 </r>
       <r>  -42.7722    1.0000 </r>
       <r>    1.8267    1.0000 </r>
       <r>    4.0869    1.0000 </r>
       <r>    5.6844    1.0000 </r>
       <r>    6.1230    1.0000 </r>
       <r>    6.1355    1.0000 </r>
       <r>    6.8840    1.0000 </r>
       <r>    7.2376    1.0000 </r>
       <r>    7.2632    1.0000 </r>
       <r>    7.3028    1.0000 </r>
       <r>    7.4884    1.0000 </r>
       <r>    9.1585    0.8633 </r>
       <r>   12.7389    0.0000 </r>
       <r>   13.2138    0.0000 </r>
       <r>   22.3606    0.0000 </r>
       <r>   25.3551    0.0000 </r>
       <r>   25.9052    0.0000 </r>
       <r>   26.6644    0.0000 </r>
       <r>   26.9425    0.0000 </r>
      </set>
      <set comment="kpoint 4">
       <r>  -43.0784    1.0000 </r>
       <r>  -43.0523    1.0000 </r>
       <r>  -42.9621    1.0000 </r>
       <r>  -42.9239    1.0000 </r>
       <r>  -42.9224    1.0000 </r>
       <r>  -42.7838    1.0000 </r>
       <r>    2.9600    1.0000 </r>
       <r>    4.2399    1.0000 </r>
       <r>    5.2318    1.0000 </r>
       <r>    5.9098    1.0000 </r>
       <r>    6.2018    1.0000 </r>
       <r>    6.8756    1.0000 </r>
       <r>    6.9391    1.0000 </r>
       <r>    7.8502    1.0000 </r>
       <r>    8.1738    1.0000 </r>
       <r>    8.3582    1.0000 </r>
       <r>    9.2014    0.4532 </r>
       <r>   13.4091    0.0000 </r>
       <r>   14.7724    0.0000 </r>
       <r>   18.7063    0.0000 </r>
       <r>   23.1795    0.0000 </r>
       <r>   24.2628    0.0000 </r>
       <r>   24.7168    0.0000 </r>
       <r>   26.4961    0.0000 </r>
      </set>
      <set comment="kpoint 5">
       <r>  -43.1403    1.0000 </r>
       <r>  -43.1134    1.0000 </r>
       <r>  -42.9789    1.0000 </r>
       <r>  -42.9373    1.0000 </r>
       <r>  -42.8924    1.0000 </r>
       <r>  -42.7983    1.0000 </r>
       <r>    3.6404    1.0000 </r>
       <r>    3.9753    1.0000 </r>
       <r>    4.6754    1.0000 </r>
       <r>    6.3501    1.0000 </r>
       <r>    6.5616    1.0000 </r>
       <r>    6.7071    1.0000 </r>
       <r>    6.9128    1.0000 </r>
       <r>    9.0591    1.0000 </r>
       <r>    9.2029    0.4370 </r>
       <r>    9.2115    0.3431 </r>
       <r>    9.4521    0.0000 </r>
       <r>   14.3183    0.0000 </r>
       <r>   15.2043    0.0000 </r>
       <r>   16.6370    0.0000 </r>
       <r>   20.5331    0.0000 </r>
       <r>   21.4874    0.0000 </r>
       <r>   22.7334    0.0000 </r>
       <r>   25.3063    0.0000 </r>
      </set>
      <set comment="kpoint 6">
       <r>  -43.1644    1.0000 </r>
       <r>  -43.1359    1.0000 </r>
       <r>  -42.9855    1.0000 </r>
       <r>  -42.9429    1.0000 </r>
       <r>  -42.8773    1.0000 </r>
       <r>  -42.8076    1.0000 </r>
       <r>    3.8081    1.0000 </r>
       <r>    3.8100    1.0000 </r>
       <r>    4.4884    1.0000 </r>
       <r>    6.4470    1.0000 </r>
       <r>    6.6235    1.0000 </r>
       <r>    6.7837    1.0000 </r>
       <r>    7.1209    1.0000 </r>
       <r>    9.2109    0.3498 </r>
       <r>    9.4246    0.0000 </r>
       <r>    9.5903    0.0000 </r>
       <r>   11.2953    0.0000 </r>
       <r>   12.5759    0.0000 </r>
       <r>   15.9763    0.0000 </r>
       <r>   17.5789    0.0000 </r>
       <r>   17.7562    0.0000 </r>
       <r>   20.8139    0.0000 </r>
       <r>   21.9396    0.0000 </r>
       <r>   24.8391    0.0000 </r>
      </set>
      <set comment="kpoint 7">
       <r>  -42.9785    1.0000 </r>
       <r>  -42.9611    1.0000 </r>
       <r>  -42.9585    1.0000 </r>
       <r>  -42.9314    1.0000 </r>
       <r>  -42.9062    1.0000 </r>
       <r>  -42.7704    1.0000 </r>
       <r>    1.5476    1.0000 </r>
       <r>    3.9457    1.0000 </r>
       <r>    5.6524    1.0000 </r>
       <r>    6.2835    1.0000 </r>
       <r>    6.4834    1.0000 </r>
       <r>    6.5498    1.0000 </r>
       <r>    7.0709    1.0000 </r>
       <r>    7.1031    1.0000 </r>
       <r>    7.3628    1.0000 </r>
       <r>    7.6446    1.0000 </r>
       <r>    9.0976    0.9976 </r>
       <r>   12.2144    0.0000 </r>
       <r>   13.2146    0.0000 </r>
       <r>   24.0270    0.0000 </r>
       <r>   24.2307    0.0000 </r>
       <r>   26.1491    0.0000 </r>
       <r>   27.0200    0.0000 </r>
       <r>   27.4642    0.0000 </r>
      </set>
      <set comment="kpoint 8">
       <r>  -43.0429    1.0000 </r>
       <r>  -43.0256    1.0000 </r>
       <r>  -42.9562    1.0000 </r>
       <r>  -42.9331    1.0000 </r>
       <r>  -42.9262    1.0000 </r>
       <r>  -42.7792    1.0000 </r>
       <r>    2.6230    1.0000 </r>
       <r>    4.5129    1.0000 </r>
       <r>    5.5007    1.0000 </r>
       <r>    5.5821    1.0000 </r>
       <r>    6.0551    1.0000 </r>
       <r>    6.6972    1.0000 </r>
       <r>    7.0618    1.0000 </r>
       <r>    7.3379    1.0000 </r>
       <r>    7.9571    1.0000 </r>
       <r>    8.2860    1.0000 </r>
       <r>    9.0977    0.9976 </r>
       <r>   13.3175    0.0000 </r>
       <r>   14.1112    0.0000 </r>
       <r>   20.5524    0.0000 </r>
       <r>   22.4824    0.0000 </r>
       <r>   25.2208    0.0000 </r>
       <r>   26.8607    0.0000 </r>
       <r>   26.8786    0.0000 </r>
      </set>
      <set comment="kpoint 9">
       <r>  -43.1097    1.0000 </r>
       <r>  -43.0869    1.0000 </r>
       <r>  -42.9820    1.0000 </r>
       <r>  -42.9453    1.0000 </r>
       <r>  -42.9028    1.0000 </r>
       <r>  -42.7928    1.0000 </r>
       <r>    3.6417    1.0000 </r>
       <r>    4.3345    1.0000 </r>
       <r>    4.9231    1.0000 </r>
       <r>    5.9207    1.0000 </r>
       <r>    6.4375    1.0000 </r>
       <r>    6.4505    1.0000 </r>
       <r>    6.9301    1.0000 </r>
       <r>    7.9800    1.0000 </r>
       <r>    8.8520    1.0000 </r>
       <r>    9.0870    0.9991 </r>
       <r>    9.4845    0.0000 </r>
       <r>   13.9505    0.0000 </r>
       <r>   16.0907    0.0000 </r>
       <r>   16.9084    0.0000 </r>
       <r>   20.5304    0.0000 </r>
       <r>   23.1837    0.0000 </r>
       <r>   23.6571    0.0000 </r>
       <r>   25.6072    0.0000 </r>
      </set>
      <set comment="kpoint 10">
       <r>  -43.1514    1.0000 </r>
       <r>  -43.1240    1.0000 </r>
       <r>  -42.9977    1.0000 </r>
       <r>  -42.9569    1.0000 </r>
       <r>  -42.8777    1.0000 </r>
       <r>  -42.8074    1.0000 </r>
       <r>    3.9985    1.0000 </r>
       <r>    4.0951    1.0000 </r>
       <r>    4.5829    1.0000 </r>
       <r>    6.4046    1.0000 </r>
       <r>    6.5936    1.0000 </r>
       <r>    6.6024    1.0000 </r>
       <r>    6.8755    1.0000 </r>
       <r>    8.9969    1.0000 </r>
       <r>    9.0734    0.9998 </r>
       <r>    9.3001    0.0018 </r>
       <r>   11.0082    0.0000 </r>
       <r>   13.7060    0.0000 </r>
       <r>   15.5838    0.0000 </r>
       <r>   17.6995    0.0000 </r>
       <r>   18.3140    0.0000 </r>
       <r>   20.6240    0.0000 </r>
       <r>   22.3482    0.0000 </r>
       <r>   24.7236    0.0000 </r>
      </set>
      <set comment="kpoint 11">
       <r>  -43.0808    1.0000 </r>
       <r>  -43.0805    1.0000 </r>
       <r>  -42.9859    1.0000 </r>
       <r>  -42.9596    1.0000 </r>
       <r>  -42.9065    1.0000 </r>
       <r>  -42.7908    1.0000 </r>
       <r>    3.7425    1.0000 </r>
       <r>    5.0497    1.0000 </r>
       <r>    5.0958    1.0000 </r>
       <r>    5.1221    1.0000 </r>
       <r>    6.2329    1.0000 </r>
       <r>    6.2917    1.0000 </r>
       <r>    7.0934    1.0000 </r>
       <r>    7.3649    1.0000 </r>
       <r>    8.8422    1.0000 </r>
       <r>    8.9532    1.0000 </r>
       <r>    9.5529    0.0000 </r>
       <r>   13.8918    0.0000 </r>
       <r>   15.9458    0.0000 </r>
       <r>   18.3524    0.0000 </r>
       <r>   19.2811    0.0000 </r>
       <r>   24.4249    0.0000 </r>
       <r>   24.8470    0.0000 </r>
       <r>   25.5827    0.0000 </r>
      </set>
      <set comment="kpoint 12">
       <r>  -43.1215    1.0000 </r>
       <r>  -43.1028    1.0000 </r>
       <r>  -43.0197    1.0000 </r>
       <r>  -42.9879    1.0000 </r>
       <r>  -42.8781    1.0000 </r>
       <r>  -42.8071    1.0000 </r>
       <r>    4.5078    1.0000 </r>
       <r>    4.7618    1.0000 </r>
       <r>    4.7723    1.0000 </r>
       <r>    5.7353    1.0000 </r>
       <r>    6.1697    1.0000 </r>
       <r>    6.6905    1.0000 </r>
       <r>    6.7046    1.0000 </r>
       <r>    8.0237    1.0000 </r>
       <r>    8.8421    1.0000 </r>
       <r>    9.2008    0.4602 </r>
       <r>   11.0096    0.0000 </r>
       <r>   14.8327    0.0000 </r>
       <r>   15.8621    0.0000 </r>
       <r>   17.5122    0.0000 </r>
       <r>   17.8881    0.0000 </r>
       <r>   21.9057    0.0000 </r>
       <r>   23.3322    0.0000 </r>
       <r>   24.2635    0.0000 </r>
      </set>
      <set comment="kpoint 13">
       <r>  -43.1363    1.0000 </r>
       <r>  -43.1083    1.0000 </r>
       <r>  -43.0356    1.0000 </r>
       <r>  -42.9987    1.0000 </r>
       <r>  -42.8617    1.0000 </r>
       <r>  -42.8185    1.0000 </r>
       <r>    4.6301    1.0000 </r>
       <r>    4.6336    1.0000 </r>
       <r>    4.6598    1.0000 </r>
       <r>    6.2362    1.0000 </r>
       <r>    6.2829    1.0000 </r>
       <r>    6.3784    1.0000 </r>
       <r>    6.9324    1.0000 </r>
       <r>    8.6549    1.0000 </r>
       <r>    8.8017    1.0000 </r>
       <r>    9.0397    1.0000 </r>
       <r>   12.5606    0.0000 </r>
       <r>   12.9190    0.0000 </r>
       <r>   16.2431    0.0000 </r>
       <r>   17.6238    0.0000 </r>
       <r>   19.0580    0.0000 </r>
       <r>   19.8221    0.0000 </r>
       <r>   22.2791    0.0000 </r>
       <r>   23.9573    0.0000 </r>
      </set>
      <set comment="kpoint 14">
       <r>  -43.1126    1.0000 </r>
       <r>  -43.0915    1.0000 </r>
       <r>  -43.0605    1.0000 </r>
       <r>  -43.0333    1.0000 </r>
       <r>  -42.8527    1.0000 </r>
       <r>  -42.8260    1.0000 </r>
       <r>    4.7420    1.0000 </r>
       <r>    5.0216    1.0000 </r>
       <r>    5.2543    1.0000 </r>
       <r>    5.6411    1.0000 </r>
       <r>    6.1307    1.0000 </r>
       <r>    6.3573    1.0000 </r>
       <r>    7.0075    1.0000 </r>
       <r>    8.3215    1.0000 </r>
       <r>    8.6669    1.0000 </r>
       <r>    8.9107    1.0000 </r>
       <r>   12.4990    0.0000 </r>
       <r>   13.7541    0.0000 </r>
       <r>   15.2042    0.0000 </r>
       <r>   18.3007    0.0000 </r>
       <r>   19.8690    0.0000 </r>
       <r>   20.9027    0.0000 </r>
       <r>   21.6086    0.0000 </r>
       <r>   22.1544    0.0000 </r>
      </set>
      <set comment="kpoint 15">
       <r>  -42.9721    1.0000 </r>
       <r>  -42.9145    1.0000 </r>
       <r>  -42.9145    1.0000 </r>
       <r>  -42.8893    1.0000 </r>
       <r>  -42.8893    1.0000 </r>
       <r>  -42.7726    1.0000 </r>
       <r>    0.7255    1.0000 </r>
       <r>    3.1199    1.0000 </r>
       <r>    5.9063    1.0000 </r>
       <r>    6.3286    1.0000 </r>
       <r>    6.3286    1.0000 </r>
       <r>    6.6157    1.0000 </r>
       <r>    6.6157    1.0000 </r>
       <r>    7.7938    1.0000 </r>
       <r>    7.7938    1.0000 </r>
       <r>    8.3524    1.0000 </r>
       <r>    9.0081    1.0000 </r>
       <r>    9.0081    1.0000 </r>
       <r>   14.1309    0.0000 </r>
       <r>   23.9324    0.0000 </r>
       <r>   25.2566    0.0000 </r>
       <r>   26.1146    0.0000 </r>
       <r>   28.7634    0.0000 </r>
       <r>   28.7634    0.0000 </r>
      </set>
      <set comment="kpoint 16">
       <r>  -42.9664    1.0000 </r>
       <r>  -42.9370    1.0000 </r>
       <r>  -42.9213    1.0000 </r>
       <r>  -42.9139    1.0000 </r>
       <r>  -42.8944    1.0000 </r>
       <r>  -42.7740    1.0000 </r>
       <r>    1.0488    1.0000 </r>
       <r>    3.4163    1.0000 </r>
       <r>    5.8785    1.0000 </r>
       <r>    6.2888    1.0000 </r>
       <r>    6.4472    1.0000 </r>
       <r>    6.5546    1.0000 </r>
       <r>    6.8338    1.0000 </r>
       <r>    7.2627    1.0000 </r>
       <r>    7.6700    1.0000 </r>
       <r>    7.7242    1.0000 </r>
       <r>    9.0480    1.0000 </r>
       <r>   10.1941    0.0000 </r>
       <r>   14.2420    0.0000 </r>
       <r>   24.2868    0.0000 </r>
       <r>   25.5259    0.0000 </r>
       <r>   26.2359    0.0000 </r>
       <r>   27.3279    0.0000 </r>
       <r>   27.6206    0.0000 </r>
      </set>
      <set comment="kpoint 17">
       <r>  -43.0032    1.0000 </r>
       <r>  -42.9778    1.0000 </r>
       <r>  -42.9424    1.0000 </r>
       <r>  -42.9390    1.0000 </r>
       <r>  -42.9083    1.0000 </r>
       <r>  -42.7786    1.0000 </r>
       <r>    1.9333    1.0000 </r>
       <r>    4.0889    1.0000 </r>
       <r>    5.7114    1.0000 </r>
       <r>    5.8962    1.0000 </r>
       <r>    6.1443    1.0000 </r>
       <r>    6.8013    1.0000 </r>
       <r>    7.1046    1.0000 </r>
       <r>    7.3904    1.0000 </r>
       <r>    7.4650    1.0000 </r>
       <r>    7.5346    1.0000 </r>
       <r>    9.1091    0.9937 </r>
       <r>   11.5109    0.0000 </r>
       <r>   14.7239    0.0000 </r>
       <r>   22.4656    0.0000 </r>
       <r>   25.5069    0.0000 </r>
       <r>   25.6054    0.0000 </r>
       <r>   26.1536    0.0000 </r>
       <r>   27.2205    0.0000 </r>
      </set>
      <set comment="kpoint 18">
       <r>  -43.0789    1.0000 </r>
       <r>  -43.0543    1.0000 </r>
       <r>  -42.9605    1.0000 </r>
       <r>  -42.9252    1.0000 </r>
       <r>  -42.9154    1.0000 </r>
       <r>  -42.7876    1.0000 </r>
       <r>    3.0168    1.0000 </r>
       <r>    4.2612    1.0000 </r>
       <r>    5.2069    1.0000 </r>
       <r>    5.7749    1.0000 </r>
       <r>    6.2271    1.0000 </r>
       <r>    6.9606    1.0000 </r>
       <r>    6.9910    1.0000 </r>
       <r>    7.8950    1.0000 </r>
       <r>    8.1923    1.0000 </r>
       <r>    8.3186    1.0000 </r>
       <r>    9.1441    0.9337 </r>
       <r>   12.4751    0.0000 </r>
       <r>   15.7692    0.0000 </r>
       <r>   18.9494    0.0000 </r>
       <r>   23.3908    0.0000 </r>
       <r>   23.5032    0.0000 </r>
       <r>   25.0644    0.0000 </r>
       <r>   26.8373    0.0000 </r>
      </set>
      <set comment="kpoint 19">
       <r>  -43.1408    1.0000 </r>
       <r>  -43.1153    1.0000 </r>
       <r>  -42.9778    1.0000 </r>
       <r>  -42.9390    1.0000 </r>
       <r>  -42.8873    1.0000 </r>
       <r>  -42.8005    1.0000 </r>
       <r>    3.5941    1.0000 </r>
       <r>    3.9863    1.0000 </r>
       <r>    4.7957    1.0000 </r>
       <r>    5.8220    1.0000 </r>
       <r>    6.7255    1.0000 </r>
       <r>    6.7784    1.0000 </r>
       <r>    7.4002    1.0000 </r>
       <r>    8.9987    1.0000 </r>
       <r>    9.0730    0.9998 </r>
       <r>    9.2840    0.0071 </r>
       <r>    9.3773    0.0000 </r>
       <r>   13.5496    0.0000 </r>
       <r>   15.2362    0.0000 </r>
       <r>   17.3975    0.0000 </r>
       <r>   20.2859    0.0000 </r>
       <r>   21.7269    0.0000 </r>
       <r>   23.0416    0.0000 </r>
       <r>   25.5198    0.0000 </r>
      </set>
      <set comment="kpoint 20">
       <r>  -43.1647    1.0000 </r>
       <r>  -43.1386    1.0000 </r>
       <r>  -42.9839    1.0000 </r>
       <r>  -42.9445    1.0000 </r>
       <r>  -42.8734    1.0000 </r>
       <r>  -42.8089    1.0000 </r>
       <r>    3.6907    1.0000 </r>
       <r>    3.8337    1.0000 </r>
       <r>    4.6642    1.0000 </r>
       <r>    5.8811    1.0000 </r>
       <r>    6.6995    1.0000 </r>
       <r>    6.8521    1.0000 </r>
       <r>    7.8013    1.0000 </r>
       <r>    9.0678    0.9999 </r>
       <r>    9.4418    0.0000 </r>
       <r>    9.5853    0.0000 </r>
       <r>   11.1185    0.0000 </r>
       <r>   12.4989    0.0000 </r>
       <r>   15.7995    0.0000 </r>
       <r>   16.3810    0.0000 </r>
       <r>   19.1965    0.0000 </r>
       <r>   21.0639    0.0000 </r>
       <r>   22.0961    0.0000 </r>
       <r>   25.0883    0.0000 </r>
      </set>
      <set comment="kpoint 21">
       <r>  -42.9814    1.0000 </r>
       <r>  -42.9617    1.0000 </r>
       <r>  -42.9475    1.0000 </r>
       <r>  -42.9309    1.0000 </r>
       <r>  -42.9069    1.0000 </r>
       <r>  -42.7770    1.0000 </r>
       <r>    1.6599    1.0000 </r>
       <r>    3.9403    1.0000 </r>
       <r>    5.6786    1.0000 </r>
       <r>    6.0706    1.0000 </r>
       <r>    6.3646    1.0000 </r>
       <r>    6.5781    1.0000 </r>
       <r>    7.0158    1.0000 </r>
       <r>    7.2043    1.0000 </r>
       <r>    7.4453    1.0000 </r>
       <r>    7.6970    1.0000 </r>
       <r>    9.0550    1.0000 </r>
       <r>   11.2070    0.0000 </r>
       <r>   14.5456    0.0000 </r>
       <r>   24.0456    0.0000 </r>
       <r>   24.3174    0.0000 </r>
       <r>   25.8760    0.0000 </r>
       <r>   26.5534    0.0000 </r>
       <r>   27.7165    0.0000 </r>
      </set>
      <set comment="kpoint 22">
       <r>  -43.0438    1.0000 </r>
       <r>  -43.0271    1.0000 </r>
       <r>  -42.9555    1.0000 </r>
       <r>  -42.9286    1.0000 </r>
       <r>  -42.9241    1.0000 </r>
       <r>  -42.7841    1.0000 </r>
       <r>    2.7096    1.0000 </r>
       <r>    4.5385    1.0000 </r>
       <r>    5.4178    1.0000 </r>
       <r>    5.5585    1.0000 </r>
       <r>    6.0395    1.0000 </r>
       <r>    6.6040    1.0000 </r>
       <r>    7.1963    1.0000 </r>
       <r>    7.3205    1.0000 </r>
       <r>    8.0505    1.0000 </r>
       <r>    8.2429    1.0000 </r>
       <r>    9.0558    1.0000 </r>
       <r>   12.2127    0.0000 </r>
       <r>   15.3994    0.0000 </r>
       <r>   20.7176    0.0000 </r>
       <r>   22.6011    0.0000 </r>
       <r>   24.9614    0.0000 </r>
       <r>   26.0722    0.0000 </r>
       <r>   27.6224    0.0000 </r>
      </set>
      <set comment="kpoint 23">
       <r>  -43.1103    1.0000 </r>
       <r>  -43.0888    1.0000 </r>
       <r>  -42.9810    1.0000 </r>
       <r>  -42.9470    1.0000 </r>
       <r>  -42.8968    1.0000 </r>
       <r>  -42.7958    1.0000 </r>
       <r>    3.6419    1.0000 </r>
       <r>    4.3631    1.0000 </r>
       <r>    4.9657    1.0000 </r>
       <r>    5.6933    1.0000 </r>
       <r>    6.4087    1.0000 </r>
       <r>    6.7382    1.0000 </r>
       <r>    6.9422    1.0000 </r>
       <r>    7.9940    1.0000 </r>
       <r>    8.8904    1.0000 </r>
       <r>    8.9375    1.0000 </r>
       <r>    9.5294    0.0000 </r>
       <r>   13.2451    0.0000 </r>
       <r>   16.2808    0.0000 </r>
       <r>   17.6531    0.0000 </r>
       <r>   20.5881    0.0000 </r>
       <r>   22.5930    0.0000 </r>
       <r>   24.1596    0.0000 </r>
       <r>   25.6724    0.0000 </r>
      </set>
      <set comment="kpoint 24">
       <r>  -43.1516    1.0000 </r>
       <r>  -43.1262    1.0000 </r>
       <r>  -42.9965    1.0000 </r>
       <r>  -42.9587    1.0000 </r>
       <r>  -42.8733    1.0000 </r>
       <r>  -42.8084    1.0000 </r>
       <r>    3.8893    1.0000 </r>
       <r>    4.1080    1.0000 </r>
       <r>    4.7826    1.0000 </r>
       <r>    5.8284    1.0000 </r>
       <r>    6.4861    1.0000 </r>
       <r>    6.9560    1.0000 </r>
       <r>    7.3354    1.0000 </r>
       <r>    8.9043    1.0000 </r>
       <r>    9.0013    1.0000 </r>
       <r>    9.3342    0.0001 </r>
       <r>   10.9776    0.0000 </r>
       <r>   13.5930    0.0000 </r>
       <r>   15.1604    0.0000 </r>
       <r>   17.5042    0.0000 </r>
       <r>   18.8817    0.0000 </r>
       <r>   20.8693    0.0000 </r>
       <r>   22.6010    0.0000 </r>
       <r>   24.6772    0.0000 </r>
      </set>
      <set comment="kpoint 25">
       <r>  -43.0818    1.0000 </r>
       <r>  -43.0810    1.0000 </r>
       <r>  -42.9854    1.0000 </r>
       <r>  -42.9609    1.0000 </r>
       <r>  -42.9000    1.0000 </r>
       <r>  -42.7939    1.0000 </r>
       <r>    3.7819    1.0000 </r>
       <r>    4.9439    1.0000 </r>
       <r>    5.1395    1.0000 </r>
       <r>    5.1972    1.0000 </r>
       <r>    6.2448    1.0000 </r>
       <r>    6.2709    1.0000 </r>
       <r>    6.9926    1.0000 </r>
       <r>    7.4960    1.0000 </r>
       <r>    8.7817    1.0000 </r>
       <r>    8.9325    1.0000 </r>
       <r>    9.6098    0.0000 </r>
       <r>   13.2036    0.0000 </r>
       <r>   16.5267    0.0000 </r>
       <r>   18.7431    0.0000 </r>
       <r>   19.4209    0.0000 </r>
       <r>   24.0312    0.0000 </r>
       <r>   24.1070    0.0000 </r>
       <r>   26.2017    0.0000 </r>
      </set>
      <set comment="kpoint 26">
       <r>  -43.1214    1.0000 </r>
       <r>  -43.1046    1.0000 </r>
       <r>  -43.0191    1.0000 </r>
       <r>  -42.9896    1.0000 </r>
       <r>  -42.8734    1.0000 </r>
       <r>  -42.8082    1.0000 </r>
       <r>    4.4045    1.0000 </r>
       <r>    4.7768    1.0000 </r>
       <r>    4.9233    1.0000 </r>
       <r>    5.5752    1.0000 </r>
       <r>    6.2792    1.0000 </r>
       <r>    6.6002    1.0000 </r>
       <r>    6.8277    1.0000 </r>
       <r>    8.0763    1.0000 </r>
       <r>    8.6799    1.0000 </r>
       <r>    9.2822    0.0081 </r>
       <r>   11.0484    0.0000 </r>
       <r>   14.8068    0.0000 </r>
       <r>   15.2872    0.0000 </r>
       <r>   17.5582    0.0000 </r>
       <r>   18.6759    0.0000 </r>
       <r>   21.4278    0.0000 </r>
       <r>   23.3479    0.0000 </r>
       <r>   24.0258    0.0000 </r>
      </set>
      <set comment="kpoint 27">
       <r>  -43.1362    1.0000 </r>
       <r>  -43.1108    1.0000 </r>
       <r>  -43.0350    1.0000 </r>
       <r>  -43.0005    1.0000 </r>
       <r>  -42.8582    1.0000 </r>
       <r>  -42.8183    1.0000 </r>
       <r>    4.3910    1.0000 </r>
       <r>    4.6733    1.0000 </r>
       <r>    4.9995    1.0000 </r>
       <r>    5.7665    1.0000 </r>
       <r>    6.1639    1.0000 </r>
       <r>    6.7711    1.0000 </r>
       <r>    7.0767    1.0000 </r>
       <r>    8.6332    1.0000 </r>
       <r>    8.6758    1.0000 </r>
       <r>    9.1010    0.9968 </r>
       <r>   12.6455    0.0000 </r>
       <r>   12.9574    0.0000 </r>
       <r>   16.2273    0.0000 </r>
       <r>   17.2951    0.0000 </r>
       <r>   18.2687    0.0000 </r>
       <r>   20.9664    0.0000 </r>
       <r>   22.4809    0.0000 </r>
       <r>   23.0194    0.0000 </r>
      </set>
      <set comment="kpoint 28">
       <r>  -43.1117    1.0000 </r>
       <r>  -43.0933    1.0000 </r>
       <r>  -43.0614    1.0000 </r>
       <r>  -43.0354    1.0000 </r>
       <r>  -42.8497    1.0000 </r>
       <r>  -42.8250    1.0000 </r>
       <r>    4.7664    1.0000 </r>
       <r>    5.0064    1.0000 </r>
       <r>    5.2904    1.0000 </r>
       <r>    5.5507    1.0000 </r>
       <r>    6.2318    1.0000 </r>
       <r>    6.2694    1.0000 </r>
       <r>    7.0162    1.0000 </r>
       <r>    8.3992    1.0000 </r>
       <r>    8.4964    1.0000 </r>
       <r>    8.9868    1.0000 </r>
       <r>   12.5862    0.0000 </r>
       <r>   13.8884    0.0000 </r>
       <r>   15.4162    0.0000 </r>
       <r>   17.4784    0.0000 </r>
       <r>   19.9381    0.0000 </r>
       <r>   20.1376    0.0000 </r>
       <r>   21.8064    0.0000 </r>
       <r>   23.1448    0.0000 </r>
      </set>
      <set comment="kpoint 29">
       <r>  -42.9492    1.0000 </r>
       <r>  -42.9116    1.0000 </r>
       <r>  -42.9116    1.0000 </r>
       <r>  -42.8923    1.0000 </r>
       <r>  -42.8923    1.0000 </r>
       <r>  -42.7971    1.0000 </r>
       <r>    1.0742    1.0000 </r>
       <r>    3.0072    1.0000 </r>
       <r>    5.8450    1.0000 </r>
       <r>    6.3022    1.0000 </r>
       <r>    6.3022    1.0000 </r>
       <r>    6.5335    1.0000 </r>
       <r>    6.5335    1.0000 </r>
       <r>    7.2565    1.0000 </r>
       <r>    8.0041    1.0000 </r>
       <r>    8.0041    1.0000 </r>
       <r>    8.9267    1.0000 </r>
       <r>    8.9267    1.0000 </r>
       <r>   15.9894    0.0000 </r>
       <r>   23.3005    0.0000 </r>
       <r>   25.3211    0.0000 </r>
       <r>   25.5580    0.0000 </r>
       <r>   28.4447    0.0000 </r>
       <r>   28.4447    0.0000 </r>
      </set>
      <set comment="kpoint 30">
       <r>  -42.9519    1.0000 </r>
       <r>  -42.9270    1.0000 </r>
       <r>  -42.9184    1.0000 </r>
       <r>  -42.9180    1.0000 </r>
       <r>  -42.8977    1.0000 </r>
       <r>  -42.7962    1.0000 </r>
       <r>    1.3922    1.0000 </r>
       <r>    3.3173    1.0000 </r>
       <r>    5.8690    1.0000 </r>
       <r>    6.1607    1.0000 </r>
       <r>    6.2366    1.0000 </r>
       <r>    6.5166    1.0000 </r>
       <r>    6.7466    1.0000 </r>
       <r>    6.8960    1.0000 </r>
       <r>    7.9075    1.0000 </r>
       <r>    7.9139    1.0000 </r>
       <r>    8.9440    1.0000 </r>
       <r>    9.4946    0.0000 </r>
       <r>   16.1587    0.0000 </r>
       <r>   23.6920    0.0000 </r>
       <r>   25.4945    0.0000 </r>
       <r>   25.8250    0.0000 </r>
       <r>   26.9996    0.0000 </r>
       <r>   27.7070    0.0000 </r>
      </set>
      <set comment="kpoint 31">
       <r>  -43.0042    1.0000 </r>
       <r>  -42.9827    1.0000 </r>
       <r>  -42.9354    1.0000 </r>
       <r>  -42.9191    1.0000 </r>
       <r>  -42.9121    1.0000 </r>
       <r>  -42.7963    1.0000 </r>
       <r>    2.2428    1.0000 </r>
       <r>    4.0417    1.0000 </r>
       <r>    5.5746    1.0000 </r>
       <r>    5.8006    1.0000 </r>
       <r>    5.9510    1.0000 </r>
       <r>    6.6326    1.0000 </r>
       <r>    7.0344    1.0000 </r>
       <r>    7.3277    1.0000 </r>
       <r>    7.7920    1.0000 </r>
       <r>    7.8232    1.0000 </r>
       <r>    8.9626    1.0000 </r>
       <r>   10.3860    0.0000 </r>
       <r>   16.6632    0.0000 </r>
       <r>   22.7753    0.0000 </r>
       <r>   24.7496    0.0000 </r>
       <r>   25.4062    0.0000 </r>
       <r>   25.9600    0.0000 </r>
       <r>   27.2424    0.0000 </r>
      </set>
      <set comment="kpoint 32">
       <r>  -43.0795    1.0000 </r>
       <r>  -43.0596    1.0000 </r>
       <r>  -42.9564    1.0000 </r>
       <r>  -42.9295    1.0000 </r>
       <r>  -42.8964    1.0000 </r>
       <r>  -42.8001    1.0000 </r>
       <r>    3.1842    1.0000 </r>
       <r>    4.2745    1.0000 </r>
       <r>    5.0984    1.0000 </r>
       <r>    5.5640    1.0000 </r>
       <r>    6.3352    1.0000 </r>
       <r>    7.0326    1.0000 </r>
       <r>    7.1397    1.0000 </r>
       <r>    8.0888    1.0000 </r>
       <r>    8.1326    1.0000 </r>
       <r>    8.3157    1.0000 </r>
       <r>    8.9936    1.0000 </r>
       <r>   11.2134    0.0000 </r>
       <r>   17.1884    0.0000 </r>
       <r>   19.6751    0.0000 </r>
       <r>   22.3882    0.0000 </r>
       <r>   24.0002    0.0000 </r>
       <r>   25.1716    0.0000 </r>
       <r>   26.5297    0.0000 </r>
      </set>
      <set comment="kpoint 33">
       <r>  -43.1414    1.0000 </r>
       <r>  -43.1214    1.0000 </r>
       <r>  -42.9731    1.0000 </r>
       <r>  -42.9437    1.0000 </r>
       <r>  -42.8735    1.0000 </r>
       <r>  -42.8079    1.0000 </r>
       <r>    3.5435    1.0000 </r>
       <r>    4.0083    1.0000 </r>
       <r>    4.9574    1.0000 </r>
       <r>    5.3012    1.0000 </r>
       <r>    6.9736    1.0000 </r>
       <r>    6.9873    1.0000 </r>
       <r>    8.1555    1.0000 </r>
       <r>    8.6504    1.0000 </r>
       <r>    9.1025    0.9963 </r>
       <r>    9.1525    0.8970 </r>
       <r>    9.2866    0.0058 </r>
       <r>   12.2210    0.0000 </r>
       <r>   15.5457    0.0000 </r>
       <r>   18.0131    0.0000 </r>
       <r>   20.3792    0.0000 </r>
       <r>   22.4029    0.0000 </r>
       <r>   23.5497    0.0000 </r>
       <r>   25.9554    0.0000 </r>
      </set>
      <set comment="kpoint 34">
       <r>  -43.1651    1.0000 </r>
       <r>  -43.1448    1.0000 </r>
       <r>  -42.9795    1.0000 </r>
       <r>  -42.9494    1.0000 </r>
       <r>  -42.8625    1.0000 </r>
       <r>  -42.8134    1.0000 </r>
       <r>    3.5598    1.0000 </r>
       <r>    3.8756    1.0000 </r>
       <r>    4.8941    1.0000 </r>
       <r>    5.2576    1.0000 </r>
       <r>    6.9217    1.0000 </r>
       <r>    7.1409    1.0000 </r>
       <r>    8.7071    1.0000 </r>
       <r>    8.7556    1.0000 </r>
       <r>    9.4662    0.0000 </r>
       <r>    9.5700    0.0000 </r>
       <r>   10.6166    0.0000 </r>
       <r>   12.2371    0.0000 </r>
       <r>   15.4001    0.0000 </r>
       <r>   15.4865    0.0000 </r>
       <r>   20.7715    0.0000 </r>
       <r>   21.7624    0.0000 </r>
       <r>   22.4739    0.0000 </r>
       <r>   25.7485    0.0000 </r>
      </set>
      <set comment="kpoint 35">
       <r>  -42.9829    1.0000 </r>
       <r>  -42.9644    1.0000 </r>
       <r>  -42.9294    1.0000 </r>
       <r>  -42.9237    1.0000 </r>
       <r>  -42.9103    1.0000 </r>
       <r>  -42.7960    1.0000 </r>
       <r>    1.9858    1.0000 </r>
       <r>    3.8736    1.0000 </r>
       <r>    5.7385    1.0000 </r>
       <r>    5.7595    1.0000 </r>
       <r>    6.0537    1.0000 </r>
       <r>    6.5490    1.0000 </r>
       <r>    6.9255    1.0000 </r>
       <r>    7.1651    1.0000 </r>
       <r>    7.8068    1.0000 </r>
       <r>    7.8688    1.0000 </r>
       <r>    8.9257    1.0000 </r>
       <r>   10.1731    0.0000 </r>
       <r>   16.5068    0.0000 </r>
       <r>   23.9778    0.0000 </r>
       <r>   24.5854    0.0000 </r>
       <r>   25.3210    0.0000 </r>
       <r>   25.9127    0.0000 </r>
       <r>   26.9199    0.0000 </r>
      </set>
      <set comment="kpoint 36">
       <r>  -43.0452    1.0000 </r>
       <r>  -43.0309    1.0000 </r>
       <r>  -42.9532    1.0000 </r>
       <r>  -42.9316    1.0000 </r>
       <r>  -42.9042    1.0000 </r>
       <r>  -42.7981    1.0000 </r>
       <r>    2.9611    1.0000 </r>
       <r>    4.5523    1.0000 </r>
       <r>    5.1694    1.0000 </r>
       <r>    5.6278    1.0000 </r>
       <r>    5.9123    1.0000 </r>
       <r>    6.4788    1.0000 </r>
       <r>    7.1663    1.0000 </r>
       <r>    7.6446    1.0000 </r>
       <r>    8.1569    1.0000 </r>
       <r>    8.2324    1.0000 </r>
       <r>    8.9406    1.0000 </r>
       <r>   10.9900    0.0000 </r>
       <r>   17.1532    0.0000 </r>
       <r>   21.1973    0.0000 </r>
       <r>   22.8357    0.0000 </r>
       <r>   24.3190    0.0000 </r>
       <r>   25.5858    0.0000 </r>
       <r>   25.9710    0.0000 </r>
      </set>
      <set comment="kpoint 37">
       <r>  -43.1108    1.0000 </r>
       <r>  -43.0938    1.0000 </r>
       <r>  -42.9774    1.0000 </r>
       <r>  -42.9513    1.0000 </r>
       <r>  -42.8806    1.0000 </r>
       <r>  -42.8042    1.0000 </r>
       <r>    3.6769    1.0000 </r>
       <r>    4.3994    1.0000 </r>
       <r>    4.9661    1.0000 </r>
       <r>    5.4669    1.0000 </r>
       <r>    6.4534    1.0000 </r>
       <r>    6.9784    1.0000 </r>
       <r>    7.1107    1.0000 </r>
       <r>    8.0965    1.0000 </r>
       <r>    8.5561    1.0000 </r>
       <r>    9.0696    0.9998 </r>
       <r>    9.5569    0.0000 </r>
       <r>   12.0033    0.0000 </r>
       <r>   16.7632    0.0000 </r>
       <r>   19.0017    0.0000 </r>
       <r>   20.4826    0.0000 </r>
       <r>   22.3268    0.0000 </r>
       <r>   24.4597    0.0000 </r>
       <r>   25.3192    0.0000 </r>
      </set>
      <set comment="kpoint 38">
       <r>  -43.1517    1.0000 </r>
       <r>  -43.1323    1.0000 </r>
       <r>  -42.9926    1.0000 </r>
       <r>  -42.9634    1.0000 </r>
       <r>  -42.8617    1.0000 </r>
       <r>  -42.8125    1.0000 </r>
       <r>    3.7664    1.0000 </r>
       <r>    4.1558    1.0000 </r>
       <r>    5.0399    1.0000 </r>
       <r>    5.2793    1.0000 </r>
       <r>    6.4962    1.0000 </r>
       <r>    7.3406    1.0000 </r>
       <r>    7.9250    1.0000 </r>
       <r>    8.5308    1.0000 </r>
       <r>    8.9605    1.0000 </r>
       <r>    9.4168    0.0000 </r>
       <r>   10.9204    0.0000 </r>
       <r>   13.0364    0.0000 </r>
       <r>   14.8404    0.0000 </r>
       <r>   16.9246    0.0000 </r>
       <r>   19.9849    0.0000 </r>
       <r>   21.5989    0.0000 </r>
       <r>   23.1247    0.0000 </r>
       <r>   24.3064    0.0000 </r>
      </set>
      <set comment="kpoint 39">
       <r>  -43.0847    1.0000 </r>
       <r>  -43.0825    1.0000 </r>
       <r>  -42.9843    1.0000 </r>
       <r>  -42.9653    1.0000 </r>
       <r>  -42.8829    1.0000 </r>
       <r>  -42.8028    1.0000 </r>
       <r>    3.8987    1.0000 </r>
       <r>    4.7864    1.0000 </r>
       <r>    5.2045    1.0000 </r>
       <r>    5.3202    1.0000 </r>
       <r>    6.1854    1.0000 </r>
       <r>    6.2172    1.0000 </r>
       <r>    6.8789    1.0000 </r>
       <r>    7.8728    1.0000 </r>
       <r>    8.4255    1.0000 </r>
       <r>    9.1137    0.9909 </r>
       <r>    9.6795    0.0000 </r>
       <r>   12.0149    0.0000 </r>
       <r>   17.4965    0.0000 </r>
       <r>   19.7622    0.0000 </r>
       <r>   19.7753    0.0000 </r>
       <r>   22.9221    0.0000 </r>
       <r>   23.5177    0.0000 </r>
       <r>   25.9628    0.0000 </r>
      </set>
      <set comment="kpoint 40">
       <r>  -43.1216    1.0000 </r>
       <r>  -43.1091    1.0000 </r>
       <r>  -43.0176    1.0000 </r>
       <r>  -42.9944    1.0000 </r>
       <r>  -42.8611    1.0000 </r>
       <r>  -42.8117    1.0000 </r>
       <r>    4.3050    1.0000 </r>
       <r>    4.8876    1.0000 </r>
       <r>    4.9098    1.0000 </r>
       <r>    5.5829    1.0000 </r>
       <r>    6.1581    1.0000 </r>
       <r>    6.6549    1.0000 </r>
       <r>    7.0062    1.0000 </r>
       <r>    8.1859    1.0000 </r>
       <r>    8.3900    1.0000 </r>
       <r>    9.4331    0.0000 </r>
       <r>   11.1554    0.0000 </r>
       <r>   13.7686    0.0000 </r>
       <r>   15.5139    0.0000 </r>
       <r>   17.8684    0.0000 </r>
       <r>   19.3666    0.0000 </r>
       <r>   21.1707    0.0000 </r>
       <r>   22.6196    0.0000 </r>
       <r>   24.7310    0.0000 </r>
      </set>
      <set comment="kpoint 41">
       <r>  -43.1358    1.0000 </r>
       <r>  -43.1167    1.0000 </r>
       <r>  -43.0328    1.0000 </r>
       <r>  -43.0059    1.0000 </r>
       <r>  -42.8492    1.0000 </r>
       <r>  -42.8187    1.0000 </r>
       <r>    4.2611    1.0000 </r>
       <r>    4.7706    1.0000 </r>
       <r>    5.2742    1.0000 </r>
       <r>    5.4172    1.0000 </r>
       <r>    5.9470    1.0000 </r>
       <r>    7.0435    1.0000 </r>
       <r>    7.3519    1.0000 </r>
       <r>    8.2291    1.0000 </r>
       <r>    8.7547    1.0000 </r>
       <r>    9.2221    0.2406 </r>
       <r>   12.9004    0.0000 </r>
       <r>   13.0781    0.0000 </r>
       <r>   15.7956    0.0000 </r>
       <r>   16.5278    0.0000 </r>
       <r>   18.1399    0.0000 </r>
       <r>   21.7985    0.0000 </r>
       <r>   22.4498    0.0000 </r>
       <r>   23.3867    0.0000 </r>
      </set>
      <set comment="kpoint 42">
       <r>  -43.1097    1.0000 </r>
       <r>  -43.0978    1.0000 </r>
       <r>  -43.0626    1.0000 </r>
       <r>  -43.0407    1.0000 </r>
       <r>  -42.8423    1.0000 </r>
       <r>  -42.8232    1.0000 </r>
       <r>    4.8070    1.0000 </r>
       <r>    4.9483    1.0000 </r>
       <r>    5.4080    1.0000 </r>
       <r>    5.4661    1.0000 </r>
       <r>    6.0993    1.0000 </r>
       <r>    6.3469    1.0000 </r>
       <r>    7.0362    1.0000 </r>
       <r>    8.0712    1.0000 </r>
       <r>    8.6225    1.0000 </r>
       <r>    9.1313    0.9690 </r>
       <r>   12.8519    0.0000 </r>
       <r>   14.2990    0.0000 </r>
       <r>   15.9575    0.0000 </r>
       <r>   16.2101    0.0000 </r>
       <r>   18.6375    0.0000 </r>
       <r>   19.6446    0.0000 </r>
       <r>   22.9059    0.0000 </r>
       <r>   24.4647    0.0000 </r>
      </set>
      <set comment="kpoint 43">
       <r>  -42.9142    1.0000 </r>
       <r>  -42.9074    1.0000 </r>
       <r>  -42.9074    1.0000 </r>
       <r>  -42.8971    1.0000 </r>
       <r>  -42.8971    1.0000 </r>
       <r>  -42.8324    1.0000 </r>
       <r>    1.6029    1.0000 </r>
       <r>    2.7166    1.0000 </r>
       <r>    5.8151    1.0000 </r>
       <r>    6.3032    1.0000 </r>
       <r>    6.3032    1.0000 </r>
       <r>    6.3877    1.0000 </r>
       <r>    6.4332    1.0000 </r>
       <r>    6.4332    1.0000 </r>
       <r>    8.2761    1.0000 </r>
       <r>    8.2761    1.0000 </r>
       <r>    8.7733    1.0000 </r>
       <r>    8.7733    1.0000 </r>
       <r>   18.1722    0.0000 </r>
       <r>   22.2423    0.0000 </r>
       <r>   24.8427    0.0000 </r>
       <r>   25.0203    0.0000 </r>
       <r>   28.4527    0.0000 </r>
       <r>   28.4527    0.0000 </r>
      </set>
      <set comment="kpoint 44">
       <r>  -42.9394    1.0000 </r>
       <r>  -42.9239    1.0000 </r>
       <r>  -42.9138    1.0000 </r>
       <r>  -42.9025    1.0000 </r>
       <r>  -42.9013    1.0000 </r>
       <r>  -42.8283    1.0000 </r>
       <r>    1.9158    1.0000 </r>
       <r>    3.0337    1.0000 </r>
       <r>    5.7982    1.0000 </r>
       <r>    5.9404    1.0000 </r>
       <r>    6.1491    1.0000 </r>
       <r>    6.5007    1.0000 </r>
       <r>    6.5120    1.0000 </r>
       <r>    6.6434    1.0000 </r>
       <r>    8.2068    1.0000 </r>
       <r>    8.2566    1.0000 </r>
       <r>    8.7612    1.0000 </r>
       <r>    9.0226    1.0000 </r>
       <r>   18.3437    0.0000 </r>
       <r>   22.5312    0.0000 </r>
       <r>   25.0789    0.0000 </r>
       <r>   25.3028    0.0000 </r>
       <r>   27.0451    0.0000 </r>
       <r>   28.0192    0.0000 </r>
      </set>
      <set comment="kpoint 45">
       <r>  -43.0020    1.0000 </r>
       <r>  -42.9896    1.0000 </r>
       <r>  -42.9302    1.0000 </r>
       <r>  -42.9175    1.0000 </r>
       <r>  -42.8885    1.0000 </r>
       <r>  -42.8229    1.0000 </r>
       <r>    2.7194    1.0000 </r>
       <r>    3.7879    1.0000 </r>
       <r>    5.3897    1.0000 </r>
       <r>    5.6849    1.0000 </r>
       <r>    5.9510    1.0000 </r>
       <r>    6.4016    1.0000 </r>
       <r>    7.0395    1.0000 </r>
       <r>    7.2145    1.0000 </r>
       <r>    8.1102    1.0000 </r>
       <r>    8.2926    1.0000 </r>
       <r>    8.7303    1.0000 </r>
       <r>    9.5292    0.0000 </r>
       <r>   18.7561    0.0000 </r>
       <r>   22.9352    0.0000 </r>
       <r>   23.4080    0.0000 </r>
       <r>   24.6651    0.0000 </r>
       <r>   26.6769    0.0000 </r>
       <r>   26.7033    0.0000 </r>
      </set>
      <set comment="kpoint 46">
       <r>  -43.0779    1.0000 </r>
       <r>  -43.0667    1.0000 </r>
       <r>  -42.9502    1.0000 </r>
       <r>  -42.9358    1.0000 </r>
       <r>  -42.8712    1.0000 </r>
       <r>  -42.8197    1.0000 </r>
       <r>    3.4517    1.0000 </r>
       <r>    4.1185    1.0000 </r>
       <r>    5.0559    1.0000 </r>
       <r>    5.3837    1.0000 </r>
       <r>    6.5352    1.0000 </r>
       <r>    6.9554    1.0000 </r>
       <r>    7.3674    1.0000 </r>
       <r>    7.9147    1.0000 </r>
       <r>    8.4373    1.0000 </r>
       <r>    8.5124    1.0000 </r>
       <r>    8.7994    1.0000 </r>
       <r>   10.0930    0.0000 </r>
       <r>   18.5300    0.0000 </r>
       <r>   20.5852    0.0000 </r>
       <r>   21.4833    0.0000 </r>
       <r>   24.1069    0.0000 </r>
       <r>   24.9425    0.0000 </r>
       <r>   26.6477    0.0000 </r>
      </set>
      <set comment="kpoint 47">
       <r>  -43.1400    1.0000 </r>
       <r>  -43.1291    1.0000 </r>
       <r>  -42.9664    1.0000 </r>
       <r>  -42.9505    1.0000 </r>
       <r>  -42.8552    1.0000 </r>
       <r>  -42.8198    1.0000 </r>
       <r>    3.5911    1.0000 </r>
       <r>    3.9389    1.0000 </r>
       <r>    4.9301    1.0000 </r>
       <r>    5.0800    1.0000 </r>
       <r>    7.3176    1.0000 </r>
       <r>    7.4766    1.0000 </r>
       <r>    8.2052    1.0000 </r>
       <r>    8.6411    1.0000 </r>
       <r>    9.0611    0.9999 </r>
       <r>    9.1486    0.9157 </r>
       <r>    9.2523    0.0597 </r>
       <r>   10.9566    0.0000 </r>
       <r>   16.0815    0.0000 </r>
       <r>   17.5434    0.0000 </r>
       <r>   21.4849    0.0000 </r>
       <r>   23.4091    0.0000 </r>
       <r>   23.5659    0.0000 </r>
       <r>   25.8612    0.0000 </r>
      </set>
      <set comment="kpoint 48">
       <r>  -43.1633    1.0000 </r>
       <r>  -43.1524    1.0000 </r>
       <r>  -42.9726    1.0000 </r>
       <r>  -42.9561    1.0000 </r>
       <r>  -42.8479    1.0000 </r>
       <r>  -42.8212    1.0000 </r>
       <r>    3.5571    1.0000 </r>
       <r>    3.8381    1.0000 </r>
       <r>    4.9131    1.0000 </r>
       <r>    4.9424    1.0000 </r>
       <r>    7.2747    1.0000 </r>
       <r>    7.7512    1.0000 </r>
       <r>    8.2287    1.0000 </r>
       <r>    9.2941    0.0031 </r>
       <r>    9.4928    0.0000 </r>
       <r>    9.5476    0.0000 </r>
       <r>   10.2669    0.0000 </r>
       <r>   11.7283    0.0000 </r>
       <r>   15.0115    0.0000 </r>
       <r>   15.0353    0.0000 </r>
       <r>   22.1226    0.0000 </r>
       <r>   22.7854    0.0000 </r>
       <r>   22.8485    0.0000 </r>
       <r>   25.1940    0.0000 </r>
      </set>
      <set comment="kpoint 49">
       <r>  -42.9801    1.0000 </r>
       <r>  -42.9691    1.0000 </r>
       <r>  -42.9259    1.0000 </r>
       <r>  -42.9156    1.0000 </r>
       <r>  -42.8919    1.0000 </r>
       <r>  -42.8242    1.0000 </r>
       <r>    2.4877    1.0000 </r>
       <r>    3.6021    1.0000 </r>
       <r>    5.5157    1.0000 </r>
       <r>    5.7576    1.0000 </r>
       <r>    5.9007    1.0000 </r>
       <r>    6.3398    1.0000 </r>
       <r>    6.9194    1.0000 </r>
       <r>    7.0668    1.0000 </r>
       <r>    8.1371    1.0000 </r>
       <r>    8.2737    1.0000 </r>
       <r>    8.7148    1.0000 </r>
       <r>    9.4077    0.0000 </r>
       <r>   18.6546    0.0000 </r>
       <r>   22.9419    0.0000 </r>
       <r>   24.8767    0.0000 </r>
       <r>   25.0269    0.0000 </r>
       <r>   25.3922    0.0000 </r>
       <r>   26.0782    0.0000 </r>
      </set>
      <set comment="kpoint 50">
       <r>  -43.0447    1.0000 </r>
       <r>  -43.0360    1.0000 </r>
       <r>  -42.9487    1.0000 </r>
       <r>  -42.9370    1.0000 </r>
       <r>  -42.8764    1.0000 </r>
       <r>  -42.8199    1.0000 </r>
       <r>    3.3506    1.0000 </r>
       <r>    4.2991    1.0000 </r>
       <r>    5.1407    1.0000 </r>
       <r>    5.5893    1.0000 </r>
       <r>    5.8563    1.0000 </r>
       <r>    6.2769    1.0000 </r>
       <r>    7.2871    1.0000 </r>
       <r>    7.7238    1.0000 </r>
       <r>    8.3870    1.0000 </r>
       <r>    8.4526    1.0000 </r>
       <r>    8.7784    1.0000 </r>
       <r>    9.9530    0.0000 </r>
       <r>   19.0109    0.0000 </r>
       <r>   21.9446    0.0000 </r>
       <r>   22.3864    0.0000 </r>
       <r>   24.0661    0.0000 </r>
       <r>   24.2798    0.0000 </r>
       <r>   25.1864    0.0000 </r>
      </set>
      <set comment="kpoint 51">
       <r>  -43.1099    1.0000 </r>
       <r>  -43.1003    1.0000 </r>
       <r>  -42.9721    1.0000 </r>
       <r>  -42.9579    1.0000 </r>
       <r>  -42.8595    1.0000 </r>
       <r>  -42.8186    1.0000 </r>
       <r>    3.7963    1.0000 </r>
       <r>    4.2701    1.0000 </r>
       <r>    4.9837    1.0000 </r>
       <r>    5.3391    1.0000 </r>
       <r>    6.6434    1.0000 </r>
       <r>    6.9982    1.0000 </r>
       <r>    7.3501    1.0000 </r>
       <r>    8.0003    1.0000 </r>
       <r>    8.6229    1.0000 </r>
       <r>    9.2211    0.2497 </r>
       <r>    9.5605    0.0000 </r>
       <r>   10.8012    0.0000 </r>
       <r>   17.4928    0.0000 </r>
       <r>   19.2473    0.0000 </r>
       <r>   21.0614    0.0000 </r>
       <r>   22.8257    0.0000 </r>
       <r>   24.1394    0.0000 </r>
       <r>   24.2562    0.0000 </r>
      </set>
      <set comment="kpoint 52">
       <r>  -43.1502    1.0000 </r>
       <r>  -43.1398    1.0000 </r>
       <r>  -42.9867    1.0000 </r>
       <r>  -42.9706    1.0000 </r>
       <r>  -42.8469    1.0000 </r>
       <r>  -42.8203    1.0000 </r>
       <r>    3.7741    1.0000 </r>
       <r>    4.1058    1.0000 </r>
       <r>    4.9626    1.0000 </r>
       <r>    5.1298    1.0000 </r>
       <r>    6.7941    1.0000 </r>
       <r>    7.7698    1.0000 </r>
       <r>    7.9135    1.0000 </r>
       <r>    8.3693    1.0000 </r>
       <r>    8.9814    1.0000 </r>
       <r>    9.4136    0.0000 </r>
       <r>   11.0118    0.0000 </r>
       <r>   12.1871    0.0000 </r>
       <r>   15.0464    0.0000 </r>
       <r>   16.2063    0.0000 </r>
       <r>   21.1723    0.0000 </r>
       <r>   22.5317    0.0000 </r>
       <r>   23.4643    0.0000 </r>
       <r>   23.5127    0.0000 </r>
      </set>
      <set comment="kpoint 53">
       <r>  -43.0867    1.0000 </r>
       <r>  -43.0848    1.0000 </r>
       <r>  -42.9812    1.0000 </r>
       <r>  -42.9708    1.0000 </r>
       <r>  -42.8606    1.0000 </r>
       <r>  -42.8178    1.0000 </r>
       <r>    4.0862    1.0000 </r>
       <r>    4.5730    1.0000 </r>
       <r>    5.3264    1.0000 </r>
       <r>    5.4338    1.0000 </r>
       <r>    6.0464    1.0000 </r>
       <r>    6.0494    1.0000 </r>
       <r>    7.0401    1.0000 </r>
       <r>    7.8509    1.0000 </r>
       <r>    8.6174    1.0000 </r>
       <r>    9.2587    0.0410 </r>
       <r>    9.7257    0.0000 </r>
       <r>   10.8517    0.0000 </r>
       <r>   18.5575    0.0000 </r>
       <r>   20.0669    0.0000 </r>
       <r>   20.9879    0.0000 </r>
       <r>   21.9511    0.0000 </r>
       <r>   23.0171    0.0000 </r>
       <r>   24.6405    0.0000 </r>
      </set>
      <set comment="kpoint 54">
       <r>  -43.1211    1.0000 </r>
       <r>  -43.1144    1.0000 </r>
       <r>  -43.0141    1.0000 </r>
       <r>  -43.0013    1.0000 </r>
       <r>  -42.8455    1.0000 </r>
       <r>  -42.8191    1.0000 </r>
       <r>    4.3099    1.0000 </r>
       <r>    4.6474    1.0000 </r>
       <r>    5.1131    1.0000 </r>
       <r>    5.6110    1.0000 </r>
       <r>    6.1833    1.0000 </r>
       <r>    6.6503    1.0000 </r>
       <r>    7.1568    1.0000 </r>
       <r>    7.7453    1.0000 </r>
       <r>    8.7913    1.0000 </r>
       <r>    9.4729    0.0000 </r>
       <r>   11.3668    0.0000 </r>
       <r>   12.6440    0.0000 </r>
       <r>   16.1799    0.0000 </r>
       <r>   17.7507    0.0000 </r>
       <r>   19.6131    0.0000 </r>
       <r>   21.0612    0.0000 </r>
       <r>   22.8089    0.0000 </r>
       <r>   24.7152    0.0000 </r>
      </set>
      <set comment="kpoint 55">
       <r>  -43.1338    1.0000 </r>
       <r>  -43.1238    1.0000 </r>
       <r>  -43.0284    1.0000 </r>
       <r>  -43.0133    1.0000 </r>
       <r>  -42.8379    1.0000 </r>
       <r>  -42.8215    1.0000 </r>
       <r>    4.2720    1.0000 </r>
       <r>    4.6957    1.0000 </r>
       <r>    5.1102    1.0000 </r>
       <r>    5.5518    1.0000 </r>
       <r>    6.0529    1.0000 </r>
       <r>    6.9949    1.0000 </r>
       <r>    7.5859    1.0000 </r>
       <r>    7.8607    1.0000 </r>
       <r>    8.9212    1.0000 </r>
       <r>    9.2601    0.0378 </r>
       <r>   13.2813    0.0000 </r>
       <r>   13.2834    0.0000 </r>
       <r>   15.1385    0.0000 </r>
       <r>   15.6580    0.0000 </r>
       <r>   18.8165    0.0000 </r>
       <r>   20.7910    0.0000 </r>
       <r>   23.7033    0.0000 </r>
       <r>   24.0668    0.0000 </r>
      </set>
      <set comment="kpoint 56">
       <r>  -43.1078    1.0000 </r>
       <r>  -43.1024    1.0000 </r>
       <r>  -43.0612    1.0000 </r>
       <r>  -43.0485    1.0000 </r>
       <r>  -42.8333    1.0000 </r>
       <r>  -42.8233    1.0000 </r>
       <r>    4.8224    1.0000 </r>
       <r>    4.8722    1.0000 </r>
       <r>    5.4816    1.0000 </r>
       <r>    5.5472    1.0000 </r>
       <r>    6.0274    1.0000 </r>
       <r>    6.3358    1.0000 </r>
       <r>    7.0925    1.0000 </r>
[...]
       </set>
       <set comment="band 12">
        <r>  0.0000  0.0000  0.0000  0.0000  0.0000  0.0499  0.0000  0.0429  0.0000 </r>
        <r>  0.0150  0.0096  0.0000  0.0037  0.1071  0.0000  0.4194  0.0000  0.0902 </r>
       </set>
       <set comment="band 13">
        <r>  0.0031  0.0008  0.0000  0.0003  0.0641  0.0000  0.0017  0.0000  0.0465 </r>
        <r>  0.0000  0.0000  0.0002  0.0000  0.0000  0.2104  0.0000  0.5135  0.0000 </r>
       </set>
       <set comment="band 14">
        <r>  0.0000  0.0000  0.0002  0.0000  0.0000  0.2104  0.0000  0.5135  0.0000 </r>
        <r>  0.0031  0.0008  0.0000  0.0003  0.0641  0.0000  0.0017  0.0000  0.0465 </r>
       </set>
       <set comment="band 15">
        <r>  0.0041  0.0000  0.0000  0.0000  0.1841  0.0000  0.3456  0.0000  0.0650 </r>
        <r>  0.0000  0.0000  0.0014  0.0000  0.0000  0.1835  0.0000  0.1410  0.0000 </r>
       </set>
       <set comment="band 16">
        <r>  0.0000  0.0000  0.0014  0.0000  0.0000  0.1835  0.0000  0.1410  0.0000 </r>
        <r>  0.0041  0.0000  0.0000  0.0000  0.1841  0.0000  0.3456  0.0000  0.0650 </r>
       </set>
       <set comment="band 17">
        <r>  0.0898  0.0183  0.0000  0.0062  0.2964  0.0000  0.0099  0.0000  0.1065 </r>
        <r>  0.0000  0.0000  0.0094  0.0000  0.0000  0.1387  0.0000  0.0482  0.0000 </r>
       </set>
       <set comment="band 18">
        <r>  0.0000  0.0000  0.0094  0.0000  0.0000  0.1387  0.0000  0.0482  0.0000 </r>
        <r>  0.0898  0.0183  0.0000  0.0062  0.2964  0.0000  0.0099  0.0000  0.1065 </r>
       </set>
       <set comment="band 19">
        <r>  0.2572  0.0538  0.0000  0.0190  0.0080  0.0000  0.0103  0.0000  0.0041 </r>
        <r>  0.0000  0.0000  0.0304  0.0000  0.0000  0.0180  0.0000  0.0388  0.0000 </r>
       </set>
       <set comment="band 20">
        <r>  0.0000  0.0000  0.0304  0.0000  0.0000  0.0180  0.0000  0.0388  0.0000 </r>
        <r>  0.2572  0.0538  0.0000  0.0190  0.0080  0.0000  0.0103  0.0000  0.0041 </r>
       </set>
       <set comment="band 21">
        <r>  0.0005  0.0406  0.0000  0.0634  0.0324  0.0000  0.0408  0.0000  0.0969 </r>
        <r>  0.0000  0.0000  0.0701  0.0000  0.0000  0.0080  0.0000  0.0163  0.0000 </r>
       </set>
       <set comment="band 22">
        <r>  0.0000  0.0000  0.0701  0.0000  0.0000  0.0080  0.0000  0.0163  0.0000 </r>
        <r>  0.0005  0.0406  0.0000  0.0634  0.0324  0.0000  0.0408  0.0000  0.0969 </r>
       </set>
       <set comment="band 23">
        <r>  0.0021  0.0387  0.0000  0.0338  0.0148  0.0000  0.0548  0.0000  0.0445 </r>
        <r>  0.0000  0.0000  0.0424  0.0000  0.0000  0.0645  0.0000  0.0256  0.0000 </r>
       </set>
       <set comment="band 24">
        <r>  0.0000  0.0000  0.0424  0.0000  0.0000  0.0645  0.0000  0.0256  0.0000 </r>
        <r>  0.0021  0.0387  0.0000  0.0338  0.0148  0.0000  0.0548  0.0000  0.0445 </r>
       </set>
      </set>
      <set comment="kpoint 68">
       <set comment="band 1">
        <r>  0.0000  0.4930  0.0000  0.4648  0.0000  0.0000  0.0000  0.0000  0.0000 </r>
        <r>  0.0000  0.0000  0.0291  0.0000  0.0000  0.0000  0.0000  0.0000  0.0000 </r>
       </set>
       <set comment="band 2">
        <r>  0.0000  0.0000  0.0291  0.0000  0.0000  0.0000  0.0000  0.0000  0.0000 </r>
        <r>  0.0000  0.4930  0.0000  0.4648  0.0000  0.0000  0.0000  0.0000  0.0000 </r>
       </set>
       <set comment="band 3">
        <r>  0.0000  0.4730  0.0000  0.5020  0.0000  0.0000  0.0000  0.0000  0.0000 </r>
        <r>  0.0000  0.0000  0.0160  0.0000  0.0000  0.0000  0.0000  0.0000  0.0000 </r>
       </set>
       <set comment="band 4">
        <r>  0.0000  0.0000  0.0160  0.0000  0.0000  0.0000  0.0000  0.0000  0.0000 </r>
        <r>  0.0000  0.4730  0.0000  0.5020  0.0000  0.0000  0.0000  0.0000  0.0000 </r>
       </set>
       <set comment="band 5">
        <r>  0.0000  0.0233  0.0000  0.0227  0.0000  0.0000  0.0000  0.0000  0.0000 </r>
        <r>  0.0000  0.0000  0.9460  0.0000  0.0000  0.0000  0.0000  0.0000  0.0000 </r>
       </set>
       <set comment="band 6">
        <r>  0.0000  0.0000  0.9460  0.0000  0.0000  0.0000  0.0000  0.0000  0.0000 </r>
        <r>  0.0000  0.0233  0.0000  0.0227  0.0000  0.0000  0.0000  0.0000  0.0000 </r>
       </set>
       <set comment="band 7">
        <r>  0.0617  0.0050  0.0000  0.0014  0.0994  0.0000  0.0546  0.0000  0.0363 </r>
        <r>  0.0000  0.0000  0.0021  0.0000  0.0000  0.1910  0.0000  0.1764  0.0000 </r>
       </set>
       <set comment="band 8">
        <r>  0.0000  0.0000  0.0021  0.0000  0.0000  0.1910  0.0000  0.1764  0.0000 </r>
        <r>  0.0617  0.0050  0.0000  0.0014  0.0994  0.0000  0.0546  0.0000  0.0363 </r>
       </set>
       <set comment="band 9">
        <r>  0.0069  0.0055  0.0000  0.0038  0.2659  0.0000  0.1267  0.0000  0.2141 </r>
        <r>  0.0000  0.0000  0.0022  0.0000  0.0000  0.0722  0.0000  0.0301  0.0000 </r>
       </set>
       <set comment="band 10">
        <r>  0.0000  0.0000  0.0022  0.0000  0.0000  0.0722  0.0000  0.0301  0.0000 </r>
        <r>  0.0069  0.0055  0.0000  0.0038  0.2659  0.0000  0.1267  0.0000  0.2141 </r>
       </set>
       <set comment="band 11">
        <r>  0.0146  0.0086  0.0000  0.0158  0.0588  0.0000  0.1480  0.0000  0.1806 </r>
        <r>  0.0000  0.0000  0.0032  0.0000  0.0000  0.0943  0.0000  0.1561  0.0000 </r>
       </set>
       <set comment="band 12">
        <r>  0.0000  0.0000  0.0032  0.0000  0.0000  0.0943  0.0000  0.1561  0.0000 </r>
        <r>  0.0146  0.0086  0.0000  0.0158  0.0588  0.0000  0.1480  0.0000  0.1806 </r>
       </set>
       <set comment="band 13">
        <r>  0.0118  0.0012  0.0000  0.0031  0.0730  0.0000  0.0358  0.0000  0.2108 </r>
        <r>  0.0000  0.0000  0.0003  0.0000  0.0000  0.2191  0.0000  0.2696  0.0000 </r>
       </set>
       <set comment="band 14">
        <r>  0.0000  0.0000  0.0003  0.0000  0.0000  0.2191  0.0000  0.2696  0.0000 </r>
        <r>  0.0118  0.0012  0.0000  0.0031  0.0730  0.0000  0.0358  0.0000  0.2108 </r>
       </set>
       <set comment="band 15">
        <r>  0.0031  0.0011  0.0000  0.0003  0.0964  0.0000  0.4781  0.0000  0.0393 </r>
        <r>  0.0000  0.0000  0.0014  0.0000  0.0000  0.1717  0.0000  0.1288  0.0000 </r>
       </set>
       <set comment="band 16">
        <r>  0.0000  0.0000  0.0014  0.0000  0.0000  0.1717  0.0000  0.1288  0.0000 </r>
        <r>  0.0031  0.0011  0.0000  0.0003  0.0964  0.0000  0.4781  0.0000  0.0393 </r>
       </set>
       <set comment="band 17">
        <r>  0.1112  0.0264  0.0000  0.0188  0.2587  0.0000  0.0050  0.0000  0.1119 </r>
        <r>  0.0000  0.0000  0.0151  0.0000  0.0000  0.0681  0.0000  0.0231  0.0000 </r>
       </set>
       <set comment="band 18">
        <r>  0.0000  0.0000  0.0151  0.0000  0.0000  0.0681  0.0000  0.0231  0.0000 </r>
        <r>  0.1112  0.0264  0.0000  0.0188  0.2587  0.0000  0.0050  0.0000  0.1119 </r>
       </set>
       <set comment="band 19">
        <r>  0.2794  0.0239  0.0000  0.0404  0.0130  0.0000  0.0235  0.0000  0.0336 </r>
        <r>  0.0000  0.0000  0.0135  0.0000  0.0000  0.0111  0.0000  0.0758  0.0000 </r>
       </set>
       <set comment="band 20">
        <r>  0.0000  0.0000  0.0135  0.0000  0.0000  0.0111  0.0000  0.0758  0.0000 </r>
        <r>  0.2794  0.0239  0.0000  0.0404  0.0130  0.0000  0.0235  0.0000  0.0336 </r>
       </set>
       <set comment="band 21">
        <r>  0.0240  0.0710  0.0000  0.0486  0.0503  0.0000  0.0061  0.0000  0.0997 </r>
        <r>  0.0000  0.0000  0.0371  0.0000  0.0000  0.0387  0.0000  0.0142  0.0000 </r>
       </set>
       <set comment="band 22">
        <r>  0.0000  0.0000  0.0371  0.0000  0.0000  0.0387  0.0000  0.0142  0.0000 </r>
        <r>  0.0240  0.0710  0.0000  0.0486  0.0503  0.0000  0.0061  0.0000  0.0997 </r>
       </set>
       <set comment="band 23">
        <r>  0.0000  0.0002  0.0904  0.0002  0.0001  0.0395  0.0002  0.0200  0.0001 </r>
        <r>  0.0072  0.0309  0.0006  0.0245  0.0101  0.0003  0.0244  0.0001  0.0146 </r>
       </set>
       <set comment="band 24">
        <r>  0.0072  0.0309  0.0006  0.0245  0.0101  0.0003  0.0244  0.0001  0.0146 </r>
        <r>  0.0000  0.0002  0.0904  0.0002  0.0001  0.0395  0.0002  0.0200  0.0001 </r>
       </set>
      </set>
      <set comment="kpoint 69">
       <set comment="band 1">
        <r>  0.0000  0.2406  0.0000  0.7183  0.0000  0.0000  0.0000  0.0000  0.0000 </r>
        <r>  0.0000  0.0000  0.0277  0.0000  0.0000  0.0000  0.0000  0.0000  0.0000 </r>
       </set>
       <set comment="band 2">
        <r>  0.0000  0.0000  0.0277  0.0000  0.0000  0.0000  0.0000  0.0000  0.0000 </r>
        <r>  0.0000  0.2406  0.0000  0.7183  0.0000  0.0000  0.0000  0.0000  0.0000 </r>
       </set>
       <set comment="band 3">
        <r>  0.0000  0.7288  0.0000  0.2456  0.0000  0.0000  0.0000  0.0000  0.0000 </r>
        <r>  0.0000  0.0000  0.0163  0.0000  0.0000  0.0000  0.0000  0.0000  0.0000 </r>
       </set>
       <set comment="band 4">
        <r>  0.0000  0.0000  0.0163  0.0000  0.0000  0.0000  0.0000  0.0000  0.0000 </r>
        <r>  0.0000  0.7288  0.0000  0.2456  0.0000  0.0000  0.0000  0.0000  0.0000 </r>
       </set>
       <set comment="band 5">
        <r>  0.0000  0.0206  0.0000  0.0241  0.0000  0.0000  0.0000  0.0000  0.0000 </r>
        <r>  0.0000  0.0000  0.9473  0.0000  0.0000  0.0000  0.0000  0.0000  0.0000 </r>
       </set>
       <set comment="band 6">
        <r>  0.0000  0.0000  0.9473  0.0000  0.0000  0.0000  0.0000  0.0000  0.0000 </r>
        <r>  0.0000  0.0206  0.0000  0.0241  0.0000  0.0000  0.0000  0.0000  0.0000 </r>
       </set>
       <set comment="band 7">
        <r>  0.0525  0.0040  0.0000  0.0020  0.1402  0.0000  0.0474  0.0000  0.0480 </r>
        <r>  0.0000  0.0000  0.0007  0.0000  0.0000  0.0901  0.0000  0.2604  0.0000 </r>
       </set>
       <set comment="band 8">
        <r>  0.0000  0.0000  0.0007  0.0000  0.0000  0.0901  0.0000  0.2604  0.0000 </r>
        <r>  0.0525  0.0040  0.0000  0.0020  0.1402  0.0000  0.0474  0.0000  0.0480 </r>
       </set>
       <set comment="band 9">
        <r>  0.0001  0.0060  0.0000  0.0023  0.2947  0.0000  0.1833  0.0000  0.0997 </r>
        <r>  0.0000  0.0000  0.0007  0.0000  0.0000  0.0698  0.0000  0.0834  0.0000 </r>
       </set>
       <set comment="band 10">
        <r>  0.0000  0.0000  0.0007  0.0000  0.0000  0.0698  0.0000  0.0834  0.0000 </r>
        <r>  0.0001  0.0060  0.0000  0.0023  0.2947  0.0000  0.1833  0.0000  0.0997 </r>
       </set>
       <set comment="band 11">
        <r>  0.0088  0.0045  0.0000  0.0133  0.0573  0.0000  0.0191  0.0000  0.0951 </r>
        <r>  0.0000  0.0000  0.0036  0.0000  0.0000  0.3409  0.0000  0.1584  0.0000 </r>
       </set>
       <set comment="band 12">
        <r>  0.0000  0.0000  0.0036  0.0000  0.0000  0.3409  0.0000  0.1584  0.0000 </r>
        <r>  0.0088  0.0045  0.0000  0.0133  0.0573  0.0000  0.0191  0.0000  0.0951 </r>
       </set>
       <set comment="band 13">
        <r>  0.0002  0.0045  0.0000  0.0131  0.1440  0.0000  0.0071  0.0000  0.4024 </r>
        <r>  0.0000  0.0000  0.0017  0.0000  0.0000  0.1473  0.0000  0.0733  0.0000 </r>
       </set>
       <set comment="band 14">
        <r>  0.0000  0.0000  0.0017  0.0000  0.0000  0.1473  0.0000  0.0733  0.0000 </r>
        <r>  0.0002  0.0045  0.0000  0.0131  0.1440  0.0000  0.0071  0.0000  0.4024 </r>
       </set>
       <set comment="band 15">
        <r>  0.0000  0.0004  0.0000  0.0001  0.0320  0.0000  0.5926  0.0000  0.0245 </r>
        <r>  0.0000  0.0000  0.0005  0.0000  0.0000  0.1196  0.0000  0.1550  0.0000 </r>
       </set>
       <set comment="band 16">
        <r>  0.0000  0.0000  0.0005  0.0000  0.0000  0.1196  0.0000  0.1550  0.0000 </r>
        <r>  0.0000  0.0004  0.0000  0.0001  0.0320  0.0000  0.5926  0.0000  0.0245 </r>
       </set>
       <set comment="band 17">
        <r>  0.0000  0.0000  0.0297  0.0000  0.0000  0.0234  0.0000  0.0097  0.0000 </r>
        <r>  0.0432  0.0221  0.0000  0.0629  0.0893  0.0000  0.0144  0.0000  0.1859 </r>
       </set>
       <set comment="band 18">
        <r>  0.0432  0.0221  0.0000  0.0629  0.0893  0.0000  0.0144  0.0000  0.1859 </r>
        <r>  0.0000  0.0000  0.0297  0.0000  0.0000  0.0234  0.0000  0.0097  0.0000 </r>
       </set>
       <set comment="band 19">
        <r>  0.3715  0.0058  0.0000  0.0159  0.0657  0.0000  0.0186  0.0000  0.0426 </r>
        <r>  0.0000  0.0000  0.0000  0.0000  0.0000  0.0423  0.0000  0.1001  0.0000 </r>
       </set>
       <set comment="band 20">
        <r>  0.0000  0.0000  0.0000  0.0000  0.0000  0.0423  0.0000  0.1001  0.0000 </r>
        <r>  0.3715  0.0058  0.0000  0.0159  0.0657  0.0000  0.0186  0.0000  0.0426 </r>
       </set>
       <set comment="band 21">
        <r>  0.0383  0.0915  0.0000  0.0348  0.0935  0.0000  0.0018  0.0000  0.0335 </r>
        <r>  0.0000  0.0000  0.0274  0.0000  0.0000  0.0452  0.0000  0.0185  0.0000 </r>
       </set>
       <set comment="band 22">
        <r>  0.0000  0.0000  0.0274  0.0000  0.0000  0.0452  0.0000  0.0185  0.0000 </r>
        <r>  0.0383  0.0915  0.0000  0.0348  0.0935  0.0000  0.0018  0.0000  0.0335 </r>
       </set>
       <set comment="band 23">
        <r>  0.0000  0.0000  0.1024  0.0000  0.0000  0.0201  0.0000  0.0215  0.0000 </r>
        <r>  0.0058  0.0179  0.0000  0.0384  0.0140  0.0000  0.0059  0.0000  0.0132 </r>
       </set>
       <set comment="band 24">
        <r>  0.0058  0.0179  0.0000  0.0384  0.0140  0.0000  0.0059  0.0000  0.0132 </r>
        <r>  0.0000  0.0000  0.1024  0.0000  0.0000  0.0201  0.0000  0.0215  0.0000 </r>
       </set>
      </set>
      <set comment="kpoint 70">
       <set comment="band 1">
        <r>  0.0000  0.7111  0.0000  0.2460  0.0000  0.0000  0.0000  0.0000  0.0000 </r>
        <r>  0.0000  0.0000  0.0304  0.0000  0.0000  0.0000  0.0000  0.0000  0.0000 </r>
       </set>
       <set comment="band 2">
        <r>  0.0000  0.0000  0.0304  0.0000  0.0000  0.0000  0.0000  0.0000  0.0000 </r>
        <r>  0.0000  0.7111  0.0000  0.2460  0.0000  0.0000  0.0000  0.0000  0.0000 </r>
       </set>
       <set comment="band 3">
        <r>  0.0000  0.2531  0.0000  0.7202  0.0000  0.0000  0.0000  0.0000  0.0000 </r>
        <r>  0.0000  0.0000  0.0161  0.0000  0.0000  0.0000  0.0000  0.0000  0.0000 </r>
       </set>
       <set comment="band 4">
        <r>  0.0000  0.0000  0.0161  0.0000  0.0000  0.0000  0.0000  0.0000  0.0000 </r>
        <r>  0.0000  0.2531  0.0000  0.7202  0.0000  0.0000  0.0000  0.0000  0.0000 </r>
       </set>
       <set comment="band 5">
        <r>  0.0000  0.0243  0.0000  0.0231  0.0000  0.0000  0.0000  0.0000  0.0000 </r>
        <r>  0.0000  0.0000  0.9448  0.0000  0.0000  0.0000  0.0000  0.0000  0.0000 </r>
       </set>
       <set comment="band 6">
        <r>  0.0000  0.0000  0.9448  0.0000  0.0000  0.0000  0.0000  0.0000  0.0000 </r>
        <r>  0.0000  0.0243  0.0000  0.0231  0.0000  0.0000  0.0000  0.0000  0.0000 </r>
       </set>
       <set comment="band 7">
        <r>  0.0424  0.0017  0.0000  0.0017  0.0162  0.0000  0.1468  0.0000  0.0208 </r>
        <r>  0.0000  0.0000  0.0003  0.0000  0.0000  0.3139  0.0000  0.1376  0.0000 </r>
       </set>
       <set comment="band 8">
        <r>  0.0000  0.0000  0.0003  0.0000  0.0000  0.3139  0.0000  0.1376  0.0000 </r>
        <r>  0.0424  0.0017  0.0000  0.0017  0.0162  0.0000  0.1468  0.0000  0.0208 </r>
       </set>
       <set comment="band 9">
        <r>  0.0040  0.0056  0.0000  0.0123  0.0955  0.0000  0.0447  0.0000  0.2629 </r>
        <r>  0.0000  0.0000  0.0007  0.0000  0.0000  0.0705  0.0000  0.1865  0.0000 </r>
       </set>
       <set comment="band 10">
        <r>  0.0000  0.0000  0.0007  0.0000  0.0000  0.0705  0.0000  0.1865  0.0000 </r>
        <r>  0.0040  0.0056  0.0000  0.0123  0.0955  0.0000  0.0447  0.0000  0.2629 </r>
       </set>
       <set comment="band 11">
        <r>  0.0019  0.0169  0.0000  0.0084  0.2680  0.0000  0.0320  0.0000  0.2266 </r>
        <r>  0.0000  0.0000  0.0046  0.0000  0.0000  0.0427  0.0000  0.0810  0.0000 </r>
       </set>
       <set comment="band 12">
        <r>  0.0000  0.0000  0.0046  0.0000  0.0000  0.0427  0.0000  0.0810  0.0000 </r>
        <r>  0.0019  0.0169  0.0000  0.0084  0.2680  0.0000  0.0320  0.0000  0.2266 </r>
       </set>
       <set comment="band 13">
        <r>  0.0045  0.0038  0.0000  0.0015  0.2600  0.0000  0.0129  0.0000  0.1627 </r>
        <r>  0.0000  0.0000  0.0002  0.0000  0.0000  0.1584  0.0000  0.2221  0.0000 </r>
       </set>
       <set comment="band 14">
        <r>  0.0000  0.0000  0.0002  0.0000  0.0000  0.1584  0.0000  0.2221  0.0000 </r>
        <r>  0.0045  0.0038  0.0000  0.0015  0.2600  0.0000  0.0129  0.0000  0.1627 </r>
       </set>
       <set comment="band 15">
        <r>  0.0005  0.0004  0.0000  0.0001  0.0227  0.0000  0.6243  0.0000  0.0086 </r>
        <r>  0.0000  0.0000  0.0003  0.0000  0.0000  0.1459  0.0000  0.1216  0.0000 </r>
       </set>
       <set comment="band 16">
        <r>  0.0000  0.0000  0.0003  0.0000  0.0000  0.1459  0.0000  0.1216  0.0000 </r>
        <r>  0.0005  0.0004  0.0000  0.0001  0.0227  0.0000  0.6243  0.0000  0.0086 </r>
       </set>
       <set comment="band 17">
        <r>  0.1858  0.0344  0.0001  0.0134  0.1660  0.0002  0.0094  0.0001  0.0658 </r>
        <r>  0.0005  0.0001  0.0221  0.0000  0.0005  0.0577  0.0000  0.0233  0.0002 </r>
       </set>
       <set comment="band 18">
        <r>  0.0005  0.0001  0.0221  0.0000  0.0005  0.0577  0.0000  0.0233  0.0002 </r>
        <r>  0.1858  0.0344  0.0001  0.0134  0.1660  0.0002  0.0094  0.0001  0.0658 </r>
       </set>
       <set comment="band 19">
        <r>  0.0000  0.0000  0.0190  0.0000  0.0000  0.0363  0.0000  0.0579  0.0000 </r>
        <r>  0.2797  0.0374  0.0000  0.0163  0.0351  0.0000  0.0138  0.0000  0.0232 </r>
       </set>
       <set comment="band 20">
        <r>  0.2797  0.0374  0.0000  0.0163  0.0351  0.0000  0.0138  0.0000  0.0232 </r>
        <r>  0.0000  0.0000  0.0190  0.0000  0.0000  0.0363  0.0000  0.0579  0.0000 </r>
       </set>
       <set comment="band 21">
        <r>  0.0010  0.0420  0.0000  0.0833  0.0659  0.0000  0.0013  0.0000  0.1555 </r>
        <r>  0.0000  0.0000  0.0150  0.0000  0.0000  0.0381  0.0000  0.0429  0.0000 </r>
       </set>
       <set comment="band 22">
        <r>  0.0000  0.0000  0.0150  0.0000  0.0000  0.0381  0.0000  0.0429  0.0000 </r>
        <r>  0.0010  0.0420  0.0000  0.0833  0.0659  0.0000  0.0013  0.0000  0.1555 </r>
       </set>
       <set comment="band 23">
        <r>  0.0000  0.0000  0.1274  0.0000  0.0000  0.0186  0.0000  0.0126  0.0000 </r>
        <r>  0.0024  0.0431  0.0000  0.0236  0.0189  0.0000  0.0044  0.0000  0.0163 </r>
       </set>
       <set comment="band 24">
        <r>  0.0024  0.0431  0.0000  0.0236  0.0189  0.0000  0.0044  0.0000  0.0163 </r>
        <r>  0.0000  0.0000  0.1274  0.0000  0.0000  0.0186  0.0000  0.0126  0.0000 </r>
       </set>
      </set>
     </set>
    </set>
   </array>
  </projected>
 </calculation>
 <structure name="finalpos" >
  <crystal>
   <varray name="basis" >
    <v>       2.86309101       0.00000000       0.00000000 </v>
    <v>      -1.43154550       2.47950955       0.00000000 </v>
    <v>       0.00000000       0.00000000       4.96023845 </v>
   </varray>
   <i name="volume">     35.21303768 </i>
   <varray name="rec_basis" >
    <v>       0.34927287       0.20165278       0.00000000 </v>
    <v>       0.00000000       0.40330557       0.00000000 </v>
    <v>       0.00000000       0.00000000       0.20160321 </v>
   </varray>
  </crystal>
  <varray name="positions" >
   <v>       0.00000000       0.00000000       0.00000000 </v>
   <v>       0.33333333       0.66666667       0.50000000 </v>
  </varray>
 </structure>
</modeling>
