Pt-hcc                                  
           1
     2.863091    0.000000    0.000000
    -1.431546    2.479510    0.000000
     0.000000    0.000000    4.960238
   Pt
     2
Direct configuration=     1
   0.00000000  0.00000000  0.00000000
   0.33333333  0.66666667  0.50000000
