Co-hcc                                  
   1.00000000000000     
     2.506236    0.000000    0.000000
    -1.253118    2.170464    0.000000
     0.000000    0.000000    4.054987
   Co
     2
Direct
  0.000000  0.000000  0.000000
  0.333333  0.666667  0.500000
 
   32   32   56
 0.20913758986E+03 0.20441398000E+03 0.19090155020E+03 0.17040024484E+03 0.14539940999E+03
 0.11854024115E+03 0.92193113899E+02 0.68222970362E+02 0.47930790760E+02 0.32057238293E+02
 0.20784694456E+02 0.13736090030E+02 0.10026226133E+02 0.84080757686E+01 0.76123148592E+01
 0.71299674899E+01 0.69773914481E+01 0.71302518363E+01 0.76107925474E+01 0.84111718667E+01
 0.10023757423E+02 0.13736935563E+02 0.20784356709E+02 0.32057615075E+02 0.47930417508E+02
 0.68223448771E+02 0.92192690978E+02 0.11854072114E+03 0.14539909539E+03 0.17040032949E+03
 0.19090151840E+03 0.20441393886E+03 0.20441393886E+03 0.20441401537E+03 0.19530098186E+03
 0.17832065189E+03 0.15563576156E+03 0.12982690970E+03 0.10339405498E+03 0.78444267062E+02
 0.56542845022E+02 0.38705536719E+02 0.25388438254E+02 0.16495485900E+02 0.11376043039E+02
 0.89540181951E+01 0.78992840753E+01 0.72687302463E+01 0.69588104445E+01 0.69564173359E+01
 0.72716631223E+01 0.78964916252E+01 0.89548340738E+01 0.11376576844E+02 0.16495173502E+02
 0.25388491403E+02 0.38705472658E+02 0.56542747503E+02 0.78444179812E+02 0.10339412352E+03
 0.12982649380E+03 0.15563637249E+03 0.17832033316E+03 0.19530121436E+03 0.19090151840E+03
 0.19529655382E+03 0.19090165106E+03 0.17832044875E+03 0.15920717315E+03 0.13585782053E+03
 0.11072920436E+03 0.86047242971E+02 0.63588214831E+02 0.44608848980E+02 0.29824416287E+02
 0.19408139139E+02 0.12970568075E+02 0.96381978063E+01 0.81853731478E+01 0.74266093650E+01
 0.69669914031E+01 0.68209798161E+01 0.69668553541E+01 0.74260021887E+01 0.81876059466E+01
 0.96356722259E+01 0.12972403471E+02 0.19406677614E+02 0.29825560379E+02 0.44608231249E+02
 0.63588808541E+02 0.86046947942E+02 0.11072969451E+03 0.13585739087E+03 0.15920736613E+03
 0.17832033316E+03 0.17040032949E+03 0.17830881251E+03 0.17830846757E+03 0.17040022358E+03
 0.15563616521E+03 0.13585787871E+03 0.11328420799E+03 0.90106061244E+02 0.68210611194E+02
 0.49033635479E+02 0.33521336088E+02 0.22084547472E+02 0.14602275439E+02 0.10418648807E+02
 0.84891321942E+01 0.75807929336E+01 0.70002961461E+01 0.67193368044E+01 0.67181250424E+01
 0.70021968216E+01 0.75779952177E+01 0.84914994737E+01 0.10417202791E+02 0.14603043380E+02
 0.22084347588E+02 0.33521136861E+02 0.49033622627E+02 0.68210500798E+02 0.90105736733E+02
 0.11328468748E+03 0.13585739087E+03 0.15563637249E+03 0.14539909539E+03 0.15561715226E+03
 0.15918132389E+03 0.15561739350E+03 0.14539949420E+03 0.12982603064E+03 0.11072959539E+03
 0.90105795103E+02 0.69820579287E+02 0.51405264807E+02 0.35970518230E+02 0.24137422211E+02
 0.16017256550E+02 0.11187850500E+02 0.88020251916E+01 0.77178804052E+01 0.70457128425E+01
 0.66517014069E+01 0.65227092417E+01 0.66509962566E+01 0.70468823064E+01 0.77173510846E+01
 0.88017341596E+01 0.11188686331E+02 0.16016324373E+02 0.24138292364E+02 0.35969952367E+02
 0.51405887833E+02 0.69820432340E+02 0.90105736733E+02 0.11072969451E+03 0.12982649380E+03
 0.11854072114E+03 0.12980467543E+03 0.13582163068E+03 0.13582146065E+03 0.12980453248E+03
 0.11854055195E+03 0.10339457930E+03 0.86047248467E+02 0.68210273933E+02 0.51405785686E+02
 0.36827886003E+02 0.25251224260E+02 0.16977959118E+02 0.11806645828E+02 0.90856878588E+01
 0.78309954033E+01 0.70919768907E+01 0.66106855618E+01 0.63784420695E+01 0.63796878266E+01
 0.66095386522E+01 0.70923248221E+01 0.78313638175E+01 0.90849207882E+01 0.11807303291E+02
 0.16977181573E+02 0.25251935764E+02 0.36827238914E+02 0.51405887833E+02 0.68210500798E+02
 0.86046947942E+02 0.10339412352E+03 0.92192690978E+02 0.10337567892E+03 0.11069362270E+03
 0.11324140127E+03 0.11069349000E+03 0.10337567369E+03 0.92192895707E+02 0.78443591748E+02
 0.63588439821E+02 0.49034039771E+02 0.35969969510E+02 0.25251457019E+02 0.17318839818E+02
 0.12150883144E+02 0.92872360760E+01 0.79142751360E+01 0.71310733801E+01 0.65867724280E+01
 0.62806551873E+01 0.61789988547E+01 0.62806085459E+01 0.65873788165E+01 0.71300307528E+01
 0.79155390346E+01 0.92861978759E+01 0.12152116670E+02 0.17317936740E+02 0.25251935764E+02
 0.35969952367E+02 0.49033622627E+02 0.63588808541E+02 0.78444179812E+02 0.68223448771E+02
 0.78436101439E+02 0.86024874622E+02 0.90073761629E+02 0.90074122100E+02 0.86025374127E+02
 0.78435989063E+02 0.68223407798E+02 0.56543291686E+02 0.44608795525E+02 0.33520414469E+02
 0.24138303676E+02 0.16977360159E+02 0.12151607242E+02 0.93595793796E+01 0.79605860425E+01
 0.71550683387E+01 0.65762125125E+01 0.62169611598E+01 0.60453952959E+01 0.60456466823E+01
 0.62162893790E+01 0.65771820889E+01 0.71539227974E+01 0.79614387711E+01 0.93585382980E+01
 0.12152116670E+02 0.16977181573E+02 0.24138292364E+02 0.33521136861E+02 0.44608231249E+02
 0.56542747503E+02 0.47930417508E+02 0.56551039939E+02 0.63593335703E+02 0.68208007738E+02
 0.69814427534E+02 0.68207273741E+02 0.63592733102E+02 0.56551149838E+02 0.47930500351E+02
 0.38704923043E+02 0.29824754664E+02 0.22085714813E+02 0.16016044216E+02 0.11807257978E+02
 0.92864403635E+01 0.79606300497E+01 0.71635563649E+01 0.65716547513E+01 0.61827763870E+01
 0.59633958618E+01 0.58950966359E+01 0.59638104812E+01 0.61820997667E+01 0.65725460021E+01
 0.71629896864E+01 0.79614387711E+01 0.92861978759E+01 0.11807303291E+02 0.16016324373E+02
 0.22084347588E+02 0.29825560379E+02 0.38705472658E+02 0.32057615075E+02 0.38731969049E+02
 0.44646192825E+02 0.49074401341E+02 0.51445881842E+02 0.51446300701E+02 0.49075206316E+02
 0.44647142536E+02 0.38731596990E+02 0.32057545518E+02 0.25389072699E+02 0.19407434004E+02
 0.14601120844E+02 0.11189501456E+02 0.90846689382E+01 0.79154890632E+01 0.71546870376E+01
 0.65720121985E+01 0.61716103544E+01 0.59255873390E+01 0.58119504999E+01 0.58111696769E+01
 0.59264443815E+01 0.61706089893E+01 0.65725460021E+01 0.71539227974E+01 0.79155390346E+01
 0.90849207882E+01 0.11188686331E+02 0.14603043380E+02 0.19406677614E+02 0.25388491403E+02
 0.20784356709E+02 0.25430945425E+02 0.29897498326E+02 0.33609713426E+02 0.36066645714E+02
 0.36925830138E+02 0.36066240321E+02 0.33608427964E+02 0.29896617177E+02 0.25431329960E+02
 0.20784703603E+02 0.16494523350E+02 0.12971695870E+02 0.10419460741E+02 0.88003489750E+01
 0.78322081311E+01 0.71295295013E+01 0.65768670343E+01 0.61820931573E+01 0.59259404618E+01
 0.57851460125E+01 0.57409459949E+01 0.57849272865E+01 0.59264443815E+01 0.61820997667E+01
 0.65771820889E+01 0.71300307528E+01 0.78313638175E+01 0.88017341596E+01 0.10417202791E+02
 0.12972403471E+02 0.16495173502E+02 0.13736935563E+02 0.16550307145E+02 0.19505558910E+02
 0.22215271518E+02 0.24288923925E+02 0.25412236320E+02 0.25412393988E+02 0.24289540238E+02
 0.22216795232E+02 0.19506516905E+02 0.16549693448E+02 0.13735878136E+02 0.11377870821E+02
 0.96361613456E+01 0.84890079048E+01 0.77191986985E+01 0.70909152377E+01 0.65884100852E+01
 0.62162991634E+01 0.59641217163E+01 0.58116324199E+01 0.57407104497E+01 0.57409459949E+01
 0.58111696769E+01 0.59638104812E+01 0.62162893790E+01 0.65873788165E+01 0.70923248221E+01
 0.77173510846E+01 0.84914994737E+01 0.96356722259E+01 0.11376576844E+02 0.10023757423E+02
 0.11437933827E+02 0.13088033469E+02 0.14763737402E+02 0.16209668883E+02 0.17190674802E+02
 0.17537754270E+02 0.17190236418E+02 0.16209078652E+02 0.14761620666E+02 0.13087273669E+02
 0.11439204697E+02 0.10025509073E+02 0.89517455599E+01 0.81887589702E+01 0.75795516596E+01
 0.70455198372E+01 0.66108988613E+01 0.62793958768E+01 0.60457247533E+01 0.58944330284E+01
 0.58116324199E+01 0.57851460125E+01 0.58119504999E+01 0.58950966359E+01 0.60456466823E+01
 0.62806085459E+01 0.66095386522E+01 0.70468823064E+01 0.75779952177E+01 0.81876059466E+01
 0.89548340738E+01 0.84111718667E+01 0.90186218905E+01 0.97605386923E+01 0.10595476629E+02
 0.11409465173E+02 0.12057782803E+02 0.12417534669E+02 0.12417857024E+02 0.12058042721E+02
 0.11410661942E+02 0.10597697741E+02 0.97611279507E+01 0.90155161530E+01 0.84110914388E+01
 0.78997654702E+01 0.74236884270E+01 0.70017396117E+01 0.66513887586E+01 0.63788660793E+01
 0.61800390315E+01 0.60457247533E+01 0.59641217163E+01 0.59259404618E+01 0.59255873390E+01
 0.59633958618E+01 0.60453952959E+01 0.61789988547E+01 0.63796878266E+01 0.66509962566E+01
 0.70021968216E+01 0.74260021887E+01 0.78964916252E+01 0.76107925474E+01 0.79613899851E+01
 0.83160671857E+01 0.86763221597E+01 0.90349384697E+01 0.93558481311E+01 0.95807013796E+01
 0.96614947623E+01 0.95806477936E+01 0.93550361095E+01 0.90335826230E+01 0.86737275664E+01
 0.83172100390E+01 0.79646631926E+01 0.76089751742E+01 0.72696665802E+01 0.69689530995E+01
 0.67184645244E+01 0.65228595881E+01 0.63788660793E+01 0.62793958768E+01 0.62162991634E+01
 0.61820931573E+01 0.61716103544E+01 0.61827763870E+01 0.62169611598E+01 0.62806551873E+01
 0.63784420695E+01 0.65227092417E+01 0.67181250424E+01 0.69668553541E+01 0.72716631223E+01
 0.71302518363E+01 0.73373901143E+01 0.75556480442E+01 0.77659220488E+01 0.79571463144E+01
 0.81149669727E+01 0.82297499604E+01 0.82914132153E+01 0.82909708359E+01 0.82303329151E+01
 0.81158816883E+01 0.79591359401E+01 0.77674619825E+01 0.75533835466E+01 0.73353537691E+01
 0.71325001039E+01 0.69575981876E+01 0.68193103807E+01 0.67184645244E+01 0.66513887586E+01
 0.66108988613E+01 0.65884100852E+01 0.65768670343E+01 0.65720121985E+01 0.65716547513E+01
 0.65762125125E+01 0.65867724280E+01 0.66106855618E+01 0.66517014069E+01 0.67193368044E+01
 0.68209798161E+01 0.69564173359E+01 0.69773914481E+01 0.70225767127E+01 0.70973725191E+01
 0.71929686467E+01 0.72921787797E+01 0.73839019227E+01 0.74558671930E+01 0.75007967671E+01
 0.75168144450E+01 0.75008121605E+01 0.74553145939E+01 0.73821693582E+01 0.72908794966E+01
 0.71924297385E+01 0.70995147910E+01 0.70237532190E+01 0.69753437098E+01 0.69575981876E+01
 0.69689530995E+01 0.70017396117E+01 0.70455198372E+01 0.70909152377E+01 0.71295295013E+01
 0.71546870376E+01 0.71635563649E+01 0.71550683387E+01 0.71310733801E+01 0.70919768907E+01
 0.70457128425E+01 0.70002961461E+01 0.69669914031E+01 0.69588104445E+01 0.71299674899E+01
 0.70249872249E+01 0.69518559172E+01 0.69103534555E+01 0.68993525121E+01 0.69059065684E+01
 0.69216355993E+01 0.69381505158E+01 0.69470831402E+01 0.69476039149E+01 0.69378477336E+01
 0.69230875618E+01 0.69072992995E+01 0.68997951889E+01 0.69106619523E+01 0.69501988993E+01
 0.70237532190E+01 0.71325001039E+01 0.72696665802E+01 0.74236884270E+01 0.75795516596E+01
 0.77191986985E+01 0.78322081311E+01 0.79154890632E+01 0.79606300497E+01 0.79605860425E+01
 0.79142751360E+01 0.78309954033E+01 0.77178804052E+01 0.75807929336E+01 0.74266093650E+01
 0.72687302463E+01 0.76123148592E+01 0.73344384272E+01 0.70974894947E+01 0.69115962174E+01
 0.67721033485E+01 0.66793102160E+01 0.66220155604E+01 0.65890126336E+01 0.65742770101E+01
 0.65691393408E+01 0.65741264066E+01 0.65885308393E+01 0.66207335172E+01 0.66783396366E+01
 0.67723375780E+01 0.69106619523E+01 0.70995147910E+01 0.73353537691E+01 0.76089751742E+01
 0.78997654702E+01 0.81887589702E+01 0.84890079048E+01 0.88003489750E+01 0.90846689382E+01
 0.92864403635E+01 0.93595793796E+01 0.92872360760E+01 0.90856878588E+01 0.88020251916E+01
 0.84891321942E+01 0.81853731478E+01 0.78992840753E+01 0.84080757686E+01 0.79641675296E+01
 0.75563175851E+01 0.71910183416E+01 0.69000873429E+01 0.66778989392E+01 0.65224105405E+01
 0.64231581158E+01 0.63646880077E+01 0.63394049754E+01 0.63388394634E+01 0.63656891001E+01
 0.64233693610E+01 0.65235930676E+01 0.66783396366E+01 0.68997951889E+01 0.71924297385E+01
 0.75533835466E+01 0.79646631926E+01 0.84110914388E+01 0.89517455599E+01 0.96361613456E+01
 0.10419460741E+02 0.11189501456E+02 0.11807257978E+02 0.12151607242E+02 0.12150883144E+02
 0.11806645828E+02 0.11187850500E+02 0.10418648807E+02 0.96381978063E+01 0.89540181951E+01
 0.10026226133E+02 0.90178294930E+01 0.83137730443E+01 0.77687492400E+01 0.72909339045E+01
 0.69072860217E+01 0.66219136793E+01 0.64232958306E+01 0.63004514220E+01 0.62333323566E+01
 0.62133267806E+01 0.62331824801E+01 0.62995533428E+01 0.64233693610E+01 0.66207335172E+01
 0.69072992995E+01 0.72908794966E+01 0.77674619825E+01 0.83172100390E+01 0.90155161530E+01
 0.10025509073E+02 0.11377870821E+02 0.12971695870E+02 0.14601120844E+02 0.16016044216E+02
 0.16977360159E+02 0.17318839818E+02 0.16977959118E+02 0.16017256550E+02 0.14602275439E+02
 0.12970568075E+02 0.11376043039E+02 0.13736090030E+02 0.11437341798E+02 0.97631592915E+01
 0.86738947262E+01 0.79578193848E+01 0.73832935793E+01 0.69211745424E+01 0.65894128446E+01
 0.63643091181E+01 0.62338050529E+01 0.61719958729E+01 0.61733464524E+01 0.62331824801E+01
 0.63656891001E+01 0.65885308393E+01 0.69230875618E+01 0.73821693582E+01 0.79591359401E+01
 0.86737275664E+01 0.97611279507E+01 0.11439204697E+02 0.13735878136E+02 0.16494523350E+02
 0.19407434004E+02 0.22085714813E+02 0.24138303676E+02 0.25251457019E+02 0.25251224260E+02
 0.24137422211E+02 0.22084547472E+02 0.19408139139E+02 0.16495485900E+02 0.20784694456E+02
 0.16550743539E+02 0.13086104948E+02 0.10596968502E+02 0.90350782267E+01 0.81147962565E+01
 0.74568334126E+01 0.69373553080E+01 0.65749516635E+01 0.63385832973E+01 0.62139910854E+01
 0.61719958729E+01 0.62133267806E+01 0.63388394634E+01 0.65741264066E+01 0.69378477336E+01
 0.74553145939E+01 0.81158816883E+01 0.90335826230E+01 0.10597697741E+02 0.13087273669E+02
 0.16549693448E+02 0.20784703603E+02 0.25389072699E+02 0.29824754664E+02 0.33520414469E+02
 0.35969969510E+02 0.36827886003E+02 0.35970518230E+02 0.33521336088E+02 0.29824416287E+02
 0.25388438254E+02 0.32057238293E+02 0.25430705800E+02 0.19507155640E+02 0.14762754873E+02
 0.11409049119E+02 0.93561659732E+01 0.82289026085E+01 0.75013709991E+01 0.69466897834E+01
 0.65696516594E+01 0.63385832973E+01 0.62338050529E+01 0.62333323566E+01 0.63394049754E+01
 0.65691393408E+01 0.69476039149E+01 0.75008121605E+01 0.82303329151E+01 0.93550361095E+01
 0.11410661942E+02 0.14761620666E+02 0.19506516905E+02 0.25431329960E+02 0.32057545518E+02
 0.38704923043E+02 0.44608795525E+02 0.49034039771E+02 0.51405785686E+02 0.51405264807E+02
 0.49033635479E+02 0.44608848980E+02 0.38705536719E+02 0.47930790760E+02 0.38732182522E+02
 0.29896286051E+02 0.22215653108E+02 0.16210398819E+02 0.12057186765E+02 0.95817226194E+01
 0.82906175562E+01 0.75175155489E+01 0.69466897834E+01 0.65749516635E+01 0.63643091181E+01
 0.63004514220E+01 0.63646880077E+01 0.65742770101E+01 0.69470831402E+01 0.75168144450E+01
 0.82909708359E+01 0.95806477936E+01 0.12058042721E+02 0.16209078652E+02 0.22216795232E+02
 0.29896617177E+02 0.38731596990E+02 0.47930500351E+02 0.56543291686E+02 0.63588439821E+02
 0.68210273933E+02 0.69820579287E+02 0.68210611194E+02 0.63588214831E+02 0.56542845022E+02
 0.68222970362E+02 0.56550846690E+02 0.44647059639E+02 0.33609555496E+02 0.24288386565E+02
 0.17191067792E+02 0.12416859835E+02 0.96619323330E+01 0.82906175562E+01 0.75013709991E+01
 0.69373553080E+01 0.65894128446E+01 0.64232958306E+01 0.64231581158E+01 0.65890126336E+01
 0.69381505158E+01 0.75007967671E+01 0.82914132153E+01 0.96614947623E+01 0.12417857024E+02
 0.17190236418E+02 0.24289540238E+02 0.33608427964E+02 0.44647142536E+02 0.56551149838E+02
 0.68223407798E+02 0.78443591748E+02 0.86047248467E+02 0.90105795103E+02 0.90106061244E+02
 0.86047242971E+02 0.78444267062E+02 0.92193113899E+02 0.78436201408E+02 0.63592904150E+02
 0.49074297183E+02 0.36067321385E+02 0.25411469524E+02 0.17538822425E+02 0.12416859835E+02
 0.95817226194E+01 0.82289026085E+01 0.74568334126E+01 0.69211745424E+01 0.66219136793E+01
 0.65224105405E+01 0.66220155604E+01 0.69216355993E+01 0.74558671930E+01 0.82297499604E+01
 0.95807013796E+01 0.12417534669E+02 0.17537754270E+02 0.25412393988E+02 0.36066240321E+02
 0.49075206316E+02 0.63592733102E+02 0.78435989063E+02 0.92192895707E+02 0.10339457930E+03
 0.11072959539E+03 0.11328420799E+03 0.11072920436E+03 0.10339405498E+03 0.11854024115E+03
 0.10337570199E+03 0.86025110632E+02 0.68208087198E+02 0.51445223922E+02 0.36926643764E+02
 0.25411469524E+02 0.17191067792E+02 0.12057186765E+02 0.93561659732E+01 0.81147962565E+01
 0.73832935793E+01 0.69072860217E+01 0.66778989392E+01 0.66793102160E+01 0.69059065684E+01
 0.73839019227E+01 0.81149669727E+01 0.93558481311E+01 0.12057782803E+02 0.17190674802E+02
 0.25412236320E+02 0.36925830138E+02 0.51446300701E+02 0.68207273741E+02 0.86025374127E+02
 0.10337567369E+03 0.11854055195E+03 0.12982603064E+03 0.13585787871E+03 0.13585782053E+03
 0.12982690970E+03 0.14539940999E+03 0.12980450095E+03 0.11069369131E+03 0.90073380953E+02
 0.69815402612E+02 0.51445223922E+02 0.36067321385E+02 0.24288386565E+02 0.16210398819E+02
 0.11409049119E+02 0.90350782267E+01 0.79578193848E+01 0.72909339045E+01 0.69000873429E+01
 0.67721033485E+01 0.68993525121E+01 0.72921787797E+01 0.79571463144E+01 0.90349384697E+01
 0.11409465173E+02 0.16209668883E+02 0.24288923925E+02 0.36066645714E+02 0.51445881842E+02
 0.69814427534E+02 0.90074122100E+02 0.11069349000E+03 0.12980453248E+03 0.14539949420E+03
 0.15563616521E+03 0.15920717315E+03 0.15563576156E+03 0.17040024484E+03 0.15561745138E+03
 0.13582158037E+03 0.11324168427E+03 0.90073380953E+02 0.68208087198E+02 0.49074297183E+02
 0.33609555496E+02 0.22215653108E+02 0.14762754873E+02 0.10596968502E+02 0.86738947262E+01
 0.77687492400E+01 0.71910183416E+01 0.69115962174E+01 0.69103534555E+01 0.71929686467E+01
 0.77659220488E+01 0.86763221597E+01 0.10595476629E+02 0.14763737402E+02 0.22215271518E+02
 0.33609713426E+02 0.49074401341E+02 0.68208007738E+02 0.90073761629E+02 0.11324140127E+03
 0.13582146065E+03 0.15561739350E+03 0.17040022358E+03 0.17832044875E+03 0.17832065189E+03
 0.19090155020E+03 0.17830874592E+03 0.15918094100E+03 0.13582158037E+03 0.11069369131E+03
 0.86025110632E+02 0.63592904150E+02 0.44647059639E+02 0.29896286051E+02 0.19507155640E+02
 0.13086104948E+02 0.97631592915E+01 0.83137730443E+01 0.75563175851E+01 0.70974894947E+01
 0.69518559172E+01 0.70973725191E+01 0.75556480442E+01 0.83160671857E+01 0.97605386923E+01
 0.13088033469E+02 0.19505558910E+02 0.29897498326E+02 0.44646192825E+02 0.63593335703E+02
 0.86024874622E+02 0.11069362270E+03 0.13582163068E+03 0.15918132389E+03 0.17830846757E+03
 0.19090165106E+03 0.19530098186E+03 0.20441398000E+03 0.19529652061E+03 0.17830874592E+03
 0.15561745138E+03 0.12980450095E+03 0.10337570199E+03 0.78436201408E+02 0.56550846690E+02
 0.38732182522E+02 0.25430705800E+02 0.16550743539E+02 0.11437341798E+02 0.90178294930E+01
 0.79641675296E+01 0.73344384272E+01 0.70249872249E+01 0.70225767127E+01 0.73373901143E+01
 0.79613899851E+01 0.90186218905E+01 0.11437933827E+02 0.16550307145E+02 0.25430945425E+02
 0.38731969049E+02 0.56551039939E+02 0.78436101439E+02 0.10337567892E+03 0.12980467543E+03
 0.15561715226E+03 0.17830881251E+03 0.19529655382E+03 0.20441401537E+03 0.20509009289E+03
 0.20046271214E+03 0.18722301747E+03 0.16712813538E+03 0.14261062841E+03 0.11625786602E+03
 0.90398685391E+02 0.66871596554E+02 0.46965051817E+02 0.31412026436E+02 0.20391719741E+02
 0.13523572684E+02 0.99260875806E+01 0.83577823607E+01 0.75734289521E+01 0.70976595669E+01
 0.69471599779E+01 0.70978517807E+01 0.75722301002E+01 0.83607284660E+01 0.99233433947E+01
 0.13524633525E+02 0.20391357397E+02 0.31412631265E+02 0.46964711232E+02 0.66872391192E+02
 0.90398270405E+02 0.11625866551E+03 0.14261032553E+03 0.16712793185E+03 0.18722299187E+03
 0.20046267327E+03 0.20046266206E+03 0.20046273616E+03 0.19153373231E+03 0.17489139845E+03
 0.15264905003E+03 0.12733111967E+03 0.10139002685E+03 0.76900377946E+02 0.55408078623E+02
 0.37919877320E+02 0.24885570314E+02 0.16206277750E+02 0.11229769688E+02 0.88855421144E+01
 0.78555527527E+01 0.72324946278E+01 0.69269728080E+01 0.69247513579E+01 0.72352372848E+01
 0.78525870441E+01 0.88867339397E+01 0.11230317770E+02 0.16205805975E+02 0.24885552809E+02
 0.37919654998E+02 0.55407816129E+02 0.76900158631E+02 0.10138991360E+03 0.12733067722E+03
 0.15264965899E+03 0.17489124490E+03 0.19153392887E+03 0.18722296111E+03 0.19153011905E+03
 0.18722306727E+03 0.17489155084E+03 0.15615053369E+03 0.13324666234E+03 0.10858725158E+03
 0.84360232245E+02 0.62317487933E+02 0.43701998168E+02 0.29220999611E+02 0.19042452500E+02
 0.12774115872E+02 0.95445687446E+01 0.81352658244E+01 0.73863299555E+01 0.69334084045E+01
 0.67892463636E+01 0.69332113323E+01 0.73860652716E+01 0.81372087667E+01 0.95419609302E+01
 0.12775975171E+02 0.19041131991E+02 0.29222244808E+02 0.43701581892E+02 0.62318141079E+02
 0.84360172454E+02 0.10858769555E+03 0.13324620457E+03 0.15615087703E+03 0.17489128687E+03
 0.16712817985E+03 0.17488174583E+03 0.17488163209E+03 0.16712770170E+03 0.15264957094E+03
 0.13324682481E+03 0.11109431408E+03 0.88342899790E+02 0.66851662157E+02 0.48037916373E+02
 0.32837105663E+02 0.21652256808E+02 0.14357497169E+02 0.10296244133E+02 0.84287241149E+01
 0.75372771412E+01 0.69644863752E+01 0.66873241931E+01 0.66865084269E+01 0.69658659875E+01
 0.75348306567E+01 0.84310271751E+01 0.10294890307E+02 0.14358162757E+02 0.21652012783E+02
 0.32836615794E+02 0.48037972884E+02 0.66851213111E+02 0.88342751600E+02 0.11109469202E+03
 0.13324642180E+03 0.15264939978E+03 0.14261058137E+03 0.15263390039E+03 0.15613008774E+03
 0.15263431414E+03 0.14261083287E+03 0.12732983005E+03 0.10858782356E+03 0.88342355120E+02
 0.68430941577E+02 0.50362156754E+02 0.35233829911E+02 0.23655389678E+02 0.15732691621E+02
 0.11038631437E+02 0.87293832350E+01 0.76715561164E+01 0.70074765161E+01 0.66193004078E+01
 0.64922072749E+01 0.66186625544E+01 0.70087270133E+01 0.76707459929E+01 0.87293484237E+01
 0.11039318096E+02 0.15731862965E+02 0.23656428691E+02 0.35233327079E+02 0.50362953112E+02
 0.68430754719E+02 0.88342247775E+02 0.10858798214E+03 0.12733043259E+03 0.11625831588E+03
 0.12731411040E+03 0.13321851153E+03 0.13321853383E+03 0.12731371820E+03 0.11625863372E+03
 0.10139041624E+03 0.84360587738E+02 0.66851077765E+02 0.50363155668E+02 0.36072690565E+02
 0.24743387683E+02 0.16666635372E+02 0.11636838736E+02 0.90011404099E+01 0.77819115264E+01
 0.70515382604E+01 0.65777090901E+01 0.63483928123E+01 0.63500642875E+01 0.65760409728E+01
 0.70525567533E+01 0.77816538851E+01 0.90008294938E+01 0.11637026623E+02 0.16666224762E+02
 0.24743561834E+02 0.36072342260E+02 0.50362859315E+02 0.66851810733E+02 0.84359792063E+02
 0.10139025202E+03 0.90398285476E+02 0.10137776570E+03 0.10856234660E+03 0.11106367260E+03
 0.10856210189E+03 0.10137766420E+03 0.90398457638E+02 0.76899384289E+02 0.62317817717E+02
 0.48038155213E+02 0.35233214968E+02 0.24743195952E+02 0.16998646332E+02 0.11969694734E+02
 0.91946579112E+01 0.78619563441E+01 0.70893892179E+01 0.65527086038E+01 0.62510488665E+01
 0.61511036363E+01 0.62510336787E+01 0.65531334392E+01 0.70884798170E+01 0.78632482633E+01
 0.91936712073E+01 0.11971015371E+02 0.16997684253E+02 0.24743896392E+02 0.35233086317E+02
 0.48037709821E+02 0.62318186912E+02 0.76900154768E+02 0.66872078686E+02 0.76898824829E+02
 0.84349777966E+02 0.88325628926E+02 0.88325961876E+02 0.84350681599E+02 0.76898407926E+02
 0.66872475112E+02 0.55408422427E+02 0.43702214450E+02 0.32835969964E+02 0.23656746336E+02
 0.16666046712E+02 0.11970544742E+02 0.92637900051E+01 0.79066292672E+01 0.71123037303E+01
 0.65416020137E+01 0.61870854796E+01 0.60185951017E+01 0.60184283915E+01 0.61870048563E+01
 0.65420588531E+01 0.71115183830E+01 0.79070369050E+01 0.92630114265E+01 0.11970717935E+02
 0.16666187639E+02 0.23656372018E+02 0.32837176293E+02 0.43701238624E+02 0.55408117428E+02
 0.46964587817E+02 0.55422715880E+02 0.62334896074E+02 0.66865548380E+02 0.68442393253E+02
 0.66864548685E+02 0.62334280531E+02 0.55422730364E+02 0.46964670511E+02 0.37919040310E+02
 0.29221413558E+02 0.21653263111E+02 0.15731357864E+02 0.11637395352E+02 0.91937870881E+01
 0.79065272503E+01 0.71206280730E+01 0.65364784777E+01 0.61529492845E+01 0.59370348699E+01
 0.58696075520E+01 0.59372794974E+01 0.61523263880E+01 0.65374269748E+01 0.71200956096E+01
 0.79074728267E+01 0.91935327211E+01 0.11637499667E+02 0.15731483717E+02 0.21651888206E+02
 0.29222152156E+02 0.37919789621E+02 0.31412511340E+02 0.37952123653E+02 0.43750933928E+02
 0.48094801022E+02 0.50421892847E+02 0.50422398273E+02 0.48095698197E+02 0.43752092121E+02
 0.37951606807E+02 0.31412656496E+02 0.24886204465E+02 0.19041907918E+02 0.14356306158E+02
 0.11040316600E+02 0.90002189979E+01 0.78633121964E+01 0.71119924840E+01 0.65369083575E+01
 0.61416260334E+01 0.58993702570E+01 0.57871875055E+01 0.57867662918E+01 0.58999803470E+01
 0.61408160465E+01 0.65371836345E+01 0.71113258016E+01 0.78631434091E+01 0.90005997894E+01
 0.11039454004E+02 0.14358530675E+02 0.19040981304E+02 0.24885661526E+02 0.20391186725E+02
 0.24933237028E+02 0.29304388294E+02 0.32940666665E+02 0.35347852559E+02 0.36190146880E+02
 0.35347523314E+02 0.32939081761E+02 0.29303543160E+02 0.24933560195E+02 0.20391592509E+02
 0.16205071283E+02 0.12775320109E+02 0.10297116543E+02 0.87276877540E+01 0.77829382269E+01
 0.70877797495E+01 0.65421307042E+01 0.61522413668E+01 0.58997739389E+01 0.57606738725E+01
 0.57171413363E+01 0.57605050682E+01 0.59002709447E+01 0.61522791306E+01 0.65425420322E+01
 0.70882940735E+01 0.77821741872E+01 0.87289219182E+01 0.10294812987E+02 0.12775835261E+02
 0.16205987855E+02 0.13524814894E+02 0.16265204266E+02 0.19148989625E+02 0.21795880950E+02
 0.23823961335E+02 0.24922599652E+02 0.24922931837E+02 0.23824395937E+02 0.21797794971E+02
 0.19149791548E+02 0.16264670568E+02 0.13523658341E+02 0.11231755220E+02 0.95422058131E+01
 0.84287979865E+01 0.76727069208E+01 0.70508241780E+01 0.65542559484E+01 0.61866853878E+01
 0.59375694947E+01 0.57870209257E+01 0.57170134446E+01 0.57171520326E+01 0.57864649978E+01
 0.59373374510E+01 0.61865109809E+01 0.65533298790E+01 0.70520257548E+01 0.76711831947E+01
 0.84310937986E+01 0.95421115369E+01 0.11230125194E+02 0.99233570326E+01 0.11295388604E+02
 0.12899179050E+02 0.14530657538E+02 0.15939526099E+02 0.16896395861E+02 0.17235025495E+02
 0.16895883263E+02 0.15938998736E+02 0.14528280237E+02 0.12898545051E+02 0.11296722177E+02
 0.99250400191E+01 0.88834682511E+01 0.81387294664E+01 0.75358845117E+01 0.70074912478E+01
 0.65775328783E+01 0.62499323706E+01 0.60187115046E+01 0.58690852387E+01 0.57868259192E+01
 0.57608581827E+01 0.57872937930E+01 0.58697446048E+01 0.60187272604E+01 0.62510322454E+01
 0.65763769648E+01 0.70084848180E+01 0.75345690267E+01 0.81372531666E+01 0.88867315100E+01
 0.83606878499E+01 0.89537953331E+01 0.96734520366E+01 0.10483009923E+02 0.11273276676E+02
 0.11903143700E+02 0.12252775094E+02 0.12253257040E+02 0.11903350926E+02 0.11274571015E+02
 0.10485250520E+02 0.96740121648E+01 0.89504191603E+01 0.83610385255E+01 0.78556549113E+01
 0.73837051268E+01 0.69657508214E+01 0.66189947615E+01 0.63490261900E+01 0.61520440203E+01
 0.60186845264E+01 0.59377914795E+01 0.58995626505E+01 0.58992909477E+01 0.59368708388E+01
 0.60183232110E+01 0.61510780914E+01 0.63497552739E+01 0.66188777715E+01 0.69661545957E+01
 0.73859938935E+01 0.78526164521E+01 0.75721624691E+01 0.79205795771E+01 0.82717126963E+01
 0.86252897587E+01 0.89738645025E+01 0.92853248403E+01 0.95031484134E+01 0.95813994375E+01
 0.95030653585E+01 0.92843683866E+01 0.89726500674E+01 0.86225632259E+01 0.82732344564E+01
 0.79236591167E+01 0.75701833270E+01 0.72335150916E+01 0.69351598542E+01 0.66866510128E+01
 0.64923669355E+01 0.63491344372E+01 0.62498511016E+01 0.61865716504E+01 0.61523444080E+01
 0.61418135899E+01 0.61530050683E+01 0.61874656176E+01 0.62509661641E+01 0.63488100732E+01
 0.64918838105E+01 0.66863280660E+01 0.69331744631E+01 0.72353161242E+01 0.70979052202E+01
 0.73038410952E+01 0.75213883075E+01 0.77309955335E+01 0.79216368194E+01 0.80782466846E+01
 0.81916695019E+01 0.82524437970E+01 0.82519696533E+01 0.81923948014E+01 0.80791871381E+01
 0.79235230491E+01 0.77323507413E+01 0.75190002131E+01 0.73021030204E+01 0.71000714257E+01
 0.69258255672E+01 0.67877117380E+01 0.66866368212E+01 0.66189007058E+01 0.65775999557E+01
 0.65543838774E+01 0.65420134714E+01 0.65367349926E+01 0.65364085023E+01 0.65412360674E+01
 0.65527771145E+01 0.65773060208E+01 0.66196096806E+01 0.66875187456E+01 0.67892690412E+01
 0.69246867101E+01 0.69471185762E+01 0.69937312358E+01 0.70692156322E+01 0.71650542800E+01
 0.72640462077E+01 0.73560064547E+01 0.74280772769E+01 0.74730501742E+01 0.74891263724E+01
 0.74729766301E+01 0.74274804085E+01 0.73541963759E+01 0.72631355855E+01 0.71646264567E+01
 0.70712342300E+01 0.69947781100E+01 0.69451649477E+01 0.69258135293E+01 0.69351860836E+01
 0.69658328393E+01 0.70074362082E+01 0.70506842111E+01 0.70879090201E+01 0.71121538112E+01
 0.71207100862E+01 0.71126576388E+01 0.70893327450E+01 0.70519292919E+01 0.70071792811E+01
 0.69642797849E+01 0.69333977647E+01 0.69270254179E+01 0.70977107408E+01 0.69959356526E+01
 0.69256005239E+01 0.68863778805E+01 0.68772994209E+01 0.68846269357E+01 0.69008676663E+01
 0.69175998118E+01 0.69265798494E+01 0.69272064630E+01 0.69173248661E+01 0.69024027069E+01
 0.68858707264E+01 0.68773356190E+01 0.68867673210E+01 0.69240547491E+01 0.69947878822E+01
 0.71000736913E+01 0.72334986343E+01 0.73836133367E+01 0.75359493235E+01 0.76728371155E+01
 0.77828187285E+01 0.78631410971E+01 0.79064550092E+01 0.79062655865E+01 0.78620225892E+01
 0.77815107227E+01 0.76718631236E+01 0.75374739593E+01 0.73863503674E+01 0.72324322457E+01
 0.75734016243E+01 0.73010928941E+01 0.70694182929E+01 0.68877492935E+01 0.67512458468E+01
 0.66611044252E+01 0.66054191617E+01 0.65734099515E+01 0.65592233568E+01 0.65541263983E+01
 0.65590211636E+01 0.65728390076E+01 0.66042707613E+01 0.66603004830E+01 0.67517682061E+01
 0.68867434750E+01 0.70712483038E+01 0.73020769088E+01 0.75702236303E+01 0.78557228553E+01
 0.81386885007E+01 0.84286439458E+01 0.87278310985E+01 0.90003662511E+01 0.91938831752E+01
 0.92641298397E+01 0.91946155121E+01 0.90015173676E+01 0.87291000740E+01 0.84285034507E+01