   2   2   1   0
  0.1102894E+02  0.2506236E-09  0.2506236E-09  0.4054987E-09  0.5000000E-15
  1.000000000000000E-004
  CAR 
 Co-hcc                                  
     36.30193335     -0.46534718  301      9.97907343      1.00000000
     -0.465  0.0000E+00  0.0000E+00  0.0000E+00  0.0000E+00
     -0.343  0.0000E+00  0.0000E+00  0.0000E+00  0.0000E+00
     -0.220  0.0000E+00  0.0000E+00  0.0000E+00  0.0000E+00
     -0.098  0.0000E+00  0.0000E+00  0.0000E+00  0.0000E+00
      0.025  0.0000E+00  0.0000E+00  0.0000E+00  0.0000E+00
      0.147  0.0000E+00  0.0000E+00  0.0000E+00  0.0000E+00
      0.270  0.0000E+00  0.0000E+00  0.0000E+00  0.0000E+00
      0.393  0.0000E+00  0.0000E+00  0.0000E+00  0.0000E+00
      0.515  0.0000E+00  0.0000E+00  0.0000E+00  0.0000E+00
      0.638  0.0000E+00  0.0000E+00  0.0000E+00  0.0000E+00
      0.760  0.0000E+00  0.0000E+00  0.0000E+00  0.0000E+00
      0.883  0.0000E+00  0.0000E+00  0.0000E+00  0.0000E+00
      1.005  0.7182E-12  0.2389E-12  0.8802E-13  0.2928E-13
      1.128  0.1397E-05  0.8556E-06  0.1712E-06  0.1049E-06
      1.250  0.9019E-04  0.8682E-04  0.1122E-04  0.1075E-04
      1.373  0.1385E-03  0.1265E-03  0.2820E-04  0.2625E-04
      1.496  0.1126E-03  0.1147E-03  0.4200E-04  0.4030E-04
      1.618  0.5684E-03  0.5659E-03  0.1117E-03  0.1097E-03
      1.741  0.1061E-02  0.9956E-03  0.2417E-03  0.2317E-03
      1.863  0.3537E-03  0.4227E-03  0.2850E-03  0.2835E-03
      1.986  0.2005E-04  0.3275E-04  0.2875E-03  0.2875E-03
      2.108  0.1581E-03  0.7703E-04  0.3069E-03  0.2969E-03
      2.231  0.1469E-02  0.1429E-02  0.4869E-03  0.4720E-03
      2.353  0.7579E-03  0.6510E-03  0.5798E-03  0.5518E-03
      2.476  0.7259E-03  0.9119E-03  0.6688E-03  0.6636E-03
      2.599  0.7772E-03  0.7254E-03  0.7640E-03  0.7525E-03
      2.721  0.1208E-02  0.1048E-02  0.9120E-03  0.8809E-03
      2.844  0.1722E-02  0.1483E-02  0.1123E-02  0.1063E-02
      2.966  0.7318E-03  0.1212E-02  0.1213E-02  0.1211E-02
      3.089  0.8960E-03  0.3410E-03  0.1323E-02  0.1253E-02
      3.211  0.3257E-03  0.8902E-03  0.1362E-02  0.1362E-02
      3.334  0.1526E-04  0.2675E-05  0.1364E-02  0.1363E-02
      3.456  0.2159E-02  0.5899E-03  0.1629E-02  0.1435E-02
      3.579  0.2681E-02  0.2658E-02  0.1958E-02  0.1761E-02
      3.702  0.1467E-02  0.1877E-02  0.2137E-02  0.1991E-02
      3.824  0.1513E-02  0.1980E-02  0.2323E-02  0.2233E-02
      3.947  0.2846E-02  0.9806E-03  0.2672E-02  0.2353E-02
      4.069  0.1138E-02  0.2506E-02  0.2811E-02  0.2661E-02
      4.192  0.2488E-03  0.1183E-02  0.2841E-02  0.2805E-02
      4.314  0.2503E-02  0.1455E-03  0.3148E-02  0.2823E-02
      4.437  0.2769E-02  0.1474E-02  0.3488E-02  0.3004E-02
      4.560  0.1906E-02  0.2421E-02  0.3721E-02  0.3301E-02
      4.682  0.1999E-02  0.2304E-02  0.3966E-02  0.3583E-02
      4.805  0.4811E-02  0.7690E-03  0.4556E-02  0.3677E-02
      4.927  0.6002E-02  0.1887E-02  0.5291E-02  0.3909E-02
      5.050  0.1113E-01  0.2879E-02  0.6655E-02  0.4261E-02
      5.172  0.1115E-01  0.2610E-02  0.8022E-02  0.4581E-02
      5.295  0.8367E-02  0.3474E-02  0.9048E-02  0.5007E-02
      5.417  0.6603E-02  0.3902E-02  0.9857E-02  0.5485E-02
      5.540  0.2299E-01  0.2190E-02  0.1267E-01  0.5754E-02
      5.663  0.1731E-01  0.6558E-02  0.1480E-01  0.6557E-02
      5.785  0.1422E-01  0.1951E-02  0.1654E-01  0.6796E-02
      5.908  0.1752E-01  0.1168E-02  0.1869E-01  0.6940E-02
      6.030  0.2163E-01  0.2321E-02  0.2134E-01  0.7224E-02
      6.153  0.1265E-01  0.1421E-01  0.2289E-01  0.8965E-02
      6.275  0.1703E-01  0.1076E-01  0.2497E-01  0.1028E-01
      6.398  0.2043E-01  0.7028E-02  0.2748E-01  0.1115E-01
      6.520  0.2077E-01  0.6838E-02  0.3002E-01  0.1198E-01
      6.643  0.2264E-01  0.9351E-02  0.3280E-01  0.1313E-01
      6.766  0.2093E-01  0.1282E-01  0.3536E-01  0.1470E-01
      6.888  0.1665E-01  0.1071E-01  0.3741E-01  0.1601E-01
      7.011  0.1197E-01  0.8447E-02  0.3887E-01  0.1705E-01
      7.133  0.1757E-01  0.1935E-01  0.4103E-01  0.1942E-01
      7.256  0.3127E-01  0.1638E-01  0.4486E-01  0.2143E-01
      7.378  0.2888E-01  0.8162E-02  0.4840E-01  0.2243E-01
      7.501  0.2870E-01  0.1357E-01  0.5192E-01  0.2409E-01
      7.623  0.3076E-01  0.1423E-01  0.5569E-01  0.2583E-01
      7.746  0.3200E-01  0.1967E-01  0.5961E-01  0.2824E-01
      7.869  0.3294E-01  0.1551E-01  0.6364E-01  0.3015E-01
      7.991  0.2819E-01  0.2338E-01  0.6710E-01  0.3301E-01
      8.114  0.2423E-01  0.1929E-01  0.7007E-01  0.3537E-01
      8.236  0.2002E-01  0.1400E-01  0.7252E-01  0.3709E-01
      8.359  0.1759E-01  0.7599E-02  0.7468E-01  0.3802E-01
      8.481  0.1785E-01  0.8791E-02  0.7687E-01  0.3910E-01
      8.604  0.1417E-01  0.1278E-01  0.7860E-01  0.4067E-01
      8.726  0.2864E-01  0.1766E-01  0.8211E-01  0.4283E-01
      8.849  0.1893E-01  0.2569E-01  0.8443E-01  0.4598E-01
      8.972  0.2008E-01  0.2858E-01  0.8689E-01  0.4948E-01
      9.094  0.3089E-01  0.2437E-01  0.9068E-01  0.5247E-01
      9.217  0.4634E-01  0.2283E-01  0.9636E-01  0.5527E-01
      9.339  0.4629E-01  0.3002E-01  0.1020E+00  0.5894E-01
      9.462  0.1539E-01  0.2957E-01  0.1039E+00  0.6257E-01
      9.584  0.2473E-02  0.2605E-01  0.1042E+00  0.6576E-01
      9.707  0.9725E-02  0.2237E-01  0.1054E+00  0.6850E-01
      9.829  0.7036E-02  0.1562E-01  0.1063E+00  0.7042E-01
      9.952  0.3437E-02  0.1828E-01  0.1067E+00  0.7266E-01
     10.075  0.2055E-02  0.1549E-01  0.1069E+00  0.7455E-01
     10.197  0.1381E-04  0.1196E-01  0.1069E+00  0.7602E-01
     10.320  0.9734E-11  0.1558E-01  0.1070E+00  0.7793E-01
     10.442  0.2352E-04  0.1044E-01  0.1070E+00  0.7921E-01
     10.565  0.3737E-02  0.2539E-01  0.1074E+00  0.8232E-01
     10.687  0.3999E-02  0.1413E-01  0.1079E+00  0.8405E-01
     10.810  0.2151E-02  0.1608E-01  0.1082E+00  0.8602E-01
     10.933  0.1992E-02  0.2154E-01  0.1084E+00  0.8866E-01
     11.055  0.8262E-02  0.3184E-01  0.1094E+00  0.9256E-01
     11.178  0.3666E-02  0.4210E-01  0.1099E+00  0.9772E-01
     11.300  0.4191E-02  0.4066E-01  0.1104E+00  0.1027E+00
     11.423  0.1658E-02  0.2182E-01  0.1106E+00  0.1054E+00
     11.545  0.1140E-03  0.1001E-01  0.1106E+00  0.1066E+00
     11.668  0.3342E-02  0.3123E-02  0.1110E+00  0.1070E+00
     11.790  0.3305E-02  0.7426E-03  0.1114E+00  0.1071E+00
     11.913  0.3960E-02  0.4665E-02  0.1119E+00  0.1077E+00
     12.036  0.3341E-02  0.2586E-02  0.1123E+00  0.1080E+00
     12.158  0.1461E-04  0.2463E-02  0.1123E+00  0.1083E+00
     12.281  0.1135E-02  0.5355E-02  0.1125E+00  0.1089E+00
     12.403  0.4326E-02  0.6338E-02  0.1130E+00  0.1097E+00
     12.526  0.4717E-04  0.4548E-02  0.1130E+00  0.1103E+00
     12.648  0.3166E-03  0.2650E-02  0.1130E+00  0.1106E+00
     12.771  0.2049E-02  0.2539E-02  0.1133E+00  0.1109E+00
     12.893  0.3036E-02  0.7483E-02  0.1136E+00  0.1118E+00
     13.016  0.7266E-03  0.1488E-02  0.1137E+00  0.1120E+00
     13.139  0.1737E-02  0.3034E-02  0.1140E+00  0.1124E+00
     13.261  0.5269E-02  0.2319E-03  0.1146E+00  0.1124E+00
     13.384  0.3095E-02  0.3404E-02  0.1150E+00  0.1128E+00
     13.506  0.5340E-02  0.1758E-02  0.1156E+00  0.1130E+00
     13.629  0.1728E-02  0.2705E-02  0.1158E+00  0.1134E+00
     13.751  0.2310E-02  0.1585E-02  0.1161E+00  0.1136E+00
     13.874  0.4282E-03  0.9654E-03  0.1162E+00  0.1137E+00
     13.996  0.3220E-02  0.1127E-02  0.1166E+00  0.1138E+00
     14.119  0.4070E-02  0.3189E-02  0.1171E+00  0.1142E+00
     14.242  0.1974E-02  0.7897E-02  0.1173E+00  0.1152E+00
     14.364  0.1093E-02  0.1787E-02  0.1174E+00  0.1154E+00
     14.487  0.1829E-04  0.5356E-02  0.1175E+00  0.1160E+00
     14.609  0.3829E-03  0.1047E-02  0.1175E+00  0.1162E+00
     14.732  0.3587E-02  0.6635E-03  0.1179E+00  0.1163E+00
     14.854  0.2102E-02  0.1238E-02  0.1182E+00  0.1164E+00
     14.977  0.1266E-02  0.4811E-02  0.1183E+00  0.1170E+00
     15.099  0.2443E-02  0.2485E-02  0.1186E+00  0.1173E+00
     15.222  0.1155E-04  0.1099E-02  0.1187E+00  0.1174E+00
     15.345  0.6874E-03  0.2897E-03  0.1187E+00  0.1175E+00
     15.467  0.1300E-02  0.4784E-02  0.1189E+00  0.1181E+00
     15.590  0.4596E-03  0.1152E-02  0.1189E+00  0.1182E+00
     15.712  0.1794E-06  0.4466E-03  0.1190E+00  0.1183E+00
     15.835  0.4470E-03  0.3178E-02  0.1190E+00  0.1186E+00
     15.957  0.1274E-02  0.2616E-03  0.1192E+00  0.1187E+00
     16.080  0.4291E-02  0.1007E-02  0.1197E+00  0.1188E+00
     16.202  0.1268E-02  0.8499E-03  0.1198E+00  0.1189E+00
     16.325  0.7512E-03  0.3783E-03  0.1199E+00  0.1189E+00
     16.448  0.1067E-02  0.3461E-03  0.1201E+00  0.1190E+00
     16.570  0.1682E-02  0.1035E-02  0.1203E+00  0.1191E+00
     16.693  0.1487E-02  0.3523E-02  0.1205E+00  0.1196E+00
     16.815  0.7338E-03  0.1261E-02  0.1205E+00  0.1197E+00
     16.938  0.2708E-02  0.1127E-02  0.1209E+00  0.1198E+00
     17.060  0.9607E-03  0.1368E-03  0.1210E+00  0.1199E+00
     17.183  0.7627E-03  0.1114E-02  0.1211E+00  0.1200E+00
     17.306  0.2772E-02  0.1266E-02  0.1214E+00  0.1202E+00
     17.428  0.4526E-02  0.2321E-02  0.1220E+00  0.1204E+00
     17.551  0.3850E-02  0.1431E-02  0.1225E+00  0.1206E+00
     17.673  0.3145E-02  0.2966E-02  0.1228E+00  0.1210E+00
     17.796  0.5026E-02  0.9812E-04  0.1235E+00  0.1210E+00
     17.918  0.1467E-02  0.9792E-04  0.1236E+00  0.1210E+00
     18.041  0.1781E-02  0.1450E-02  0.1239E+00  0.1212E+00
     18.163  0.6237E-02  0.2157E-02  0.1246E+00  0.1214E+00
     18.286  0.2293E-02  0.5358E-02  0.1249E+00  0.1221E+00
     18.409  0.4648E-02  0.4605E-02  0.1255E+00  0.1227E+00
     18.531  0.5839E-02  0.4138E-02  0.1262E+00  0.1232E+00
     18.654  0.3049E-02  0.3732E-02  0.1266E+00  0.1236E+00
     18.776  0.1065E-02  0.3692E-02  0.1267E+00  0.1241E+00
     18.899  0.1914E-02  0.3747E-02  0.1269E+00  0.1245E+00
     19.021  0.2880E-02  0.6148E-02  0.1273E+00  0.1253E+00
     19.144  0.4650E-02  0.4321E-02  0.1278E+00  0.1258E+00
     19.266  0.1700E-02  0.3769E-02  0.1281E+00  0.1263E+00
     19.389  0.4412E-02  0.2746E-02  0.1286E+00  0.1266E+00
     19.512  0.4566E-02  0.1682E-02  0.1292E+00  0.1268E+00
     19.634  0.2001E-02  0.5196E-02  0.1294E+00  0.1275E+00
     19.757  0.5308E-03  0.2287E-02  0.1295E+00  0.1277E+00
     19.879  0.5536E-02  0.4412E-02  0.1301E+00  0.1283E+00
     20.002  0.2880E-02  0.2531E-02  0.1305E+00  0.1286E+00
     20.124  0.6776E-02  0.3980E-02  0.1313E+00  0.1291E+00
     20.247  0.1831E-02  0.2589E-02  0.1315E+00  0.1294E+00
     20.369  0.4318E-02  0.5419E-03  0.1321E+00  0.1295E+00
     20.492  0.8384E-02  0.6947E-02  0.1331E+00  0.1303E+00
     20.615  0.2676E-02  0.5121E-02  0.1334E+00  0.1309E+00
     20.737  0.6338E-02  0.5484E-02  0.1342E+00  0.1316E+00
     20.860  0.2121E-02  0.3626E-02  0.1345E+00  0.1321E+00
     20.982  0.1315E-02  0.7211E-02  0.1346E+00  0.1329E+00
     21.105  0.1904E-02  0.2091E-02  0.1349E+00  0.1332E+00
     21.227  0.1161E-02  0.4168E-02  0.1350E+00  0.1337E+00
     21.350  0.4575E-02  0.6165E-02  0.1356E+00  0.1345E+00
     21.472  0.4817E-02  0.1283E-02  0.1362E+00  0.1346E+00
     21.595  0.3014E-02  0.2179E-02  0.1365E+00  0.1349E+00
     21.718  0.5797E-02  0.2423E-02  0.1372E+00  0.1352E+00
     21.840  0.3031E-02  0.2666E-02  0.1376E+00  0.1355E+00
     21.963  0.8540E-03  0.5020E-02  0.1377E+00  0.1361E+00
     22.085  0.2313E-02  0.3661E-02  0.1380E+00  0.1366E+00
     22.208  0.1938E-02  0.6436E-02  0.1382E+00  0.1374E+00
     22.330  0.2319E-02  0.1915E-02  0.1385E+00  0.1376E+00
     22.453  0.3702E-02  0.8505E-03  0.1390E+00  0.1377E+00
     22.575  0.1627E-02  0.2999E-02  0.1392E+00  0.1381E+00
     22.698  0.3953E-02  0.1512E-02  0.1397E+00  0.1383E+00
     22.821  0.5395E-02  0.2106E-02  0.1403E+00  0.1385E+00
     22.943  0.4865E-03  0.4168E-02  0.1404E+00  0.1390E+00
     23.066  0.1246E-02  0.2547E-02  0.1405E+00  0.1393E+00
     23.188  0.4408E-02  0.5279E-02  0.1411E+00  0.1400E+00
     23.311  0.3354E-02  0.2829E-02  0.1415E+00  0.1403E+00
     23.433  0.1465E-02  0.6254E-03  0.1417E+00  0.1404E+00
     23.556  0.5920E-02  0.1366E-02  0.1424E+00  0.1406E+00
     23.679  0.5806E-02  0.4722E-02  0.1431E+00  0.1412E+00
     23.801  0.4338E-02  0.3728E-02  0.1436E+00  0.1416E+00
     23.924  0.3006E-02  0.3751E-02  0.1440E+00  0.1421E+00
     24.046  0.2046E-02  0.5085E-02  0.1443E+00  0.1427E+00
     24.169  0.5453E-03  0.5753E-02  0.1443E+00  0.1434E+00
     24.291  0.1489E-02  0.2684E-02  0.1445E+00  0.1437E+00
     24.414  0.6859E-02  0.3454E-02  0.1453E+00  0.1442E+00
     24.536  0.3766E-02  0.1200E-02  0.1458E+00  0.1443E+00
     24.659  0.2472E-02  0.4487E-03  0.1461E+00  0.1444E+00
     24.782  0.4363E-02  0.5303E-02  0.1466E+00  0.1450E+00
     24.904  0.2693E-02  0.4595E-02  0.1470E+00  0.1456E+00
     25.027  0.1880E-02  0.3783E-02  0.1472E+00  0.1460E+00
     25.149  0.2832E-02  0.3822E-02  0.1475E+00  0.1465E+00
     25.272  0.5407E-02  0.2929E-02  0.1482E+00  0.1469E+00
     25.394  0.5708E-02  0.2794E-02  0.1489E+00  0.1472E+00
     25.517  0.2899E-02  0.3068E-02  0.1493E+00  0.1476E+00
     25.639  0.3485E-02  0.4849E-02  0.1497E+00  0.1482E+00
     25.762  0.3584E-02  0.7164E-02  0.1501E+00  0.1491E+00
     25.885  0.5981E-02  0.2188E-02  0.1509E+00  0.1493E+00
     26.007  0.1173E-02  0.2991E-02  0.1510E+00  0.1497E+00
     26.130  0.1021E-02  0.4513E-02  0.1511E+00  0.1502E+00
     26.252  0.3890E-02  0.5815E-02  0.1516E+00  0.1510E+00
     26.375  0.2423E-03  0.1034E-02  0.1516E+00  0.1511E+00
     26.497  0.1631E-02  0.1978E-02  0.1518E+00  0.1513E+00
     26.620  0.1823E-02  0.2368E-02  0.1521E+00  0.1516E+00
     26.742  0.2932E-02  0.1061E-02  0.1524E+00  0.1517E+00
     26.865  0.4793E-02  0.1463E-02  0.1530E+00  0.1519E+00
     26.988  0.3774E-02  0.1883E-02  0.1535E+00  0.1522E+00
     27.110  0.2181E-03  0.3528E-02  0.1535E+00  0.1526E+00
     27.233  0.2456E-02  0.6421E-02  0.1538E+00  0.1534E+00
     27.355  0.2553E-02  0.9525E-03  0.1541E+00  0.1535E+00
     27.478  0.2866E-02  0.1869E-02  0.1545E+00  0.1537E+00
     27.600  0.2278E-02  0.3005E-02  0.1547E+00  0.1541E+00
     27.723  0.1364E-02  0.1380E-02  0.1549E+00  0.1543E+00
     27.845  0.1122E-02  0.2418E-02  0.1550E+00  0.1546E+00
     27.968  0.1650E-02  0.2883E-02  0.1552E+00  0.1549E+00
     28.091  0.1330E-02  0.1266E-02  0.1554E+00  0.1551E+00
     28.213  0.1608E-02  0.1152E-02  0.1556E+00  0.1552E+00
     28.336  0.2426E-04  0.1366E-02  0.1556E+00  0.1554E+00
     28.458  0.5475E-03  0.1824E-02  0.1557E+00  0.1556E+00
     28.581  0.5098E-02  0.7461E-03  0.1563E+00  0.1557E+00
     28.703  0.1085E-02  0.1019E-02  0.1564E+00  0.1558E+00
     28.826  0.3194E-03  0.2683E-02  0.1565E+00  0.1561E+00
     28.948  0.2861E-02  0.2417E-02  0.1568E+00  0.1564E+00
     29.071  0.1807E-02  0.8918E-03  0.1570E+00  0.1565E+00
     29.194  0.1951E-02  0.2532E-02  0.1573E+00  0.1569E+00
     29.316  0.1198E-02  0.1419E-02  0.1574E+00  0.1570E+00
     29.439  0.4325E-03  0.2016E-02  0.1575E+00  0.1573E+00
     29.561  0.1856E-03  0.1739E-02  0.1575E+00  0.1575E+00
     29.684  0.1593E-02  0.4045E-03  0.1577E+00  0.1575E+00
     29.806  0.6693E-03  0.8251E-03  0.1578E+00  0.1576E+00
     29.929  0.4787E-04  0.1716E-04  0.1578E+00  0.1576E+00
     30.051  0.1153E-02  0.1178E-02  0.1579E+00  0.1578E+00
     30.174  0.1198E-02  0.1263E-02  0.1581E+00  0.1579E+00
     30.297  0.1193E-02  0.1140E-02  0.1582E+00  0.1581E+00
     30.419  0.8109E-04  0.1023E-02  0.1582E+00  0.1582E+00
     30.542  0.4082E-09  0.2753E-03  0.1582E+00  0.1582E+00
     30.664  0.6805E-06  0.3183E-05  0.1582E+00  0.1582E+00
     30.787  0.7597E-03  0.4537E-03  0.1583E+00  0.1583E+00
     30.909  0.8252E-03  0.9668E-03  0.1584E+00  0.1584E+00
     31.032  0.5257E-03  0.9097E-04  0.1585E+00  0.1584E+00
     31.155  0.1986E-02  0.6528E-03  0.1587E+00  0.1585E+00
     31.277  0.3906E-03  0.2235E-02  0.1588E+00  0.1588E+00
     31.400  0.8746E-07  0.8566E-04  0.1588E+00  0.1588E+00
     31.522  0.3930E-03  0.6411E-03  0.1588E+00  0.1589E+00
     31.645  0.9281E-03  0.8822E-03  0.1589E+00  0.1590E+00
     31.767  0.5628E-03  0.6195E-05  0.1590E+00  0.1590E+00
     31.890  0.1374E-02  0.1470E-06  0.1592E+00  0.1590E+00
     32.012  0.6443E-03  0.6351E-03  0.1593E+00  0.1591E+00
     32.135  0.1426E-02  0.2053E-02  0.1594E+00  0.1593E+00
     32.258  0.1409E-02  0.1923E-02  0.1596E+00  0.1595E+00
     32.380  0.9574E-04  0.8837E-03  0.1596E+00  0.1596E+00
     32.503  0.2994E-03  0.1865E-03  0.1597E+00  0.1597E+00
     32.625  0.1102E-02  0.1040E-02  0.1598E+00  0.1598E+00
     32.748  0.2657E-04  0.1018E-04  0.1598E+00  0.1598E+00
     32.870  0.2997E-09  0.1925E-04  0.1598E+00  0.1598E+00
     32.993  0.6068E-10  0.1815E-03  0.1598E+00  0.1598E+00
     33.115  0.1294E-04  0.3202E-05  0.1598E+00  0.1598E+00
     33.238  0.1857E-03  0.1965E-11  0.1598E+00  0.1598E+00
     33.361  0.5342E-05  0.1627E-12  0.1598E+00  0.1598E+00
     33.483  0.5742E-10  0.1863E-05  0.1598E+00  0.1598E+00
     33.606  0.2362E-04  0.4687E-03  0.1598E+00  0.1599E+00
     33.728  0.5610E-03  0.3208E-03  0.1599E+00  0.1599E+00
     33.851  0.3743E-04  0.2484E-04  0.1599E+00  0.1599E+00
     33.973  0.3266E-03  0.1349E-03  0.1599E+00  0.1599E+00
     34.096  0.7124E-04  0.6885E-04  0.1599E+00  0.1599E+00
     34.218  0.2580E-04  0.1042E-07  0.1600E+00  0.1600E+00
     34.341  0.1817E-03  0.1236E-05  0.1600E+00  0.1600E+00
     34.464  0.1880E-03  0.1683E-03  0.1600E+00  0.1600E+00
     34.586  0.1246E-04  0.5580E-04  0.1600E+00  0.1600E+00
     34.709  0.5489E-10  0.1799E-03  0.1600E+00  0.1600E+00
     34.831  0.0000E+00  0.2765E-05  0.1600E+00  0.1600E+00
     34.954  0.0000E+00  0.1403E-11  0.1600E+00  0.1600E+00
     35.076  0.0000E+00  0.0000E+00  0.1600E+00  0.1600E+00
     35.199  0.0000E+00  0.0000E+00  0.1600E+00  0.1600E+00
     35.321  0.0000E+00  0.0000E+00  0.1600E+00  0.1600E+00
     35.444  0.0000E+00  0.0000E+00  0.1600E+00  0.1600E+00
     35.567  0.0000E+00  0.0000E+00  0.1600E+00  0.1600E+00
     35.689  0.0000E+00  0.0000E+00  0.1600E+00  0.1600E+00
     35.812  0.0000E+00  0.0000E+00  0.1600E+00  0.1600E+00
     35.934  0.0000E+00  0.0000E+00  0.1600E+00  0.1600E+00
     36.057  0.0000E+00  0.0000E+00  0.1600E+00  0.1600E+00
     36.179  0.0000E+00  0.0000E+00  0.1600E+00  0.1600E+00
     36.302  0.0000E+00  0.0000E+00  0.1600E+00  0.1600E+00
     36.30193335     -0.46534718  301      9.97907343      1.00000000
     -0.465  0.0000E+00  0.0000E+00  0.0000E+00  0.0000E+00  0.0000E+00  0.0000E+00  0.0000E+00  0.0000E+00  0.0000E+00  0.0000E+00  0.0000E+00  0.0000E+00  0.0000E+00  0.0000E+00  0.0000E+00  0.0000E+00  0.0000E+00  0.0000E+00
     -0.343  0.0000E+00  0.0000E+00  0.0000E+00  0.0000E+00  0.0000E+00  0.0000E+00  0.0000E+00  0.0000E+00  0.0000E+00  0.0000E+00  0.0000E+00  0.0000E+00  0.0000E+00  0.0000E+00  0.0000E+00  0.0000E+00  0.0000E+00  0.0000E+00
     -0.220  0.0000E+00  0.0000E+00  0.0000E+00  0.0000E+00  0.0000E+00  0.0000E+00  0.0000E+00  0.0000E+00  0.0000E+00  0.0000E+00  0.0000E+00  0.0000E+00  0.0000E+00  0.0000E+00  0.0000E+00  0.0000E+00  0.0000E+00  0.0000E+00
     -0.098  0.0000E+00  0.0000E+00  0.0000E+00  0.0000E+00  0.0000E+00  0.0000E+00  0.0000E+00  0.0000E+00  0.0000E+00  0.0000E+00  0.0000E+00  0.0000E+00  0.0000E+00  0.0000E+00  0.0000E+00  0.0000E+00  0.0000E+00  0.0000E+00
      0.025  0.0000E+00  0.0000E+00  0.0000E+00  0.0000E+00  0.0000E+00  0.0000E+00  0.0000E+00  0.0000E+00  0.0000E+00  0.0000E+00  0.0000E+00  0.0000E+00  0.0000E+00  0.0000E+00  0.0000E+00  0.0000E+00  0.0000E+00  0.0000E+00
      0.147  0.0000E+00  0.0000E+00  0.0000E+00  0.0000E+00  0.0000E+00  0.0000E+00  0.0000E+00  0.0000E+00  0.0000E+00  0.0000E+00  0.0000E+00  0.0000E+00  0.0000E+00  0.0000E+00  0.0000E+00  0.0000E+00  0.0000E+00  0.0000E+00
      0.270  0.0000E+00  0.0000E+00  0.0000E+00  0.0000E+00  0.0000E+00  0.0000E+00  0.0000E+00  0.0000E+00  0.0000E+00  0.0000E+00  0.0000E+00  0.0000E+00  0.0000E+00  0.0000E+00  0.0000E+00  0.0000E+00  0.0000E+00  0.0000E+00
      0.393  0.0000E+00  0.0000E+00  0.0000E+00  0.0000E+00  0.0000E+00  0.0000E+00  0.0000E+00  0.0000E+00  0.0000E+00  0.0000E+00  0.0000E+00  0.0000E+00  0.0000E+00  0.0000E+00  0.0000E+00  0.0000E+00  0.0000E+00  0.0000E+00
      0.515  0.0000E+00  0.0000E+00  0.0000E+00  0.0000E+00  0.0000E+00  0.0000E+00  0.0000E+00  0.0000E+00  0.0000E+00  0.0000E+00  0.0000E+00  0.0000E+00  0.0000E+00  0.0000E+00  0.0000E+00  0.0000E+00  0.0000E+00  0.0000E+00
      0.638  0.0000E+00  0.0000E+00  0.0000E+00  0.0000E+00  0.0000E+00  0.0000E+00  0.0000E+00  0.0000E+00  0.0000E+00  0.0000E+00  0.0000E+00  0.0000E+00  0.0000E+00  0.0000E+00  0.0000E+00  0.0000E+00  0.0000E+00  0.0000E+00
      0.760  0.0000E+00  0.0000E+00  0.0000E+00  0.0000E+00  0.0000E+00  0.0000E+00  0.0000E+00  0.0000E+00  0.0000E+00  0.0000E+00  0.0000E+00  0.0000E+00  0.0000E+00  0.0000E+00  0.0000E+00  0.0000E+00  0.0000E+00  0.0000E+00
      0.883  0.0000E+00  0.0000E+00  0.0000E+00  0.0000E+00  0.0000E+00  0.0000E+00  0.0000E+00  0.0000E+00  0.0000E+00  0.0000E+00  0.0000E+00  0.0000E+00  0.0000E+00  0.0000E+00  0.0000E+00  0.0000E+00  0.0000E+00  0.0000E+00
      1.005  0.2554E-10  0.8489E-11  0.2059E-25  0.4983E-26  0.1652E-26  0.1726E-28  0.2059E-25  0.4983E-26  0.8946E-24  0.1553E-23  0.3310E-21  0.6036E-24  0.1063E-15  0.5448E-16  0.3310E-21  0.6036E-24  0.8946E-24  0.1553E-23
      1.128  0.4967E-04  0.3040E-04  0.4004E-19  0.1784E-19  0.2093E-14  0.5304E-15  0.4004E-19  0.1784E-19  0.1740E-17  0.5563E-17  0.6437E-15  0.2162E-17  0.2067E-09  0.1951E-09  0.6437E-15  0.2162E-17  0.1740E-17  0.5563E-17
      1.250  0.3207E-02  0.3084E-02  0.2775E-17  0.2178E-17  0.8983E-07  0.4460E-07  0.2775E-17  0.2178E-17  0.1127E-15  0.5663E-15  0.4152E-13  0.2247E-15  0.1440E-07  0.2011E-07  0.4152E-13  0.2247E-15  0.1127E-15  0.5663E-15
      1.373  0.4859E-02  0.4435E-02  0.9005E-10  0.2699E-10  0.6669E-04  0.5876E-04  0.9005E-10  0.2699E-10  0.2434E-11  0.5266E-12  0.3241E-13  0.7404E-14  0.8083E-06  0.4451E-06  0.3241E-13  0.7404E-14  0.2434E-11  0.5266E-12
      1.496  0.3924E-02  0.4000E-02  0.2100E-04  0.1314E-04  0.3956E-04  0.4812E-04  0.2100E-04  0.1314E-04  0.5675E-06  0.2549E-06  0.1092E-12  0.1743E-13  0.9681E-06  0.6021E-06  0.1092E-12  0.1743E-13  0.5675E-06  0.2549E-06
      1.618  0.1955E-01  0.1945E-01  0.3246E-03  0.3250E-03  0.5265E-05  0.2567E-05  0.3246E-03  0.3250E-03  0.8778E-05  0.6304E-05  0.2575E-06  0.9054E-07  0.7439E-05  0.5891E-05  0.2575E-06  0.9054E-07  0.8778E-05  0.6304E-05
      1.741  0.3596E-01  0.3371E-01  0.5989E-03  0.5663E-03  0.5386E-03  0.5001E-03  0.5989E-03  0.5663E-03  0.1679E-04  0.1126E-04  0.2609E-04  0.1766E-04  0.1399E-05  0.1111E-05  0.2609E-04  0.1766E-04  0.1679E-04  0.1126E-04
      1.863  0.1191E-01  0.1424E-01  0.9778E-04  0.1440E-03  0.4501E-03  0.4734E-03  0.9778E-04  0.1440E-03  0.2743E-05  0.2866E-05  0.4329E-05  0.4623E-05  0.2566E-04  0.1633E-04  0.4329E-05  0.4623E-05  0.2743E-05  0.2866E-05
      1.986  0.6713E-03  0.1095E-02  0.3358E-08  0.6573E-08  0.4007E-04  0.6615E-04  0.3358E-08  0.6573E-08  0.1003E-09  0.1312E-09  0.3527E-09  0.2309E-09  0.2829E-05  0.3112E-05  0.3527E-09  0.2309E-09  0.1003E-09  0.1312E-09
      2.108  0.5105E-02  0.2486E-02  0.8797E-04  0.4295E-04  0.3089E-03  0.1526E-03  0.8797E-04  0.4295E-04  0.2915E-05  0.9533E-06  0.1624E-04  0.5683E-05  0.1085E-04  0.3497E-05  0.1624E-04  0.5683E-05  0.2915E-05  0.9533E-06
      2.231  0.4735E-01  0.4604E-01  0.1254E-02  0.1134E-02  0.2072E-02  0.2214E-02  0.1254E-02  0.1134E-02  0.7567E-04  0.4404E-04  0.1089E-03  0.8244E-04  0.1182E-03  0.7543E-04  0.1089E-03  0.8244E-04  0.7567E-04  0.4404E-04
      2.353  0.2401E-01  0.2071E-01  0.1206E-02  0.1028E-02  0.2907E-03  0.2223E-03  0.1206E-02  0.1028E-02  0.1049E-03  0.6107E-04  0.5137E-04  0.2247E-04  0.5724E-04  0.3930E-04  0.5137E-04  0.2247E-04  0.1049E-03  0.6107E-04
      2.476  0.2285E-01  0.2874E-01  0.1168E-02  0.1483E-02  0.3664E-03  0.4498E-03  0.1168E-02  0.1483E-02  0.1086E-03  0.9122E-04  0.6158E-04  0.5633E-04  0.5942E-04  0.4216E-04  0.6158E-04  0.5633E-04  0.1086E-03  0.9122E-04
      2.599  0.2396E-01  0.2241E-01  0.1222E-02  0.1167E-02  0.7836E-03  0.7319E-03  0.1222E-02  0.1167E-02  0.1837E-03  0.1133E-03  0.4782E-05  0.5743E-06  0.2870E-03  0.1775E-03  0.4782E-05  0.5743E-06  0.1837E-03  0.1133E-03
      2.721  0.3653E-01  0.3187E-01  0.2408E-02  0.2120E-02  0.6838E-03  0.5992E-03  0.2408E-02  0.2120E-02  0.3776E-03  0.2141E-03  0.1794E-03  0.8868E-04  0.1622E-03  0.1134E-03  0.1794E-03  0.8868E-04  0.3776E-03  0.2141E-03
      2.844  0.5125E-01  0.4446E-01  0.2149E-02  0.2282E-02  0.4271E-02  0.2837E-02  0.2149E-02  0.2282E-02  0.2126E-03  0.1697E-03  0.5629E-03  0.3189E-03  0.3733E-03  0.1012E-03  0.5629E-03  0.3189E-03  0.2126E-03  0.1697E-03
      2.966  0.2164E-01  0.3601E-01  0.4275E-03  0.8271E-03  0.2874E-02  0.4649E-02  0.4275E-03  0.8271E-03  0.2295E-04  0.3346E-04  0.1819E-03  0.2192E-03  0.4734E-03  0.4489E-03  0.1819E-03  0.2192E-03  0.2295E-04  0.3346E-04
      3.089  0.2550E-01  0.9805E-02  0.1723E-02  0.6665E-03  0.1608E-02  0.6515E-03  0.1723E-02  0.6665E-03  0.3368E-03  0.7732E-04  0.5125E-03  0.1239E-03  0.1327E-04  0.6881E-05  0.5125E-03  0.1239E-03  0.3368E-03  0.7732E-04
      3.211  0.9271E-02  0.2557E-01  0.6268E-03  0.1778E-02  0.5840E-03  0.1641E-02  0.6268E-03  0.1778E-02  0.1225E-03  0.2075E-03  0.1864E-03  0.3287E-03  0.4681E-05  0.6955E-05  0.1864E-03  0.3287E-03  0.1225E-03  0.2075E-03
      3.334  0.4124E-03  0.7679E-04  0.3974E-04  0.5391E-05  0.2003E-04  0.4877E-05  0.3974E-04  0.5391E-05  0.1101E-04  0.6370E-06  0.2757E-05  0.9756E-06  0.1373E-04  0.3844E-07  0.2757E-05  0.9756E-06  0.1101E-04  0.6370E-06
      3.456  0.5825E-01  0.1614E-01  0.4835E-02  0.1538E-02  0.4525E-02  0.9708E-03  0.4835E-02  0.1538E-02  0.1222E-02  0.2476E-03  0.8312E-03  0.1251E-03  0.1664E-02  0.2409E-03  0.8312E-03  0.1251E-03  0.1222E-02  0.2476E-03
      3.579  0.7108E-01  0.7235E-01  0.7876E-02  0.6464E-02  0.2278E-02  0.5454E-02  0.7876E-02  0.6464E-02  0.2372E-02  0.1040E-02  0.1003E-02  0.7097E-03  0.1576E-02  0.1211E-02  0.1003E-02  0.7097E-03  0.2372E-02  0.1040E-02
      3.702  0.3746E-01  0.5039E-01  0.2349E-02  0.6194E-02  0.5590E-02  0.9603E-03  0.2349E-02  0.6194E-02  0.6468E-03  0.1166E-02  0.1318E-02  0.3883E-03  0.1778E-02  0.6833E-03  0.1318E-02  0.3883E-03  0.6468E-03  0.1166E-02
      3.824  0.3805E-01  0.5150E-01  0.2005E-02  0.2524E-02  0.6652E-02  0.9866E-02  0.2005E-02  0.2524E-02  0.5824E-03  0.3325E-03  0.1309E-02  0.1205E-02  0.2812E-02  0.1805E-02  0.1309E-02  0.1205E-02  0.5824E-03  0.3325E-03
      3.947  0.6868E-01  0.2502E-01  0.8577E-02  0.2030E-02  0.3312E-02  0.3503E-02  0.8577E-02  0.2030E-02  0.4092E-02  0.4019E-03  0.3029E-02  0.5988E-03  0.1428E-02  0.8107E-03  0.3029E-02  0.5988E-03  0.4092E-02  0.4019E-03
      4.069  0.2639E-01  0.6285E-01  0.3732E-02  0.8285E-02  0.3832E-03  0.3156E-02  0.3732E-02  0.8285E-02  0.2868E-02  0.2131E-02  0.6598E-03  0.1544E-02  0.1112E-02  0.7509E-03  0.6598E-03  0.1544E-02  0.2868E-02  0.2131E-02
      4.192  0.5368E-02  0.2890E-01  0.4982E-03  0.4440E-02  0.8409E-03  0.4327E-03  0.4982E-03  0.4440E-02  0.3869E-03  0.1711E-02  0.4519E-03  0.3560E-03  0.4330E-03  0.7419E-03  0.4519E-03  0.3560E-03  0.3869E-03  0.1711E-02
      4.314  0.5346E-01  0.3471E-02  0.4704E-02  0.3363E-03  0.8937E-02  0.5740E-03  0.4704E-02  0.3363E-03  0.3606E-02  0.9676E-04  0.4676E-02  0.1108E-03  0.5523E-02  0.1476E-03  0.4676E-02  0.1108E-03  0.3606E-02  0.9676E-04
      4.437  0.5705E-01  0.3428E-01  0.6146E-02  0.2754E-02  0.9612E-02  0.7466E-02  0.6146E-02  0.2754E-02  0.3397E-02  0.7535E-03  0.8408E-02  0.1624E-02  0.1072E-02  0.1554E-02  0.8408E-02  0.1624E-02  0.3397E-02  0.7535E-03
      4.560  0.3741E-01  0.5405E-01  0.1942E-02  0.6654E-02  0.1001E-01  0.7523E-02  0.1942E-02  0.6654E-02  0.1064E-02  0.2407E-02  0.2938E-02  0.3614E-02  0.1335E-01  0.1730E-02  0.2938E-02  0.3614E-02  0.1064E-02  0.2407E-02
      4.682  0.3559E-01  0.5109E-01  0.5103E-02  0.5110E-02  0.3766E-02  0.1096E-01  0.5103E-02  0.5110E-02  0.5909E-02  0.1319E-02  0.5493E-02  0.3879E-02  0.4931E-02  0.1273E-02  0.5493E-02  0.3879E-02  0.5909E-02  0.1319E-02
      4.805  0.8402E-01  0.1635E-01  0.1672E-01  0.8633E-03  0.1240E-02  0.4970E-02  0.1672E-01  0.8633E-03  0.2151E-01  0.2081E-03  0.4966E-02  0.3039E-03  0.1595E-01  0.4462E-02  0.4966E-02  0.3039E-03  0.2151E-01  0.2081E-03
      4.927  0.7789E-01  0.3948E-01  0.1230E-01  0.6092E-02  0.4474E-02  0.5364E-02  0.1230E-01  0.6092E-02  0.3124E-01  0.2396E-02  0.2838E-01  0.1249E-02  0.1804E-01  0.5459E-02  0.2838E-01  0.1249E-02  0.3124E-01  0.2396E-02
      5.050  0.1296E+00  0.5768E-01  0.1344E-01  0.1173E-01  0.2339E-01  0.2991E-02  0.1344E-01  0.1173E-01  0.4859E-01  0.6834E-02  0.6107E-01  0.3136E-02  0.5809E-01  0.3023E-02  0.6107E-01  0.3136E-02  0.4859E-01  0.6834E-02
      5.172  0.8512E-01  0.5086E-01  0.7594E-02  0.1153E-01  0.1043E-01  0.8132E-03  0.7594E-02  0.1153E-01  0.5866E-01  0.7820E-02  0.8549E-01  0.1769E-02  0.7957E-01  0.3830E-02  0.8549E-01  0.1769E-02  0.5866E-01  0.7820E-02
      5.295  0.5693E-01  0.6358E-01  0.6784E-02  0.1066E-01  0.8002E-02  0.1226E-01  0.6784E-02  0.1066E-01  0.5707E-01  0.5320E-02  0.6893E-01  0.8858E-02  0.2906E-01  0.4116E-02  0.6893E-01  0.8858E-02  0.5707E-01  0.5320E-02
      5.417  0.3559E-01  0.6941E-01  0.5173E-02  0.1026E-01  0.5820E-02  0.1458E-01  0.5173E-02  0.1026E-01  0.6853E-01  0.7068E-02  0.3204E-01  0.9184E-02  0.3421E-01  0.1016E-01  0.3204E-01  0.9184E-02  0.6853E-01  0.7068E-02
      5.540  0.1111E+00  0.3573E-01  0.1969E-01  0.5512E-02  0.2310E-01  0.7756E-02  0.1969E-01  0.5512E-02  0.1732E+00  0.7565E-02  0.1585E+00  0.4219E-02  0.1662E+00  0.5965E-02  0.1585E+00  0.4219E-02  0.1732E+00  0.7565E-02
      5.663  0.7728E-01  0.9821E-01  0.1749E-01  0.1550E-01  0.1564E-01  0.1779E-01  0.1749E-01  0.1550E-01  0.1269E+00  0.2008E-01  0.1186E+00  0.2185E-01  0.1386E+00  0.2445E-01  0.1186E+00  0.2185E-01  0.1269E+00  0.2008E-01