<?xml version="1.0" encoding="ISO-8859-1"?>
<modeling>
 <generator>
  <i name="program" type="string">vasp </i>
  <i name="version" type="string">6.3.2  </i>
  <i name="subversion" type="string">27Jun22 (build Aug 12 2022 00:53:59) complex                          parallel </i>
  <i name="platform" type="string">tv2STD </i>
  <i name="date" type="string">2024 11 30 </i>
  <i name="time" type="string">17:13:30 </i>
 </generator>
 <incar>
  <i type="string" name="SYSTEM">Co-hcc</i>
  <i type="int" name="ISTART">     0</i>
  <i type="string" name="PREC">Accurate      normal | accurate</i>
  <i type="string" name="ALGO">Normal     Normal, Fast, Very_Fast</i>
  <i type="logical" name="ADDGRID"> F  </i>
  <i type="int" name="ISPIN">     2</i>
  <i type="int" name="ICHARG">     2</i>
  <i type="int" name="INIWAV">     1</i>
  <i type="int" name="NELM">   100</i>
  <i type="int" name="IBRION">     2</i>
  <i name="EDIFF">      0.00000100</i>
  <i name="EDIFFG">     -0.02000000</i>
  <i type="int" name="NSW">   100</i>
  <i type="int" name="ISIF">     2</i>
  <i type="int" name="ISYM">     1</i>
  <i name="ENCUT">    400.00000000</i>
  <v name="MAGMOM">      3.00000000      3.00000000</v>
  <i type="logical" name="LREAL"> F  </i>
  <i type="int" name="ISMEAR">     0</i>
  <i name="SIGMA">      0.05000000</i>
  <i type="int" name="NWRITE">     2</i>
  <i type="logical" name="LWAVE"> T  </i>
  <i type="logical" name="LCHARG"> T  </i>
  <i type="int" name="LORBIT">    11</i>
 </incar>
 <primitive_cell>
  <structure name="primitive_cell" >
   <crystal>
    <varray name="basis" >
     <v>       2.50623555       0.00000000       0.00000000 </v>
     <v>      -1.25311778       2.17046365       0.00000000 </v>
     <v>       0.00000000       0.00000000       4.05498712 </v>
    </varray>
    <i name="volume">     22.05788574 </i>
    <varray name="rec_basis" >
     <v>       0.39900479       0.23036553       0.00000000 </v>
     <v>       0.00000000       0.46073105       0.00000000 </v>
     <v>       0.00000000       0.00000000       0.24660991 </v>
    </varray>
   </crystal>
   <varray name="positions" >
    <v>       0.00000000       0.00000000       0.00000000 </v>
    <v>       0.33333333       0.66666667       0.50000000 </v>
   </varray>
  </structure>
  <varray name="primitive_index" >
   <v type="int" >        1 </v>
   <v type="int" >        2 </v>
  </varray>
 </primitive_cell>
 <kpoints>
  <generation param="Gamma">
   <v type="int" name="divisions">      10       10        8 </v>
   <v name="usershift">      0.00000000       0.00000000       0.00000000 </v>
   <v name="genvec1">      0.10000000       0.00000000       0.00000000 </v>
   <v name="genvec2">      0.00000000       0.10000000       0.00000000 </v>
   <v name="genvec3">      0.00000000       0.00000000       0.12500000 </v>
   <v name="shift">      0.00000000       0.00000000       0.00000000 </v>
  </generation>
  <varray name="kpointlist" >
   <v>       0.00000000       0.00000000       0.00000000 </v>
   <v>       0.10000000       0.00000000       0.00000000 </v>
   <v>       0.20000000       0.00000000       0.00000000 </v>
   <v>       0.30000000       0.00000000       0.00000000 </v>
   <v>       0.40000000       0.00000000       0.00000000 </v>
   <v>       0.50000000       0.00000000       0.00000000 </v>
   <v>       0.10000000       0.10000000       0.00000000 </v>
   <v>       0.20000000       0.10000000       0.00000000 </v>
   <v>       0.30000000       0.10000000       0.00000000 </v>
   <v>       0.40000000       0.10000000       0.00000000 </v>
   <v>       0.20000000       0.20000000       0.00000000 </v>
   <v>       0.30000000       0.20000000       0.00000000 </v>
   <v>       0.40000000       0.20000000       0.00000000 </v>
   <v>       0.30000000       0.30000000       0.00000000 </v>
   <v>       0.00000000       0.00000000       0.12500000 </v>
   <v>       0.10000000       0.00000000       0.12500000 </v>
   <v>       0.20000000       0.00000000       0.12500000 </v>
   <v>       0.30000000       0.00000000       0.12500000 </v>
   <v>       0.40000000       0.00000000       0.12500000 </v>
   <v>       0.50000000       0.00000000       0.12500000 </v>
   <v>       0.10000000       0.10000000       0.12500000 </v>
   <v>       0.20000000       0.10000000       0.12500000 </v>
   <v>       0.30000000       0.10000000       0.12500000 </v>
   <v>       0.40000000       0.10000000       0.12500000 </v>
   <v>       0.20000000       0.20000000       0.12500000 </v>
   <v>       0.30000000       0.20000000       0.12500000 </v>
   <v>       0.40000000       0.20000000       0.12500000 </v>
   <v>       0.30000000       0.30000000       0.12500000 </v>
   <v>       0.00000000       0.00000000       0.25000000 </v>
   <v>       0.10000000       0.00000000       0.25000000 </v>
   <v>       0.20000000       0.00000000       0.25000000 </v>
   <v>       0.30000000       0.00000000       0.25000000 </v>
   <v>       0.40000000       0.00000000       0.25000000 </v>
   <v>       0.50000000       0.00000000       0.25000000 </v>
   <v>       0.10000000       0.10000000       0.25000000 </v>
   <v>       0.20000000       0.10000000       0.25000000 </v>
   <v>       0.30000000       0.10000000       0.25000000 </v>
   <v>       0.40000000       0.10000000       0.25000000 </v>
   <v>       0.20000000       0.20000000       0.25000000 </v>
   <v>       0.30000000       0.20000000       0.25000000 </v>
   <v>       0.40000000       0.20000000       0.25000000 </v>
   <v>       0.30000000       0.30000000       0.25000000 </v>
   <v>       0.00000000       0.00000000       0.37500000 </v>
   <v>       0.10000000       0.00000000       0.37500000 </v>
   <v>       0.20000000       0.00000000       0.37500000 </v>
   <v>       0.30000000       0.00000000       0.37500000 </v>
   <v>       0.40000000       0.00000000       0.37500000 </v>
   <v>       0.50000000       0.00000000       0.37500000 </v>
   <v>       0.10000000       0.10000000       0.37500000 </v>
   <v>       0.20000000       0.10000000       0.37500000 </v>
   <v>       0.30000000       0.10000000       0.37500000 </v>
   <v>       0.40000000       0.10000000       0.37500000 </v>
   <v>       0.20000000       0.20000000       0.37500000 </v>
   <v>       0.30000000       0.20000000       0.37500000 </v>
   <v>       0.40000000       0.20000000       0.37500000 </v>
   <v>       0.30000000       0.30000000       0.37500000 </v>
   <v>       0.00000000       0.00000000       0.50000000 </v>
   <v>       0.10000000       0.00000000       0.50000000 </v>
   <v>       0.20000000       0.00000000       0.50000000 </v>
   <v>       0.30000000       0.00000000       0.50000000 </v>
   <v>       0.40000000       0.00000000       0.50000000 </v>
   <v>       0.50000000       0.00000000       0.50000000 </v>
   <v>       0.10000000       0.10000000       0.50000000 </v>
   <v>       0.20000000       0.10000000       0.50000000 </v>
   <v>       0.30000000       0.10000000       0.50000000 </v>
   <v>       0.40000000       0.10000000       0.50000000 </v>
   <v>       0.20000000       0.20000000       0.50000000 </v>
   <v>       0.30000000       0.20000000       0.50000000 </v>
   <v>       0.40000000       0.20000000       0.50000000 </v>
   <v>       0.30000000       0.30000000       0.50000000 </v>
  </varray>
  <varray name="weights" >
   <v>       0.00125000 </v>
   <v>       0.00750000 </v>
   <v>       0.00750000 </v>
   <v>       0.00750000 </v>
   <v>       0.00750000 </v>
   <v>       0.00375000 </v>
   <v>       0.00750000 </v>
   <v>       0.01500000 </v>
   <v>       0.01500000 </v>
   <v>       0.01500000 </v>
   <v>       0.00750000 </v>
   <v>       0.01500000 </v>
   <v>       0.00750000 </v>
   <v>       0.00750000 </v>
   <v>       0.00250000 </v>
   <v>       0.01500000 </v>
   <v>       0.01500000 </v>
   <v>       0.01500000 </v>
   <v>       0.01500000 </v>
   <v>       0.00750000 </v>
   <v>       0.01500000 </v>
   <v>       0.03000000 </v>
   <v>       0.03000000 </v>
   <v>       0.03000000 </v>
   <v>       0.01500000 </v>
   <v>       0.03000000 </v>
   <v>       0.01500000 </v>
   <v>       0.01500000 </v>
   <v>       0.00250000 </v>
   <v>       0.01500000 </v>
   <v>       0.01500000 </v>
   <v>       0.01500000 </v>
   <v>       0.01500000 </v>
   <v>       0.00750000 </v>
   <v>       0.01500000 </v>
   <v>       0.03000000 </v>
   <v>       0.03000000 </v>
   <v>       0.03000000 </v>
   <v>       0.01500000 </v>
   <v>       0.03000000 </v>
   <v>       0.01500000 </v>
   <v>       0.01500000 </v>
   <v>       0.00250000 </v>
   <v>       0.01500000 </v>
   <v>       0.01500000 </v>
   <v>       0.01500000 </v>
   <v>       0.01500000 </v>
   <v>       0.00750000 </v>
   <v>       0.01500000 </v>
   <v>       0.03000000 </v>
   <v>       0.03000000 </v>
   <v>       0.03000000 </v>
   <v>       0.01500000 </v>
   <v>       0.03000000 </v>
   <v>       0.01500000 </v>
   <v>       0.01500000 </v>
   <v>       0.00125000 </v>
   <v>       0.00750000 </v>
   <v>       0.00750000 </v>
   <v>       0.00750000 </v>
   <v>       0.00750000 </v>
   <v>       0.00375000 </v>
   <v>       0.00750000 </v>
   <v>       0.01500000 </v>
   <v>       0.01500000 </v>
   <v>       0.01500000 </v>
   <v>       0.00750000 </v>
   <v>       0.01500000 </v>
   <v>       0.00750000 </v>
   <v>       0.00750000 </v>
  </varray>
 </kpoints>
 <parameters>
  <separator name="general" >
   <i type="string" name="SYSTEM">Co-hcc</i>
   <i type="logical" name="LCOMPAT"> F  </i>
  </separator>
  <separator name="electronic" >
   <i type="string" name="PREC">accura</i>
   <i name="ENMAX">    400.00000000</i>
   <i name="ENAUG">    477.81800000</i>
   <i name="EDIFF">      0.00000100</i>
   <i type="int" name="IALGO">    38</i>
   <i type="int" name="IWAVPR">    11</i>
   <i type="int" name="NBANDS">    16</i>
   <i type="int" name="NBANDSLOW">    -1</i>
   <i type="int" name="NBANDSHIGH">    -1</i>
   <i name="NELECT">     18.00000000</i>
   <i type="int" name="TURBO">     0</i>
   <i type="int" name="IRESTART">     0</i>
   <i type="int" name="NREBOOT">     0</i>
   <i type="int" name="NMIN">     0</i>
   <i name="EREF">      0.00000000</i>
   <separator name="electronic smearing" >
    <i type="int" name="ISMEAR">     0</i>
    <i name="SIGMA">      0.05000000</i>
    <i name="KSPACING">      0.50000000</i>
    <i type="logical" name="KGAMMA"> T  </i>
    <i type="logical" name="KBLOWUP"> T  </i>
   </separator>
   <separator name="electronic projectors" >
    <i type="logical" name="LREAL"> F  </i>
    <v name="ROPT">      0.00000000</v>
    <i type="int" name="LMAXPAW">  -100</i>
    <i type="int" name="LMAXMIX">     2</i>
    <i type="logical" name="NLSPLINE"> F  </i>
   </separator>
   <separator name="electronic startup" >
    <i type="int" name="ISTART">     0</i>
    <i type="int" name="ICHARG">     2</i>
    <i type="int" name="INIWAV">     1</i>
   </separator>
   <separator name="electronic spin" >
    <i type="int" name="ISPIN">     2</i>
    <i type="logical" name="LNONCOLLINEAR"> F  </i>
    <v name="MAGMOM">      3.00000000      3.00000000</v>
    <i name="NUPDOWN">     -1.00000000</i>
    <i type="logical" name="LSORBIT"> F  </i>
    <v name="SAXIS">      0.00000000      0.00000000      1.00000000</v>
    <i type="logical" name="LSPIRAL"> F  </i>
    <v name="QSPIRAL">      0.00000000      0.00000000      0.00000000</v>
    <i type="logical" name="LZEROZ"> F  </i>
   </separator>
   <separator name="electronic exchange-correlation" >
    <i type="logical" name="LASPH"> F  </i>
    <i type="logical" name="LMETAGGA"> F  </i>
   </separator>
   <separator name="electronic convergence" >
    <i type="int" name="NELM">   100</i>
    <i type="int" name="NELMDL">    -5</i>
    <i type="int" name="NELMIN">     2</i>
    <i name="ENINI">    400.00000000</i>
    <separator name="electronic convergence detail" >
     <i type="logical" name="LDIAG"> T  </i>
     <i type="logical" name="LSUBROT"> F  </i>
     <i name="WEIMIN">      0.00100000</i>
     <i name="EBREAK">      0.00000002</i>
     <i name="DEPER">      0.30000000</i>
     <i type="int" name="NRMM">     4</i>
     <i name="TIME">      0.40000000</i>
    </separator>
   </separator>
   <separator name="electronic mixer" >
    <i name="AMIX">      0.40000000</i>
    <i name="BMIX">      1.00000000</i>
    <i name="AMIN">      0.10000000</i>
    <i name="AMIX_MAG">      1.60000000</i>
    <i name="BMIX_MAG">      1.00000000</i>
    <separator name="electronic mixer details" >
     <i type="int" name="IMIX">     4</i>
     <i type="logical" name="MIXFIRST"> F  </i>
     <i type="int" name="MAXMIX">   -45</i>
     <i name="WC">    100.00000000</i>
     <i type="int" name="INIMIX">     1</i>
     <i type="int" name="MIXPRE">     1</i>
     <i type="int" name="MREMOVE">     5</i>
    </separator>
   </separator>
   <separator name="electronic dipolcorrection" >
    <i type="logical" name="LDIPOL"> F  </i>
    <i type="logical" name="LMONO"> F  </i>
    <i type="int" name="IDIPOL">     0</i>
    <i name="EPSILON">      1.00000000</i>
    <v name="DIPOL">   -100.00000000   -100.00000000   -100.00000000</v>
    <i name="EFIELD">      0.00000000</i>
   </separator>
  </separator>
  <separator name="grids" >
   <i type="int" name="NGX">    16</i>
   <i type="int" name="NGY">    16</i>
   <i type="int" name="NGZ">    28</i>
   <i type="int" name="NGXF">    32</i>
   <i type="int" name="NGYF">    32</i>
   <i type="int" name="NGZF">    56</i>
   <i type="logical" name="ADDGRID"> F  </i>
  </separator>
  <separator name="ionic" >
   <i type="int" name="NSW">   100</i>
   <i type="int" name="IBRION">     2</i>
   <i type="int" name="MDALGO">     0</i>
   <i type="int" name="ISIF">     2</i>
   <i name="PSTRESS">      0.00000000</i>
   <i name="EDIFFG">     -0.02000000</i>
   <i type="int" name="NFREE">     1</i>
   <i name="POTIM">      0.50000000</i>
   <i name="SMASS">     -3.00000000</i>
   <i name="SCALEE">      1.00000000</i>
  </separator>
  <separator name="ionic md" >
   <i name="TEBEG">      0.00010000</i>
   <i name="TEEND">      0.00010000</i>
   <i type="int" name="NBLOCK">     1</i>
   <i type="int" name="KBLOCK">   100</i>
   <i type="int" name="NPACO">   256</i>
   <i name="APACO">     10.00000000</i>
  </separator>
  <separator name="symmetry" >
   <i type="int" name="ISYM">     1</i>
   <i name="SYMPREC">      0.00001000</i>
  </separator>
  <separator name="dos" >
   <i type="int" name="LORBIT">    11</i>
   <v name="RWIGS">     -1.00000000</v>
   <i type="int" name="NEDOS">   301</i>
   <i name="EMIN">     10.00000000</i>
   <i name="EMAX">    -10.00000000</i>
   <i name="EFERMI">      0.00000000</i>
  </separator>
  <separator name="writing" >
   <i type="int" name="NWRITE">     2</i>
   <i type="logical" name="LWAVE"> T  </i>
   <i type="logical" name="LDOWNSAMPLE"> F  </i>
   <i type="logical" name="LCHARG"> T  </i>
   <i type="logical" name="LPARD"> F  </i>
   <i type="logical" name="LVTOT"> F  </i>
   <i type="logical" name="LVHAR"> F  </i>
   <i type="logical" name="LELF"> F  </i>
   <i type="logical" name="LOPTICS"> F  </i>
   <v name="STM">      0.00000000      0.00000000      0.00000000      0.00000000      0.00000000      0.00000000      0.00000000</v>
  </separator>
  <separator name="performance" >
   <i type="int" name="NPAR">     4</i>
   <i type="int" name="NSIM">     4</i>
   <i type="int" name="NBLK">    -1</i>
   <i type="logical" name="LPLANE"> T  </i>
   <i type="logical" name="LSCALAPACK"> T  </i>
   <i type="logical" name="LSCAAWARE"> F  </i>
   <i type="logical" name="LSCALU"> F  </i>
   <i type="logical" name="LASYNC"> F  </i>
   <i type="logical" name="LORBITALREAL"> F  </i>
  </separator>
  <separator name="miscellaneous" >
   <i type="int" name="IDIOT">     3</i>
   <i type="int" name="PHON_NSTRUCT">    -1</i>
   <i type="logical" name="LMUSIC"> F  </i>
   <v name="POMASS">     58.93300000</v>
   <v name="DARWINR">      0.00000000</v>
   <v name="DARWINV">      1.00000000</v>
   <i type="logical" name="LCORR"> T  </i>
  </separator>
  <i type="logical" name="GGA_COMPAT"> T  </i>
  <i type="logical" name="LBERRY"> F  </i>
  <i type="int" name="ICORELEVEL">     0</i>
  <i type="logical" name="LDAU"> F  </i>
  <i type="int" name="I_CONSTRAINED_M">     0</i>
  <separator name="electronic exchange-correlation" >
   <i type="string" name="GGA">--</i>
   <i type="int" name="VOSKOWN">     0</i>
   <i type="logical" name="LHFCALC"> F  </i>
   <i type="string" name="PRECFOCK"></i>
   <i type="logical" name="LSYMGRAD"> F  </i>
   <i type="logical" name="LHFONE"> F  </i>
   <i type="logical" name="LRHFCALC"> F  </i>
   <i type="logical" name="LTHOMAS"> F  </i>
   <i type="logical" name="LMODELHF"> F  </i>
   <i type="logical" name="LFOCKACE"> F  </i>
   <i name="ENCUT4O">     -1.00000000</i>
   <i type="int" name="EXXOEP">     0</i>
   <i type="int" name="FOURORBIT">     0</i>
   <i name="AEXX">      0.00000000</i>
   <i name="HFALPHA">      0.00000000</i>
   <i name="MCALPHA">      0.00000000</i>
   <i name="ALDAX">      1.00000000</i>
   <i name="AGGAX">      1.00000000</i>
   <i name="ALDAC">      1.00000000</i>
   <i name="AGGAC">      1.00000000</i>
   <i type="int" name="NKREDX">     1</i>
   <i type="int" name="NKREDY">     1</i>
   <i type="int" name="NKREDZ">     1</i>
   <i type="logical" name="SHIFTRED"> F  </i>
   <i type="logical" name="ODDONLY"> F  </i>
   <i type="logical" name="EVENONLY"> F  </i>
   <i type="int" name="LMAXFOCK">     0</i>
   <i type="int" name="NMAXFOCKAE">     0</i>
   <i type="logical" name="LFOCKAEDFT"> F  </i>
   <i name="HFSCREEN">      0.00000000</i>
   <i name="HFSCREENC">      0.00000000</i>
   <i type="int" name="NBANDSGWLOW">     0</i>
  </separator>
  <separator name="vdW DFT" >
   <i type="logical" name="LUSE_VDW"> F  </i>
   <i name="Zab_VDW">     -0.84910000</i>
   <i name="PARAM1">      0.12340000</i>
   <i name="PARAM2">      1.00000000</i>
   <i name="PARAM3">      0.00000000</i>
  </separator>
  <separator name="model GW" >
   <i type="int" name="MODEL_GW">     0</i>
   <i name="MODEL_EPS0">      6.61736572</i>
   <i name="MODEL_ALPHA">      1.00000000</i>
  </separator>
  <separator name="linear response parameters" >
   <i type="logical" name="LEPSILON"> F  </i>
   <i type="logical" name="LRPA"> F  </i>
   <i type="logical" name="LNABLA"> F  </i>
   <i type="logical" name="LVEL"> F  </i>
   <i name="CSHIFT">      0.10000000</i>
   <i name="OMEGAMAX">     -1.00000000</i>
   <i name="DEG_THRESHOLD">      0.00200000</i>
   <i name="RTIME">     -0.10000000</i>
   <i name="WPLASMAI">      0.00000000</i>
   <v name="DFIELD">      0.00000000      0.00000000      0.00000000</v>
   <v name="WPLASMA">      0.00000000      0.00000000      0.00000000      0.00000000      0.00000000      0.00000000      0.00000000      0.00000000      0.00000000</v>
  </separator>
  <separator name="orbital magnetization" >
   <i type="logical" name="NUCIND"> F  </i>
   <v name="MAGPOS">      0.00000000      0.00000000      0.00000000</v>
   <i type="logical" name="LNICSALL"> T  </i>
   <i type="logical" name="ORBITALMAG"> F  </i>
   <i type="logical" name="LMAGBLOCH"> F  </i>
   <i type="logical" name="LCHIMAG"> F  </i>
   <i type="logical" name="LGAUGE"> T  </i>
   <i type="int" name="MAGATOM">     0</i>
   <v name="MAGDIPOL">      0.00000000      0.00000000      0.00000000</v>
   <v name="AVECCONST">      0.00000000      0.00000000      0.00000000</v>
  </separator>
  <separator name="response functions" >
   <i type="logical" name="LFINITE_TEMPERATURE"> F  </i>
   <i type="logical" name="LADDER"> F  </i>
   <i type="logical" name="LRPAFORCE"> F  </i>
   <i type="logical" name="LFXC"> F  </i>
   <i type="logical" name="LHARTREE"> T  </i>
   <i type="int" name="IBSE">     0</i>
   <v type="int" name="KPOINT">    -1     0     0     0</v>
   <i type="logical" name="LTCTC"> F  </i>
   <i type="logical" name="LTCTE"> F  </i>
   <i type="logical" name="LTETE"> F  </i>
   <i type="logical" name="LTRIPLET"> F  </i>
   <i type="logical" name="LFXCEPS"> F  </i>
   <i type="logical" name="LFXHEG"> F  </i>
   <i type="int" name="NATURALO">     2</i>
   <i type="logical" name="LHOLEGF"> F  </i>
   <i type="logical" name="L2ORDER"> F  </i>
   <i type="logical" name="LDMP1"> F  </i>
   <i type="logical" name="LMP2LT"> F  </i>
   <i type="logical" name="LSMP2LT"> F  </i>
   <i type="logical" name="LGWLF"> F  </i>
   <i name="ENCUTGW">     -2.00000000</i>
   <i name="ENCUTGWSOFT">     -2.00000000</i>
   <i name="ENCUTLF">     -1.00000000</i>
   <i type="logical" name="LESF_SPLINES"> F  </i>
   <i type="int" name="LMAXMP2">    -1</i>
   <i name="SCISSOR">      0.00000000</i>
   <i type="int" name="NOMEGA">     0</i>
   <i type="int" name="NOMEGAR">     0</i>
   <i type="int" name="NBANDSGW">    -1</i>
   <i type="int" name="NBANDSO">    -1</i>
   <i type="int" name="NBANDSV">    -1</i>
   <i type="int" name="NELMGW">     1</i>
   <i type="int" name="NELMHF">     1</i>
   <i type="int" name="DIM">     3</i>
   <i type="int" name="IESPILON">     4</i>
   <i type="int" name="ANTIRES">     0</i>
   <i name="OMEGAMAX">    -30.00000000</i>
   <i name="OMEGAMIN">    -30.00000000</i>
   <i name="OMEGATL">   -200.00000000</i>
   <i type="int" name="OMEGAGRID">     0</i>
   <i name="CSHIFT">     -0.10000000</i>
   <i type="logical" name="LSELFENERGY"> F  </i>
   <i type="logical" name="LSPECTRAL"> F  </i>
   <i type="logical" name="LSPECTRALGW"> F  </i>
   <i type="logical" name="LSINGLES"> F  </i>
   <i type="logical" name="LFERMIGW"> F  </i>
   <i type="logical" name="ODDONLYGW"> F  </i>
   <i type="logical" name="EVENONLYGW"> F  </i>
   <i type="int" name="NKREDLFX">     1</i>
   <i type="int" name="NKREDLFY">     1</i>
   <i type="int" name="NKREDLFZ">     1</i>
   <i type="int" name="MAXMEM">  2800</i>
   <i type="int" name="TELESCOPE">     0</i>
   <i type="int" name="NTAUPAR">    -1</i>
   <i type="int" name="NOMEGAPAR">    -1</i>
   <i name="DAMP_NEWTON">      0.80000001</i>
   <i name="LAMBDA">      1.00000000</i>
  </separator>
  <separator name="External order field" >
   <i name="OFIELD_KAPPA">      0.00000000</i>
   <v name="OFIELD_K">      0.00000000      0.00000000      0.00000000</v>
   <i name="OFIELD_Q6_NEAR">      0.00000000</i>
   <i name="OFIELD_Q6_FAR">      0.00000000</i>
   <i name="OFIELD_A">      0.00000000</i>
  </separator>
  <separator name="optional k-points parameters" >
   <i type="int" name="KPOINTS_OPT_MODE">     1</i>
   <i type="logical" name="LKPOINTS_OPT"> F  </i>
  </separator>
 </parameters>
 <atominfo>
  <atoms>       2 </atoms>
  <types>       1 </types>
  <array name="atoms" >
   <dimension dim="1">ion</dimension>
   <field type="string">element</field>
   <field type="int">atomtype</field>
   <set>
    <rc><c>Co</c><c>   1</c></rc>
    <rc><c>Co</c><c>   1</c></rc>
   </set>
  </array>
  <array name="atomtypes" >
   <dimension dim="1">type</dimension>
   <field type="int">atomspertype</field>
   <field type="string">element</field>
   <field>mass</field>
   <field>valence</field>
   <field type="string">pseudopotential</field>
   <set>
    <rc><c>   2</c><c>Co</c><c>     58.93300000</c><c>      9.00000000</c><c>  PAW_PBE Co 02Aug2007                  </c></rc>
   </set>
  </array>
 </atominfo>
 <structure name="initialpos" >
  <crystal>
   <varray name="basis" >
    <v>       2.50623555       0.00000000       0.00000000 </v>
    <v>      -1.25311778       2.17046365       0.00000000 </v>
    <v>       0.00000000       0.00000000       4.05498712 </v>
   </varray>
   <i name="volume">     22.05788574 </i>
   <varray name="rec_basis" >
    <v>       0.39900479       0.23036553       0.00000000 </v>
    <v>       0.00000000       0.46073105       0.00000000 </v>
    <v>       0.00000000       0.00000000       0.24660991 </v>
   </varray>
  </crystal>
  <varray name="positions" >
   <v>       0.00000000       0.00000000       0.00000000 </v>
   <v>       0.33333333       0.66666667       0.50000000 </v>
  </varray>
 </structure>
 <calculation>
  <scstep>
   <time name="dav">    0.42    0.43</time>
   <time name="total">    0.44    0.44</time>
   <energy>
    <i name="alphaZ">     76.81187835 </i>
    <i name="ewald">  -1513.37036830 </i>
    <i name="hartreedc">   -303.51064936 </i>
    <i name="XCdc">     35.52364371 </i>
    <i name="pawpsdc">   1439.98163886 </i>
    <i name="pawaedc">  -1545.88690193 </i>
    <i name="eentropy">     -0.00251598 </i>
    <i name="bandstr">    251.51827756 </i>
    <i name="atom">   1626.71546820 </i>
    <i name="e_fr_energy">     67.78047111 </i>
    <i name="e_wo_entrp">     67.78298709 </i>
    <i name="e_0_energy">     67.78172910 </i>
   </energy>
  </scstep>
  <scstep>
   <time name="dav">    0.39    0.39</time>
   <time name="total">    0.39    0.40</time>
   <energy>
    <i name="e_fr_energy">    -13.75027902 </i>
    <i name="e_wo_entrp">    -13.74801094 </i>
    <i name="e_0_energy">    -13.74914498 </i>
   </energy>
  </scstep>
  <scstep>
   <time name="dav">    0.49    0.49</time>
   <time name="total">    0.49    0.49</time>
   <energy>
    <i name="e_fr_energy">    -15.63708654 </i>
    <i name="e_wo_entrp">    -15.63456270 </i>
    <i name="e_0_energy">    -15.63582462 </i>
   </energy>
  </scstep>
  <scstep>
   <time name="dav">    0.54    0.55</time>
   <time name="total">    0.54    0.55</time>
   <energy>
    <i name="e_fr_energy">    -15.67233715 </i>
    <i name="e_wo_entrp">    -15.66981210 </i>
    <i name="e_0_energy">    -15.67107462 </i>
   </energy>
  </scstep>
  <scstep>
   <time name="dav">    0.48    0.48</time>
   <time name="total">    0.50    0.50</time>
   <energy>
    <i name="e_fr_energy">    -15.67247327 </i>
    <i name="e_wo_entrp">    -15.66994825 </i>
    <i name="e_0_energy">    -15.67121076 </i>
   </energy>
  </scstep>
  <scstep>
   <time name="dav">    0.41    0.41</time>
   <time name="total">    0.44    0.44</time>
   <energy>
    <i name="e_fr_energy">    -14.47743272 </i>
    <i name="e_wo_entrp">    -14.47500202 </i>
    <i name="e_0_energy">    -14.47621737 </i>
   </energy>
  </scstep>
  <scstep>
   <time name="dav">    0.43    0.43</time>
   <time name="total">    0.45    0.46</time>
   <energy>
    <i name="e_fr_energy">    -14.10620196 </i>
    <i name="e_wo_entrp">    -14.10348703 </i>
    <i name="e_0_energy">    -14.10484450 </i>
   </energy>
  </scstep>
  <scstep>
   <time name="dav">    0.52    0.52</time>
   <time name="total">    0.55    0.55</time>
   <energy>
    <i name="e_fr_energy">    -14.08639253 </i>
    <i name="e_wo_entrp">    -14.08355889 </i>
    <i name="e_0_energy">    -14.08497571 </i>
   </energy>
  </scstep>
  <scstep>
   <time name="dav">    0.55    0.55</time>
   <time name="total">    0.58    0.58</time>
   <energy>
    <i name="e_fr_energy">    -14.07209284 </i>
    <i name="e_wo_entrp">    -14.06918032 </i>
    <i name="e_0_energy">    -14.07063658 </i>
   </energy>
  </scstep>
  <scstep>
   <time name="dav">    0.50    0.50</time>
   <time name="total">    0.52    0.53</time>
   <energy>
    <i name="e_fr_energy">    -14.07118924 </i>
    <i name="e_wo_entrp">    -14.06823464 </i>
    <i name="e_0_energy">    -14.06971194 </i>
   </energy>
  </scstep>
  <scstep>
   <time name="dav">    0.54    0.55</time>
   <time name="total">    0.57    0.57</time>
   <energy>
    <i name="e_fr_energy">    -14.07119912 </i>
    <i name="e_wo_entrp">    -14.06825296 </i>
    <i name="e_0_energy">    -14.06972604 </i>
   </energy>
  </scstep>
  <scstep>
   <time name="dav">    0.42    0.42</time>
   <time name="total">    0.45    0.45</time>
   <energy>
    <i name="e_fr_energy">    -14.07119517 </i>
    <i name="e_wo_entrp">    -14.06824756 </i>
    <i name="e_0_energy">    -14.06972136 </i>
   </energy>
  </scstep>
  <scstep>
   <time name="dav">    0.33    0.33</time>
   <time name="total">    0.35    0.36</time>
   <energy>
    <i name="e_fr_energy">    -14.07119385 </i>
    <i name="e_wo_entrp">    -14.06824531 </i>
    <i name="e_0_energy">    -14.06971958 </i>
   </energy>
  </scstep>
  <scstep>
   <time name="dav">    0.32    0.32</time>
   <time name="total">    0.33    0.33</time>
   <energy>
    <i name="alphaZ">     76.81187835 </i>
    <i name="ewald">  -1513.37036830 </i>
    <i name="hartreedc">   -268.00484219 </i>
    <i name="XCdc">     32.81055105 </i>
    <i name="pawpsdc">   1789.59009594 </i>
    <i name="pawaedc">  -1895.54451415 </i>
    <i name="eentropy">     -0.00294864 </i>
    <i name="bandstr">    136.92348576 </i>
    <i name="atom">   1626.71546820 </i>
    <i name="e_fr_energy">    -14.07119399 </i>
    <i name="e_wo_entrp">    -14.06824535 </i>
    <i name="e_0_energy">    -14.06971967 </i>
   </energy>
  </scstep>
  <structure>
   <crystal>
    <varray name="basis" >
     <v>       2.50623555       0.00000000       0.00000000 </v>
     <v>      -1.25311778       2.17046365       0.00000000 </v>
     <v>       0.00000000       0.00000000       4.05498712 </v>
    </varray>
    <i name="volume">     22.05788574 </i>
    <varray name="rec_basis" >
     <v>       0.39900479       0.23036553       0.00000000 </v>
     <v>       0.00000000       0.46073105       0.00000000 </v>
     <v>       0.00000000       0.00000000       0.24660991 </v>
    </varray>
   </crystal>
   <varray name="positions" >
    <v>       0.00000000       0.00000000       0.00000000 </v>
    <v>       0.33333333       0.66666667       0.50000000 </v>
   </varray>
  </structure>
  <varray name="forces" >
   <v>      -0.00000000       0.00000000       0.00000000 </v>
   <v>       0.00000000       0.00000000       0.00000000 </v>
  </varray>
  <varray name="stress" >
   <v>     -34.10998063       0.00000000       0.00000000 </v>
   <v>      -0.00000000     -34.10998063       0.00000000 </v>
   <v>       0.00000000       0.00000000     -36.70109683 </v>
  </varray>
  <energy>
   <i name="e_fr_energy">    -14.07119399 </i>
   <i name="e_wo_entrp">    -14.06824535 </i>
   <i name="e_0_energy">    -14.06971967 </i>
  </energy>
  <time name="totalsc">    6.85    7.00</time>
  <eigenvalues>
   <array>
    <dimension dim="1">band</dimension>
    <dimension dim="2">kpoint</dimension>
    <dimension dim="3">spin</dimension>
    <field>eigene</field>
    <field>occ</field>
    <set>
     <set comment="spin 1">
      <set comment="kpoint 1">
       <r>    1.2059    1.0000 </r>
       <r>    4.9470    1.0000 </r>
       <r>    7.3981    1.0000 </r>
       <r>    7.4188    1.0000 </r>
       <r>    7.4188    1.0000 </r>
       <r>    7.7203    1.0000 </r>
       <r>    7.7203    1.0000 </r>
       <r>    8.0625    1.0000 </r>
       <r>    8.0625    1.0000 </r>
       <r>    9.1298    1.0000 </r>
       <r>    9.1298    1.0000 </r>
       <r>    9.9503    0.7921 </r>
       <r>   16.2005    0.0000 </r>
       <r>   31.8671    0.0000 </r>
       <r>   34.2589    0.0000 </r>
       <r>   34.2589    0.0000 </r>
      </set>
      <set comment="kpoint 2">
       <r>    1.5505    1.0000 </r>
       <r>    5.1482    1.0000 </r>
       <r>    7.1406    1.0000 </r>
       <r>    7.5763    1.0000 </r>
       <r>    7.6037    1.0000 </r>
       <r>    7.6834    1.0000 </r>
       <r>    7.8246    1.0000 </r>
       <r>    7.8596    1.0000 </r>
       <r>    7.9663    1.0000 </r>
       <r>    8.2820    1.0000 </r>
       <r>    9.1698    1.0000 </r>
       <r>   11.2748    0.0000 </r>
       <r>   16.2655    0.0000 </r>
       <r>   29.2012    0.0000 </r>
       <r>   31.6797    0.0000 </r>
       <r>   32.0597    0.0000 </r>
      </set>
      <set comment="kpoint 3">
       <r>    2.5285    1.0000 </r>
       <r>    5.5842    1.0000 </r>
       <r>    6.8413    1.0000 </r>
       <r>    6.9384    1.0000 </r>
       <r>    7.4571    1.0000 </r>
       <r>    7.7446    1.0000 </r>
       <r>    7.9507    1.0000 </r>
       <r>    8.0077    1.0000 </r>
       <r>    8.0292    1.0000 </r>
       <r>    8.2369    1.0000 </r>
       <r>    9.2453    1.0000 </r>
       <r>   13.2279    0.0000 </r>
       <r>   16.5019    0.0000 </r>
       <r>   24.5991    0.0000 </r>
       <r>   28.9439    0.0000 </r>
       <r>   30.9323    0.0000 </r>
      </set>
      <set comment="kpoint 4">
       <r>    3.8981    1.0000 </r>
       <r>    5.7087    1.0000 </r>
       <r>    6.2033    1.0000 </r>
       <r>    6.8185    1.0000 </r>
       <r>    7.4699    1.0000 </r>
       <r>    7.5069    1.0000 </r>
       <r>    7.7284    1.0000 </r>
       <r>    8.5821    1.0000 </r>
       <r>    8.6645    1.0000 </r>
       <r>    8.7388    1.0000 </r>
       <r>    9.3049    1.0000 </r>
       <r>   15.4564    0.0000 </r>
       <r>   16.8761    0.0000 </r>
       <r>   20.5008    0.0000 </r>
       <r>   26.7264    0.0000 </r>
       <r>   27.9825    0.0000 </r>
      </set>
      <set comment="kpoint 5">
       <r>    4.9815    1.0000 </r>
       <r>    5.5001    1.0000 </r>
       <r>    5.7602    1.0000 </r>
       <r>    7.1833    1.0000 </r>
       <r>    7.3327    1.0000 </r>
       <r>    7.5612    1.0000 </r>
       <r>    7.7108    1.0000 </r>
       <r>    9.0687    1.0000 </r>
       <r>    9.1984    1.0000 </r>
       <r>    9.3366    1.0000 </r>
       <r>    9.8167    1.0000 </r>
       <r>   15.4554    0.0000 </r>
       <r>   17.8591    0.0000 </r>
       <r>   19.2958    0.0000 </r>
       <r>   24.6175    0.0000 </r>
       <r>   25.2333    0.0000 </r>
      </set>
      <set comment="kpoint 6">
       <r>    5.3221    1.0000 </r>
       <r>    5.3364    1.0000 </r>
       <r>    5.6133    1.0000 </r>
       <r>    7.2689    1.0000 </r>
       <r>    7.4985    1.0000 </r>
       <r>    7.5172    1.0000 </r>
       <r>    7.8172    1.0000 </r>
       <r>    9.2527    1.0000 </r>
       <r>    9.3460    1.0000 </r>
       <r>    9.3976    1.0000 </r>
       <r>   11.2560    0.0000 </r>
       <r>   13.2315    0.0000 </r>
       <r>   19.5686    0.0000 </r>
       <r>   20.1948    0.0000 </r>
       <r>   22.5921    0.0000 </r>
       <r>   23.7472    0.0000 </r>
      </set>
      <set comment="kpoint 7">
       <r>    2.2146    1.0000 </r>
       <r>    5.4848    1.0000 </r>
       <r>    6.8762    1.0000 </r>
       <r>    7.2109    1.0000 </r>
       <r>    7.5297    1.0000 </r>
       <r>    7.7049    1.0000 </r>
       <r>    7.8142    1.0000 </r>
       <r>    7.8975    1.0000 </r>
       <r>    8.0985    1.0000 </r>
       <r>    8.1750    1.0000 </r>
       <r>    9.2104    1.0000 </r>
       <r>   12.6788    0.0000 </r>
       <r>   16.4222    0.0000 </r>
       <r>   26.7682    0.0000 </r>
       <r>   27.3629    0.0000 </r>
       <r>   33.6681    0.0000 </r>
      </set>
      <set comment="kpoint 8">
       <r>    3.4178    1.0000 </r>
       <r>    5.8463    1.0000 </r>
       <r>    6.4735    1.0000 </r>
       <r>    6.6094    1.0000 </r>
       <r>    7.4449    1.0000 </r>
       <r>    7.4487    1.0000 </r>
       <r>    7.9142    1.0000 </r>
       <r>    8.1434    1.0000 </r>
       <r>    8.4479    1.0000 </r>
       <r>    8.7526    1.0000 </r>
       <r>    9.2523    1.0000 </r>
       <r>   14.6580    0.0000 </r>
       <r>   16.8159    0.0000 </r>
       <r>   22.5568    0.0000 </r>
       <r>   25.1430    0.0000 </r>
       <r>   29.9914    0.0000 </r>
      </set>
      <set comment="kpoint 9">
       <r>    4.7374    1.0000 </r>
       <r>    5.7373    1.0000 </r>
       <r>    5.9470    1.0000 </r>
       <r>    6.7493    1.0000 </r>
       <r>    7.2813    1.0000 </r>
       <r>    7.6058    1.0000 </r>
       <r>    7.6778    1.0000 </r>
       <r>    8.6675    1.0000 </r>
       <r>    8.9875    1.0000 </r>
       <r>    9.2812    1.0000 </r>
       <r>    9.5929    1.0000 </r>
       <r>   16.8843    0.0000 </r>
       <r>   16.9526    0.0000 </r>
       <r>   19.3598    0.0000 </r>
       <r>   23.5958    0.0000 </r>
       <r>   26.4076    0.0000 </r>
      </set>
      <set comment="kpoint 10">
       <r>    5.3826    1.0000 </r>
       <r>    5.5354    1.0000 </r>
       <r>    5.6813    1.0000 </r>
       <r>    7.1836    1.0000 </r>
       <r>    7.2244    1.0000 </r>
       <r>    7.4942    1.0000 </r>
       <r>    7.8118    1.0000 </r>
       <r>    9.1566    1.0000 </r>
       <r>    9.2716    1.0000 </r>
       <r>    9.2936    1.0000 </r>
       <r>   11.0390    0.0000 </r>
       <r>   14.2873    0.0000 </r>
       <r>   19.3013    0.0000 </r>
       <r>   20.0484    0.0000 </r>
       <r>   22.6057    0.0000 </r>
       <r>   23.4181    0.0000 </r>
      </set>
      <set comment="kpoint 11">
       <r>    4.6620    1.0000 </r>
       <r>    6.0669    1.0000 </r>
       <r>    6.1108    1.0000 </r>
       <r>    6.2803    1.0000 </r>
       <r>    7.1910    1.0000 </r>
       <r>    7.5688    1.0000 </r>
       <r>    7.7640    1.0000 </r>
       <r>    8.3365    1.0000 </r>
       <r>    8.9926    1.0000 </r>
       <r>    9.2278    1.0000 </r>
       <r>    9.6235    1.0000 </r>
       <r>   16.6502    0.0000 </r>
       <r>   17.4634    0.0000 </r>
       <r>   20.7159    0.0000 </r>
       <r>   21.2611    0.0000 </r>
       <r>   28.4552    0.0000 </r>
      </set>
      <set comment="kpoint 12">
       <r>    5.6210    1.0000 </r>
       <r>    5.8089    1.0000 </r>
       <r>    5.9238    1.0000 </r>
       <r>    6.5153    1.0000 </r>
       <r>    7.1047    1.0000 </r>
       <r>    7.5197    1.0000 </r>
       <r>    7.8092    1.0000 </r>
       <r>    8.7075    1.0000 </r>
       <r>    9.2061    1.0000 </r>
       <r>    9.2753    1.0000 </r>
       <r>   10.9814    0.0000 </r>
       <r>   16.4532    0.0000 </r>
       <r>   18.9952    0.0000 </r>
       <r>   19.1335    0.0000 </r>
       <r>   20.4210    0.0000 </r>
       <r>   25.3282    0.0000 </r>
      </set>
      <set comment="kpoint 13">
       <r>    5.7220    1.0000 </r>
       <r>    5.8129    1.0000 </r>
       <r>    5.8203    1.0000 </r>
       <r>    6.8063    1.0000 </r>
       <r>    7.1348    1.0000 </r>
       <r>    7.3625    1.0000 </r>
       <r>    7.9288    1.0000 </r>
       <r>    9.0362    1.0000 </r>
       <r>    9.1977    1.0000 </r>
       <r>    9.2250    1.0000 </r>
       <r>   12.6647    0.0000 </r>
       <r>   14.0155    0.0000 </r>
       <r>   19.1243    0.0000 </r>
       <r>   20.8805    0.0000 </r>
       <r>   21.1714    0.0000 </r>
       <r>   23.1082    0.0000 </r>
      </set>
      <set comment="kpoint 14">
       <r>    5.7678    1.0000 </r>
       <r>    6.0175    1.0000 </r>
       <r>    6.1723    1.0000 </r>
       <r>    6.4050    1.0000 </r>
       <r>    7.0988    1.0000 </r>
       <r>    7.2879    1.0000 </r>
       <r>    8.0175    1.0000 </r>
       <r>    8.8813    1.0000 </r>
       <r>    9.1502    1.0000 </r>
       <r>    9.1841    1.0000 </r>
       <r>   13.0585    0.0000 </r>
       <r>   16.0104    0.0000 </r>
       <r>   16.0319    0.0000 </r>
       <r>   21.4148    0.0000 </r>
       <r>   21.6421    0.0000 </r>
       <r>   24.2242    0.0000 </r>
      </set>
      <set comment="kpoint 15">
       <r>    1.3615    1.0000 </r>
       <r>    4.9156    1.0000 </r>
       <r>    7.3591    1.0000 </r>
       <r>    7.3785    1.0000 </r>
       <r>    7.3785    1.0000 </r>
       <r>    7.6791    1.0000 </r>
       <r>    7.6791    1.0000 </r>
       <r>    8.1567    1.0000 </r>
       <r>    8.1567    1.0000 </r>
       <r>    9.1215    1.0000 </r>
       <r>    9.1215    1.0000 </r>
       <r>    9.3310    1.0000 </r>
       <r>   17.1294    0.0000 </r>
       <r>   31.8129    0.0000 </r>
       <r>   33.9562    0.0000 </r>
       <r>   34.4089    0.0000 </r>
      </set>
      <set comment="kpoint 16">
       <r>    1.7027    1.0000 </r>
       <r>    5.1289    1.0000 </r>
       <r>    7.1434    1.0000 </r>
       <r>    7.4981    1.0000 </r>
       <r>    7.5176    1.0000 </r>
       <r>    7.5210    1.0000 </r>
       <r>    7.8107    1.0000 </r>
       <r>    7.9624    1.0000 </r>
       <r>    8.0898    1.0000 </r>
       <r>    8.2505    1.0000 </r>
       <r>    9.1558    1.0000 </r>
       <r>   10.6964    0.0000 </r>
       <r>   17.2665    0.0000 </r>
       <r>   29.3028    0.0000 </r>
       <r>   31.8361    0.0000 </r>
       <r>   32.0220    0.0000 </r>
      </set>
      <set comment="kpoint 17">
       <r>    2.6661    1.0000 </r>
       <r>    5.5995    1.0000 </r>
       <r>    6.8044    1.0000 </r>
       <r>    6.8753    1.0000 </r>
       <r>    7.3925    1.0000 </r>
       <r>    7.7070    1.0000 </r>
       <r>    7.8275    1.0000 </r>
       <r>    8.0838    1.0000 </r>
       <r>    8.2109    1.0000 </r>
       <r>    8.2191    1.0000 </r>
       <r>    9.2197    1.0000 </r>
       <r>   12.3280    0.0000 </r>
       <r>   17.7403    0.0000 </r>
       <r>   24.7343    0.0000 </r>
       <r>   29.1319    0.0000 </r>
       <r>   30.2434    0.0000 </r>
      </set>
      <set comment="kpoint 18">
       <r>    3.9871    1.0000 </r>
       <r>    5.7416    1.0000 </r>
       <r>    6.1750    1.0000 </r>
       <r>    6.7987    1.0000 </r>
       <r>    7.3814    1.0000 </r>
       <r>    7.5490    1.0000 </r>
       <r>    7.8607    1.0000 </r>
       <r>    8.6014    1.0000 </r>
       <r>    8.6583    1.0000 </r>
       <r>    8.6952    1.0000 </r>
       <r>    9.2717    1.0000 </r>
       <r>   14.0001    0.0000 </r>
       <r>   18.5365    0.0000 </r>
       <r>   20.6762    0.0000 </r>
       <r>   26.7200    0.0000 </r>
       <r>   26.9409    0.0000 </r>
      </set>
      <set comment="kpoint 19">
       <r>    4.9357    1.0000 </r>
       <r>    5.4988    1.0000 </r>
       <r>    5.9274    1.0000 </r>
       <r>    6.8003    1.0000 </r>
       <r>    7.3929    1.0000 </r>
       <r>    7.7033    1.0000 </r>
       <r>    8.0602    1.0000 </r>
       <r>    9.0701    1.0000 </r>
       <r>    9.1263    1.0000 </r>
       <r>    9.3215    1.0000 </r>
       <r>    9.7370    1.0000 </r>
       <r>   14.7921    0.0000 </r>
       <r>   17.5591    0.0000 </r>
       <r>   20.2923    0.0000 </r>
       <r>   23.6584    0.0000 </r>
       <r>   25.4676    0.0000 </r>
      </set>
      <set comment="kpoint 20">
       <r>    5.1358    1.0000 </r>
       <r>    5.3526    1.0000 </r>
       <r>    5.9144    1.0000 </r>
       <r>    6.8277    1.0000 </r>
       <r>    7.3345    1.0000 </r>
       <r>    7.8197    1.0000 </r>
       <r>    8.2890    1.0000 </r>
       <r>    9.2004    1.0000 </r>
       <r>    9.3075    1.0000 </r>
       <r>    9.3933    1.0000 </r>
       <r>   11.1522    0.0000 </r>
       <r>   13.1446    0.0000 </r>
       <r>   18.9778    0.0000 </r>
       <r>   19.3262    0.0000 </r>
       <r>   23.7468    0.0000 </r>
       <r>   24.6569    0.0000 </r>
      </set>
      <set comment="kpoint 21">
       <r>    2.3580    1.0000 </r>
       <r>    5.4902    1.0000 </r>
       <r>    6.8946    1.0000 </r>
       <r>    7.0364    1.0000 </r>
       <r>    7.5170    1.0000 </r>
       <r>    7.5963    1.0000 </r>
       <r>    7.8016    1.0000 </r>
       <r>    7.9567    1.0000 </r>
       <r>    8.1942    1.0000 </r>
       <r>    8.2036    1.0000 </r>
       <r>    9.1915    1.0000 </r>
       <r>   11.8866    0.0000 </r>
       <r>   17.5778    0.0000 </r>
       <r>   26.8884    0.0000 </r>
       <r>   27.5107    0.0000 </r>
       <r>   32.5273    0.0000 </r>
      </set>
      <set comment="kpoint 22">
       <r>    3.5338    1.0000 </r>
       <r>    5.8894    1.0000 </r>
       <r>    6.3799    1.0000 </r>
       <r>    6.6467    1.0000 </r>
       <r>    7.3271    1.0000 </r>
       <r>    7.5535    1.0000 </r>
       <r>    7.8346    1.0000 </r>
       <r>    8.1903    1.0000 </r>
       <r>    8.5239    1.0000 </r>
       <r>    8.7052    1.0000 </r>
       <r>    9.2423    1.0000 </r>
       <r>   13.4485    0.0000 </r>
       <r>   18.3074    0.0000 </r>
       <r>   22.7021    0.0000 </r>
       <r>   25.2990    0.0000 </r>
       <r>   28.8657    0.0000 </r>
      </set>
      <set comment="kpoint 23">
       <r>    4.7664    1.0000 </r>
       <r>    5.7706    1.0000 </r>
       <r>    5.9784    1.0000 </r>
       <r>    6.6827    1.0000 </r>
       <r>    7.3179    1.0000 </r>
       <r>    7.6227    1.0000 </r>
       <r>    7.7698    1.0000 </r>
       <r>    8.6530    1.0000 </r>
       <r>    9.0301    1.0000 </r>
       <r>    9.1536    1.0000 </r>
       <r>    9.6287    1.0000 </r>
       <r>   15.0069    0.0000 </r>
       <r>   18.4112    0.0000 </r>
       <r>   20.0806    0.0000 </r>
       <r>   23.7396    0.0000 </r>
       <r>   25.2925    0.0000 </r>
      </set>
      <set comment="kpoint 24">
       <r>    5.2382    1.0000 </r>
       <r>    5.5344    1.0000 </r>
       <r>    5.9632    1.0000 </r>
       <r>    6.7547    1.0000 </r>
       <r>    7.2571    1.0000 </r>
       <r>    7.8380    1.0000 </r>
       <r>    7.9410    1.0000 </r>
       <r>    9.1174    1.0000 </r>
       <r>    9.2142    1.0000 </r>
       <r>    9.2991    1.0000 </r>
       <r>   11.0274    0.0000 </r>
       <r>   14.1438    0.0000 </r>
       <r>   18.2924    0.0000 </r>
       <r>   20.3993    0.0000 </r>
       <r>   22.7352    0.0000 </r>
       <r>   23.6264    0.0000 </r>
      </set>
      <set comment="kpoint 25">
       <r>    4.7262    1.0000 </r>
       <r>    5.9829    1.0000 </r>
       <r>    6.2255    1.0000 </r>
       <r>    6.3074    1.0000 </r>
       <r>    7.2329    1.0000 </r>
       <r>    7.5539    1.0000 </r>
       <r>    7.6977    1.0000 </r>
       <r>    8.3653    1.0000 </r>
       <r>    9.0486    1.0000 </r>
       <r>    9.0893    1.0000 </r>
       <r>    9.6929    1.0000 </r>
       <r>   14.9680    0.0000 </r>
       <r>   19.3276    0.0000 </r>
       <r>   20.8668    0.0000 </r>
       <r>   21.4582    0.0000 </r>
       <r>   27.3046    0.0000 </r>
      </set>
      <set comment="kpoint 26">
       <r>    5.5408    1.0000 </r>
       <r>    5.9060    1.0000 </r>
       <r>    5.9800    1.0000 </r>
       <r>    6.4805    1.0000 </r>
       <r>    7.1814    1.0000 </r>
       <r>    7.4950    1.0000 </r>
       <r>    7.8252    1.0000 </r>
       <r>    8.7149    1.0000 </r>
       <r>    9.0879    1.0000 </r>
       <r>    9.3134    1.0000 </r>
       <r>   11.0459    0.0000 </r>
       <r>   15.9935    0.0000 </r>
       <r>   18.0750    0.0000 </r>
       <r>   19.8992    0.0000 </r>
       <r>   21.2928    0.0000 </r>
       <r>   24.3364    0.0000 </r>
      </set>
      <set comment="kpoint 27">
       <r>    5.5635    1.0000 </r>
       <r>    5.8600    1.0000 </r>
       <r>    6.0803    1.0000 </r>
       <r>    6.6084    1.0000 </r>
       <r>    7.1103    1.0000 </r>
       <r>    7.5131    1.0000 </r>
       <r>    7.9589    1.0000 </r>
       <r>    9.0398    1.0000 </r>
       <r>    9.0679    1.0000 </r>
       <r>    9.2571    1.0000 </r>
       <r>   12.7604    0.0000 </r>
       <r>   14.0170    0.0000 </r>
       <r>   19.0646    0.0000 </r>
       <r>   20.1398    0.0000 </r>
       <r>   20.3932    0.0000 </r>
       <r>   24.2927    0.0000 </r>
      </set>
      <set comment="kpoint 28">
       <r>    5.7933    1.0000 </r>
       <r>    6.0365    1.0000 </r>
       <r>    6.2237    1.0000 </r>
       <r>    6.3759    1.0000 </r>
       <r>    7.1468    1.0000 </r>
       <r>    7.2372    1.0000 </r>
       <r>    8.0069    1.0000 </r>
       <r>    8.9009    1.0000 </r>
       <r>    9.0226    1.0000 </r>
       <r>    9.2095    1.0000 </r>
       <r>   13.1804    0.0000 </r>
       <r>   16.0130    0.0000 </r>
       <r>   16.1599    0.0000 </r>
       <r>   20.0791    0.0000 </r>
       <r>   22.0989    0.0000 </r>
       <r>   23.1824    0.0000 </r>
      </set>
      <set comment="kpoint 29">
       <r>    1.8176    1.0000 </r>
       <r>    4.7495    1.0000 </r>
       <r>    7.2566    1.0000 </r>
       <r>    7.3194    1.0000 </r>
       <r>    7.3194    1.0000 </r>
       <r>    7.5755    1.0000 </r>
       <r>    7.5755    1.0000 </r>
       <r>    8.1979    1.0000 </r>
       <r>    8.3688    1.0000 </r>
       <r>    8.3688    1.0000 </r>
       <r>    9.0826    1.0000 </r>
       <r>    9.0826    1.0000 </r>
       <r>   19.2547    0.0000 </r>
       <r>   30.8117    0.0000 </r>
       <r>   32.2241    0.0000 </r>
       <r>   33.9096    0.0000 </r>
      </set>
      <set comment="kpoint 30">
       <r>    2.1484    1.0000 </r>
       <r>    4.9940    1.0000 </r>
       <r>    7.1659    1.0000 </r>
       <r>    7.2239    1.0000 </r>
       <r>    7.2913    1.0000 </r>
       <r>    7.4452    1.0000 </r>
       <r>    7.7055    1.0000 </r>
       <r>    7.8521    1.0000 </r>
       <r>    8.3257    1.0000 </r>
       <r>    8.3837    1.0000 </r>
       <r>    9.1024    1.0000 </r>
       <r>    9.8357    1.0000 </r>
       <r>   19.4588    0.0000 </r>
       <r>   29.5977    0.0000 </r>
       <r>   31.0876    0.0000 </r>
       <r>   32.1781    0.0000 </r>
      </set>
      <set comment="kpoint 31">
       <r>    3.0667    1.0000 </r>
       <r>    5.5570    1.0000 </r>
       <r>    6.5502    1.0000 </r>
       <r>    6.9334    1.0000 </r>
       <r>    7.2136    1.0000 </r>
       <r>    7.6783    1.0000 </r>
       <r>    7.7067    1.0000 </r>
       <r>    8.0541    1.0000 </r>
       <r>    8.3462    1.0000 </r>
       <r>    8.4762    1.0000 </r>
       <r>    9.1387    1.0000 </r>
       <r>   11.0051    0.0000 </r>
       <r>   20.0894    0.0000 </r>
       <r>   25.1349    0.0000 </r>
       <r>   28.9629    0.0000 </r>
       <r>   29.6874    0.0000 </r>
      </set>
      <set comment="kpoint 32">
       <r>    4.2388    1.0000 </r>
       <r>    5.7341    1.0000 </r>
       <r>    6.1322    1.0000 </r>
       <r>    6.7860    1.0000 </r>
       <r>    7.3204    1.0000 </r>
       <r>    7.6713    1.0000 </r>
       <r>    7.9986    1.0000 </r>
       <r>    8.5355    1.0000 </r>
       <r>    8.6913    1.0000 </r>
       <r>    8.7278    1.0000 </r>
       <r>    9.1826    1.0000 </r>
       <r>   12.2816    0.0000 </r>
       <r>   20.5253    0.0000 </r>
       <r>   21.4993    0.0000 </r>
       <r>   25.2842    0.0000 </r>
       <r>   27.5688    0.0000 </r>
      </set>
      <set comment="kpoint 33">
       <r>    4.8967    1.0000 </r>
       <r>    5.5004    1.0000 </r>
       <r>    6.1276    1.0000 </r>
       <r>    6.5262    1.0000 </r>
       <r>    7.5688    1.0000 </r>
       <r>    7.7642    1.0000 </r>
       <r>    8.7867    1.0000 </r>
       <r>    8.8798    1.0000 </r>
       <r>    9.1123    1.0000 </r>
       <r>    9.2897    1.0000 </r>
       <r>    9.5032    1.0000 </r>
       <r>   13.3861    0.0000 </r>
       <r>   17.6655    0.0000 </r>
       <r>   20.6712    0.0000 </r>
       <r>   24.0386    0.0000 </r>
       <r>   26.1474    0.0000 </r>
      </set>
      <set comment="kpoint 34">
       <r>    4.9804    1.0000 </r>
       <r>    5.3977    1.0000 </r>
       <r>    6.2810    1.0000 </r>
       <r>    6.3365    1.0000 </r>
       <r>    7.5242    1.0000 </r>
       <r>    7.9164    1.0000 </r>
       <r>    8.9550    1.0000 </r>
       <r>    9.0536    1.0000 </r>
       <r>    9.3041    1.0000 </r>
       <r>    9.3812    1.0000 </r>
       <r>   10.9047    0.0000 </r>
       <r>   12.8561    0.0000 </r>
       <r>   18.0196    0.0000 </r>
       <r>   18.1569    0.0000 </r>
       <r>   25.6389    0.0000 </r>
       <r>   25.7920    0.0000 </r>
      </set>
      <set comment="kpoint 35">
       <r>    2.7773    1.0000 </r>
       <r>    5.4203    1.0000 </r>
       <r>    6.7196    1.0000 </r>
       <r>    6.9535    1.0000 </r>
       <r>    7.2677    1.0000 </r>
       <r>    7.6365    1.0000 </r>
       <r>    7.6637    1.0000 </r>
       <r>    7.9401    1.0000 </r>
       <r>    8.3865    1.0000 </r>
       <r>    8.4026    1.0000 </r>
       <r>    9.1274    1.0000 </r>
       <r>   10.6874    0.0000 </r>
       <r>   19.8830    0.0000 </r>
       <r>   27.2424    0.0000 </r>
       <r>   27.9394    0.0000 </r>
       <r>   31.1349    0.0000 </r>
      </set>
      <set comment="kpoint 36">
       <r>    3.8669    1.0000 </r>
       <r>    5.9174    1.0000 </r>
       <r>    6.2071    1.0000 </r>
       <r>    6.7340    1.0000 </r>
       <r>    7.1848    1.0000 </r>
       <r>    7.5953    1.0000 </r>
       <r>    7.7335    1.0000 </r>
       <r>    8.2884    1.0000 </r>
       <r>    8.6436    1.0000 </r>
       <r>    8.6863    1.0000 </r>
       <r>    9.2038    1.0000 </r>
       <r>   11.8627    0.0000 </r>
       <r>   20.7309    0.0000 </r>
       <r>   23.1347    0.0000 </r>
       <r>   25.7267    0.0000 </r>
       <r>   27.4296    0.0000 </r>
      </set>
      <set comment="kpoint 37">
       <r>    4.8608    1.0000 </r>
       <r>    5.7539    1.0000 </r>
       <r>    6.0588    1.0000 </r>
       <r>    6.6791    1.0000 </r>
       <r>    7.3185    1.0000 </r>
       <r>    7.6945    1.0000 </r>
       <r>    7.9836    1.0000 </r>
       <r>    8.6291    1.0000 </r>
       <r>    8.9212    1.0000 </r>
       <r>    9.1447    1.0000 </r>
       <r>    9.6720    1.0000 </r>
       <r>   13.2282    0.0000 </r>
       <r>   19.1148    0.0000 </r>
       <r>   21.7568    0.0000 </r>
       <r>   23.8204    0.0000 </r>
       <r>   24.6995    0.0000 </r>
      </set>
      <set comment="kpoint 38">
       <r>    5.1133    1.0000 </r>
       <r>    5.5828    1.0000 </r>
       <r>    6.2325    1.0000 </r>
       <r>    6.4661    1.0000 </r>
       <r>    7.2826    1.0000 </r>
       <r>    7.9879    1.0000 </r>
       <r>    8.4093    1.0000 </r>
       <r>    8.8725    1.0000 </r>
       <r>    9.1568    1.0000 </r>
       <r>    9.3668    1.0000 </r>
       <r>   11.0495    0.0000 </r>
       <r>   13.6384    0.0000 </r>
       <r>   17.4694    0.0000 </r>
       <r>   19.5245    0.0000 </r>
       <r>   23.4715    0.0000 </r>
       <r>   25.1963    0.0000 </r>
      </set>
      <set comment="kpoint 39">
       <r>    4.9041    1.0000 </r>
       <r>    5.8644    1.0000 </r>
       <r>    6.3991    1.0000 </r>
       <r>    6.4047    1.0000 </r>
       <r>    7.2698    1.0000 </r>
       <r>    7.4301    1.0000 </r>
       <r>    7.6585    1.0000 </r>
       <r>    8.4785    1.0000 </r>
       <r>    8.8566    1.0000 </r>
       <r>    9.1675    1.0000 </r>
       <r>    9.8010    1.0000 </r>
       <r>   13.1876    0.0000 </r>
       <r>   21.3027    0.0000 </r>
       <r>   21.3454    0.0000 </r>
       <r>   22.2826    0.0000 </r>
       <r>   25.9425    0.0000 </r>
      </set>
      <set comment="kpoint 40">
       <r>    5.4811    1.0000 </r>
       <r>    5.9188    1.0000 </r>
       <r>    6.1156    1.0000 </r>
       <r>    6.6033    1.0000 </r>
       <r>    7.1444    1.0000 </r>
       <r>    7.5185    1.0000 </r>
       <r>    7.8917    1.0000 </r>
       <r>    8.6832    1.0000 </r>
       <r>    8.8988    1.0000 </r>
       <r>    9.3872    1.0000 </r>
       <r>   11.2387    0.0000 </r>
       <r>   14.7219    0.0000 </r>
       <r>   18.0916    0.0000 </r>
       <r>   20.4012    0.0000 </r>
       <r>   21.6580    0.0000 </r>
       <r>   24.3553    0.0000 </r>
      </set>
      <set comment="kpoint 41">
       <r>    5.4767    1.0000 </r>
       <r>    5.9669    1.0000 </r>
       <r>    6.3088    1.0000 </r>
       <r>    6.4641    1.0000 </r>
       <r>    7.0084    1.0000 </r>
       <r>    7.6878    1.0000 </r>
       <r>    8.0601    1.0000 </r>
       <r>    8.7622    1.0000 </r>
       <r>    9.0598    1.0000 </r>
       <r>    9.3074    1.0000 </r>
       <r>   13.0205    0.0000 </r>
       <r>   14.0098    0.0000 </r>
       <r>   18.4331    0.0000 </r>
       <r>   18.7925    0.0000 </r>
       <r>   20.3589    0.0000 </r>
       <r>   24.4595    0.0000 </r>
      </set>
      <set comment="kpoint 42">
       <r>    5.8577    1.0000 </r>
       <r>    6.0636    1.0000 </r>
       <r>    6.3571    1.0000 </r>
       <r>    6.3636    1.0000 </r>
       <r>    7.1194    1.0000 </r>
       <r>    7.2191    1.0000 </r>
       <r>    7.9881    1.0000 </r>
       <r>    8.6943    1.0000 </r>
       <r>    8.9855    1.0000 </r>
       <r>    9.2562    1.0000 </r>
       <r>   13.5082    0.0000 </r>
       <r>   15.8470    0.0000 </r>
       <r>   16.5960    0.0000 </r>
       <r>   18.9732    0.0000 </r>
       <r>   21.0879    0.0000 </r>
       <r>   21.7282    0.0000 </r>
      </set>
      <set comment="kpoint 43">
       <r>    2.5357    1.0000 </r>
       <r>    4.2558    1.0000 </r>
       <r>    7.1395    1.0000 </r>
       <r>    7.3059    1.0000 </r>
       <r>    7.3059    1.0000 </r>
       <r>    7.3854    1.0000 </r>
       <r>    7.4531    1.0000 </r>
       <r>    7.4531    1.0000 </r>
       <r>    8.6101    1.0000 </r>
       <r>    8.6101    1.0000 </r>
       <r>    8.9882    1.0000 </r>
       <r>    8.9882    1.0000 </r>
       <r>   21.9078    0.0000 </r>
       <r>   27.8895    0.0000 </r>
       <r>   32.2306    0.0000 </r>
       <r>   33.1694    0.0000 </r>
      </set>
      <set comment="kpoint 44">
       <r>    2.8496    1.0000 </r>
       <r>    4.5282    1.0000 </r>
       <r>    6.9416    1.0000 </r>
       <r>    7.0697    1.0000 </r>
       <r>    7.2356    1.0000 </r>
       <r>    7.4300    1.0000 </r>
       <r>    7.5809    1.0000 </r>
       <r>    7.5821    1.0000 </r>
       <r>    8.5812    1.0000 </r>
       <r>    8.6596    1.0000 </r>
       <r>    8.9903    1.0000 </r>
       <r>    9.3031    1.0000 </r>
       <r>   22.1393    0.0000 </r>
       <r>   28.1305    0.0000 </r>
       <r>   30.1207    0.0000 </r>
       <r>   31.5386    0.0000 </r>
      </set>
      <set comment="kpoint 45">
       <r>    3.6896    1.0000 </r>
       <r>    5.1656    1.0000 </r>
       <r>    6.4799    1.0000 </r>
       <r>    6.8998    1.0000 </r>
       <r>    7.1322    1.0000 </r>
       <r>    7.5300    1.0000 </r>
       <r>    7.7086    1.0000 </r>
       <r>    7.9242    1.0000 </r>
       <r>    8.5751    1.0000 </r>
       <r>    8.8238    1.0000 </r>
       <r>    8.9978    1.0000 </r>
       <r>    9.9847    0.4367 </r>
       <r>   22.8001    0.0000 </r>
       <r>   25.7833    0.0000 </r>
       <r>   27.6554    0.0000 </r>
       <r>   29.0681    0.0000 </r>
      </set>
      <set comment="kpoint 46">
       <r>    4.6095    1.0000 </r>
       <r>    5.4539    1.0000 </r>
       <r>    6.2790    1.0000 </r>
       <r>    6.7092    1.0000 </r>
       <r>    7.4349    1.0000 </r>
       <r>    7.8597    1.0000 </r>
       <r>    7.9239    1.0000 </r>
       <r>    8.3306    1.0000 </r>
       <r>    8.7947    1.0000 </r>
       <r>    9.0596    1.0000 </r>
       <r>    9.0834    1.0000 </r>
       <r>   10.8559    0.0000 </r>
       <r>   21.4821    0.0000 </r>
       <r>   23.0130    0.0000 </r>
       <r>   24.8384    0.0000 </r>
       <r>   28.5691    0.0000 </r>
      </set>
      <set comment="kpoint 47">
       <r>    4.9571    1.0000 </r>
       <r>    5.3572    1.0000 </r>
       <r>    6.1964    1.0000 </r>
       <r>    6.4974    1.0000 </r>
       <r>    7.8423    1.0000 </r>
       <r>    8.0702    1.0000 </r>
       <r>    8.5495    1.0000 </r>
       <r>    9.0823    1.0000 </r>
       <r>    9.1515    1.0000 </r>
       <r>    9.2475    1.0000 </r>
       <r>    9.6714    1.0000 </r>
       <r>   11.9452    0.0000 </r>
       <r>   18.1342    0.0000 </r>
       <r>   19.7830    0.0000 </r>
       <r>   26.1680    0.0000 </r>
       <r>   27.2152    0.0000 </r>
      </set>
      <set comment="kpoint 48">
       <r>    4.9731    1.0000 </r>
       <r>    5.3052    1.0000 </r>
       <r>    6.1813    1.0000 </r>
       <r>    6.4027    1.0000 </r>
       <r>    7.8204    1.0000 </r>
       <r>    8.3017    1.0000 </r>
       <r>    8.5912    1.0000 </r>
       <r>    9.3202    1.0000 </r>
       <r>    9.3630    1.0000 </r>
       <r>    9.3651    1.0000 </r>
       <r>   10.9354    0.0000 </r>
       <r>   12.3206    0.0000 </r>
       <r>   17.3438    0.0000 </r>
       <r>   17.3787    0.0000 </r>
       <r>   26.7318    0.0000 </r>
       <r>   27.9926    0.0000 </r>
      </set>
      <set comment="kpoint 49">
       <r>    3.4333    1.0000 </r>
       <r>    5.0027    1.0000 </r>
       <r>    6.5797    1.0000 </r>
       <r>    6.9505    1.0000 </r>
       <r>    7.1186    1.0000 </r>
       <r>    7.4826    1.0000 </r>
       <r>    7.6603    1.0000 </r>
       <r>    7.8284    1.0000 </r>
       <r>    8.6014    1.0000 </r>
       <r>    8.7362    1.0000 </r>
       <r>    9.0124    1.0000 </r>
       <r>    9.7884    1.0000 </r>
       <r>   22.5982    0.0000 </r>
       <r>   27.8044    0.0000 </r>
       <r>   28.5170    0.0000 </r>
       <r>   28.5462    0.0000 </r>
      </set>
      <set comment="kpoint 50">
       <r>    4.3707    1.0000 </r>
       <r>    5.5343    1.0000 </r>
       <r>    6.3492    1.0000 </r>
       <r>    6.7922    1.0000 </r>
       <r>    7.0713    1.0000 </r>
       <r>    7.4228    1.0000 </r>
       <r>    7.8368    1.0000 </r>
       <r>    8.2079    1.0000 </r>
       <r>    8.7999    1.0000 </r>
       <r>    8.9297    1.0000 </r>
       <r>    9.1615    1.0000 </r>
       <r>   10.5685    0.0000 </r>
       <r>   23.2554    0.0000 </r>
       <r>   23.9274    0.0000 </r>
       <r>   25.8067    0.0000 </r>
       <r>   26.8459    0.0000 </r>
      </set>
      <set comment="kpoint 51">
       <r>    5.0294    1.0000 </r>
       <r>    5.5369    1.0000 </r>
       <r>    6.2591    1.0000 </r>
       <r>    6.6820    1.0000 </r>
       <r>    7.4240    1.0000 </r>
       <r>    7.7842    1.0000 </r>
       <r>    8.0696    1.0000 </r>
       <r>    8.4238    1.0000 </r>
       <r>    9.0115    1.0000 </r>
       <r>    9.2633    1.0000 </r>
       <r>    9.8390    1.0000 </r>
       <r>   11.7068    0.0000 </r>
       <r>   19.8124    0.0000 </r>
       <r>   21.6451    0.0000 </r>
       <r>   24.9236    0.0000 </r>
       <r>   25.7943    0.0000 </r>
      </set>
      <set comment="kpoint 52">
       <r>    5.1229    1.0000 </r>
       <r>    5.4748    1.0000 </r>
       <r>    6.2212    1.0000 </r>
       <r>    6.5406    1.0000 </r>
       <r>    7.4868    1.0000 </r>
       <r>    8.2539    1.0000 </r>
       <r>    8.4014    1.0000 </r>
       <r>    8.7218    1.0000 </r>
       <r>    9.1611    1.0000 </r>
       <r>    9.3864    1.0000 </r>
       <r>   11.3059    0.0000 </r>
       <r>   12.8064    0.0000 </r>
       <r>   17.3314    0.0000 </r>
       <r>   18.4965    0.0000 </r>
       <r>   24.3966    0.0000 </r>
       <r>   26.7473    0.0000 </r>
      </set>
      <set comment="kpoint 53">
       <r>    5.1567    1.0000 </r>
       <r>    5.6820    1.0000 </r>
       <r>    6.5585    1.0000 </r>
       <r>    6.6073    1.0000 </r>
       <r>    7.1877    1.0000 </r>
       <r>    7.2043    1.0000 </r>
       <r>    7.7827    1.0000 </r>
       <r>    8.3382    1.0000 </r>
       <r>    9.0247    1.0000 </r>
       <r>    9.2694    1.0000 </r>
       <r>    9.9853    0.4302 </r>
       <r>   11.6933    0.0000 </r>
       <r>   21.9776    0.0000 </r>
       <r>   22.4036    0.0000 </r>
       <r>   23.5414    0.0000 </r>
       <r>   24.7764    0.0000 </r>
      </set>
      <set comment="kpoint 54">
       <r>    5.5064    1.0000 </r>
       <r>    5.7685    1.0000 </r>
       <r>    6.3472    1.0000 </r>
       <r>    6.8398    1.0000 </r>
       <r>    7.0128    1.0000 </r>
       <r>    7.4974    1.0000 </r>
       <r>    7.9805    1.0000 </r>
       <r>    8.3735    1.0000 </r>
       <r>    9.0731    1.0000 </r>
       <r>    9.4104    1.0000 </r>
       <r>   11.6202    0.0000 </r>
       <r>   13.3854    0.0000 </r>
       <r>   18.6318    0.0000 </r>
       <r>   20.3732    0.0000 </r>
       <r>   21.4449    0.0000 </r>
       <r>   23.4867    0.0000 </r>
      </set>
      <set comment="kpoint 55">
       <r>    5.5059    1.0000 </r>
       <r>    5.8648    1.0000 </r>
       <r>    6.3180    1.0000 </r>
       <r>    6.8103    1.0000 </r>
       <r>    6.9054    1.0000 </r>
       <r>    7.6632    1.0000 </r>
       <r>    8.2010    1.0000 </r>
       <r>    8.4616    1.0000 </r>
       <r>    9.1210    1.0000 </r>
       <r>    9.3078    1.0000 </r>
       <r>   13.3828    0.0000 </r>
       <r>   13.9445    0.0000 </r>
       <r>   17.6802    0.0000 </r>
       <r>   17.8079    0.0000 </r>
       <r>   21.0215    0.0000 </r>
       <r>   23.1742    0.0000 </r>
      </set>
      <set comment="kpoint 56">
       <r>    5.9333    1.0000 </r>
       <r>    6.0460    1.0000 </r>
       <r>    6.4277    1.0000 </r>
       <r>    6.5207    1.0000 </r>
       <r>    7.0270    1.0000 </r>
       <r>    7.2084    1.0000 </r>
       <r>    8.0002    1.0000 </r>
       <r>    8.3471    1.0000 </r>
       <r>    9.0995    1.0000 </r>
       <r>    9.2681    1.0000 </r>
       <r>   13.9978    0.0000 </r>
       <r>   15.3391    0.0000 </r>
       <r>   17.2689    0.0000 </r>
       <r>   18.4930    0.0000 </r>
       <r>   20.0364    0.0000 </r>
       <r>   20.5317    0.0000 </r>
      </set>
      <set comment="kpoint 57">
       <r>    3.4211    1.0000 </r>
       <r>    3.4211    1.0000 </r>
       <r>    7.1116    1.0000 </r>
       <r>    7.1116    1.0000 </r>
       <r>    7.3540    1.0000 </r>
       <r>    7.3540    1.0000 </r>
       <r>    7.3540    1.0000 </r>
       <r>    7.3540    1.0000 </r>
       <r>    8.8272    1.0000 </r>
       <r>    8.8272    1.0000 </r>
       <r>    8.8272    1.0000 </r>
       <r>    8.8272    1.0000 </r>
       <r>   24.8333    0.0000 </r>
       <r>   24.8333    0.0000 </r>
       <r>   32.5825    0.0000 </r>
       <r>   32.5825    0.0000 </r>
      </set>
      <set comment="kpoint 58">
       <r>    3.7138    1.0000 </r>
       <r>    3.7138    1.0000 </r>
       <r>    6.9125    1.0000 </r>
       <r>    6.9125    1.0000 </r>
       <r>    7.3709    1.0000 </r>
       <r>    7.3709    1.0000 </r>
       <r>    7.4804    1.0000 </r>
       <r>    7.4804    1.0000 </r>
       <r>    8.8124    1.0000 </r>
       <r>    8.8124    1.0000 </r>
       <r>    8.9589    1.0000 </r>
       <r>    8.9589    1.0000 </r>
       <r>   25.0755    0.0000 </r>
       <r>   25.0755    0.0000 </r>
       <r>   30.7796    0.0000 </r>
       <r>   30.7796    0.0000 </r>
      </set>
      <set comment="kpoint 59">
       <r>    4.4468    1.0000 </r>
       <r>    4.4468    1.0000 </r>
       <r>    6.6590    1.0000 </r>
       <r>    6.6590    1.0000 </r>
       <r>    7.3113    1.0000 </r>
       <r>    7.3113    1.0000 </r>
       <r>    7.7971    1.0000 </r>
       <r>    7.7971    1.0000 </r>
       <r>    8.8034    1.0000 </r>
       <r>    8.8034    1.0000 </r>
       <r>    9.2971    1.0000 </r>
       <r>    9.2971    1.0000 </r>
       <r>   25.5878    0.0000 </r>
       <r>   25.5878    0.0000 </r>
       <r>   26.9045    0.0000 </r>
       <r>   26.9045    0.0000 </r>
      </set>
      <set comment="kpoint 60">
       <r>    5.0384    1.0000 </r>
       <r>    5.0384    1.0000 </r>
       <r>    6.5121    1.0000 </r>
       <r>    6.5121    1.0000 </r>
       <r>    7.6895    1.0000 </r>
       <r>    7.6895    1.0000 </r>
       <r>    8.0909    1.0000 </r>
       <r>    8.0909    1.0000 </r>
       <r>    8.9241    1.0000 </r>
       <r>    8.9241    1.0000 </r>
       <r>    9.7873    1.0000 </r>
       <r>    9.7873    1.0000 </r>
       <r>   22.3701    0.0000 </r>
       <r>   22.3701    0.0000 </r>
       <r>   27.1620    0.0000 </r>
       <r>   27.1620    0.0000 </r>
      </set>
      <set comment="kpoint 61">
       <r>    5.1270    1.0000 </r>
       <r>    5.1270    1.0000 </r>
       <r>    6.3605    1.0000 </r>
       <r>    6.3605    1.0000 </r>
       <r>    8.1842    1.0000 </r>
       <r>    8.1842    1.0000 </r>
       <r>    8.5828    1.0000 </r>
       <r>    8.5828    1.0000 </r>
       <r>    9.1993    1.0000 </r>
       <r>    9.1993    1.0000 </r>
       <r>   10.6926    0.0000 </r>
       <r>   10.6926    0.0000 </r>
       <r>   18.8589    0.0000 </r>
       <r>   18.8589    0.0000 </r>
       <r>   28.5559    0.0000 </r>
       <r>   28.5693    0.0000 </r>
      </set>
      <set comment="kpoint 62">
       <r>    5.1037    1.0000 </r>
       <r>    5.1037    1.0000 </r>
       <r>    6.2946    1.0000 </r>
       <r>    6.2946    1.0000 </r>
       <r>    8.1920    1.0000 </r>
       <r>    8.1920    1.0000 </r>
       <r>    8.9133    1.0000 </r>
       <r>    8.9133    1.0000 </r>
       <r>    9.3416    1.0000 </r>
       <r>    9.3416    1.0000 </r>
       <r>   11.5875    0.0000 </r>
       <r>   11.5875    0.0000 </r>
       <r>   17.1130    0.0000 </r>
       <r>   17.1130    0.0000 </r>
       <r>   28.1404    0.0000 </r>
       <r>   28.1404    0.0000 </r>
      </set>
      <set comment="kpoint 63">
       <r>    4.2381    1.0000 </r>
       <r>    4.2381    1.0000 </r>
       <r>    6.7166    1.0000 </r>
       <r>    6.7166    1.0000 </r>
       <r>    7.2776    1.0000 </r>
       <r>    7.2776    1.0000 </r>
       <r>    7.7235    1.0000 </r>
       <r>    7.7235    1.0000 </r>
       <r>    8.8103    1.0000 </r>
       <r>    8.8103    1.0000 </r>
       <r>    9.1944    1.0000 </r>
       <r>    9.1944    1.0000 </r>
       <r>   25.5290    0.0000 </r>
       <r>   25.5290    0.0000 </r>
       <r>   28.4993    0.0000 </r>
       <r>   28.4993    0.0000 </r>
      </set>
      <set comment="kpoint 64">
       <r>    4.9633    1.0000 </r>
       <r>    4.9633    1.0000 </r>
       <r>    6.6041    1.0000 </r>
       <r>    6.6041    1.0000 </r>
       <r>    7.2053    1.0000 </r>
       <r>    7.2053    1.0000 </r>
       <r>    8.0155    1.0000 </r>
       <r>    8.0155    1.0000 </r>
       <r>    8.9533    1.0000 </r>
       <r>    8.9533    1.0000 </r>
       <r>    9.6299    1.0000 </r>
       <r>    9.6299    1.0000 </r>
       <r>   24.5170    0.0000 </r>
       <r>   24.5170    0.0000 </r>
       <r>   26.5204    0.0000 </r>
       <r>   26.5204    0.0000 </r>
      </set>
      <set comment="kpoint 65">
       <r>    5.2658    1.0000 </r>
       <r>    5.2658    1.0000 </r>
       <r>    6.5030    1.0000 </r>
       <r>    6.5030    1.0000 </r>
       <r>    7.6871    1.0000 </r>
       <r>    7.6871    1.0000 </r>
       <r>    8.1581    1.0000 </r>
       <r>    8.1581    1.0000 </r>
       <r>    9.2186    1.0000 </r>
       <r>    9.2186    1.0000 </r>
       <r>   10.5254    0.0000 </r>
       <r>   10.5254    0.0000 </r>
       <r>   20.6797    0.0000 </r>
       <r>   20.6797    0.0000 </r>
       <r>   26.1625    0.0000 </r>
       <r>   26.1625    0.0000 </r>
      </set>
      <set comment="kpoint 66">
       <r>    5.2614    1.0000 </r>
       <r>    5.2614    1.0000 </r>
       <r>    6.3932    1.0000 </r>
       <r>    6.3932    1.0000 </r>
       <r>    7.9143    1.0000 </r>
       <r>    7.9143    1.0000 </r>
       <r>    8.5966    1.0000 </r>
       <r>    8.5966    1.0000 </r>
       <r>    9.2705    1.0000 </r>
       <r>    9.2705    1.0000 </r>
       <r>   11.9391    0.0000 </r>
       <r>   11.9391    0.0000 </r>
       <r>   17.7254    0.0000 </r>
       <r>   17.7254    0.0000 </r>
       <r>   25.5151    0.0000 </r>
       <r>   25.5151    0.0000 </r>
      </set>
      <set comment="kpoint 67">
       <r>    5.4330    1.0000 </r>
       <r>    5.4330    1.0000 </r>
       <r>    6.7051    1.0000 </r>
       <r>    6.7051    1.0000 </r>
       <r>    7.0769    1.0000 </r>
       <r>    7.0769    1.0000 </r>
       <r>    8.0296    1.0000 </r>
       <r>    8.0296    1.0000 </r>
       <r>    9.2680    1.0000 </r>
       <r>    9.2680    1.0000 </r>
       <r>   10.5722    0.0000 </r>
       <r>   10.5722    0.0000 </r>
       <r>   22.7698    0.0000 </r>
       <r>   22.7698    0.0000 </r>
       <r>   23.5930    0.0000 </r>
       <r>   23.5930    0.0000 </r>
      </set>
      <set comment="kpoint 68">
       <r>    5.6113    1.0000 </r>
       <r>    5.6113    1.0000 </r>
       <r>    6.6208    1.0000 </r>
       <r>    6.6208    1.0000 </r>
       <r>    7.2966    1.0000 </r>
       <r>    7.2966    1.0000 </r>
       <r>    8.1126    1.0000 </r>
       <r>    8.1126    1.0000 </r>
       <r>    9.3052    1.0000 </r>
       <r>    9.3052    1.0000 </r>
       <r>   12.3186    0.0000 </r>
       <r>   12.3186    0.0000 </r>
       <r>   19.4434    0.0000 </r>
       <r>   19.4434    0.0000 </r>
       <r>   22.3383    0.0000 </r>
       <r>   22.3383    0.0000 </r>
      </set>
      <set comment="kpoint 69">
       <r>    5.6450    1.0000 </r>
       <r>    5.6450    1.0000 </r>
       <r>    6.5590    1.0000 </r>
       <r>    6.5590    1.0000 </r>
       <r>    7.3479    1.0000 </r>
       <r>    7.3479    1.0000 </r>
       <r>    8.3149    1.0000 </r>
       <r>    8.3149    1.0000 </r>
       <r>    9.2262    1.0000 </r>
       <r>    9.2262    1.0000 </r>
       <r>   13.7353    0.0000 </r>
       <r>   13.7353    0.0000 </r>
       <r>   17.4110    0.0000 </r>
       <r>   17.4110    0.0000 </r>
       <r>   21.9937    0.0000 </r>
       <r>   21.9937    0.0000 </r>
      </set>
      <set comment="kpoint 70">
       <r>    5.9979    1.0000 </r>
       <r>    5.9979    1.0000 </r>
       <r>    6.5310    1.0000 </r>
       <r>    6.5310    1.0000 </r>
       <r>    7.0928    1.0000 </r>
       <r>    7.0928    1.0000 </r>
       <r>    8.1032    1.0000 </r>
       <r>    8.1032    1.0000 </r>
       <r>    9.2113    1.0000 </r>
       <r>    9.2113    1.0000 </r>
       <r>   14.6357    0.0000 </r>
       <r>   14.6357    0.0000 </r>
       <r>   18.0338    0.0000 </r>
       <r>   18.0338    0.0000 </r>
       <r>   19.8062    0.0000 </r>
       <r>   19.8062    0.0000 </r>
      </set>
     </set>
     <set comment="spin 2">
      <set comment="kpoint 1">
       <r>    1.2125    1.0000 </r>
       <r>    5.9343    1.0000 </r>
       <r>    9.0931    1.0000 </r>
       <r>    9.1250    1.0000 </r>
       <r>    9.1250    1.0000 </r>
       <r>    9.4814    1.0000 </r>
       <r>    9.4814    1.0000 </r>
       <r>    9.8913    0.9935 </r>
       <r>    9.8913    0.9935 </r>
       <r>    9.8913    0.9935 </r>
       <r>   11.0776    0.0000 </r>
       <r>   11.0776    0.0000 </r>
       <r>   17.2537    0.0000 </r>
       <r>   31.5877    0.0000 </r>
       <r>   34.6304    0.0000 </r>
       <r>   34.6307    0.0000 </r>
      </set>
      <set comment="kpoint 2">
       <r>    1.5586    1.0000 </r>
       <r>    6.1662    1.0000 </r>
       <r>    8.7845    1.0000 </r>
       <r>    9.0494    1.0000 </r>
       <r>    9.2993    1.0000 </r>
       <r>    9.3309    1.0000 </r>
       <r>    9.4225    1.0000 </r>
       <r>    9.6355    1.0000 </r>
       <r>    9.7781    1.0000 </r>
       <r>    9.8080    1.0000 </r>
       <r>   11.1255    0.0000 </r>
       <r>   12.2193    0.0000 </r>
       <r>   17.2840    0.0000 </r>
       <r>   29.3871    0.0000 </r>
       <r>   32.0224    0.0000 </r>
       <r>   32.1026    0.0000 </r>
      </set>
      <set comment="kpoint 3">
       <r>    2.5517    1.0000 </r>
       <r>    6.7067    1.0000 </r>
       <r>    8.0967    1.0000 </r>
       <r>    8.3703    1.0000 </r>
       <r>    9.1236    1.0000 </r>
       <r>    9.5196    1.0000 </r>
       <r>    9.5926    1.0000 </r>
       <r>    9.7806    1.0000 </r>
       <r>    9.7887    1.0000 </r>
       <r>   10.0541    0.0169 </r>
       <r>   11.2145    0.0000 </r>
       <r>   14.0594    0.0000 </r>
       <r>   17.4103    0.0000 </r>
       <r>   25.0033    0.0000 </r>
       <r>   29.2539    0.0000 </r>
       <r>   31.0699    0.0000 </r>
      </set>
      <set comment="kpoint 4">
       <r>    4.0208    1.0000 </r>
       <r>    6.9982    1.0000 </r>
       <r>    7.4153    1.0000 </r>
       <r>    8.1220    1.0000 </r>
       <r>    9.0730    1.0000 </r>
       <r>    9.2446    1.0000 </r>
       <r>    9.3318    1.0000 </r>
       <r>   10.4207    0.0000 </r>
       <r>   10.4330    0.0000 </r>
       <r>   10.6146    0.0000 </r>
       <r>   11.2835    0.0000 </r>
       <r>   16.1744    0.0000 </r>
       <r>   17.5938    0.0000 </r>
       <r>   21.0782    0.0000 </r>
       <r>   26.9794    0.0000 </r>
       <r>   28.2078    0.0000 </r>
      </set>
      <set comment="kpoint 5">
       <r>    5.5171    1.0000 </r>
       <r>    6.8021    1.0000 </r>
       <r>    7.0162    1.0000 </r>
       <r>    8.1178    1.0000 </r>
       <r>    9.0440    1.0000 </r>
       <r>    9.1239    1.0000 </r>
       <r>    9.3263    1.0000 </r>
       <r>   10.9960    0.0000 </r>
       <r>   11.1358    0.0000 </r>
       <r>   11.3197    0.0000 </r>
       <r>   11.4210    0.0000 </r>
       <r>   16.1940    0.0000 </r>
       <r>   18.4397    0.0000 </r>
       <r>   19.8589    0.0000 </r>
       <r>   25.0149    0.0000 </r>
       <r>   25.4192    0.0000 </r>
      </set>
      <set comment="kpoint 6">
       <r>    6.2414    1.0000 </r>
       <r>    6.5789    1.0000 </r>
       <r>    6.8859    1.0000 </r>
       <r>    8.2223    1.0000 </r>
       <r>    8.9707    1.0000 </r>
       <r>    9.0447    1.0000 </r>
       <r>    9.4505    1.0000 </r>
       <r>   11.2080    0.0000 </r>
       <r>   11.3302    0.0000 </r>
       <r>   11.3692    0.0000 </r>
       <r>   12.5326    0.0000 </r>
       <r>   14.2512    0.0000 </r>
       <r>   19.9982    0.0000 </r>
       <r>   20.5935    0.0000 </r>
       <r>   23.1538    0.0000 </r>
       <r>   24.3325    0.0000 </r>
      </set>
      <set comment="kpoint 7">
       <r>    2.2298    1.0000 </r>
       <r>    6.5657    1.0000 </r>
       <r>    8.3426    1.0000 </r>
       <r>    8.4530    1.0000 </r>
       <r>    9.2196    1.0000 </r>
       <r>    9.4611    1.0000 </r>
       <r>    9.5666    1.0000 </r>
       <r>    9.6524    1.0000 </r>
       <r>    9.7881    1.0000 </r>
       <r>    9.9751    0.5451 </r>
       <r>   11.1730    0.0000 </r>
       <r>   13.5422    0.0000 </r>
       <r>   17.3686    0.0000 </r>
       <r>   27.0540    0.0000 </r>
       <r>   27.7390    0.0000 </r>
       <r>   33.5801    0.0000 </r>
      </set>
      <set comment="kpoint 8">
       <r>    3.4758    1.0000 </r>
       <r>    7.0610    1.0000 </r>
       <r>    7.6609    1.0000 </r>
       <r>    8.0522    1.0000 </r>
       <r>    9.0693    1.0000 </r>
       <r>    9.1448    1.0000 </r>
       <r>    9.5908    1.0000 </r>
       <r>    9.9282    0.9248 </r>
       <r>   10.2640    0.0000 </r>
       <r>   10.5752    0.0000 </r>
       <r>   11.2219    0.0000 </r>
       <r>   15.4254    0.0000 </r>
       <r>   17.6132    0.0000 </r>
       <r>   23.0256    0.0000 </r>
       <r>   25.5052    0.0000 </r>
       <r>   30.1002    0.0000 </r>
      </set>
      <set comment="kpoint 9">
       <r>    5.0186    1.0000 </r>
       <r>    7.0580    1.0000 </r>
       <r>    7.1939    1.0000 </r>
       <r>    7.9365    1.0000 </r>
       <r>    8.9385    1.0000 </r>
       <r>    9.2119    1.0000 </r>
       <r>    9.3050    1.0000 </r>
       <r>   10.4971    0.0000 </r>
       <r>   10.8802    0.0000 </r>
       <r>   11.2551    0.0000 </r>
       <r>   11.3448    0.0000 </r>
       <r>   17.5148    0.0000 </r>
       <r>   17.6062    0.0000 </r>
       <r>   19.9763    0.0000 </r>
       <r>   23.9293    0.0000 </r>
       <r>   26.7039    0.0000 </r>
      </set>
      <set comment="kpoint 10">
       <r>    6.2031    1.0000 </r>
       <r>    6.7994    1.0000 </r>
       <r>    6.9641    1.0000 </r>
       <r>    8.0235    1.0000 </r>
       <r>    8.8879    1.0000 </r>
       <r>    9.0596    1.0000 </r>
       <r>    9.4505    1.0000 </r>
       <r>   11.0738    0.0000 </r>
       <r>   11.2134    0.0000 </r>
       <r>   11.2691    0.0000 </r>
       <r>   12.4089    0.0000 </r>
       <r>   15.1741    0.0000 </r>
[...]
       </set>
       <set comment="band 12">
        <r>  0.0000  0.0000  0.0427  0.0000  0.0001  0.1626  0.0001  0.1774  0.0001 </r>
        <r>  0.0644  0.0436  0.0000  0.0465  0.1593  0.0001  0.1198  0.0001  0.1068 </r>
       </set>
       <set comment="band 13">
        <r>  0.1782  0.0192  0.0000  0.1916  0.1178  0.0000  0.0356  0.0000  0.0899 </r>
        <r>  0.0000  0.0000  0.0460  0.0000  0.0000  0.0232  0.0000  0.1193  0.0000 </r>
       </set>
       <set comment="band 14">
        <r>  0.0000  0.0000  0.0460  0.0000  0.0000  0.0232  0.0000  0.1193  0.0000 </r>
        <r>  0.1782  0.0192  0.0000  0.1916  0.1178  0.0000  0.0356  0.0000  0.0899 </r>
       </set>
       <set comment="band 15">
        <r>  0.0558  0.3095  0.0000  0.0245  0.0318  0.0000  0.0724  0.0000  0.1049 </r>
        <r>  0.0000  0.0000  0.0118  0.0000  0.0000  0.1325  0.0000  0.0149  0.0000 </r>
       </set>
       <set comment="band 16">
        <r>  0.0000  0.0000  0.0118  0.0000  0.0000  0.1325  0.0000  0.0149  0.0000 </r>
        <r>  0.0558  0.3095  0.0000  0.0245  0.0318  0.0000  0.0724  0.0000  0.1049 </r>
       </set>
      </set>
      <set comment="kpoint 66">
       <set comment="band 1">
        <r>  0.1181  0.0181  0.0000  0.0091  0.2195  0.0000  0.0226  0.0000  0.0647 </r>
        <r>  0.0000  0.0000  0.0101  0.0000  0.0000  0.1177  0.0000  0.2689  0.0000 </r>
       </set>
       <set comment="band 2">
        <r>  0.0000  0.0000  0.0101  0.0000  0.0000  0.1177  0.0000  0.2689  0.0000 </r>
        <r>  0.1181  0.0181  0.0000  0.0091  0.2195  0.0000  0.0226  0.0000  0.0647 </r>
       </set>
       <set comment="band 3">
        <r>  0.0016  0.0121  0.0000  0.0240  0.3081  0.0000  0.2356  0.0000  0.1314 </r>
        <r>  0.0000  0.0000  0.0131  0.0000  0.0000  0.0707  0.0000  0.1268  0.0000 </r>
       </set>
       <set comment="band 4">
        <r>  0.0000  0.0000  0.0131  0.0000  0.0000  0.0707  0.0000  0.1268  0.0000 </r>
        <r>  0.0016  0.0121  0.0000  0.0240  0.3081  0.0000  0.2356  0.0000  0.1314 </r>
       </set>
       <set comment="band 5">
        <r>  0.0144  0.0338  0.0000  0.0958  0.0099  0.0001  0.1456  0.0000  0.0816 </r>
        <r>  0.0000  0.0000  0.0371  0.0000  0.0000  0.2981  0.0000  0.1671  0.0000 </r>
       </set>
       <set comment="band 6">
        <r>  0.0000  0.0000  0.0371  0.0000  0.0000  0.2981  0.0000  0.1671  0.0000 </r>
        <r>  0.0144  0.0338  0.0000  0.0958  0.0099  0.0001  0.1456  0.0000  0.0816 </r>
       </set>
       <set comment="band 7">
        <r>  0.0030  0.0185  0.0000  0.0495  0.0409  0.0000  0.1143  0.0000  0.2800 </r>
        <r>  0.0000  0.0000  0.0166  0.0000  0.0000  0.2757  0.0000  0.1449  0.0000 </r>
       </set>
       <set comment="band 8">
        <r>  0.0000  0.0000  0.0166  0.0000  0.0000  0.2757  0.0000  0.1449  0.0000 </r>
        <r>  0.0030  0.0185  0.0000  0.0495  0.0409  0.0000  0.1143  0.0000  0.2800 </r>
       </set>
       <set comment="band 9">
        <r>  0.0004  0.0016  0.0000  0.0005  0.1667  0.0000  0.3859  0.0000  0.2085 </r>
        <r>  0.0000  0.0000  0.0024  0.0000  0.0000  0.1084  0.0000  0.1128  0.0000 </r>
       </set>
       <set comment="band 10">
        <r>  0.0000  0.0000  0.0024  0.0000  0.0000  0.1084  0.0000  0.1128  0.0000 </r>
        <r>  0.0004  0.0016  0.0000  0.0005  0.1667  0.0000  0.3859  0.0000  0.2085 </r>
       </set>
       <set comment="band 11">
        <r>  0.0302  0.0797  0.0000  0.1641  0.1589  0.0000  0.0536  0.0000  0.1738 </r>
        <r>  0.0000  0.0000  0.0681  0.0000  0.0000  0.0684  0.0000  0.0681  0.0000 </r>
       </set>
       <set comment="band 12">
        <r>  0.0000  0.0000  0.0681  0.0000  0.0000  0.0684  0.0000  0.0681  0.0000 </r>
        <r>  0.0302  0.0797  0.0000  0.1641  0.1589  0.0000  0.0536  0.0000  0.1738 </r>
       </set>
       <set comment="band 13">
        <r>  0.3195  0.0043  0.0000  0.0730  0.1399  0.0000  0.0219  0.0000  0.0780 </r>
        <r>  0.0000  0.0000  0.0340  0.0000  0.0000  0.0411  0.0000  0.1565  0.0000 </r>
       </set>
       <set comment="band 14">
        <r>  0.0000  0.0000  0.0340  0.0000  0.0000  0.0411  0.0000  0.1565  0.0000 </r>
        <r>  0.3195  0.0043  0.0000  0.0730  0.1399  0.0000  0.0219  0.0000  0.0780 </r>
       </set>
       <set comment="band 15">
        <r>  0.0782  0.2885  0.0000  0.0686  0.0578  0.0000  0.0413  0.0000  0.0494 </r>
        <r>  0.0000  0.0000  0.0115  0.0000  0.0000  0.1173  0.0000  0.0313  0.0000 </r>
       </set>
       <set comment="band 16">
        <r>  0.0000  0.0000  0.0115  0.0000  0.0000  0.1173  0.0000  0.0313  0.0000 </r>
        <r>  0.0782  0.2885  0.0000  0.0686  0.0578  0.0000  0.0413  0.0000  0.0494 </r>
       </set>
      </set>
      <set comment="kpoint 67">
       <set comment="band 1">
        <r>  0.2333  0.0748  0.0001  0.0262  0.0468  0.0002  0.0063  0.0001  0.0216 </r>
        <r>  0.0002  0.0001  0.0710  0.0000  0.0000  0.2236  0.0000  0.0746  0.0000 </r>
       </set>
       <set comment="band 2">
        <r>  0.0002  0.0001  0.0710  0.0000  0.0000  0.2236  0.0000  0.0746  0.0000 </r>
        <r>  0.2333  0.0748  0.0001  0.0262  0.0468  0.0002  0.0063  0.0001  0.0216 </r>
       </set>
       <set comment="band 3">
        <r>  0.0214  0.0303  0.0000  0.0307  0.1857  0.0000  0.0862  0.0000  0.4605 </r>
        <r>  0.0000  0.0000  0.0211  0.0000  0.0000  0.0526  0.0000  0.0195  0.0000 </r>
       </set>
       <set comment="band 4">
        <r>  0.0000  0.0000  0.0211  0.0000  0.0000  0.0526  0.0000  0.0195  0.0000 </r>
        <r>  0.0214  0.0303  0.0000  0.0307  0.1857  0.0000  0.0862  0.0000  0.4605 </r>
       </set>
       <set comment="band 5">
        <r>  0.0011  0.0294  0.0000  0.0142  0.0757  0.0000  0.4761  0.0000  0.1391 </r>
        <r>  0.0000  0.0000  0.0009  0.0000  0.0000  0.0822  0.0000  0.1108  0.0000 </r>
       </set>
       <set comment="band 6">
        <r>  0.0000  0.0000  0.0009  0.0000  0.0000  0.0822  0.0000  0.1108  0.0000 </r>
        <r>  0.0011  0.0294  0.0000  0.0142  0.0757  0.0000  0.4761  0.0000  0.1391 </r>
       </set>
       <set comment="band 7">
        <r>  0.0034  0.0026  0.0000  0.0011  0.1344  0.0007  0.0066  0.0018  0.0939 </r>
        <r>  0.0000  0.0000  0.0010  0.0000  0.0005  0.2019  0.0000  0.5153  0.0003 </r>
       </set>
       <set comment="band 8">
        <r>  0.0000  0.0000  0.0010  0.0000  0.0005  0.2019  0.0000  0.5153  0.0003 </r>
        <r>  0.0034  0.0026  0.0000  0.0011  0.1344  0.0007  0.0066  0.0018  0.0939 </r>
       </set>
       <set comment="band 9">
        <r>  0.0000  0.0000  0.0000  0.0000  0.2839  0.0000  0.3189  0.0000  0.0984 </r>
        <r>  0.0000  0.0000  0.0018  0.0000  0.0000  0.1499  0.0000  0.1380  0.0000 </r>
       </set>
       <set comment="band 10">
        <r>  0.0000  0.0000  0.0018  0.0000  0.0000  0.1499  0.0000  0.1380  0.0000 </r>
        <r>  0.0000  0.0000  0.0000  0.0000  0.2839  0.0000  0.3189  0.0000  0.0984 </r>
       </set>
       <set comment="band 11">
        <r>  0.0739  0.0645  0.0000  0.0224  0.2374  0.0001  0.0496  0.0000  0.1002 </r>
        <r>  0.0000  0.0000  0.0467  0.0000  0.0001  0.2416  0.0000  0.0868  0.0000 </r>
       </set>
       <set comment="band 12">
        <r>  0.0000  0.0000  0.0467  0.0000  0.0001  0.2416  0.0000  0.0868  0.0000 </r>
        <r>  0.0739  0.0645  0.0000  0.0224  0.2374  0.0001  0.0496  0.0000  0.1002 </r>
       </set>
       <set comment="band 13">
        <r>  0.0016  0.0790  0.0000  0.2012  0.0817  0.0000  0.0106  0.0000  0.2450 </r>
        <r>  0.0000  0.0000  0.0658  0.0000  0.0000  0.0470  0.0000  0.0471  0.0000 </r>
       </set>
       <set comment="band 14">
        <r>  0.0000  0.0000  0.0658  0.0000  0.0000  0.0470  0.0000  0.0471  0.0000 </r>
        <r>  0.0016  0.0790  0.0000  0.2012  0.0817  0.0000  0.0106  0.0000  0.2450 </r>
       </set>
       <set comment="band 15">
        <r>  0.2327  0.2010  0.0000  0.0746  0.0100  0.0000  0.0876  0.0000  0.0120 </r>
        <r>  0.0000  0.0000  0.0040  0.0000  0.0000  0.0982  0.0000  0.0861  0.0000 </r>
       </set>
       <set comment="band 16">
        <r>  0.0000  0.0000  0.0040  0.0000  0.0000  0.0982  0.0000  0.0861  0.0000 </r>
        <r>  0.2327  0.2010  0.0000  0.0746  0.0100  0.0000  0.0876  0.0000  0.0120 </r>
       </set>
      </set>
      <set comment="kpoint 68">
       <set comment="band 1">
        <r>  0.1140  0.0491  0.0000  0.0162  0.1260  0.0002  0.0426  0.0002  0.0261 </r>
        <r>  0.0001  0.0000  0.0209  0.0000  0.0001  0.2384  0.0000  0.2019  0.0000 </r>
       </set>
       <set comment="band 2">
        <r>  0.0001  0.0000  0.0209  0.0000  0.0001  0.2384  0.0000  0.2019  0.0000 </r>
        <r>  0.1140  0.0491  0.0000  0.0162  0.1260  0.0002  0.0426  0.0002  0.0261 </r>
       </set>
       <set comment="band 3">
        <r>  0.0137  0.0241  0.0000  0.0355  0.2897  0.0000  0.1011  0.0000  0.3191 </r>
        <r>  0.0000  0.0000  0.0250  0.0000  0.0000  0.0901  0.0000  0.0119  0.0000 </r>
       </set>
       <set comment="band 4">
        <r>  0.0000  0.0000  0.0250  0.0000  0.0000  0.0901  0.0000  0.0119  0.0000 </r>
        <r>  0.0137  0.0241  0.0000  0.0355  0.2897  0.0000  0.1011  0.0000  0.3191 </r>
       </set>
       <set comment="band 5">
        <r>  0.0105  0.0443  0.0000  0.0670  0.0423  0.0000  0.2587  0.0000  0.1505 </r>
        <r>  0.0000  0.0000  0.0189  0.0000  0.0000  0.0807  0.0000  0.2179  0.0000 </r>
       </set>
       <set comment="band 6">
        <r>  0.0000  0.0000  0.0189  0.0000  0.0000  0.0807  0.0000  0.2179  0.0000 </r>
        <r>  0.0105  0.0443  0.0000  0.0670  0.0423  0.0000  0.2587  0.0000  0.1505 </r>
       </set>
       <set comment="band 7">
        <r>  0.0079  0.0027  0.0000  0.0058  0.1149  0.0000  0.0461  0.0000  0.2196 </r>
        <r>  0.0000  0.0000  0.0011  0.0000  0.0000  0.2555  0.0000  0.3078  0.0000 </r>
       </set>
       <set comment="band 8">
        <r>  0.0000  0.0000  0.0011  0.0000  0.0000  0.2555  0.0000  0.3078  0.0000 </r>
        <r>  0.0079  0.0027  0.0000  0.0058  0.1149  0.0000  0.0461  0.0000  0.2196 </r>
       </set>
       <set comment="band 9">
        <r>  0.0001  0.0024  0.0000  0.0007  0.1282  0.0000  0.5011  0.0000  0.0541 </r>
        <r>  0.0000  0.0000  0.0033  0.0000  0.0000  0.1719  0.0000  0.1266  0.0000 </r>
       </set>
       <set comment="band 10">
        <r>  0.0000  0.0000  0.0033  0.0000  0.0000  0.1719  0.0000  0.1266  0.0000 </r>
        <r>  0.0001  0.0024  0.0000  0.0007  0.1282  0.0000  0.5011  0.0000  0.0541 </r>
       </set>
       <set comment="band 11">
        <r>  0.0715  0.1097  0.0000  0.0817  0.2525  0.0000  0.0049  0.0000  0.1398 </r>
        <r>  0.0000  0.0000  0.0721  0.0000  0.0000  0.1053  0.0000  0.0441  0.0000 </r>
       </set>
       <set comment="band 12">
        <r>  0.0000  0.0000  0.0721  0.0000  0.0000  0.1053  0.0000  0.0441  0.0000 </r>
        <r>  0.0715  0.1097  0.0000  0.0817  0.2525  0.0000  0.0049  0.0000  0.1398 </r>
       </set>
       <set comment="band 13">
        <r>  0.1653  0.0051  0.0000  0.2119  0.0880  0.0000  0.0184  0.0000  0.1415 </r>
        <r>  0.0000  0.0000  0.0463  0.0000  0.0000  0.0187  0.0000  0.1315  0.0000 </r>
       </set>
       <set comment="band 14">
        <r>  0.0000  0.0000  0.0463  0.0000  0.0000  0.0187  0.0000  0.1315  0.0000 </r>
        <r>  0.1653  0.0051  0.0000  0.2119  0.0880  0.0000  0.0184  0.0000  0.1415 </r>
       </set>
       <set comment="band 15">
        <r>  0.2119  0.2364  0.0000  0.0188  0.0307  0.0000  0.0449  0.0000  0.0599 </r>
        <r>  0.0000  0.0000  0.0204  0.0000  0.0000  0.1295  0.0000  0.0371  0.0000 </r>
       </set>
       <set comment="band 16">
        <r>  0.0000  0.0000  0.0204  0.0000  0.0000  0.1295  0.0000  0.0371  0.0000 </r>
        <r>  0.2119  0.2364  0.0000  0.0188  0.0307  0.0000  0.0449  0.0000  0.0599 </r>
       </set>
      </set>
      <set comment="kpoint 69">
       <set comment="band 1">
        <r>  0.0763  0.0266  0.0000  0.0199  0.1728  0.0000  0.0505  0.0001  0.0630 </r>
        <r>  0.0000  0.0000  0.0030  0.0000  0.0000  0.1118  0.0000  0.3354  0.0000 </r>
       </set>
       <set comment="band 2">
        <r>  0.0000  0.0000  0.0030  0.0000  0.0000  0.1118  0.0000  0.3354  0.0000 </r>
        <r>  0.0763  0.0266  0.0000  0.0199  0.1728  0.0000  0.0505  0.0001  0.0630 </r>
       </set>
       <set comment="band 3">
        <r>  0.0012  0.0281  0.0000  0.0155  0.3226  0.0000  0.2233  0.0000  0.1164 </r>
        <r>  0.0000  0.0000  0.0097  0.0000  0.0000  0.1009  0.0000  0.1056  0.0000 </r>
       </set>
       <set comment="band 4">
        <r>  0.0000  0.0000  0.0097  0.0000  0.0000  0.1009  0.0000  0.1056  0.0000 </r>
        <r>  0.0012  0.0281  0.0000  0.0155  0.3226  0.0000  0.2233  0.0000  0.1164 </r>
       </set>
       <set comment="band 5">
        <r>  0.0169  0.0344  0.0000  0.1031  0.0872  0.0000  0.0467  0.0000  0.1738 </r>
        <r>  0.0000  0.0000  0.0378  0.0000  0.0000  0.2696  0.0000  0.0996  0.0000 </r>
       </set>
       <set comment="band 6">
        <r>  0.0000  0.0000  0.0378  0.0000  0.0000  0.2696  0.0000  0.0996  0.0000 </r>
        <r>  0.0169  0.0344  0.0000  0.1031  0.0872  0.0000  0.0467  0.0000  0.1738 </r>
       </set>
       <set comment="band 7">
        <r>  0.0007  0.0086  0.0000  0.0233  0.1483  0.0000  0.0176  0.0000  0.3351 </r>
        <r>  0.0000  0.0000  0.0050  0.0000  0.0000  0.2805  0.0000  0.1391  0.0000 </r>
       </set>
       <set comment="band 8">
        <r>  0.0000  0.0000  0.0050  0.0000  0.0000  0.2805  0.0000  0.1391  0.0000 </r>
        <r>  0.0007  0.0086  0.0000  0.0233  0.1483  0.0000  0.0176  0.0000  0.3351 </r>
       </set>
       <set comment="band 9">
        <r>  0.0007  0.0010  0.0000  0.0003  0.0435  0.0000  0.6160  0.0000  0.0394 </r>
        <r>  0.0000  0.0000  0.0012  0.0000  0.0000  0.1180  0.0000  0.1666  0.0000 </r>
       </set>
       <set comment="band 10">
        <r>  0.0000  0.0000  0.0012  0.0000  0.0000  0.1180  0.0000  0.1666  0.0000 </r>
        <r>  0.0007  0.0010  0.0000  0.0003  0.0435  0.0000  0.6160  0.0000  0.0394 </r>
       </set>
       <set comment="band 11">
        <r>  0.0088  0.0812  0.0000  0.2310  0.1032  0.0000  0.0075  0.0000  0.2437 </r>
        <r>  0.0000  0.0000  0.1005  0.0001  0.0000  0.0337  0.0000  0.0317  0.0001 </r>
       </set>
       <set comment="band 12">
        <r>  0.0000  0.0000  0.1005  0.0001  0.0000  0.0337  0.0000  0.0317  0.0001 </r>
        <r>  0.0088  0.0812  0.0000  0.2310  0.1032  0.0000  0.0075  0.0000  0.2437 </r>
       </set>
       <set comment="band 13">
        <r>  0.2829  0.0679  0.0000  0.0379  0.1670  0.0000  0.0132  0.0000  0.0602 </r>
        <r>  0.0000  0.0000  0.0276  0.0000  0.0000  0.0516  0.0000  0.1540  0.0000 </r>
       </set>
       <set comment="band 14">
        <r>  0.0000  0.0000  0.0276  0.0000  0.0000  0.0516  0.0000  0.1540  0.0000 </r>
        <r>  0.2829  0.0679  0.0000  0.0379  0.1670  0.0000  0.0132  0.0000  0.0602 </r>
       </set>
       <set comment="band 15">
        <r>  0.2131  0.1918  0.0000  0.0642  0.0671  0.0000  0.0376  0.0000  0.0224 </r>
        <r>  0.0000  0.0000  0.0211  0.0000  0.0000  0.1186  0.0000  0.0494  0.0000 </r>
       </set>
       <set comment="band 16">
        <r>  0.0000  0.0000  0.0211  0.0000  0.0000  0.1186  0.0000  0.0494  0.0000 </r>
        <r>  0.2131  0.1918  0.0000  0.0642  0.0671  0.0000  0.0376  0.0000  0.0224 </r>
       </set>
      </set>
      <set comment="kpoint 70">
       <set comment="band 1">
        <r>  0.0508  0.0365  0.0000  0.0299  0.0694  0.0003  0.0902  0.0001  0.0799 </r>
        <r>  0.0000  0.0000  0.0021  0.0000  0.0000  0.3776  0.0001  0.1260  0.0001 </r>
       </set>
       <set comment="band 2">
        <r>  0.0000  0.0000  0.0021  0.0000  0.0000  0.3776  0.0001  0.1260  0.0001 </r>
        <r>  0.0508  0.0365  0.0000  0.0299  0.0694  0.0003  0.0902  0.0001  0.0799 </r>
       </set>
       <set comment="band 3">
        <r>  0.0258  0.0179  0.0000  0.0374  0.0648  0.0000  0.1510  0.0000  0.1804 </r>
        <r>  0.0000  0.0000  0.0050  0.0000  0.0000  0.1105  0.0000  0.3026  0.0000 </r>
       </set>
       <set comment="band 4">
        <r>  0.0000  0.0000  0.0050  0.0000  0.0000  0.1105  0.0000  0.3026  0.0000 </r>
        <r>  0.0258  0.0179  0.0000  0.0374  0.0648  0.0000  0.1510  0.0000  0.1804 </r>
       </set>
       <set comment="band 5">
        <r>  0.0008  0.0839  0.0000  0.0483  0.3109  0.0000  0.0453  0.0000  0.2952 </r>
        <r>  0.0000  0.0000  0.0413  0.0000  0.0000  0.0162  0.0000  0.0486  0.0000 </r>
       </set>
       <set comment="band 6">
        <r>  0.0000  0.0000  0.0413  0.0000  0.0000  0.0162  0.0000  0.0486  0.0000 </r>
        <r>  0.0008  0.0839  0.0000  0.0483  0.3109  0.0000  0.0453  0.0000  0.2952 </r>
       </set>
       <set comment="band 7">
        <r>  0.0026  0.0058  0.0000  0.0024  0.2696  0.0000  0.0152  0.0000  0.2094 </r>
        <r>  0.0000  0.0000  0.0003  0.0000  0.0000  0.1889  0.0000  0.2682  0.0000 </r>
       </set>
       <set comment="band 8">
        <r>  0.0000  0.0000  0.0003  0.0000  0.0000  0.1889  0.0000  0.2682  0.0000 </r>
        <r>  0.0026  0.0058  0.0000  0.0024  0.2696  0.0000  0.0152  0.0000  0.2094 </r>
       </set>
       <set comment="band 9">
        <r>  0.0020  0.0009  0.0000  0.0003  0.0245  0.0000  0.6588  0.0000  0.0104 </r>
        <r>  0.0000  0.0000  0.0007  0.0000  0.0000  0.1606  0.0000  0.1279  0.0000 </r>
       </set>
       <set comment="band 10">
        <r>  0.0000  0.0000  0.0007  0.0000  0.0000  0.1606  0.0000  0.1279  0.0000 </r>
        <r>  0.0020  0.0009  0.0000  0.0003  0.0245  0.0000  0.6588  0.0000  0.0104 </r>
       </set>
       <set comment="band 11">
        <r>  0.0346  0.2040  0.0007  0.0811  0.2419  0.0003  0.0005  0.0001  0.1054 </r>
        <r>  0.0002  0.0012  0.1140  0.0005  0.0015  0.0448  0.0000  0.0187  0.0006 </r>
       </set>
       <set comment="band 12">
        <r>  0.0002  0.0012  0.1140  0.0005  0.0015  0.0448  0.0000  0.0187  0.0006 </r>
        <r>  0.0346  0.2040  0.0007  0.0811  0.2419  0.0003  0.0005  0.0001  0.1054 </r>
       </set>
       <set comment="band 13">
        <r>  0.0055  0.0952  0.0000  0.2396  0.0800  0.0000  0.0000  0.0000  0.2149 </r>
        <r>  0.0000  0.0000  0.0438  0.0000  0.0000  0.0781  0.0000  0.0564  0.0000 </r>
       </set>
       <set comment="band 14">
        <r>  0.0000  0.0000  0.0438  0.0000  0.0000  0.0781  0.0000  0.0564  0.0000 </r>
        <r>  0.0055  0.0952  0.0000  0.2396  0.0800  0.0000  0.0000  0.0000  0.2149 </r>
       </set>
       <set comment="band 15">
        <r>  0.4889  0.0384  0.0000  0.0129  0.0020  0.0000  0.0478  0.0000  0.0008 </r>
        <r>  0.0000  0.0000  0.0019  0.0000  0.0000  0.1049  0.0000  0.1329  0.0000 </r>
       </set>
       <set comment="band 16">
        <r>  0.0000  0.0000  0.0019  0.0000  0.0000  0.1049  0.0000  0.1329  0.0000 </r>
        <r>  0.4889  0.0384  0.0000  0.0129  0.0020  0.0000  0.0478  0.0000  0.0008 </r>
       </set>
      </set>
     </set>
    </set>
   </array>
  </projected>
 </calculation>
 <structure name="finalpos" >
  <crystal>
   <varray name="basis" >
    <v>       2.50623555       0.00000000       0.00000000 </v>
    <v>      -1.25311778       2.17046365       0.00000000 </v>
    <v>       0.00000000       0.00000000       4.05498712 </v>
   </varray>
   <i name="volume">     22.05788574 </i>
   <varray name="rec_basis" >
    <v>       0.39900479       0.23036553       0.00000000 </v>
    <v>       0.00000000       0.46073105       0.00000000 </v>
    <v>       0.00000000       0.00000000       0.24660991 </v>
   </varray>
  </crystal>
  <varray name="positions" >
   <v>       0.00000000       0.00000000       0.00000000 </v>
   <v>       0.33333333       0.66666667       0.50000000 </v>
  </varray>
 </structure>
</modeling>
