   2   2   1   0
  0.1147457E+02  0.2542121E-09  0.2542121E-09  0.4100562E-09  0.5000000E-15
  1.000000000000000E-004
  CAR 
 Co-hcc                                  
     54.55756167     -1.66292058  301      9.44850961      1.00000000
     -1.663  0.0000E+00  0.0000E+00  0.0000E+00  0.0000E+00
     -1.476  0.0000E+00  0.0000E+00  0.0000E+00  0.0000E+00
     -1.288  0.0000E+00  0.0000E+00  0.0000E+00  0.0000E+00
     -1.101  0.0000E+00  0.0000E+00  0.0000E+00  0.0000E+00
     -0.913  0.0000E+00  0.0000E+00  0.0000E+00  0.0000E+00
     -0.726  0.0000E+00  0.0000E+00  0.0000E+00  0.0000E+00
     -0.539  0.0000E+00  0.0000E+00  0.0000E+00  0.0000E+00
     -0.351  0.0000E+00  0.0000E+00  0.0000E+00  0.0000E+00
     -0.164  0.0000E+00  0.0000E+00  0.0000E+00  0.0000E+00
      0.024  0.0000E+00  0.0000E+00  0.0000E+00  0.0000E+00
      0.211  0.0000E+00  0.0000E+00  0.0000E+00  0.0000E+00
      0.398  0.0000E+00  0.0000E+00  0.0000E+00  0.0000E+00
      0.586  0.0000E+00  0.0000E+00  0.0000E+00  0.0000E+00
      0.773  0.9818E-08  0.1722E-07  0.1840E-08  0.3227E-08
      0.961  0.4511E-04  0.4587E-04  0.8456E-05  0.8598E-05
      1.148  0.2856E-03  0.2972E-03  0.6198E-04  0.6429E-04
      1.336  0.6097E-03  0.6036E-03  0.1762E-03  0.1774E-03
      1.523  0.1167E-03  0.1123E-03  0.1981E-03  0.1985E-03
      1.710  0.6804E-03  0.6719E-03  0.3256E-03  0.3244E-03
      1.898  0.1042E-02  0.1038E-02  0.5209E-03  0.5189E-03
      2.085  0.5255E-03  0.5294E-03  0.6194E-03  0.6181E-03
      2.273  0.6345E-03  0.6362E-03  0.7383E-03  0.7373E-03
      2.460  0.1452E-02  0.1303E-02  0.1010E-02  0.9816E-03
      2.647  0.1306E-02  0.1405E-02  0.1255E-02  0.1245E-02
      2.835  0.5610E-03  0.3287E-03  0.1360E-02  0.1307E-02
      3.022  0.2304E-02  0.2024E-02  0.1792E-02  0.1686E-02
      3.210  0.3400E-03  0.8689E-03  0.1856E-02  0.1849E-02
      3.397  0.1175E-02  0.9521E-03  0.2076E-02  0.2027E-02
      3.584  0.2266E-02  0.8340E-03  0.2501E-02  0.2183E-02
      3.772  0.2039E-02  0.3017E-02  0.2883E-02  0.2749E-02
      3.959  0.2731E-02  0.1616E-02  0.3395E-02  0.3052E-02
      4.147  0.1380E-02  0.1769E-02  0.3653E-02  0.3383E-02
      4.334  0.3096E-02  0.1073E-02  0.4233E-02  0.3584E-02
      4.521  0.3971E-02  0.2223E-02  0.4977E-02  0.4001E-02
      4.709  0.9777E-02  0.2394E-02  0.6810E-02  0.4450E-02
      4.896  0.9786E-02  0.2570E-02  0.8643E-02  0.4931E-02
      5.084  0.1423E-01  0.3191E-02  0.1131E-01  0.5529E-02
      5.271  0.1304E-01  0.3525E-02  0.1375E-01  0.6190E-02
      5.458  0.2335E-01  0.5032E-02  0.1813E-01  0.7133E-02
      5.646  0.1624E-01  0.2653E-02  0.2117E-01  0.7630E-02
      5.833  0.1882E-01  0.1037E-01  0.2470E-01  0.9573E-02
      6.021  0.1931E-01  0.8174E-02  0.2832E-01  0.1110E-01
      6.208  0.2270E-01  0.8686E-02  0.3258E-01  0.1273E-01
      6.395  0.2382E-01  0.9239E-02  0.3704E-01  0.1446E-01
      6.583  0.1092E-01  0.1366E-01  0.3909E-01  0.1702E-01
      6.770  0.2848E-01  0.1398E-01  0.4442E-01  0.1964E-01
      6.958  0.3121E-01  0.1353E-01  0.5027E-01  0.2218E-01
      7.145  0.3275E-01  0.1463E-01  0.5641E-01  0.2492E-01
      7.332  0.3395E-01  0.1707E-01  0.6277E-01  0.2812E-01
      7.520  0.2906E-01  0.1919E-01  0.6822E-01  0.3172E-01
      7.707  0.2024E-01  0.2268E-01  0.7201E-01  0.3596E-01
      7.895  0.2416E-01  0.9685E-02  0.7654E-01  0.3778E-01
      8.082  0.1670E-01  0.9176E-02  0.7967E-01  0.3950E-01
      8.269  0.2070E-01  0.2013E-01  0.8355E-01  0.4327E-01
      8.457  0.2935E-01  0.2471E-01  0.8905E-01  0.4790E-01
      8.644  0.4295E-01  0.2873E-01  0.9709E-01  0.5329E-01
      8.832  0.3811E-01  0.2766E-01  0.1042E+00  0.5847E-01
      9.019  0.1967E-02  0.3227E-01  0.1046E+00  0.6452E-01
      9.206  0.4893E-02  0.2147E-01  0.1055E+00  0.6854E-01
      9.394  0.5777E-02  0.1850E-01  0.1066E+00  0.7201E-01
      9.581  0.3201E-02  0.1429E-01  0.1072E+00  0.7469E-01
      9.769  0.1175E-02  0.1964E-01  0.1074E+00  0.7837E-01
      9.956  0.1026E-02  0.1194E-01  0.1076E+00  0.8060E-01
     10.143  0.1594E-02  0.1793E-01  0.1079E+00  0.8396E-01
     10.331  0.4161E-02  0.2360E-01  0.1087E+00  0.8839E-01
     10.518  0.5833E-02  0.3247E-01  0.1098E+00  0.9447E-01
     10.706  0.4214E-02  0.4694E-01  0.1106E+00  0.1033E+00
     10.893  0.1214E-02  0.1382E-01  0.1108E+00  0.1059E+00
     11.080  0.1883E-02  0.5753E-02  0.1112E+00  0.1069E+00
     11.268  0.2306E-02  0.3746E-02  0.1116E+00  0.1076E+00
     11.455  0.1831E-02  0.3376E-02  0.1119E+00  0.1083E+00
     11.643  0.3036E-02  0.4320E-02  0.1125E+00  0.1091E+00
     11.830  0.2144E-02  0.4850E-02  0.1129E+00  0.1100E+00
     12.017  0.2600E-02  0.4816E-02  0.1134E+00  0.1109E+00
     12.205  0.3256E-02  0.2056E-02  0.1140E+00  0.1113E+00
     12.392  0.1192E-02  0.4056E-02  0.1142E+00  0.1120E+00
     12.580  0.2248E-02  0.1380E-02  0.1146E+00  0.1123E+00
     12.767  0.3754E-02  0.3981E-02  0.1154E+00  0.1130E+00
     12.954  0.3066E-02  0.1570E-02  0.1159E+00  0.1133E+00
     13.142  0.2331E-02  0.3325E-02  0.1164E+00  0.1140E+00
     13.329  0.1903E-02  0.1670E-02  0.1167E+00  0.1143E+00
     13.517  0.1848E-02  0.3980E-02  0.1171E+00  0.1150E+00
     13.704  0.5649E-03  0.4018E-02  0.1172E+00  0.1158E+00
     13.891  0.2083E-02  0.1557E-02  0.1176E+00  0.1161E+00
     14.079  0.8590E-03  0.2232E-02  0.1177E+00  0.1165E+00
     14.266  0.1202E-02  0.3057E-02  0.1179E+00  0.1171E+00
     14.454  0.3650E-02  0.1436E-02  0.1186E+00  0.1173E+00
     14.641  0.3423E-02  0.1228E-02  0.1193E+00  0.1176E+00
     14.828  0.1423E-02  0.1549E-02  0.1195E+00  0.1178E+00
     15.016  0.6935E-03  0.6539E-03  0.1197E+00  0.1180E+00
     15.203  0.3022E-07  0.3861E-02  0.1197E+00  0.1187E+00
     15.391  0.2485E-03  0.3639E-02  0.1197E+00  0.1194E+00
     15.578  0.1414E-02  0.1196E-02  0.1200E+00  0.1196E+00
     15.765  0.9802E-03  0.3949E-03  0.1202E+00  0.1197E+00
     15.953  0.6367E-03  0.6232E-09  0.1203E+00  0.1197E+00
     16.140  0.3817E-03  0.2664E-03  0.1204E+00  0.1197E+00
     16.328  0.1718E-02  0.1292E-02  0.1207E+00  0.1200E+00
     16.515  0.2923E-02  0.6839E-03  0.1212E+00  0.1201E+00
     16.702  0.6415E-02  0.1121E-02  0.1224E+00  0.1203E+00
     16.890  0.5977E-02  0.6061E-03  0.1235E+00  0.1204E+00
     17.077  0.1646E-02  0.1012E-02  0.1239E+00  0.1206E+00
     17.265  0.4384E-02  0.3108E-02  0.1247E+00  0.1212E+00
     17.452  0.3298E-02  0.7170E-02  0.1253E+00  0.1225E+00
     17.639  0.3321E-02  0.4798E-02  0.1259E+00  0.1234E+00
     17.827  0.2607E-02  0.3075E-02  0.1264E+00  0.1240E+00
     18.014  0.3165E-02  0.4664E-02  0.1270E+00  0.1249E+00
     18.202  0.3043E-02  0.4047E-02  0.1276E+00  0.1256E+00
     18.389  0.3509E-02  0.2793E-02  0.1282E+00  0.1262E+00
     18.576  0.2699E-02  0.3525E-02  0.1287E+00  0.1268E+00
     18.764  0.2364E-02  0.3721E-02  0.1292E+00  0.1275E+00
     18.951  0.5306E-02  0.2917E-02  0.1302E+00  0.1281E+00
     19.139  0.4445E-02  0.3174E-02  0.1310E+00  0.1287E+00
     19.326  0.2649E-02  0.2996E-02  0.1315E+00  0.1292E+00
     19.513  0.5224E-02  0.4894E-02  0.1325E+00  0.1301E+00
     19.701  0.2872E-02  0.5058E-02  0.1330E+00  0.1311E+00
     19.888  0.4970E-02  0.5053E-02  0.1339E+00  0.1320E+00
     20.076  0.3848E-02  0.2673E-02  0.1347E+00  0.1325E+00
     20.263  0.3014E-02  0.3556E-02  0.1352E+00  0.1332E+00
     20.450  0.2038E-02  0.6041E-02  0.1356E+00  0.1343E+00
     20.638  0.3588E-02  0.3362E-02  0.1363E+00  0.1350E+00
     20.825  0.5611E-02  0.2636E-02  0.1373E+00  0.1355E+00
     21.013  0.2241E-02  0.3316E-02  0.1378E+00  0.1361E+00
     21.200  0.2753E-02  0.4634E-02  0.1383E+00  0.1369E+00
     21.387  0.2011E-02  0.3005E-02  0.1387E+00  0.1375E+00
     21.575  0.3583E-02  0.3438E-02  0.1393E+00  0.1382E+00
     21.762  0.1632E-02  0.1400E-02  0.1396E+00  0.1384E+00
     21.950  0.2096E-02  0.3208E-02  0.1400E+00  0.1390E+00
     22.137  0.5148E-02  0.2717E-02  0.1410E+00  0.1395E+00
     22.324  0.3580E-02  0.1453E-02  0.1417E+00  0.1398E+00
     22.512  0.2609E-02  0.4376E-02  0.1421E+00  0.1406E+00
     22.699  0.1241E-02  0.4862E-02  0.1424E+00  0.1415E+00
     22.887  0.5332E-02  0.2735E-02  0.1434E+00  0.1420E+00
     23.074  0.5220E-02  0.1092E-02  0.1444E+00  0.1422E+00
     23.261  0.8366E-03  0.4981E-02  0.1445E+00  0.1432E+00
     23.449  0.4470E-02  0.5579E-02  0.1454E+00  0.1442E+00
     23.636  0.3724E-02  0.1274E-02  0.1461E+00  0.1445E+00
     23.824  0.3485E-02  0.3948E-02  0.1467E+00  0.1452E+00
     24.011  0.5888E-02  0.4308E-02  0.1478E+00  0.1460E+00
     24.199  0.3407E-02  0.4122E-02  0.1484E+00  0.1468E+00
     24.386  0.7103E-02  0.5305E-02  0.1498E+00  0.1478E+00
     24.573  0.4240E-02  0.4128E-02  0.1506E+00  0.1486E+00
     24.761  0.3366E-02  0.6685E-02  0.1512E+00  0.1498E+00
     24.948  0.1698E-02  0.4507E-02  0.1515E+00  0.1507E+00
     25.136  0.5965E-02  0.2902E-02  0.1526E+00  0.1512E+00
     25.323  0.3279E-02  0.2819E-02  0.1533E+00  0.1517E+00
     25.510  0.2704E-02  0.6985E-02  0.1538E+00  0.1530E+00
     25.698  0.7376E-02  0.1945E-02  0.1551E+00  0.1534E+00
     25.885  0.4797E-02  0.3467E-02  0.1560E+00  0.1540E+00
     26.073  0.3403E-02  0.8083E-02  0.1567E+00  0.1556E+00
     26.260  0.4540E-02  0.3951E-02  0.1575E+00  0.1563E+00
     26.447  0.4954E-02  0.2591E-02  0.1585E+00  0.1568E+00
     26.635  0.2159E-02  0.7140E-02  0.1589E+00  0.1581E+00
     26.822  0.4358E-02  0.2355E-02  0.1597E+00  0.1586E+00
     27.010  0.3904E-02  0.4785E-02  0.1604E+00  0.1595E+00
     27.197  0.4181E-02  0.3316E-02  0.1612E+00  0.1601E+00
     27.384  0.2822E-02  0.3348E-02  0.1617E+00  0.1607E+00
     27.572  0.5711E-02  0.4251E-02  0.1628E+00  0.1615E+00
     27.759  0.3859E-02  0.5500E-02  0.1635E+00  0.1625E+00
     27.947  0.4919E-02  0.4582E-02  0.1644E+00  0.1634E+00
     28.134  0.6392E-02  0.3464E-02  0.1656E+00  0.1640E+00
     28.321  0.2028E-02  0.7003E-02  0.1660E+00  0.1654E+00
     28.509  0.4482E-02  0.2945E-02  0.1669E+00  0.1659E+00
     28.696  0.4750E-02  0.4444E-02  0.1677E+00  0.1667E+00
     28.884  0.3171E-02  0.4561E-02  0.1683E+00  0.1676E+00
     29.071  0.4778E-02  0.4117E-02  0.1692E+00  0.1684E+00
     29.258  0.3626E-02  0.5577E-02  0.1699E+00  0.1694E+00
     29.446  0.5242E-02  0.2627E-02  0.1709E+00  0.1699E+00
     29.633  0.2660E-02  0.3336E-02  0.1714E+00  0.1705E+00
     29.821  0.2207E-02  0.5333E-02  0.1718E+00  0.1715E+00
     30.008  0.5211E-02  0.1732E-02  0.1728E+00  0.1719E+00
     30.195  0.5882E-02  0.5577E-02  0.1739E+00  0.1729E+00
     30.383  0.5171E-02  0.4700E-02  0.1749E+00  0.1738E+00
     30.570  0.5185E-02  0.6388E-02  0.1758E+00  0.1750E+00
     30.758  0.3176E-02  0.3944E-02  0.1764E+00  0.1757E+00
     30.945  0.4323E-02  0.2769E-02  0.1772E+00  0.1762E+00
     31.132  0.4687E-02  0.5948E-02  0.1781E+00  0.1774E+00
     31.320  0.4996E-02  0.4475E-02  0.1791E+00  0.1782E+00
     31.507  0.5880E-02  0.5711E-02  0.1802E+00  0.1793E+00
     31.695  0.3006E-02  0.5426E-02  0.1807E+00  0.1803E+00
     31.882  0.7837E-03  0.1774E-02  0.1809E+00  0.1806E+00
     32.069  0.2648E-02  0.1421E-02  0.1814E+00  0.1809E+00
     32.257  0.5837E-02  0.4500E-02  0.1825E+00  0.1817E+00
     32.444  0.6613E-02  0.4186E-02  0.1837E+00  0.1825E+00
     32.632  0.5937E-02  0.4605E-02  0.1848E+00  0.1834E+00
     32.819  0.9096E-02  0.5307E-02  0.1865E+00  0.1844E+00
     33.006  0.2772E-02  0.1042E-01  0.1870E+00  0.1863E+00
     33.194  0.5444E-02  0.5230E-02  0.1880E+00  0.1873E+00
     33.381  0.5110E-02  0.4471E-02  0.1890E+00  0.1881E+00
     33.569  0.5263E-02  0.4191E-02  0.1900E+00  0.1889E+00
     33.756  0.3267E-02  0.5546E-02  0.1906E+00  0.1900E+00
     33.943  0.3350E-02  0.5148E-02  0.1912E+00  0.1909E+00
     34.131  0.2805E-02  0.2585E-02  0.1918E+00  0.1914E+00
     34.318  0.1117E-02  0.2733E-02  0.1920E+00  0.1919E+00
     34.506  0.7414E-02  0.2580E-02  0.1934E+00  0.1924E+00
     34.693  0.2288E-02  0.4109E-02  0.1938E+00  0.1932E+00
     34.880  0.2996E-02  0.2728E-02  0.1943E+00  0.1937E+00
     35.068  0.6733E-02  0.3980E-02  0.1956E+00  0.1944E+00
     35.255  0.7078E-02  0.5869E-02  0.1969E+00  0.1955E+00
     35.443  0.3685E-02  0.5788E-02  0.1976E+00  0.1966E+00
     35.630  0.2580E-02  0.5161E-02  0.1981E+00  0.1976E+00
     35.817  0.4578E-02  0.1887E-02  0.1990E+00  0.1979E+00
     36.005  0.4621E-02  0.4929E-02  0.1998E+00  0.1989E+00
     36.192  0.5663E-02  0.5911E-02  0.2009E+00  0.2000E+00
     36.380  0.4150E-02  0.4996E-02  0.2017E+00  0.2009E+00
     36.567  0.2766E-02  0.4188E-02  0.2022E+00  0.2017E+00
     36.754  0.6002E-02  0.2396E-02  0.2033E+00  0.2021E+00
     36.942  0.7847E-02  0.4847E-02  0.2048E+00  0.2030E+00
     37.129  0.1977E-02  0.8234E-02  0.2052E+00  0.2046E+00
     37.317  0.3773E-02  0.3320E-02  0.2059E+00  0.2052E+00
     37.504  0.4027E-02  0.4267E-02  0.2066E+00  0.2060E+00
     37.691  0.2652E-02  0.3279E-02  0.2071E+00  0.2066E+00
     37.879  0.4619E-02  0.4550E-02  0.2080E+00  0.2075E+00
     38.066  0.6180E-02  0.1688E-02  0.2091E+00  0.2078E+00
     38.254  0.5231E-02  0.6254E-02  0.2101E+00  0.2090E+00
     38.441  0.5856E-02  0.6443E-02  0.2112E+00  0.2102E+00
     38.628  0.6439E-02  0.5479E-02  0.2124E+00  0.2112E+00
     38.816  0.5642E-02  0.7044E-02  0.2135E+00  0.2125E+00
     39.003  0.3853E-02  0.4869E-02  0.2142E+00  0.2134E+00
     39.191  0.2719E-02  0.5042E-02  0.2147E+00  0.2144E+00
     39.378  0.5638E-02  0.3094E-02  0.2158E+00  0.2150E+00
     39.565  0.6083E-02  0.5767E-02  0.2169E+00  0.2160E+00
     39.753  0.3305E-02  0.4755E-02  0.2175E+00  0.2169E+00
     39.940  0.1993E-02  0.3896E-02  0.2179E+00  0.2177E+00
     40.128  0.1350E-02  0.1546E-02  0.2182E+00  0.2180E+00
     40.315  0.5912E-02  0.2196E-02  0.2193E+00  0.2184E+00
     40.502  0.7147E-02  0.5562E-02  0.2206E+00  0.2194E+00
     40.690  0.7775E-02  0.5899E-02  0.2221E+00  0.2205E+00
     40.877  0.6592E-02  0.4714E-02  0.2233E+00  0.2214E+00
     41.065  0.5134E-02  0.9200E-02  0.2243E+00  0.2231E+00
     41.252  0.6484E-02  0.8164E-02  0.2255E+00  0.2246E+00
     41.439  0.5503E-02  0.2794E-02  0.2265E+00  0.2252E+00
     41.627  0.3979E-02  0.7210E-02  0.2272E+00  0.2265E+00
     41.814  0.6567E-02  0.3446E-02  0.2285E+00  0.2272E+00
     42.002  0.3651E-02  0.6594E-02  0.2292E+00  0.2284E+00
     42.189  0.7845E-02  0.5522E-02  0.2306E+00  0.2294E+00
     42.376  0.5465E-02  0.5815E-02  0.2317E+00  0.2305E+00
     42.564  0.3581E-02  0.7870E-02  0.2323E+00  0.2320E+00
     42.751  0.5432E-02  0.8950E-03  0.2333E+00  0.2322E+00
     42.939  0.5747E-02  0.2471E-02  0.2344E+00  0.2326E+00
     43.126  0.4785E-02  0.8817E-02  0.2353E+00  0.2343E+00
     43.313  0.4553E-02  0.4546E-02  0.2362E+00  0.2351E+00
     43.501  0.4165E-02  0.5576E-02  0.2370E+00  0.2362E+00
     43.688  0.6717E-02  0.6212E-02  0.2382E+00  0.2373E+00
     43.876  0.3489E-02  0.4421E-02  0.2389E+00  0.2382E+00
     44.063  0.5978E-02  0.2079E-02  0.2400E+00  0.2386E+00
     44.250  0.5532E-02  0.5340E-02  0.2410E+00  0.2396E+00
     44.438  0.8786E-02  0.6539E-02  0.2427E+00  0.2408E+00
     44.625  0.7360E-02  0.7766E-02  0.2441E+00  0.2422E+00
     44.813  0.7404E-02  0.4154E-02  0.2454E+00  0.2430E+00
     45.000  0.4009E-02  0.5096E-02  0.2462E+00  0.2440E+00
     45.187  0.3409E-02  0.4282E-02  0.2468E+00  0.2448E+00
     45.375  0.1200E-01  0.4581E-02  0.2491E+00  0.2456E+00
     45.562  0.8480E-02  0.5718E-02  0.2507E+00  0.2467E+00
     45.750  0.1160E-01  0.3942E-02  0.2528E+00  0.2475E+00
     45.937  0.1397E-01  0.6259E-02  0.2555E+00  0.2486E+00
     46.124  0.2011E-01  0.5819E-02  0.2592E+00  0.2497E+00
     46.312  0.2434E-01  0.4572E-02  0.2638E+00  0.2506E+00
     46.499  0.1216E-01  0.4782E-02  0.2661E+00  0.2515E+00
     46.687  0.9913E-02  0.8532E-02  0.2679E+00  0.2531E+00
     46.874  0.7118E-02  0.6098E-02  0.2693E+00  0.2542E+00
     47.061  0.3371E-02  0.7301E-02  0.2699E+00  0.2556E+00
     47.249  0.6273E-02  0.4368E-02  0.2711E+00  0.2564E+00
     47.436  0.6108E-02  0.4810E-02  0.2722E+00  0.2573E+00
     47.624  0.5620E-02  0.5360E-02  0.2733E+00  0.2583E+00
     47.811  0.1214E-02  0.4000E-02  0.2735E+00  0.2591E+00
     47.999  0.5568E-02  0.4379E-02  0.2745E+00  0.2599E+00
     48.186  0.2400E-02  0.3779E-02  0.2750E+00  0.2606E+00
     48.373  0.1129E-02  0.2544E-02  0.2752E+00  0.2611E+00
     48.561  0.6647E-02  0.4493E-02  0.2764E+00  0.2619E+00
     48.748  0.2556E-02  0.8418E-02  0.2769E+00  0.2635E+00
     48.936  0.1136E-02  0.8065E-02  0.2771E+00  0.2650E+00
     49.123  0.2229E-02  0.8705E-02  0.2775E+00  0.2666E+00
     49.310  0.3205E-02  0.5003E-02  0.2781E+00  0.2676E+00
     49.498  0.8649E-03  0.7280E-02  0.2783E+00  0.2689E+00
     49.685  0.8061E-03  0.1137E-01  0.2785E+00  0.2711E+00
     49.873  0.6127E-03  0.7824E-02  0.2786E+00  0.2725E+00
     50.060  0.1974E-02  0.7760E-02  0.2789E+00  0.2740E+00
     50.247  0.5514E-03  0.8976E-02  0.2791E+00  0.2757E+00
     50.435  0.1586E-02  0.7273E-02  0.2793E+00  0.2770E+00
     50.622  0.6469E-05  0.9311E-02  0.2793E+00  0.2788E+00
     50.810  0.7237E-03  0.2596E-02  0.2795E+00  0.2792E+00
     50.997  0.6962E-03  0.5330E-03  0.2796E+00  0.2793E+00
     51.184  0.4002E-03  0.3197E-04  0.2797E+00  0.2794E+00
     51.372  0.2703E-03  0.1689E-02  0.2797E+00  0.2797E+00
     51.559  0.1102E-02  0.2254E-03  0.2799E+00  0.2797E+00
     51.747  0.3325E-05  0.1409E-03  0.2799E+00  0.2797E+00
     51.934  0.4147E-04  0.1110E-02  0.2800E+00  0.2799E+00
     52.121  0.2365E-03  0.2768E-03  0.2800E+00  0.2800E+00
     52.309  0.2833E-08  0.1033E-06  0.2800E+00  0.2800E+00
     52.496  0.0000E+00  0.0000E+00  0.2800E+00  0.2800E+00
     52.684  0.0000E+00  0.0000E+00  0.2800E+00  0.2800E+00
     52.871  0.0000E+00  0.0000E+00  0.2800E+00  0.2800E+00
     53.058  0.0000E+00  0.0000E+00  0.2800E+00  0.2800E+00
     53.246  0.0000E+00  0.0000E+00  0.2800E+00  0.2800E+00
     53.433  0.0000E+00  0.0000E+00  0.2800E+00  0.2800E+00
     53.621  0.0000E+00  0.0000E+00  0.2800E+00  0.2800E+00
     53.808  0.0000E+00  0.0000E+00  0.2800E+00  0.2800E+00
     53.995  0.0000E+00  0.0000E+00  0.2800E+00  0.2800E+00
     54.183  0.0000E+00  0.0000E+00  0.2800E+00  0.2800E+00
     54.370  0.0000E+00  0.0000E+00  0.2800E+00  0.2800E+00
     54.558  0.0000E+00  0.0000E+00  0.2800E+00  0.2800E+00
     54.55756167     -1.66292058  301      9.44850961      1.00000000
     -1.663  0.0000E+00  0.0000E+00  0.0000E+00  0.0000E+00  0.0000E+00  0.0000E+00  0.0000E+00  0.0000E+00  0.0000E+00  0.0000E+00  0.0000E+00  0.0000E+00  0.0000E+00  0.0000E+00  0.0000E+00  0.0000E+00  0.0000E+00  0.0000E+00
     -1.476  0.0000E+00  0.0000E+00  0.0000E+00  0.0000E+00  0.0000E+00  0.0000E+00  0.0000E+00  0.0000E+00  0.0000E+00  0.0000E+00  0.0000E+00  0.0000E+00  0.0000E+00  0.0000E+00  0.0000E+00  0.0000E+00  0.0000E+00  0.0000E+00
     -1.288  0.0000E+00  0.0000E+00  0.0000E+00  0.0000E+00  0.0000E+00  0.0000E+00  0.0000E+00  0.0000E+00  0.0000E+00  0.0000E+00  0.0000E+00  0.0000E+00  0.0000E+00  0.0000E+00  0.0000E+00  0.0000E+00  0.0000E+00  0.0000E+00
     -1.101  0.0000E+00  0.0000E+00  0.0000E+00  0.0000E+00  0.0000E+00  0.0000E+00  0.0000E+00  0.0000E+00  0.0000E+00  0.0000E+00  0.0000E+00  0.0000E+00  0.0000E+00  0.0000E+00  0.0000E+00  0.0000E+00  0.0000E+00  0.0000E+00
     -0.913  0.0000E+00  0.0000E+00  0.0000E+00  0.0000E+00  0.0000E+00  0.0000E+00  0.0000E+00  0.0000E+00  0.0000E+00  0.0000E+00  0.0000E+00  0.0000E+00  0.0000E+00  0.0000E+00  0.0000E+00  0.0000E+00  0.0000E+00  0.0000E+00
     -0.726  0.0000E+00  0.0000E+00  0.0000E+00  0.0000E+00  0.0000E+00  0.0000E+00  0.0000E+00  0.0000E+00  0.0000E+00  0.0000E+00  0.0000E+00  0.0000E+00  0.0000E+00  0.0000E+00  0.0000E+00  0.0000E+00  0.0000E+00  0.0000E+00
     -0.539  0.0000E+00  0.0000E+00  0.0000E+00  0.0000E+00  0.0000E+00  0.0000E+00  0.0000E+00  0.0000E+00  0.0000E+00  0.0000E+00  0.0000E+00  0.0000E+00  0.0000E+00  0.0000E+00  0.0000E+00  0.0000E+00  0.0000E+00  0.0000E+00
     -0.351  0.0000E+00  0.0000E+00  0.0000E+00  0.0000E+00  0.0000E+00  0.0000E+00  0.0000E+00  0.0000E+00  0.0000E+00  0.0000E+00  0.0000E+00  0.0000E+00  0.0000E+00  0.0000E+00  0.0000E+00  0.0000E+00  0.0000E+00  0.0000E+00
     -0.164  0.0000E+00  0.0000E+00  0.0000E+00  0.0000E+00  0.0000E+00  0.0000E+00  0.0000E+00  0.0000E+00  0.0000E+00  0.0000E+00  0.0000E+00  0.0000E+00  0.0000E+00  0.0000E+00  0.0000E+00  0.0000E+00  0.0000E+00  0.0000E+00
      0.024  0.0000E+00  0.0000E+00  0.0000E+00  0.0000E+00  0.0000E+00  0.0000E+00  0.0000E+00  0.0000E+00  0.0000E+00  0.0000E+00  0.0000E+00  0.0000E+00  0.0000E+00  0.0000E+00  0.0000E+00  0.0000E+00  0.0000E+00  0.0000E+00
      0.211  0.0000E+00  0.0000E+00  0.0000E+00  0.0000E+00  0.0000E+00  0.0000E+00  0.0000E+00  0.0000E+00  0.0000E+00  0.0000E+00  0.0000E+00  0.0000E+00  0.0000E+00  0.0000E+00  0.0000E+00  0.0000E+00  0.0000E+00  0.0000E+00
      0.398  0.0000E+00  0.0000E+00  0.0000E+00  0.0000E+00  0.0000E+00  0.0000E+00  0.0000E+00  0.0000E+00  0.0000E+00  0.0000E+00  0.0000E+00  0.0000E+00  0.0000E+00  0.0000E+00  0.0000E+00  0.0000E+00  0.0000E+00  0.0000E+00
      0.586  0.0000E+00  0.0000E+00  0.0000E+00  0.0000E+00  0.0000E+00  0.0000E+00  0.0000E+00  0.0000E+00  0.0000E+00  0.0000E+00  0.0000E+00  0.0000E+00  0.0000E+00  0.0000E+00  0.0000E+00  0.0000E+00  0.0000E+00  0.0000E+00
      0.773  0.3339E-06  0.5838E-06  0.3018E-24  0.6211E-21  0.1256E-18  0.3712E-18  0.3018E-24  0.6211E-21  0.7820E-21  0.3076E-19  0.1013E-28  0.1359E-28  0.2429E-11  0.6901E-11  0.1013E-28  0.1359E-28  0.7820E-21  0.3076E-19
      0.961  0.1534E-02  0.1555E-02  0.8081E-10  0.1534E-09  0.2707E-06  0.3980E-06  0.8081E-10  0.1534E-09  0.1518E-11  0.2053E-11  0.6485E-23  0.1305E-20  0.1403E-07  0.2055E-07  0.6485E-23  0.1305E-20  0.1518E-11  0.2053E-11
      1.148  0.9526E-02  0.9880E-02  0.7139E-04  0.7625E-04  0.4488E-04  0.4505E-04  0.7139E-04  0.7625E-04  0.1341E-05  0.1021E-05  0.8523E-09  0.9357E-09  0.1886E-05  0.1537E-05  0.8523E-09  0.9357E-09  0.1341E-05  0.1021E-05
      1.336  0.2003E-01  0.1976E-01  0.2250E-03  0.2237E-03  0.2526E-03  0.2571E-03  0.2250E-03  0.2237E-03  0.4336E-05  0.3048E-05  0.8404E-05  0.6161E-05  0.6301E-06  0.4651E-06  0.8404E-05  0.6161E-05  0.4336E-05  0.3048E-05
      1.523  0.3761E-02  0.3606E-02  0.2401E-04  0.2269E-04  0.1527E-03  0.1534E-03  0.2401E-04  0.2269E-04  0.9194E-06  0.6523E-06  0.5196E-06  0.3030E-06  0.1020E-04  0.6829E-05  0.5196E-06  0.3030E-06  0.9194E-06  0.6523E-06
      1.710  0.2143E-01  0.2110E-01  0.5469E-03  0.5453E-03  0.5359E-03  0.5318E-03  0.5469E-03  0.5453E-03  0.2880E-04  0.1996E-04  0.2421E-04  0.1677E-04  0.3885E-04  0.2636E-04  0.2421E-04  0.1677E-04  0.2880E-04  0.1996E-04
      1.898  0.3248E-01  0.3228E-01  0.9864E-03  0.9858E-03  0.8131E-03  0.8239E-03  0.9864E-03  0.9858E-03  0.6880E-04  0.4615E-04  0.4705E-04  0.3264E-04  0.6308E-04  0.4333E-04  0.4705E-04  0.3264E-04  0.6880E-04  0.4615E-04
      2.085  0.1601E-01  0.1610E-01  0.7207E-03  0.7384E-03  0.2628E-03  0.2581E-03  0.7207E-03  0.7384E-03  0.6869E-04  0.4629E-04  0.4395E-04  0.2924E-04  0.2562E-04  0.1852E-04  0.4395E-04  0.2924E-04  0.6869E-04  0.4629E-04
      2.273  0.1884E-01  0.1888E-01  0.5611E-03  0.5712E-03  0.1329E-02  0.1351E-02  0.5611E-03  0.5712E-03  0.3879E-04  0.2596E-04  0.1249E-03  0.8513E-04  0.8742E-04  0.5335E-04  0.1249E-03  0.8513E-04  0.3879E-04  0.2596E-04
      2.460  0.4179E-01  0.3756E-01  0.1802E-02  0.1587E-02  0.2937E-02  0.2812E-02  0.1802E-02  0.1587E-02  0.2418E-03  0.1308E-03  0.2619E-03  0.1701E-03  0.4831E-03  0.2626E-03  0.2619E-03  0.1701E-03  0.2418E-03  0.1308E-03
      2.647  0.3682E-01  0.3980E-01  0.2880E-02  0.3080E-02  0.6342E-03  0.8371E-03  0.2880E-02  0.3080E-02  0.5124E-03  0.3458E-03  0.1949E-03  0.1233E-03  0.3218E-03  0.2460E-03  0.1949E-03  0.1233E-03  0.5124E-03  0.3458E-03
      2.835  0.1518E-01  0.9014E-02  0.8468E-03  0.5166E-03  0.1444E-02  0.8222E-03  0.8468E-03  0.5166E-03  0.1798E-03  0.5696E-04  0.2135E-03  0.8180E-04  0.2501E-03  0.8191E-04  0.2135E-03  0.8180E-04  0.1798E-03  0.5696E-04
      3.022  0.6077E-01  0.5421E-01  0.4719E-02  0.4336E-02  0.4027E-02  0.3514E-02  0.4719E-02  0.4336E-02  0.1197E-02  0.6431E-03  0.1315E-02  0.6521E-03  0.5697E-03  0.3331E-03  0.1315E-02  0.6521E-03  0.1197E-02  0.6431E-03
      3.210  0.8800E-02  0.2301E-01  0.3330E-03  0.1403E-02  0.1369E-02  0.2598E-02  0.3330E-03  0.1403E-02  0.6461E-04  0.1833E-03  0.1815E-03  0.3351E-03  0.4879E-03  0.3198E-03  0.1815E-03  0.3351E-03  0.6461E-04  0.1833E-03
      3.397  0.2882E-01  0.2400E-01  0.1854E-02  0.1297E-02  0.3751E-02  0.3896E-02  0.1854E-02  0.1297E-02  0.7168E-03  0.2617E-03  0.7495E-03  0.3700E-03  0.2011E-02  0.1065E-02  0.7495E-03  0.3700E-03  0.7168E-03  0.2617E-03
      3.584  0.5326E-01  0.2054E-01  0.6153E-02  0.2588E-02  0.3783E-02  0.9876E-03  0.6153E-02  0.2588E-02  0.2450E-02  0.5448E-03  0.2045E-02  0.2948E-03  0.1379E-02  0.3852E-03  0.2045E-02  0.2948E-03  0.2450E-02  0.5448E-03
      3.772  0.4620E-01  0.7217E-01  0.5036E-02  0.8211E-02  0.4380E-02  0.6752E-02  0.5036E-02  0.8211E-02  0.2718E-02  0.2037E-02  0.1695E-02  0.1591E-02  0.2890E-02  0.1755E-02  0.1695E-02  0.1591E-02  0.2718E-02  0.2037E-02
      3.959  0.5679E-01  0.3711E-01  0.6456E-02  0.4072E-02  0.6229E-02  0.4902E-02  0.6456E-02  0.4072E-02  0.4509E-02  0.1058E-02  0.5019E-02  0.1362E-02  0.3475E-02  0.1113E-02  0.5019E-02  0.1362E-02  0.4509E-02  0.1058E-02
      4.147  0.2593E-01  0.3890E-01  0.2617E-02  0.5401E-02  0.3179E-02  0.3438E-02  0.2617E-02  0.5401E-02  0.3430E-02  0.1996E-02  0.1168E-02  0.1889E-02  0.7853E-02  0.1020E-02  0.1168E-02  0.1889E-02  0.3430E-02  0.1996E-02
      4.334  0.5402E-01  0.2269E-01  0.6174E-02  0.2968E-02  0.9504E-02  0.2513E-02  0.6174E-02  0.2968E-02  0.6280E-02  0.1693E-02  0.1184E-01  0.3781E-03  0.2426E-02  0.2801E-02  0.1184E-01  0.3781E-03  0.6280E-02  0.1693E-02
      4.521  0.6048E-01  0.4470E-01  0.8716E-02  0.4715E-02  0.7558E-02  0.1012E-01  0.8716E-02  0.4715E-02  0.1415E-01  0.1756E-02  0.1013E-01  0.3903E-02  0.1812E-01  0.2835E-02  0.1013E-01  0.3903E-02  0.1415E-01  0.1756E-02
      4.709  0.1013E+00  0.4552E-01  0.1346E-01  0.6748E-02  0.7198E-02  0.7484E-02  0.1346E-01  0.6748E-02  0.5352E-01  0.3413E-02  0.5145E-01  0.4458E-02  0.5417E-01  0.3072E-02  0.5145E-01  0.4458E-02  0.5352E-01  0.3413E-02
      4.896  0.7530E-01  0.4761E-01  0.8149E-02  0.8405E-02  0.1112E-01  0.6946E-02  0.8149E-02  0.8405E-02  0.5520E-01  0.4536E-02  0.7639E-01  0.2701E-02  0.4321E-01  0.6136E-02  0.7639E-01  0.2701E-02  0.5520E-01  0.4536E-02
      5.084  0.8195E-01  0.5391E-01  0.1124E-01  0.1155E-01  0.1477E-01  0.3338E-02  0.1124E-01  0.1155E-01  0.9870E-01  0.1004E-01  0.9175E-01  0.5055E-02  0.1072E+00  0.6336E-02  0.9175E-01  0.5055E-02  0.9870E-01  0.1004E-01
      5.271  0.5171E-01  0.5336E-01  0.1056E-01  0.7839E-02  0.1217E-01  0.1206E-01  0.1056E-01  0.7839E-02  0.1224E+00  0.7709E-02  0.8188E-01  0.1120E-01  0.7064E-01  0.1196E-01  0.8188E-01  0.1120E-01  0.1224E+00  0.7709E-02
      5.458  0.5707E-01  0.6749E-01  0.1713E-01  0.1142E-01  0.1729E-01  0.1254E-01  0.1713E-01  0.1142E-01  0.1527E+00  0.1859E-01  0.2039E+00  0.2041E-01  0.2064E+00  0.9997E-02  0.2039E+00  0.2041E-01  0.1527E+00  0.1859E-01
      5.646  0.2642E-01  0.3071E-01  0.1429E-01  0.2627E-02  0.1839E-01  0.8633E-02  0.1429E-01  0.2627E-02  0.9962E-01  0.6401E-02  0.1702E+00  0.9061E-02  0.1057E+00  0.2897E-01  0.1702E+00  0.9061E-02  0.9962E-01  0.6401E-02
      5.833  0.2120E-01  0.9797E-01  0.1979E-01  0.1844E-01  0.1442E-01  0.9399E-02  0.1979E-01  0.1844E-01  0.1391E+00  0.6227E-01  0.1392E+00  0.5411E-01  0.2134E+00  0.4112E-01  0.1392E+00  0.5411E-01  0.1391E+00  0.6227E-01
      6.021  0.1018E-01  0.7185E-01  0.1696E-01  0.1451E-01  0.1426E-01  0.1516E-01  0.1696E-01  0.1451E-01  0.1779E+00  0.3730E-01  0.1220E+00  0.4860E-01  0.2190E+00  0.3895E-01  0.1220E+00  0.4860E-01  0.1779E+00  0.3730E-01
      6.208  0.1043E-01  0.5612E-01  0.2341E-01  0.1033E-01  0.1421E-01  0.1416E-01  0.2341E-01  0.1033E-01  0.2413E+00  0.4623E-01  0.1332E+00  0.6016E-01  0.2139E+00  0.5360E-01  0.1332E+00  0.6016E-01  0.2413E+00  0.4623E-01
      6.395  0.1309E-01  0.3707E-01  0.2469E-01  0.9174E-02  0.2069E-01  0.1440E-01  0.2469E-01  0.9174E-02  0.2554E+00  0.7934E-01  0.1411E+00  0.5911E-01  0.2095E+00  0.3956E-01  0.1411E+00  0.5911E-01  0.2554E+00  0.7934E-01
      6.583  0.4682E-02  0.4990E-01  0.8841E-02  0.1771E-01  0.8585E-02  0.1830E-01  0.8841E-02  0.1771E-01  0.1270E+00  0.8709E-01  0.5232E-01  0.9646E-01  0.1144E+00  0.1071E+00  0.5232E-01  0.9646E-01  0.1270E+00  0.8709E-01
      6.770  0.8383E-02  0.1905E-01  0.1629E-01  0.1185E-01  0.1945E-01  0.1787E-01  0.1629E-01  0.1185E-01  0.1730E+00  0.7745E-01  0.2881E+00  0.1573E+00  0.3502E+00  0.7181E-01  0.2881E+00  0.1573E+00  0.1730E+00  0.7745E-01
      6.958  0.1275E-01  0.1294E-01  0.1858E-01  0.1819E-01  0.2151E-01  0.1608E-01  0.1858E-01  0.1819E-01  0.2371E+00  0.8497E-01  0.3151E+00  0.1250E+00  0.2890E+00  0.1003E+00  0.3151E+00  0.1250E+00  0.2371E+00  0.8497E-01
      7.145  0.1280E-01  0.8395E-02  0.1389E-01  0.2382E-01  0.2349E-01  0.1533E-01  0.1389E-01  0.2382E-01  0.3102E+00  0.1263E+00  0.3192E+00  0.8174E-01  0.2269E+00  0.1523E+00  0.3192E+00  0.8174E-01  0.3102E+00  0.1263E+00
      7.332  0.1225E-01  0.9386E-02  0.1631E-01  0.2726E-01  0.2393E-01  0.1580E-01  0.1631E-01  0.2726E-01  0.3135E+00  0.1447E+00  0.3315E+00  0.9149E-01  0.2531E+00  0.2032E+00  0.3315E+00  0.9149E-01  0.3135E+00  0.1447E+00
      7.520  0.9601E-02  0.8461E-02  0.1948E-01  0.3376E-01  0.1949E-01  0.2221E-01  0.1948E-01  0.3376E-01  0.2642E+00  0.1721E+00  0.2737E+00  0.9971E-01  0.2335E+00  0.2060E+00  0.2737E+00  0.9971E-01  0.2642E+00  0.1721E+00
      7.707  0.6100E-02  0.1001E-01  0.1188E-01  0.3932E-01  0.1043E-01  0.2426E-01  0.1188E-01  0.3932E-01  0.1942E+00  0.2407E+00  0.2091E+00  0.1022E+00  0.1184E+00  0.2086E+00  0.2091E+00  0.1022E+00  0.1942E+00  0.2407E+00