    2    2  100    2
  0.1147457E+02  0.2542121E-09  0.2542121E-09  0.4100562E-09  0.5000000E-15
  1.000000000000000E-004
  CAR 
 Co-hcc                                  
     18     95     28
 
  0.0000000E+00  0.0000000E+00  0.0000000E+00  0.8680556E-03
      1          0.897918        0.892556   1.000000   1.000000
      2          4.589646        5.583665   1.000000   1.000000
      3          6.925929        8.628591   1.000000   1.000000
      4          6.936174        8.647440   1.000000   1.000000
      5          6.936175        8.647440   1.000000   1.000000
      6          7.220671        8.985863   1.000000   1.000000
      7          7.220671        8.985864   1.000000   1.000000
      8          7.528114        9.354943   1.000000   0.995933
      9          7.528114        9.354944   1.000000   0.995933
     10          8.543200        9.392708   1.000000   0.942754
     11          8.543200       10.488212   1.000000   0.000000
     12          9.470085       10.488212   0.270853   0.000000
     13         15.369380       16.409412   0.000000   0.000000
     14         30.948072       30.655780   0.000000   0.000000
     15         32.943798       33.301310   0.000000   0.000000
     16         32.943801       33.301312   0.000000   0.000000
     17         33.892675       33.731020   0.000000   0.000000
     18         34.358544       34.148446   0.000000   0.000000
     19         34.358547       34.656402   0.000000   0.000000
     20         34.387152       34.656404   0.000000   0.000000
     21         39.107014       39.027849   0.000000   0.000000
     22         39.107015       39.027851   0.000000   0.000000
     23         39.697742       39.934680   0.000000   0.000000
     24         40.447173       40.101566   0.000000   0.000000
     25         41.955909       42.144695   0.000000   0.000000
     26         41.955909       42.144695   0.000000   0.000000
     27         42.343921       42.885186   0.000000   0.000000
     28         43.964633       44.423570   0.000000   0.000000
 
  0.8333333E-01  0.1387779E-16  0.0000000E+00  0.5208333E-02
      1          1.130510        1.125946   1.000000   1.000000
      2          4.725064        5.740467   1.000000   1.000000
      3          6.724752        8.387867   1.000000   1.000000
      4          7.039541        8.746089   1.000000   1.000000
      5          7.103886        8.762288   1.000000   1.000000
      6          7.180594        8.835903   1.000000   1.000000
      7          7.312064        8.929274   1.000000   1.000000
      8          7.398689        9.087412   1.000000   1.000000
      9          7.464267        9.279351   1.000000   0.999999
     10          7.889244        9.303406   1.000000   0.999980
     11          8.570370       10.520945   1.000000   0.000000
     12         10.418874       11.336896   0.000000   0.000000
     13         15.416212       16.431888   0.000000   0.000000
     14         28.881964       29.006056   0.000000   0.000000
     15         30.941401       31.223333   0.000000   0.000000
     16         31.186689       31.273021   0.000000   0.000000
     17         34.396527       34.166530   0.000000   0.000000
     18         34.669480       34.596879   0.000000   0.000000
     19         36.040799       35.910758   0.000000   0.000000
     20         36.603687       36.904977   0.000000   0.000000
     21         37.356802       37.599170   0.000000   0.000000
     22         38.535811       38.541738   0.000000   0.000000
     23         39.267654       39.535695   0.000000   0.000000
     24         39.383165       39.692685   0.000000   0.000000
     25         41.460150       42.019973   0.000000   0.000000
     26         41.629096       42.107247   0.000000   0.000000
     27         42.943977       43.054551   0.000000   0.000000
     28         43.502504       43.363032   0.000000   0.000000
 
  0.1666667E+00  0.1387779E-16  0.0000000E+00  0.5208333E-02
      1          1.804676        1.806814   1.000000   1.000000
      2          5.059575        6.144235   1.000000   1.000000
      3          6.478528        7.943211   1.000000   1.000000
      4          6.779421        8.063331   1.000000   1.000000
      5          7.026575        8.724067   1.000000   1.000000
      6          7.305986        9.087713   1.000000   1.000000
      7          7.330749        9.093228   1.000000   1.000000
      8          7.381802        9.140103   1.000000   1.000000
      9          7.516987        9.157032   1.000000   1.000000
     10          7.567412        9.371736   1.000000   0.985053
     11          8.628479       10.590095   1.000000   0.000000
     12         11.914478       12.747043   0.000000   0.000000
     13         15.578309       16.517918   0.000000   0.000000
     14         25.078465       25.413224   0.000000   0.000000
     15         28.649540       28.957607   0.000000   0.000000
     16         30.286562       30.362724   0.000000   0.000000
     17         32.169759       32.174451   0.000000   0.000000
     18         34.497758       34.252229   0.000000   0.000000
     19         34.877263       35.096462   0.000000   0.000000
     20         36.977638       37.203342   0.000000   0.000000
     21         37.664957       37.765686   0.000000   0.000000
     22         38.109851       38.384974   0.000000   0.000000
     23         38.657857       38.968698   0.000000   0.000000
     24         39.921999       40.438137   0.000000   0.000000
     25         40.538924       40.832277   0.000000   0.000000
     26         42.757045       42.832902   0.000000   0.000000
     27         45.049293       45.084332   0.000000   0.000000
     28         45.371672       46.973312   0.000000   0.000000
 
  0.2500000E+00 -0.1387779E-16  0.0000000E+00  0.5208333E-02
      1          2.829281        2.867368   1.000000   1.000000
      2          5.327748        6.545763   1.000000   1.000000
      3          6.115636        7.310916   1.000000   1.000000
      4          6.333807        7.774580   1.000000   1.000000
      5          6.946132        8.582908   1.000000   1.000000
      6          7.115254        8.870601   1.000000   1.000000
      7          7.332421        8.959974   1.000000   1.000000
      8          7.752130        9.544606   1.000000   0.003284
      9          7.771951        9.564621   1.000000   0.000512
     10          7.933834        9.781636   1.000000   0.000000
     11          8.683889       10.655038   1.000000   0.000000
     12         13.625970       14.371687   0.000000   0.000000
     13         15.892077       16.698065   0.000000   0.000000
     14         21.445277       21.914905   0.000000   0.000000
     15         26.666885       26.935483   0.000000   0.000000
     16         28.868362       28.999597   0.000000   0.000000
     17         29.072061       29.281104   0.000000   0.000000
     18         32.437272       32.920774   0.000000   0.000000
     19         33.457684       33.272155   0.000000   0.000000
     20         36.612932       37.021494   0.000000   0.000000
     21         36.966012       37.136457   0.000000   0.000000
     22         37.728312       37.790469   0.000000   0.000000
     23         38.738090       38.928266   0.000000   0.000000
     24         41.608360       41.860062   0.000000   0.000000
     25         43.085080       43.449169   0.000000   0.000000
     26         45.349652       46.255653   0.000000   0.000000
     27         46.340397       47.758617   0.000000   0.000000
     28         46.809778       48.812549   0.000000   0.000000
 
  0.3333333E+00  0.0000000E+00  0.0000000E+00  0.5208333E-02
      1          3.955930        4.150099   1.000000   1.000000
      2          5.268239        6.591568   1.000000   1.000000
      3          5.630476        6.868908   1.000000   1.000000
      4          6.446752        7.660107   1.000000   1.000000
      5          6.943046        8.670452   1.000000   1.000000
      6          7.061346        8.670656   1.000000   1.000000
      7          7.173143        8.765397   1.000000   1.000000
      8          8.198838       10.079880   1.000000   0.000000
      9          8.330430       10.142585   1.000000   0.000000
     10          8.402447       10.228166   1.000000   0.000000
     11          8.722157       10.699256   1.000000   0.000000
     12         15.506428       16.153812   0.000000   0.000000
     13         16.034344       16.672427   0.000000   0.000000
     14         18.618524       19.232730   0.000000   0.000000
     15         25.101065       25.315824   0.000000   0.000000
     16         25.851798       26.114912   0.000000   0.000000
     17         26.762132       27.138133   0.000000   0.000000
     18         31.048513       31.495775   0.000000   0.000000
     19         32.345120       32.172333   0.000000   0.000000
     20         34.905173       35.275680   0.000000   0.000000
     21         36.486118       36.706544   0.000000   0.000000
     22         38.418074       38.576936   0.000000   0.000000
     23         40.483083       40.651095   0.000000   0.000000
     24         42.751851       42.972796   0.000000   0.000000
     25         45.865417       46.900151   0.000000   0.000000
     26         46.511508       48.633176   0.000000   0.000000
     27         46.559888       49.990609   0.000000   0.000000
     28         49.058568       50.221085   0.000000   0.000000
 
  0.4166667E+00  0.8326673E-16  0.0000000E+00  0.5208333E-02
      1          4.701281        5.313485   1.000000   1.000000
      2          5.096520        6.400453   1.000000   1.000000
      3          5.340255        6.610613   1.000000   1.000000
      4          6.798670        7.675409   1.000000   1.000000
      5          6.825325        8.534441   1.000000   1.000000
      6          7.061226        8.624252   1.000000   1.000000
      7          7.247207        8.877076   1.000000   1.000000
      8          8.531212       10.467204   1.000000   0.000000
      9          8.657723       10.604550   1.000000   0.000000
     10          8.742732       10.722739   1.000000   0.000000
     11          9.461022       11.013325   0.361710   0.000000
     12         14.212207       14.986675   0.000000   0.000000
     13         17.463471       17.990174   0.000000   0.000000
     14         18.573988       19.083301   0.000000   0.000000
     15         23.223802       23.630968   0.000000   0.000000
     16         24.076494       24.238618   0.000000   0.000000
     17         24.144803       24.629382   0.000000   0.000000
     18         30.598554       31.042309   0.000000   0.000000
     19         31.600457       31.419118   0.000000   0.000000
     20         33.804282       34.137139   0.000000   0.000000
     21         36.210048       36.460972   0.000000   0.000000
     22         38.841285       39.075450   0.000000   0.000000
     23         42.817004       42.991504   0.000000   0.000000
     24         43.382061       43.561395   0.000000   0.000000
     25         45.982031       48.866293   0.000000   0.000000
     26         46.582177       49.378894   0.000000   0.000000
     27         48.593887       50.255026   0.000000   0.000000
     28         49.984962       50.284855   0.000000   0.000000
 
  0.5000000E+00 -0.2775558E-16  0.0000000E+00  0.2604167E-02
      1          4.952210        5.850848   1.000000   1.000000
      2          4.964958        6.231035   1.000000   1.000000
      3          5.243842        6.525865   1.000000   1.000000
      4          6.783634        7.742313   1.000000   1.000000
      5          7.020919        8.486274   1.000000   1.000000
      6          7.035667        8.572857   1.000000   1.000000
      7          7.316391        8.959046   1.000000   1.000000
      8          8.651255       10.606047   1.000000   0.000000
      9          8.749020       10.729856   1.000000   0.000000
     10          8.789660       10.760645   1.000000   0.000000
     11         10.609642       11.872544   0.000000   0.000000
     12         12.488414       13.507813   0.000000   0.000000
     13         18.748197       19.153156   0.000000   0.000000
     14         19.325370       19.704159   0.000000   0.000000
     15         21.717699       22.255025   0.000000   0.000000
     16         22.721344       23.293613   0.000000   0.000000
     17         23.716617       23.855674   0.000000   0.000000
     18         30.486810       30.935336   0.000000   0.000000
     19         31.343277       31.156963   0.000000   0.000000
     20         33.422948       33.740561   0.000000   0.000000
     21         36.120239       36.381446   0.000000   0.000000
     22         38.998076       39.261629   0.000000   0.000000
     23         43.548794       43.671235   0.000000   0.000000
     24         45.305946       45.345135   0.000000   0.000000
     25         45.830967       46.240011   0.000000   0.000000
     26         45.907843       49.153516   0.000000   0.000000
     27         46.570865       50.266169   0.000000   0.000000
     28         50.805942       51.655283   0.000000   0.000000
 
  0.8333333E-01  0.8333333E-01  0.0000000E+00  0.5208333E-02
      1          1.584667        1.583507   1.000000   1.000000
      2          4.965372        6.024669   1.000000   1.000000
      3          6.530205        8.143609   1.000000   1.000000
      4          7.003385        8.152876   1.000000   1.000000
      5          7.086329        8.800826   1.000000   1.000000
      6          7.247071        8.996172   1.000000   1.000000
      7          7.250337        8.996988   1.000000   1.000000
      8          7.282993        9.057979   1.000000   1.000000
      9          7.513857        9.291720   1.000000   0.999995
     10          7.625066        9.307466   1.000000   0.999967
     11          8.604449       10.561329   1.000000   0.000000
     12         11.491648       12.348279   0.000000   0.000000
     13         15.522396       16.487949   0.000000   0.000000
     14         26.839140       27.062928   0.000000   0.000000
     15         27.409895       27.753838   0.000000   0.000000
     16         32.668170       32.709371   0.000000   0.000000
     17         33.710328       33.588974   0.000000   0.000000
     18         33.886054       33.776432   0.000000   0.000000
     19         33.910335       33.952324   0.000000   0.000000
     20         36.827993       36.995088   0.000000   0.000000
     21         37.427429       37.890028   0.000000   0.000000
     22         37.947133       38.448873   0.000000   0.000000
     23         40.356878       40.462659   0.000000   0.000000
     24         40.758832       40.886140   0.000000   0.000000
     25         40.929771       41.149440   0.000000   0.000000
     26         41.165115       41.543366   0.000000   0.000000
     27         42.124476       42.202716   0.000000   0.000000
     28         45.673655       47.343238   0.000000   0.000000
 
  0.1666667E+00  0.8333333E-01  0.0000000E+00  0.1041667E-01
      1          2.441891        2.458261   1.000000   1.000000
      2          5.307531        6.459657   1.000000   1.000000
      3          6.286339        7.533676   1.000000   1.000000
      4          6.361484        7.809509   1.000000   1.000000
      5          6.980508        8.642130   1.000000   1.000000
      6          7.082423        8.808820   1.000000   1.000000
      7          7.477634        9.162850   1.000000   1.000000
      8          7.478232        9.252997   1.000000   1.000000
      9          7.634514        9.422549   1.000000   0.768606
     10          7.891938        9.711779   1.000000   0.000000
     11          8.646612       10.610898   1.000000   0.000000
     12         13.005740       13.787186   0.000000   0.000000
     13         15.779156       16.640649   0.000000   0.000000
     14         23.307447       23.698927   0.000000   0.000000
     15         25.451457       25.781348   0.000000   0.000000
     16         30.559006       30.591472   0.000000   0.000000
     17         31.425290       31.582686   0.000000   0.000000
     18         32.552637       32.557828   0.000000   0.000000
     19         33.899582       34.098694   0.000000   0.000000
     20         35.007211       35.456629   0.000000   0.000000
     21         37.152364       37.170169   0.000000   0.000000
     22         38.609269       39.044497   0.000000   0.000000
     23         40.309103       40.474451   0.000000   0.000000
     24         40.756326       40.956526   0.000000   0.000000
     25         42.569574       42.820446   0.000000   0.000000
     26         44.315842       44.368758   0.000000   0.000000
     27         44.534795       44.597319   0.000000   0.000000
     28         45.848941       48.772716   0.000000   0.000000
 
  0.2500000E+00  0.8333333E-01  0.0000000E+00  0.1041667E-01
      1          3.552477        3.646810   1.000000   1.000000
      2          5.420568        6.710520   1.000000   1.000000
      3          5.829740        7.051481   1.000000   1.000000
      4          6.229759        7.584330   1.000000   1.000000
      5          6.913209        8.599897   1.000000   1.000000
      6          6.994721        8.609079   1.000000   1.000000
      7          7.301125        8.956255   1.000000   1.000000
      8          7.842537        9.646576   1.000000   0.000000
      9          8.088337        9.937891   1.000000   0.000000
     10          8.409201       10.233321   1.000000   0.000000
     11          8.682324       10.652495   1.000000   0.000000
     12         14.766196       15.461278   0.000000   0.000000
     13         16.178121       16.881868   0.000000   0.000000
     14         19.920687       20.449293   0.000000   0.000000
     15         23.974102       24.291372   0.000000   0.000000
     16         27.434600       27.617344   0.000000   0.000000
     17         28.685309       29.013549   0.000000   0.000000
     18         31.329654       31.335236   0.000000   0.000000
     19         33.086627       33.428770   0.000000   0.000000
     20         33.519025       33.881666   0.000000   0.000000
     21         37.813941       37.807329   0.000000   0.000000
     22         40.144239       40.334333   0.000000   0.000000
     23         40.382189       40.590820   0.000000   0.000000
     24         41.413943       41.675893   0.000000   0.000000
     25         44.098538       44.547993   0.000000   0.000000
     26         46.209869       47.448486   0.000000   0.000000
     27         46.421934       48.728166   0.000000   0.000000
     28         47.432137       49.545363   0.000000   0.000000
 
  0.3333333E+00  0.8333333E-01  0.0000000E+00  0.1041667E-01
      1          4.535814        4.913403   1.000000   1.000000
      2          5.262437        6.589781   1.000000   1.000000
      3          5.469366        6.734089   1.000000   1.000000
      4          6.455186        7.549283   1.000000   1.000000
      5          6.802666        8.470404   1.000000   1.000000
      6          7.128219        8.738632   1.000000   1.000000
      7          7.171584        8.793670   1.000000   1.000000
      8          8.296765       10.153209   1.000000   0.000000
      9          8.474492       10.382763   1.000000   0.000000
     10          8.704634       10.678115   1.000000   0.000000
     11          9.162952       10.868685   1.000000   0.000000
     12         15.539064       16.186539   0.000000   0.000000
     13         16.692356       17.284806   0.000000   0.000000
     14         18.323382       18.906538   0.000000   0.000000
     15         22.839175       23.124406   0.000000   0.000000
     16         24.601522       24.927002   0.000000   0.000000
     17         25.735453       26.154749   0.000000   0.000000
     18         30.454310       30.440978   0.000000   0.000000
     19         32.459787       32.795769   0.000000   0.000000
     20         32.507154       32.878833   0.000000   0.000000
     21         37.816043       37.875782   0.000000   0.000000
     22         40.486071       40.693668   0.000000   0.000000
     23         41.971418       42.158315   0.000000   0.000000
     24         43.110688       43.319080   0.000000   0.000000
     25         45.588633       46.558465   0.000000   0.000000
     26         46.471740       49.612779   0.000000   0.000000
     27         46.864132       50.216948   0.000000   0.000000
     28         50.289054       50.472411   0.000000   0.000000
 
  0.4166667E+00  0.8333333E-01  0.0000000E+00  0.1041667E-01
      1          4.975353        5.811696   1.000000   1.000000
      2          5.111842        6.383650   1.000000   1.000000
      3          5.289158        6.578535   1.000000   1.000000
      4          6.757677        7.612647   1.000000   1.000000
      5          6.805950        8.436239   1.000000   1.000000
      6          7.014372        8.576856   1.000000   1.000000
      7          7.313315        8.960062   1.000000   1.000000
      8          8.617842       10.552894   1.000000   0.000000
      9          8.682584       10.626011   1.000000   0.000000
     10          8.714566       10.689362   1.000000   0.000000
     11         10.420625       11.759511   0.000000   0.000000
     12         13.247255       14.159539   0.000000   0.000000
     13         18.548306       19.008557   0.000000   0.000000
     14         19.214397       19.635436   0.000000   0.000000
     15         22.089254       22.387843   0.000000   0.000000
     16         22.297352       22.775313   0.000000   0.000000
     17         23.510222       23.974970   0.000000   0.000000
     18         30.001324       29.974659   0.000000   0.000000
     19         31.896191       32.224330   0.000000   0.000000
     20         32.221172       32.596815   0.000000   0.000000
     21         37.683468       37.779914   0.000000   0.000000
     22         40.679823       40.928008   0.000000   0.000000
     23         43.578391       43.713796   0.000000   0.000000
     24         44.364271       44.522682   0.000000   0.000000
     25         45.949994       47.590428   0.000000   0.000000
     26         46.565989       49.252752   0.000000   0.000000
     27         47.294130       49.593247   0.000000   0.000000
     28         49.255686       50.248250   0.000000   0.000000
 
  0.1666667E+00  0.1666667E+00  0.0000000E+00  0.5208333E-02
      1          3.409424        3.472608   1.000000   1.000000
      2          5.583453        6.818040   1.000000   1.000000
      3          5.934866        7.146727   1.000000   1.000000
      4          6.022021        7.469870   1.000000   1.000000
      5          6.850958        8.529023   1.000000   1.000000
      6          6.991491        8.614331   1.000000   1.000000
      7          7.384070        9.058507   1.000000   1.000000
      8          7.629693        9.429493   1.000000   0.704664
      9          8.078648        9.915549   1.000000   0.000000
     10          8.428507       10.244983   1.000000   0.000000
     11          8.648174       10.612397   1.000000   0.000000
     12         14.515315       15.230953   0.000000   0.000000
     13         16.198573       16.933762   0.000000   0.000000
     14         21.657921       22.075867   0.000000   0.000000
     15         22.007741       22.434040   0.000000   0.000000
     16         29.028369       29.017401   0.000000   0.000000
     17         29.639434       29.891587   0.000000   0.000000
     18         30.639787       30.965310   0.000000   0.000000
     19         31.344892       31.653561   0.000000   0.000000
     20         35.928544       36.180613   0.000000   0.000000
     21         38.206033       38.145898   0.000000   0.000000
     22         38.309570       38.732098   0.000000   0.000000
     23         41.878833       42.091553   0.000000   0.000000
     24         43.105087       43.257005   0.000000   0.000000
     25         43.517953       43.579058   0.000000   0.000000
     26         44.667676       44.833830   0.000000   0.000000
     27         45.644648       46.722479   0.000000   0.000000
     28         46.273280       49.920687   0.000000   0.000000
 
  0.2500000E+00  0.1666667E+00  0.0000000E+00  0.1041667E-01
      1          4.471627        4.695027   1.000000   1.000000
      2          5.572253        6.862704   1.000000   1.000000
      3          5.598487        6.894238   1.000000   1.000000
      4          6.003840        7.290880   1.000000   1.000000
      5          6.711470        8.348438   1.000000   1.000000
      6          7.124931        8.741965   1.000000   1.000000
      7          7.211440        8.849060   1.000000   1.000000
      8          7.908305        9.739026   1.000000   0.000000
      9          8.476836       10.374175   1.000000   0.000000
     10          8.646176       10.609958   1.000000   0.000000
     11          9.177423       10.906675   1.000000   0.000000
     12         16.303318       16.938783   0.000000   0.000000
     13         16.629761       17.217247   0.000000   0.000000
     14         18.840583       19.392206   0.000000   0.000000
     15         20.682696       21.094779   0.000000   0.000000
     16         26.338687       26.560979   0.000000   0.000000
     17         27.644429       28.033848   0.000000   0.000000
     18         28.367801       28.528195   0.000000   0.000000
     19         30.064412       30.417523   0.000000   0.000000
     20         36.064213       36.343036   0.000000   0.000000
     21         39.544096       39.452974   0.000000   0.000000
     22         40.680309       40.993882   0.000000   0.000000
     23         42.497542       42.675794   0.000000   0.000000
     24         43.043068       43.204225   0.000000   0.000000
     25         45.136815       45.716497   0.000000   0.000000
     26         46.304265       46.623525   0.000000   0.000000
     27         46.576461       48.788225   0.000000   0.000000
     28         46.604018       49.874395   0.000000   0.000000
 
  0.3333333E+00  0.1666667E+00  0.0000000E+00  0.1041667E-01
      1          5.139571        5.784619   1.000000   1.000000
      2          5.390048        6.694885   1.000000   1.000000
      3          5.390702        6.696991   1.000000   1.000000
      4          6.301047        7.330524   1.000000   1.000000
      5          6.672893        8.295115   1.000000   1.000000
      6          7.025140        8.614693   1.000000   1.000000
      7          7.309015        8.959070   1.000000   1.000000
      8          8.275956       10.148529   1.000000   0.000000
      9          8.643766       10.606904   1.000000   0.000000
     10          8.673710       10.610101   1.000000   0.000000
     11         10.316313       11.761563   0.000000   0.000000
     12         14.878523       15.597456   0.000000   0.000000
     13         18.253556       18.788982   0.000000   0.000000
     14         18.823912       19.309939   0.000000   0.000000
     15         19.951191       20.335858   0.000000   0.000000
     16         23.698194       24.076204   0.000000   0.000000
     17         24.811850       25.255926   0.000000   0.000000
     18         27.753218       27.889370   0.000000   0.000000
     19         29.333630       29.685750   0.000000   0.000000
     20         35.723383       36.023600   0.000000   0.000000
     21         40.311294       40.231748   0.000000   0.000000
     22         42.846009       42.998280   0.000000   0.000000
     23         43.990070       44.231982   0.000000   0.000000
     24         44.069435       44.233755   0.000000   0.000000
     25         45.255539       45.841377   0.000000   0.000000
     26         46.348275       49.434490   0.000000   0.000000
     27         46.570272       49.544293   0.000000   0.000000
     28         49.285616       50.042688   0.000000   0.000000
 
  0.4166667E+00  0.1666667E+00  0.0000000E+00  0.5208333E-02
      1          5.299814        6.246164   1.000000   1.000000
      2          5.303594        6.570816   1.000000   1.000000
      3          5.320958        6.643210   1.000000   1.000000
      4          6.510027        7.383949   1.000000   1.000000
      5          6.687411        8.328402   1.000000   1.000000
      6          6.928725        8.475618   1.000000   1.000000
      7          7.387145        9.055694   1.000000   1.000000
      8          8.523529       10.434511   1.000000   0.000000
      9          8.642577       10.593336   1.000000   0.000000
     10          8.654069       10.605372   1.000000   0.000000
     11         11.591009       12.653550   0.000000   0.000000
     12         13.026764       14.032053   0.000000   0.000000
     13         19.351827       19.747230   0.000000   0.000000
     14         19.643720       20.071236   0.000000   0.000000
     15         20.002535       20.375764   0.000000   0.000000
     16         22.077534       22.578449   0.000000   0.000000
     17         23.327974       23.826357   0.000000   0.000000
     18         27.549624       27.680872   0.000000   0.000000
     19         29.076601       29.424696   0.000000   0.000000
     20         35.591008       35.896560   0.000000   0.000000
     21         40.444204       40.385632   0.000000   0.000000
     22         43.643812       43.859026   0.000000   0.000000
     23         43.760774       43.871889   0.000000   0.000000
     24         45.766027       45.789486   0.000000   0.000000
     25         45.903168       47.570350   0.000000   0.000000
     26         46.483488       48.757974   0.000000   0.000000
     27         47.144418       49.068183   0.000000   0.000000
     28         48.594785       49.403983   0.000000   0.000000
 
  0.2500000E+00  0.2500000E+00  0.0000000E+00  0.5208333E-02
      1          5.260447        5.783718   1.000000   1.000000