PROCAR lm decomposed
# of k-points:   95         # of bands:   28         # of ions:    2

 k-point     1 :    0.00000000 0.00000000 0.00000000     weight = 0.00086806

band     1 # energy    0.89791790 # occ.  1.00000000
 
ion      s     py     pz     px    dxy    dyz    dz2    dxz  x2-y2    tot
    1  0.340  0.000  0.000  0.000  0.000  0.000  0.000  0.000  0.000  0.340
    2  0.340  0.000  0.000  0.000  0.000  0.000  0.000  0.000  0.000  0.340
tot    0.680  0.000  0.000  0.000  0.000  0.000  0.000  0.000  0.000  0.680
 
band     2 # energy    4.58964553 # occ.  1.00000000
 
ion      s     py     pz     px    dxy    dyz    dz2    dxz  x2-y2    tot
    1  0.074  0.000  0.000  0.000  0.000  0.000  0.363  0.000  0.000  0.437
    2  0.074  0.000  0.000  0.000  0.000  0.000  0.363  0.000  0.000  0.437
tot    0.148  0.000  0.000  0.000  0.000  0.000  0.725  0.000  0.000  0.874
 
band     3 # energy    6.92592868 # occ.  1.00000000
 
ion      s     py     pz     px    dxy    dyz    dz2    dxz  x2-y2    tot
    1  0.000  0.000  0.000  0.000  0.000  0.000  0.484  0.000  0.000  0.484
    2  0.000  0.000  0.000  0.000  0.000  0.000  0.484  0.000  0.000  0.484
tot    0.000  0.000  0.000  0.000  0.000  0.000  0.968  0.000  0.000  0.968
 
band     4 # energy    6.93617441 # occ.  1.00000000
 
ion      s     py     pz     px    dxy    dyz    dz2    dxz  x2-y2    tot
    1  0.000  0.000  0.000  0.000  0.000  0.000  0.000  0.000  0.480  0.481
    2  0.000  0.000  0.000  0.000  0.000  0.000  0.000  0.000  0.480  0.481
tot    0.000  0.001  0.000  0.000  0.000  0.000  0.000  0.000  0.961  0.961
 
band     5 # energy    6.93617469 # occ.  1.00000000
 
ion      s     py     pz     px    dxy    dyz    dz2    dxz  x2-y2    tot
    1  0.000  0.000  0.000  0.000  0.480  0.000  0.000  0.000  0.000  0.481
    2  0.000  0.000  0.000  0.000  0.480  0.000  0.000  0.000  0.000  0.481
tot    0.000  0.000  0.000  0.001  0.961  0.000  0.000  0.000  0.000  0.961
 
band     6 # energy    7.22067114 # occ.  1.00000000
 
ion      s     py     pz     px    dxy    dyz    dz2    dxz  x2-y2    tot
    1  0.000  0.001  0.000  0.000  0.000  0.000  0.000  0.000  0.485  0.486
    2  0.000  0.001  0.000  0.000  0.000  0.000  0.000  0.000  0.485  0.486
tot    0.000  0.001  0.000  0.000  0.000  0.000  0.000  0.000  0.970  0.971
 
band     7 # energy    7.22067144 # occ.  1.00000000
 
ion      s     py     pz     px    dxy    dyz    dz2    dxz  x2-y2    tot
    1  0.000  0.000  0.000  0.001  0.485  0.000  0.000  0.000  0.000  0.486
    2  0.000  0.000  0.000  0.001  0.485  0.000  0.000  0.000  0.000  0.486
tot    0.000  0.000  0.000  0.001  0.970  0.000  0.000  0.000  0.000  0.971
 
band     8 # energy    7.52811396 # occ.  1.00000000
 
ion      s     py     pz     px    dxy    dyz    dz2    dxz  x2-y2    tot
    1  0.000  0.000  0.000  0.000  0.000  0.488  0.000  0.000  0.000  0.488
    2  0.000  0.000  0.000  0.000  0.000  0.488  0.000  0.000  0.000  0.488
tot    0.000  0.000  0.000  0.000  0.000  0.977  0.000  0.000  0.000  0.977
 
band     9 # energy    7.52811397 # occ.  1.00000000
 
ion      s     py     pz     px    dxy    dyz    dz2    dxz  x2-y2    tot
    1  0.000  0.000  0.000  0.000  0.000  0.000  0.000  0.488  0.000  0.488
    2  0.000  0.000  0.000  0.000  0.000  0.000  0.000  0.488  0.000  0.488
tot    0.000  0.000  0.000  0.000  0.000  0.000  0.000  0.977  0.000  0.977
 
band    10 # energy    8.54319977 # occ.  1.00000000
 
ion      s     py     pz     px    dxy    dyz    dz2    dxz  x2-y2    tot
    1  0.000  0.000  0.000  0.000  0.000  0.000  0.000  0.492  0.000  0.492
    2  0.000  0.000  0.000  0.000  0.000  0.000  0.000  0.492  0.000  0.492
tot    0.000  0.000  0.000  0.000  0.000  0.000  0.000  0.984  0.000  0.984
 
band    11 # energy    8.54319981 # occ.  1.00000000
 
ion      s     py     pz     px    dxy    dyz    dz2    dxz  x2-y2    tot
    1  0.000  0.000  0.000  0.000  0.000  0.492  0.000  0.000  0.000  0.492
    2  0.000  0.000  0.000  0.000  0.000  0.492  0.000  0.000  0.000  0.492
tot    0.000  0.000  0.000  0.000  0.000  0.984  0.000  0.000  0.000  0.984
 
band    12 # energy    9.47008473 # occ.  0.27085255
 
ion      s     py     pz     px    dxy    dyz    dz2    dxz  x2-y2    tot
    1  0.000  0.000  0.322  0.000  0.000  0.000  0.000  0.000  0.000  0.322
    2  0.000  0.000  0.322  0.000  0.000  0.000  0.000  0.000  0.000  0.322
tot    0.000  0.000  0.643  0.000  0.000  0.000  0.000  0.000  0.000  0.643
 
band    13 # energy   15.36937960 # occ.  0.00000000
 
ion      s     py     pz     px    dxy    dyz    dz2    dxz  x2-y2    tot
    1  0.221  0.000  0.000  0.000  0.000  0.000  0.217  0.000  0.000  0.438
    2  0.221  0.000  0.000  0.000  0.000  0.000  0.217  0.000  0.000  0.438
tot    0.442  0.000  0.000  0.000  0.000  0.000  0.435  0.000  0.000  0.877
 
band    14 # energy   30.94807203 # occ.  0.00000000
 
ion      s     py     pz     px    dxy    dyz    dz2    dxz  x2-y2    tot
    1  0.007  0.000  0.000  0.000  0.000  0.000  0.032  0.000  0.000  0.039
    2  0.007  0.000  0.000  0.000  0.000  0.000  0.032  0.000  0.000  0.039
tot    0.013  0.000  0.000  0.000  0.000  0.000  0.065  0.000  0.000  0.078
 
band    15 # energy   32.94379827 # occ.  0.00000000
 
ion      s     py     pz     px    dxy    dyz    dz2    dxz  x2-y2    tot
    1  0.000  0.273  0.000  0.000  0.000  0.000  0.000  0.000  0.105  0.378
    2  0.000  0.273  0.000  0.000  0.000  0.000  0.000  0.000  0.105  0.378
tot    0.000  0.546  0.000  0.000  0.000  0.000  0.000  0.000  0.210  0.756
 
band    16 # energy   32.94380096 # occ.  0.00000000
 
ion      s     py     pz     px    dxy    dyz    dz2    dxz  x2-y2    tot
    1  0.000  0.000  0.000  0.273  0.105  0.000  0.000  0.000  0.000  0.378
    2  0.000  0.000  0.000  0.273  0.105  0.000  0.000  0.000  0.000  0.378
tot    0.000  0.000  0.000  0.546  0.210  0.000  0.000  0.000  0.000  0.756
 
band    17 # energy   33.89267502 # occ.  0.00000000
 
ion      s     py     pz     px    dxy    dyz    dz2    dxz  x2-y2    tot
    1  0.024  0.000  0.000  0.000  0.000  0.000  0.074  0.000  0.000  0.098
    2  0.024  0.000  0.000  0.000  0.000  0.000  0.074  0.000  0.000  0.098
tot    0.049  0.000  0.000  0.000  0.000  0.000  0.147  0.000  0.000  0.196
 
band    18 # energy   34.35854352 # occ.  0.00000000
 
ion      s     py     pz     px    dxy    dyz    dz2    dxz  x2-y2    tot
    1  0.000  0.092  0.000  0.000  0.000  0.000  0.000  0.000  0.343  0.435
    2  0.000  0.092  0.000  0.000  0.000  0.000  0.000  0.000  0.343  0.435
tot    0.000  0.185  0.000  0.000  0.000  0.000  0.000  0.000  0.685  0.870
 
band    19 # energy   34.35854658 # occ.  0.00000000
 
ion      s     py     pz     px    dxy    dyz    dz2    dxz  x2-y2    tot
    1  0.000  0.000  0.000  0.092  0.343  0.000  0.000  0.000  0.000  0.435
    2  0.000  0.000  0.000  0.092  0.343  0.000  0.000  0.000  0.000  0.435
tot    0.000  0.000  0.000  0.185  0.685  0.000  0.000  0.000  0.000  0.870
 
band    20 # energy   34.38715159 # occ.  0.00000000
 
ion      s     py     pz     px    dxy    dyz    dz2    dxz  x2-y2    tot
    1  0.000  0.000  0.032  0.000  0.000  0.000  0.000  0.000  0.000  0.032
    2  0.000  0.000  0.032  0.000  0.000  0.000  0.000  0.000  0.000  0.032
tot    0.000  0.000  0.065  0.000  0.000  0.000  0.000  0.000  0.000  0.065
 
band    21 # energy   39.10701393 # occ.  0.00000000
 
ion      s     py     pz     px    dxy    dyz    dz2    dxz  x2-y2    tot
    1  0.000  0.000  0.000  0.000  0.000  0.128  0.000  0.000  0.000  0.128
    2  0.000  0.000  0.000  0.000  0.000  0.128  0.000  0.000  0.000  0.128
tot    0.000  0.000  0.000  0.000  0.000  0.255  0.000  0.000  0.000  0.255
 
band    22 # energy   39.10701471 # occ.  0.00000000
 
ion      s     py     pz     px    dxy    dyz    dz2    dxz  x2-y2    tot
    1  0.000  0.000  0.000  0.000  0.000  0.000  0.000  0.128  0.000  0.128
    2  0.000  0.000  0.000  0.000  0.000  0.000  0.000  0.128  0.000  0.128
tot    0.000  0.000  0.000  0.000  0.000  0.000  0.000  0.255  0.000  0.255
 
band    23 # energy   39.69774198 # occ.  0.00000000
 
ion      s     py     pz     px    dxy    dyz    dz2    dxz  x2-y2    tot
    1  0.003  0.000  0.000  0.000  0.000  0.000  0.567  0.000  0.000  0.570
    2  0.003  0.000  0.000  0.000  0.000  0.000  0.567  0.000  0.000  0.570
tot    0.006  0.000  0.000  0.000  0.000  0.000  1.134  0.000  0.000  1.141
 
band    24 # energy   40.44717254 # occ.  0.00000000
 
ion      s     py     pz     px    dxy    dyz    dz2    dxz  x2-y2    tot
    1  0.000  0.000  0.048  0.000  0.000  0.000  0.000  0.000  0.000  0.048
    2  0.000  0.000  0.048  0.000  0.000  0.000  0.000  0.000  0.000  0.048
tot    0.000  0.000  0.095  0.000  0.000  0.000  0.000  0.000  0.000  0.095
 
band    25 # energy   41.95590877 # occ.  0.00000000
 
ion      s     py     pz     px    dxy    dyz    dz2    dxz  x2-y2    tot
    1  0.000  0.000  0.000  0.000  0.000  0.485  0.000  0.000  0.000  0.485
    2  0.000  0.000  0.000  0.000  0.000  0.485  0.000  0.000  0.000  0.485
tot    0.000  0.000  0.000  0.000  0.000  0.970  0.000  0.000  0.000  0.970
 
band    26 # energy   41.95590936 # occ.  0.00000000
 
ion      s     py     pz     px    dxy    dyz    dz2    dxz  x2-y2    tot
    1  0.000  0.000  0.000  0.000  0.000  0.000  0.000  0.485  0.000  0.485
    2  0.000  0.000  0.000  0.000  0.000  0.000  0.000  0.485  0.000  0.485
tot    0.000  0.000  0.000  0.000  0.000  0.000  0.000  0.970  0.000  0.970
 
band    27 # energy   42.34392130 # occ.  0.00000000
 
ion      s     py     pz     px    dxy    dyz    dz2    dxz  x2-y2    tot
    1  0.000  0.000  0.351  0.000  0.000  0.000  0.000  0.000  0.000  0.351
    2  0.000  0.000  0.351  0.000  0.000  0.000  0.000  0.000  0.000  0.351
tot    0.000  0.000  0.703  0.000  0.000  0.000  0.000  0.000  0.000  0.703
 
band    28 # energy   43.96463329 # occ.  0.00000000
 
ion      s     py     pz     px    dxy    dyz    dz2    dxz  x2-y2    tot
    1  0.000  0.054  0.000  0.048  0.244  0.000  0.000  0.000  0.279  0.625
    2  0.000  0.054  0.000  0.048  0.244  0.000  0.000  0.000  0.279  0.625
tot    0.000  0.109  0.000  0.095  0.488  0.000  0.000  0.000  0.558  1.250
 

 k-point     2 :    0.08333333 0.00000000 0.00000000     weight = 0.00520833

band     1 # energy    1.13051030 # occ.  1.00000000
 
ion      s     py     pz     px    dxy    dyz    dz2    dxz  x2-y2    tot
    1  0.333  0.002  0.000  0.006  0.000  0.000  0.000  0.000  0.000  0.340
    2  0.333  0.002  0.000  0.006  0.000  0.000  0.000  0.000  0.000  0.340
tot    0.665  0.004  0.000  0.011  0.000  0.000  0.000  0.000  0.000  0.681
 
band     2 # energy    4.72506421 # occ.  1.00000000
 
ion      s     py     pz     px    dxy    dyz    dz2    dxz  x2-y2    tot
    1  0.067  0.001  0.000  0.003  0.002  0.000  0.364  0.000  0.001  0.438
    2  0.067  0.001  0.000  0.003  0.002  0.000  0.364  0.000  0.001  0.438
tot    0.135  0.002  0.000  0.007  0.004  0.000  0.728  0.000  0.001  0.876
 
band     3 # energy    6.72475154 # occ.  1.00000000
 
ion      s     py     pz     px    dxy    dyz    dz2    dxz  x2-y2    tot
    1  0.000  0.000  0.000  0.001  0.235  0.000  0.164  0.000  0.078  0.478
    2  0.000  0.000  0.000  0.001  0.235  0.000  0.164  0.000  0.078  0.478
tot    0.000  0.001  0.000  0.002  0.470  0.000  0.328  0.000  0.157  0.957
 
band     4 # energy    7.03954145 # occ.  1.00000000
 
ion      s     py     pz     px    dxy    dyz    dz2    dxz  x2-y2    tot
    1  0.000  0.001  0.000  0.000  0.120  0.000  0.000  0.000  0.360  0.481
    2  0.000  0.001  0.000  0.000  0.120  0.000  0.000  0.000  0.360  0.481
tot    0.000  0.001  0.000  0.000  0.240  0.000  0.000  0.000  0.720  0.962
 
band     5 # energy    7.10388611 # occ.  1.00000000
 
ion      s     py     pz     px    dxy    dyz    dz2    dxz  x2-y2    tot
    1  0.000  0.000  0.000  0.000  0.153  0.000  0.280  0.000  0.051  0.484
    2  0.000  0.000  0.000  0.000  0.153  0.000  0.280  0.000  0.051  0.484
tot    0.000  0.000  0.000  0.001  0.306  0.000  0.560  0.000  0.102  0.968
 
band     6 # energy    7.18059393 # occ.  1.00000000
 
ion      s     py     pz     px    dxy    dyz    dz2    dxz  x2-y2    tot
    1  0.001  0.000  0.000  0.000  0.331  0.000  0.042  0.000  0.110  0.484
    2  0.001  0.000  0.000  0.000  0.331  0.000  0.042  0.000  0.110  0.484
tot    0.002  0.000  0.000  0.001  0.661  0.000  0.084  0.000  0.220  0.968
 
band     7 # energy    7.31206427 # occ.  1.00000000
 
ion      s     py     pz     px    dxy    dyz    dz2    dxz  x2-y2    tot
    1  0.000  0.001  0.000  0.000  0.121  0.000  0.000  0.000  0.364  0.486
    2  0.000  0.001  0.000  0.000  0.121  0.000  0.000  0.000  0.364  0.486
tot    0.000  0.001  0.000  0.000  0.242  0.000  0.000  0.000  0.727  0.972
 
band     8 # energy    7.39868938 # occ.  1.00000000
 
ion      s     py     pz     px    dxy    dyz    dz2    dxz  x2-y2    tot
    1  0.000  0.000  0.008  0.000  0.000  0.118  0.000  0.355  0.000  0.481
    2  0.000  0.000  0.008  0.000  0.000  0.118  0.000  0.355  0.000  0.481
tot    0.000  0.000  0.016  0.000  0.000  0.236  0.000  0.709  0.000  0.962
 
band     9 # energy    7.46426704 # occ.  1.00000000
 
ion      s     py     pz     px    dxy    dyz    dz2    dxz  x2-y2    tot
    1  0.000  0.000  0.000  0.000  0.000  0.366  0.000  0.122  0.000  0.487
    2  0.000  0.000  0.000  0.000  0.000  0.366  0.000  0.122  0.000  0.487
tot    0.000  0.000  0.000  0.000  0.000  0.731  0.000  0.244  0.000  0.975
 
band    10 # energy    7.88924351 # occ.  1.00000000
 
ion      s     py     pz     px    dxy    dyz    dz2    dxz  x2-y2    tot
    1  0.000  0.000  0.073  0.000  0.000  0.094  0.000  0.281  0.000  0.448
    2  0.000  0.000  0.073  0.000  0.000  0.094  0.000  0.281  0.000  0.448
tot    0.000  0.000  0.146  0.000  0.000  0.187  0.000  0.562  0.000  0.896
 
band    11 # energy    8.57037020 # occ.  1.00000000
 
ion      s     py     pz     px    dxy    dyz    dz2    dxz  x2-y2    tot
    1  0.000  0.000  0.000  0.000  0.000  0.370  0.000  0.123  0.000  0.493
    2  0.000  0.000  0.000  0.000  0.000  0.370  0.000  0.123  0.000  0.493
tot    0.000  0.000  0.000  0.000  0.000  0.739  0.000  0.246  0.000  0.986
 
band    12 # energy   10.41887377 # occ.  0.00000000
 
ion      s     py     pz     px    dxy    dyz    dz2    dxz  x2-y2    tot
    1  0.000  0.000  0.238  0.000  0.000  0.034  0.000  0.102  0.000  0.373
    2  0.000  0.000  0.238  0.000  0.000  0.034  0.000  0.102  0.000  0.373
tot    0.000  0.000  0.475  0.000  0.000  0.068  0.000  0.203  0.000  0.747
 
band    13 # energy   15.41621236 # occ.  0.00000000
 
ion      s     py     pz     px    dxy    dyz    dz2    dxz  x2-y2    tot
    1  0.218  0.002  0.000  0.005  0.000  0.000  0.211  0.000  0.000  0.436
    2  0.218  0.002  0.000  0.005  0.000  0.000  0.211  0.000  0.000  0.436
tot    0.435  0.003  0.000  0.010  0.000  0.000  0.423  0.000  0.000  0.871
 
band    14 # energy   28.88196381 # occ.  0.00000000
 
ion      s     py     pz     px    dxy    dyz    dz2    dxz  x2-y2    tot
    1  0.015  0.028  0.000  0.083  0.104  0.000  0.022  0.000  0.035  0.286
    2  0.015  0.028  0.000  0.083  0.104  0.000  0.022  0.000  0.035  0.286
tot    0.030  0.055  0.000  0.166  0.207  0.000  0.044  0.000  0.069  0.571
 
band    15 # energy   30.94140123 # occ.  0.00000000
 
ion      s     py     pz     px    dxy    dyz    dz2    dxz  x2-y2    tot
    1  0.000  0.176  0.000  0.059  0.037  0.000  0.000  0.000  0.111  0.383
    2  0.000  0.176  0.000  0.059  0.037  0.000  0.000  0.000  0.111  0.383
tot    0.000  0.353  0.000  0.118  0.074  0.000  0.000  0.000  0.222  0.766
 
band    16 # energy   31.18668851 # occ.  0.00000000
 
ion      s     py     pz     px    dxy    dyz    dz2    dxz  x2-y2    tot
    1  0.021  0.020  0.000  0.060  0.058  0.000  0.038  0.000  0.019  0.216
    2  0.021  0.020  0.000  0.060  0.058  0.000  0.038  0.000  0.019  0.216
tot    0.042  0.040  0.000  0.120  0.115  0.000  0.076  0.000  0.038  0.432
 
band    17 # energy   34.39652716 # occ.  0.00000000
 
ion      s     py     pz     px    dxy    dyz    dz2    dxz  x2-y2    tot
    1  0.000  0.000  0.011  0.000  0.000  0.012  0.000  0.036  0.000  0.060
    2  0.000  0.000  0.011  0.000  0.000  0.012  0.000  0.036  0.000  0.060
tot    0.000  0.000  0.023  0.000  0.000  0.024  0.000  0.073  0.000  0.120
 
band    18 # energy   34.66947969 # occ.  0.00000000
 
ion      s     py     pz     px    dxy    dyz    dz2    dxz  x2-y2    tot
    1  0.004  0.015  0.000  0.044  0.035  0.000  0.036  0.000  0.012  0.145
    2  0.004  0.015  0.000  0.044  0.035  0.000  0.036  0.000  0.012  0.145
tot    0.008  0.029  0.000  0.088  0.070  0.000  0.072  0.000  0.023  0.291
 
band    19 # energy   36.04079920 # occ.  0.00000000
 
ion      s     py     pz     px    dxy    dyz    dz2    dxz  x2-y2    tot
    1  0.000  0.000  0.033  0.000  0.000  0.027  0.000  0.081  0.000  0.142
    2  0.000  0.000  0.033  0.000  0.000  0.027  0.000  0.081  0.000  0.142
tot    0.000  0.000  0.067  0.000  0.000  0.054  0.000  0.163  0.000  0.283
 
band    20 # energy   36.60368681 # occ.  0.00000000
 
ion      s     py     pz     px    dxy    dyz    dz2    dxz  x2-y2    tot
    1  0.000  0.089  0.000  0.030  0.077  0.000  0.000  0.000  0.232  0.429
    2  0.000  0.089  0.000  0.030  0.077  0.000  0.000  0.000  0.232  0.429
tot    0.000  0.178  0.000  0.059  0.155  0.000  0.000  0.000  0.465  0.857
 
band    21 # energy   37.35680199 # occ.  0.00000000
 
ion      s     py     pz     px    dxy    dyz    dz2    dxz  x2-y2    tot
    1  0.006  0.042  0.000  0.125  0.102  0.000  0.006  0.000  0.034  0.315
    2  0.006  0.042  0.000  0.125  0.102  0.000  0.006  0.000  0.034  0.315
tot    0.012  0.083  0.000  0.250  0.205  0.000  0.013  0.000  0.068  0.631
 
band    22 # energy   38.53581127 # occ.  0.00000000
 
ion      s     py     pz     px    dxy    dyz    dz2    dxz  x2-y2    tot
    1  0.000  0.000  0.000  0.000  0.000  0.181  0.000  0.060  0.000  0.241
    2  0.000  0.000  0.000  0.000  0.000  0.181  0.000  0.060  0.000  0.241
tot    0.000  0.000  0.000  0.000  0.000  0.361  0.000  0.120  0.000  0.482
 
band    23 # energy   39.26765360 # occ.  0.00000000
 
ion      s     py     pz     px    dxy    dyz    dz2    dxz  x2-y2    tot
    1  0.001  0.008  0.000  0.023  0.057  0.000  0.434  0.000  0.019  0.541
    2  0.001  0.008  0.000  0.023  0.057  0.000  0.434  0.000  0.019  0.541
tot    0.002  0.015  0.000  0.045  0.114  0.000  0.868  0.000  0.038  1.082
 
band    24 # energy   39.38316546 # occ.  0.00000000
 
ion      s     py     pz     px    dxy    dyz    dz2    dxz  x2-y2    tot
    1  0.000  0.000  0.208  0.000  0.000  0.036  0.000  0.107  0.000  0.350
    2  0.000  0.000  0.208  0.000  0.000  0.036  0.000  0.107  0.000  0.350
tot    0.000  0.000  0.415  0.000  0.000  0.071  0.000  0.213  0.000  0.700
 
band    25 # energy   41.46015021 # occ.  0.00000000
 
ion      s     py     pz     px    dxy    dyz    dz2    dxz  x2-y2    tot
    1  0.000  0.182  0.000  0.061  0.066  0.000  0.000  0.000  0.198  0.507
    2  0.000  0.182  0.000  0.061  0.066  0.000  0.000  0.000  0.198  0.507
tot    0.000  0.364  0.000  0.121  0.132  0.000  0.000  0.000  0.396  1.014
 
band    26 # energy   41.62909562 # occ.  0.00000000
 
ion      s     py     pz     px    dxy    dyz    dz2    dxz  x2-y2    tot
    1  0.085  0.027  0.000  0.081  0.204  0.000  0.115  0.000  0.068  0.581
    2  0.085  0.027  0.000  0.081  0.204  0.000  0.115  0.000  0.068  0.581
tot    0.170  0.054  0.000  0.163  0.408  0.000  0.230  0.000  0.136  1.162
 
band    27 # energy   42.94397651 # occ.  0.00000000
 
ion      s     py     pz     px    dxy    dyz    dz2    dxz  x2-y2    tot
    1  0.000  0.000  0.000  0.000  0.000  0.277  0.000  0.092  0.000  0.370
    2  0.000  0.000  0.000  0.000  0.000  0.277  0.000  0.092  0.000  0.370
tot    0.000  0.000  0.000  0.000  0.000  0.554  0.000  0.185  0.000  0.739
 
band    28 # energy   43.50250412 # occ.  0.00000000
 
ion      s     py     pz     px    dxy    dyz    dz2    dxz  x2-y2    tot
    1  0.000  0.000  0.062  0.000  0.000  0.016  0.000  0.048  0.000  0.126
    2  0.000  0.000  0.062  0.000  0.000  0.016  0.000  0.048  0.000  0.126
tot    0.000  0.000  0.124  0.000  0.000  0.032  0.000  0.096  0.000  0.252
 

 k-point     3 :    0.16666667 0.00000000 0.00000000     weight = 0.00520833

band     1 # energy    1.80467647 # occ.  1.00000000
 
ion      s     py     pz     px    dxy    dyz    dz2    dxz  x2-y2    tot
    1  0.310  0.007  0.000  0.021  0.002  0.000  0.001  0.000  0.001  0.342
    2  0.310  0.007  0.000  0.021  0.002  0.000  0.001  0.000  0.001  0.342
tot    0.620  0.014  0.000  0.042  0.004  0.000  0.002  0.000  0.001  0.683
 
band     2 # energy    5.05957481 # occ.  1.00000000
 
ion      s     py     pz     px    dxy    dyz    dz2    dxz  x2-y2    tot
    1  0.048  0.004  0.000  0.011  0.019  0.000  0.356  0.000  0.006  0.443
    2  0.048  0.004  0.000  0.011  0.019  0.000  0.356  0.000  0.006  0.443
tot    0.096  0.007  0.000  0.021  0.037  0.000  0.712  0.000  0.012  0.886
 
band     3 # energy    6.47852803 # occ.  1.00000000
 
ion      s     py     pz     px    dxy    dyz    dz2    dxz  x2-y2    tot
    1  0.000  0.001  0.000  0.004  0.263  0.000  0.116  0.000  0.088  0.471
    2  0.000  0.001  0.000  0.004  0.263  0.000  0.116  0.000  0.088  0.471
tot    0.001  0.003  0.000  0.008  0.525  0.000  0.232  0.000  0.175  0.943
 
band     4 # energy    6.77942090 # occ.  1.00000000
 
ion      s     py     pz     px    dxy    dyz    dz2    dxz  x2-y2    tot
    1  0.000  0.000  0.051  0.000  0.000  0.099  0.000  0.298  0.000  0.447
    2  0.000  0.000  0.051  0.000  0.000  0.099  0.000  0.298  0.000  0.447
tot    0.000  0.000  0.101  0.000  0.000  0.198  0.000  0.595  0.000  0.895
 
band     5 # energy    7.02657523 # occ.  1.00000000
 
ion      s     py     pz     px    dxy    dyz    dz2    dxz  x2-y2    tot
    1  0.004  0.000  0.000  0.001  0.314  0.000  0.056  0.000  0.105  0.480
    2  0.004  0.000  0.000  0.001  0.314  0.000  0.056  0.000  0.105  0.480
tot    0.008  0.001  0.000  0.003  0.628  0.000  0.112  0.000  0.209  0.961
 
band     6 # energy    7.30598637 # occ.  1.00000000
 
ion      s     py     pz     px    dxy    dyz    dz2    dxz  x2-y2    tot
    1  0.000  0.000  0.000  0.000  0.000  0.364  0.000  0.121  0.000  0.485
    2  0.000  0.000  0.000  0.000  0.000  0.364  0.000  0.121  0.000  0.485
tot    0.000  0.000  0.000  0.000  0.000  0.728  0.000  0.243  0.000  0.971
 
band     7 # energy    7.33074856 # occ.  1.00000000
 
ion      s     py     pz     px    dxy    dyz    dz2    dxz  x2-y2    tot
    1  0.000  0.001  0.000  0.000  0.120  0.000  0.000  0.000  0.360  0.482
    2  0.000  0.001  0.000  0.000  0.120  0.000  0.000  0.000  0.360  0.482
tot    0.000  0.003  0.000  0.001  0.240  0.000  0.000  0.000  0.721  0.965
 
band     8 # energy    7.38180191 # occ.  1.00000000
 
ion      s     py     pz     px    dxy    dyz    dz2    dxz  x2-y2    tot
    1  0.001  0.000  0.000  0.001  0.114  0.000  0.331  0.000  0.038  0.485
    2  0.001  0.000  0.000  0.001  0.114  0.000  0.331  0.000  0.038  0.485
tot    0.003  0.001  0.000  0.002  0.227  0.000  0.661  0.000  0.076  0.970
 
band     9 # energy    7.51698724 # occ.  1.00000000
 
ion      s     py     pz     px    dxy    dyz    dz2    dxz  x2-y2    tot
    1  0.000  0.000  0.032  0.000  0.000  0.109  0.000  0.328  0.000  0.470
    2  0.000  0.000  0.032  0.000  0.000  0.109  0.000  0.328  0.000  0.470
tot    0.000  0.000  0.064  0.000  0.000  0.219  0.000  0.657  0.000  0.940
 
band    10 # energy    7.56741194 # occ.  1.00000000
 
ion      s     py     pz     px    dxy    dyz    dz2    dxz  x2-y2    tot
    1  0.000  0.001  0.000  0.000  0.121  0.000  0.000  0.000  0.364  0.487
    2  0.000  0.001  0.000  0.000  0.121  0.000  0.000  0.000  0.364  0.487
tot    0.000  0.003  0.000  0.001  0.243  0.000  0.000  0.000  0.728  0.974
 
band    11 # energy    8.62847942 # occ.  1.00000000
 
ion      s     py     pz     px    dxy    dyz    dz2    dxz  x2-y2    tot
    1  0.000  0.000  0.000  0.000  0.000  0.371  0.000  0.124  0.000  0.494
    2  0.000  0.000  0.000  0.000  0.000  0.371  0.000  0.124  0.000  0.494
tot    0.000  0.000  0.000  0.000  0.000  0.741  0.000  0.247  0.000  0.988
 
band    12 # energy   11.91447766 # occ.  0.00000000
 
ion      s     py     pz     px    dxy    dyz    dz2    dxz  x2-y2    tot
    1  0.000  0.000  0.228  0.000  0.000  0.039  0.000  0.117  0.000  0.385
    2  0.000  0.000  0.228  0.000  0.000  0.039  0.000  0.117  0.000  0.385
tot    0.000  0.000  0.456  0.000  0.000  0.078  0.000  0.235  0.000  0.770
 
band    13 # energy   15.57830884 # occ.  0.00000000
 
ion      s     py     pz     px    dxy    dyz    dz2    dxz  x2-y2    tot
    1  0.204  0.007  0.000  0.022  0.001  0.000  0.193  0.000  0.000  0.428
    2  0.204  0.007  0.000  0.022  0.001  0.000  0.193  0.000  0.000  0.428
tot    0.409  0.015  0.000  0.044  0.001  0.000  0.386  0.000  0.000  0.855
 
band    14 # energy   25.07846450 # occ.  0.00000000
 
ion      s     py     pz     px    dxy    dyz    dz2    dxz  x2-y2    tot
    1  0.043  0.038  0.000  0.113  0.105  0.000  0.021  0.000  0.035  0.355
    2  0.043  0.038  0.000  0.113  0.105  0.000  0.021  0.000  0.035  0.355
tot    0.087  0.075  0.000  0.225  0.210  0.000  0.043  0.000  0.070  0.710
 
band    15 # energy   28.64953985 # occ.  0.00000000
 
ion      s     py     pz     px    dxy    dyz    dz2    dxz  x2-y2    tot
    1  0.000  0.189  0.000  0.063  0.029  0.000  0.000  0.000  0.086  0.367
    2  0.000  0.189  0.000  0.063  0.029  0.000  0.000  0.000  0.086  0.367
tot    0.000  0.378  0.000  0.126  0.058  0.000  0.000  0.000  0.173  0.735
 
band    16 # energy   30.28656201 # occ.  0.00000000
 
ion      s     py     pz     px    dxy    dyz    dz2    dxz  x2-y2    tot
    1  0.023  0.005  0.000  0.015  0.134  0.000  0.046  0.000  0.045  0.268
    2  0.023  0.005  0.000  0.015  0.134  0.000  0.046  0.000  0.045  0.268
tot    0.045  0.010  0.000  0.031  0.268  0.000  0.092  0.000  0.089  0.536
 
band    17 # energy   32.16975922 # occ.  0.00000000
 
ion      s     py     pz     px    dxy    dyz    dz2    dxz  x2-y2    tot
    1  0.000  0.000  0.043  0.000  0.000  0.051  0.000  0.153  0.000  0.247
    2  0.000  0.000  0.043  0.000  0.000  0.051  0.000  0.153  0.000  0.247
tot    0.000  0.000  0.085  0.000  0.000  0.102  0.000  0.306  0.000  0.493
 
band    18 # energy   34.49775845 # occ.  0.00000000
 
ion      s     py     pz     px    dxy    dyz    dz2    dxz  x2-y2    tot
    1  0.000  0.000  0.009  0.000  0.000  0.013  0.000  0.038  0.000  0.059
    2  0.000  0.000  0.009  0.000  0.000  0.013  0.000  0.038  0.000  0.059
tot    0.000  0.000  0.018  0.000  0.000  0.025  0.000  0.076  0.000  0.119
 
band    19 # energy   34.87726261 # occ.  0.00000000
 
ion      s     py     pz     px    dxy    dyz    dz2    dxz  x2-y2    tot
    1  0.036  0.043  0.000  0.129  0.050  0.000  0.033  0.000  0.017  0.307
    2  0.036  0.043  0.000  0.129  0.050  0.000  0.033  0.000  0.017  0.307
tot    0.072  0.086  0.000  0.257  0.100  0.000  0.066  0.000  0.033  0.614
 
band    20 # energy   36.97763850 # occ.  0.00000000
 
ion      s     py     pz     px    dxy    dyz    dz2    dxz  x2-y2    tot
    1  0.030  0.037  0.000  0.111  0.001  0.000  0.089  0.000  0.000  0.269
    2  0.030  0.037  0.000  0.111  0.001  0.000  0.089  0.000  0.000  0.269
tot    0.060  0.074  0.000  0.223  0.002  0.000  0.177  0.000  0.001  0.537
 
band    21 # energy   37.66495726 # occ.  0.00000000
 
ion      s     py     pz     px    dxy    dyz    dz2    dxz  x2-y2    tot
    1  0.000  0.000  0.000  0.000  0.000  0.265  0.000  0.088  0.000  0.353
    2  0.000  0.000  0.000  0.000  0.000  0.265  0.000  0.088  0.000  0.353
tot    0.000  0.000  0.000  0.000  0.000  0.530  0.000  0.177  0.000  0.707
 
band    22 # energy   38.10985096 # occ.  0.00000000
 
ion      s     py     pz     px    dxy    dyz    dz2    dxz  x2-y2    tot
    1  0.000  0.000  0.243  0.000  0.000  0.006  0.000  0.017  0.000  0.265
    2  0.000  0.000  0.243  0.000  0.000  0.006  0.000  0.017  0.000  0.265
tot    0.000  0.000  0.485  0.000  0.000  0.011  0.000  0.034  0.000  0.530
 
band    23 # energy   38.65785652 # occ.  0.00000000
 
ion      s     py     pz     px    dxy    dyz    dz2    dxz  x2-y2    tot
    1  0.000  0.079  0.000  0.026  0.091  0.000  0.000  0.000  0.273  0.470
    2  0.000  0.079  0.000  0.026  0.091  0.000  0.000  0.000  0.273  0.470
tot    0.000  0.159  0.000  0.053  0.182  0.000  0.000  0.000  0.546  0.940
 
band    24 # energy   39.92199890 # occ.  0.00000000
 
ion      s     py     pz     px    dxy    dyz    dz2    dxz  x2-y2    tot
    1  0.000  0.205  0.000  0.068  0.032  0.000  0.000  0.000  0.097  0.402
    2  0.000  0.205  0.000  0.068  0.032  0.000  0.000  0.000  0.097  0.402
tot    0.000  0.410  0.000  0.137  0.064  0.000  0.000  0.000  0.193  0.804
 
band    25 # energy   40.53892392 # occ.  0.00000000
 
ion      s     py     pz     px    dxy    dyz    dz2    dxz  x2-y2    tot
    1  0.057  0.006  0.000  0.019  0.050  0.000  0.359  0.000  0.017  0.507
    2  0.057  0.006  0.000  0.019  0.050  0.000  0.359  0.000  0.017  0.507
tot    0.113  0.013  0.000  0.038  0.099  0.000  0.718  0.000  0.033  1.013
 
band    26 # energy   42.75704504 # occ.  0.00000000
 
ion      s     py     pz     px    dxy    dyz    dz2    dxz  x2-y2    tot
    1  0.040  0.002  0.000  0.007  0.186  0.000  0.043  0.000  0.062  0.340
    2  0.040  0.002  0.000  0.007  0.186  0.000  0.043  0.000  0.062  0.340
tot    0.081  0.004  0.000  0.013  0.372  0.000  0.086  0.000  0.124  0.680
 
band    27 # energy   45.04929285 # occ.  0.00000000
 
ion      s     py     pz     px    dxy    dyz    dz2    dxz  x2-y2    tot
    1  0.000  0.000  0.000  0.000  0.000  0.189  0.000  0.063  0.000  0.252