Co-fcc                                  
   1.00000000000000     
     0.000000    1.649012    1.649012
     1.649012    0.000000    1.649012
     1.649012    1.649012    0.000000
   Co
     1
Direct
  0.000000  0.000000  0.000000
 
   32   32   32
  84.680      83.026      78.264      70.954      61.887      51.931      41.899      32.464      24.128      17.221    
  11.907      8.1809      5.8729      4.6697      4.1637      3.9460      3.8715      3.9460      4.1637      4.6697    
  5.8729      8.1809      11.907      17.221      24.128      32.464      41.899      51.931      61.887      70.954    
  78.264      83.026      83.026      79.818      73.789      65.618      56.140      46.197      36.528      27.717    
  20.176      14.150      9.7166      6.7874      5.1165      4.3368      4.0232      3.8776      3.8776      4.0232    
  4.3368      5.1165      6.7874      9.7166      14.150      20.176      27.717      36.528      46.197      56.140    
  65.618      73.789      79.818      83.026      78.264      73.789      66.912      58.371      48.980      39.507    
  30.593      22.724      16.220      11.239      7.7733      5.6507      4.5608      4.1038      3.8945      3.8226    
  3.8945      4.1038      4.5608      5.6507      7.7733      11.239      16.220      22.724      30.593      39.507    
  48.980      58.371      66.912      73.789      78.264      79.818      70.954      65.618      58.371      49.944    
  41.083      32.455      24.596      17.894      12.579      8.7171      6.2146      4.8256      4.1936      3.9196    
  3.7835      3.7835      3.9196      4.1936      4.8256      6.2146      8.7171      12.579      17.894      24.596    
  32.455      41.083      49.944      58.371      65.618      70.954      73.789      73.789      61.887      56.140    
  48.980      41.083      33.099      25.589      18.984      13.576      9.4995      6.7330      5.0994      4.2960    
  3.9486      3.7598      3.6954      3.7598      3.9486      4.2960      5.0994      6.7330      9.4995      13.576    
  18.984      25.589      33.099      41.083      48.980      56.140      61.887      65.618      66.912      65.618    
  51.931      46.197      39.507      32.455      25.589      19.362      14.107      10.016      7.1304      5.3393    
  4.3992      3.9773      3.7489      3.6314      3.6314      3.7489      3.9773      4.3992      5.3393      7.1304    
  10.016      14.107      19.362      25.589      32.455      39.507      46.197      51.931      56.140      58.371    
  58.371      56.140      41.899      36.528      30.593      24.596      18.984      14.107      10.197      7.3459    
  5.5034      4.4842      4.0034      3.7465      3.5893      3.5364      3.5893      3.7465      4.0034      4.4842    
  5.5034      7.3459      10.197      14.107      18.984      24.596      30.593      36.528      41.899      46.197    
  48.980      49.944      48.980      46.197      32.464      27.717      22.724      17.894      13.576      10.016    
  7.3459      5.5618      4.5323      4.0227      3.7481      3.5645      3.4722      3.4722      3.5645      3.7481    
  4.0227      4.5323      5.5618      7.3459      10.016      13.576      17.894      22.724      27.717      32.464    
  36.528      39.507      41.083      41.083      39.507      36.528      24.128      20.176      16.220      12.579    
  9.4995      7.1304      5.5034      4.5323      4.0298      3.7499      3.5521      3.4339      3.3948      3.4339    
  3.5521      3.7499      4.0298      4.5323      5.5034      7.1304      9.4995      12.579      16.220      20.176    
  24.128      27.717      30.593      32.455      33.099      32.455      30.593      27.717      17.221      14.150    
  11.239      8.7171      6.7330      5.3393      4.4842      4.0227      3.7499      3.5484      3.4163      3.3515    
  3.3515      3.4163      3.5484      3.7499      4.0227      4.4842      5.3393      6.7330      8.7171      11.239    
  14.150      17.221      20.176      22.724      24.596      25.589      25.589      24.596      22.724      20.176    
  11.907      9.7166      7.7733      6.2146      5.0994      4.3992      4.0034      3.7481      3.5521      3.4163    
  3.3377      3.3121      3.3377      3.4163      3.5521      3.7481      4.0034      4.3992      5.0994      6.2146    
  7.7733      9.7166      11.907      14.150      16.220      17.894      18.984      19.362      18.984      17.894    
  16.220      14.150      8.1809      6.7874      5.6507      4.8256      4.2960      3.9773      3.7465      3.5645    
  3.4339      3.3515      3.3121      3.3121      3.3515      3.4339      3.5645      3.7465      3.9773      4.2960    
  4.8256      5.6507      6.7874      8.1809      9.7166      11.239      12.579      13.576      14.107      14.107    
  13.576      12.579      11.239      9.7166      5.8729      5.1165      4.5608      4.1936      3.9486      3.7489    
  3.5893      3.4722      3.3948      3.3515      3.3377      3.3515      3.3948      3.4722      3.5893      3.7489    
  3.9486      4.1936      4.5607      5.1165      5.8729      6.7874      7.7733      8.7171      9.4995      10.016    
  10.197      10.016      9.4995      8.7171      7.7733      6.7874      4.6697      4.3368      4.1038      3.9196    
  3.7598      3.6314      3.5364      3.4722      3.4339      3.4163      3.4163      3.4339      3.4722      3.5364    
  3.6314      3.7598      3.9196      4.1038      4.3367      4.6697      5.1165      5.6507      6.2146      6.7330    
  7.1304      7.3459      7.3459      7.1304      6.7330      6.2146      5.6507      5.1165      4.1637      4.0232    
  3.8945      3.7835      3.6954      3.6314      3.5893      3.5645      3.5521      3.5484      3.5521      3.5645    
  3.5893      3.6314      3.6954      3.7835      3.8945      4.0232      4.1637      4.3367      4.5607      4.8256    
  5.0994      5.3393      5.5034      5.5618      5.5034      5.3393      5.0994      4.8256      4.5608      4.3368    
  3.9460      3.8776      3.8226      3.7835      3.7598      3.7489      3.7465      3.7481      3.7499      3.7499    
  3.7481      3.7465      3.7489      3.7598      3.7835      3.8226      3.8776      3.9460      4.0232      4.1038    
  4.1936      4.2960      4.3992      4.4842      4.5323      4.5323      4.4842      4.3992      4.2960      4.1936    
  4.1038      4.0232      3.8715      3.8776      3.8945      3.9196      3.9486      3.9773      4.0034      4.0227    
  4.0298      4.0227      4.0034      3.9773      3.9486      3.9196      3.8945      3.8776      3.8715      3.8776    
  3.8945      3.9196      3.9486      3.9773      4.0034      4.0227      4.0298      4.0227      4.0034      3.9773    
  3.9486      3.9196      3.8945      3.8776      3.9460      4.0232      4.1038      4.1936      4.2960      4.3992    
  4.4842      4.5323      4.5323      4.4842      4.3992      4.2960      4.1936      4.1038      4.0232      3.9460    
  3.8776      3.8226      3.7835      3.7598      3.7489      3.7465      3.7481      3.7499      3.7499      3.7481    
  3.7465      3.7489      3.7598      3.7835      3.8226      3.8776      4.1637      4.3368      4.5608      4.8256    
  5.0994      5.3393      5.5034      5.5618      5.5034      5.3393      5.0994      4.8256      4.5607      4.3367    
  4.1637      4.0232      3.8945      3.7835      3.6954      3.6314      3.5893      3.5645      3.5521      3.5484    
  3.5521      3.5645      3.5893      3.6314      3.6954      3.7835      3.8945      4.0232      4.6697      5.1165    
  5.6507      6.2146      6.7330      7.1304      7.3459      7.3459      7.1304      6.7330      6.2146      5.6507    
  5.1165      4.6697      4.3367      4.1038      3.9196      3.7598      3.6314      3.5364      3.4722      3.4339    
  3.4163      3.4163      3.4339      3.4722      3.5364      3.6314      3.7598      3.9196      4.1038      4.3368    
  5.8729      6.7874      7.7733      8.7171      9.4995      10.016      10.197      10.016      9.4995      8.7171    
  7.7733      6.7874      5.8729      5.1165      4.5607      4.1936      3.9486      3.7489      3.5893      3.4722    
  3.3948      3.3515      3.3377      3.3515      3.3948      3.4722      3.5893      3.7489      3.9486      4.1936    
  4.5608      5.1165      8.1809      9.7166      11.239      12.579      13.576      14.107      14.107      13.576    
  12.579      11.239      9.7166      8.1809      6.7874      5.6507      4.8256      4.2960      3.9773      3.7465    
  3.5645      3.4339      3.3515      3.3121      3.3121      3.3515      3.4339      3.5645      3.7465      3.9773    
  4.2960      4.8256      5.6507      6.7874      11.907      14.150      16.220      17.894      18.984      19.362    
  18.984      17.894      16.220      14.150      11.907      9.7166      7.7733      6.2146      5.0994      4.3992    
  4.0034      3.7481      3.5521      3.4163      3.3377      3.3121      3.3377      3.4163      3.5521      3.7481    
  4.0034      4.3992      5.0994      6.2146      7.7733      9.7166      17.221      20.176      22.724      24.596    
  25.589      25.589      24.596      22.724      20.176      17.221      14.150      11.239      8.7171      6.7330    
  5.3393      4.4842      4.0227      3.7499      3.5484      3.4163      3.3515      3.3515      3.4163      3.5484    
  3.7499      4.0227      4.4842      5.3393      6.7330      8.7171      11.239      14.150      24.128      27.717    
  30.593      32.455      33.099      32.455      30.593      27.717      24.128      20.176      16.220      12.579    
  9.4995      7.1304      5.5034      4.5323      4.0298      3.7499      3.5521      3.4339      3.3948      3.4339    
  3.5521      3.7499      4.0298      4.5323      5.5034      7.1304      9.4995      12.579      16.220      20.176    
  32.464      36.528      39.507      41.083      41.083      39.507      36.528      32.464      27.717      22.724    
  17.894      13.576      10.016      7.3459      5.5618      4.5323      4.0227      3.7481      3.5645      3.4722    
  3.4722      3.5645      3.7481      4.0227      4.5323      5.5618      7.3459      10.016      13.576      17.894    
  22.724      27.717      41.899      46.197      48.980      49.944      48.980      46.197      41.899      36.528    
  30.593      24.596      18.984      14.107      10.197      7.3459      5.5034      4.4842      4.0034      3.7465    
  3.5893      3.5364      3.5893      3.7465      4.0034      4.4842      5.5034      7.3459      10.197      14.107    
  18.984      24.596      30.593      36.528      51.931      56.140      58.371      58.371      56.140      51.931    
  46.197      39.507      32.455      25.589      19.362      14.107      10.016      7.1304      5.3393      4.3992    
  3.9773      3.7489      3.6314      3.6314      3.7489      3.9773      4.3992      5.3393      7.1304      10.016    
  14.107      19.362      25.589      32.455      39.507      46.197      61.887      65.618      66.912      65.618    
  61.887      56.140      48.980      41.083      33.099      25.589      18.984      13.576      9.4995      6.7330    
  5.0994      4.2960      3.9486      3.7598      3.6954      3.7598      3.9486      4.2960      5.0994      6.7330    
  9.4995      13.576      18.984      25.589      33.099      41.083      48.980      56.140      70.954      73.789    
  73.789      70.954      65.618      58.371      49.944      41.083      32.455      24.596      17.894      12.579    
  8.7171      6.2146      4.8256      4.1936      3.9196      3.7835      3.7835      3.9196      4.1936      4.8256    
  6.2146      8.7171      12.579      17.894      24.596      32.455      41.083      49.944      58.371      65.618    
  78.264      79.818      78.264      73.789      66.912      58.371      48.980      39.507      30.593      22.724    
  16.220      11.239      7.7733      5.6507      4.5608      4.1038      3.8945      3.8226      3.8945      4.1038    
  4.5608      5.6507      7.7733      11.239      16.220      22.724      30.593      39.507      48.980      58.371    
  66.912      73.789      83.026      83.026      79.818      73.789      65.618      56.140      46.197      36.528    
  27.717      20.176      14.150      9.7166      6.7874      5.1165      4.3368      4.0232      3.8776      3.8776    
  4.0232      4.3368      5.1165      6.7874      9.7166      14.150      20.176      27.717      36.528      46.197    
  56.140      65.618      73.789      79.818      83.026      79.818      73.789      65.618      56.140      46.197    
  36.528      27.717      20.176      14.150      9.7166      6.7874      5.1165      4.3368      4.0232      3.8776    
  3.8776      4.0232      4.3368      5.1165      6.7874      9.7166      14.150      20.176      27.717      36.528    
  46.197      56.140      65.618      73.789      79.818      83.026      79.818      75.255      68.244      59.538    
  49.968      40.314      31.229      23.204      16.564      11.470      7.9153      5.7301      4.6023      4.1292    
  3.9171      3.8442      3.9171      4.1292      4.6023      5.7301      7.9153      11.470      16.564      23.204    
  31.229      40.314      49.968      59.538      68.244      75.255      79.818      81.403      73.789      68.244    
  60.717      51.966      42.766      33.806      25.638      18.659      13.107      9.0544      6.4103      4.9291    
  4.2500      3.9640      3.8244      3.8244      3.9640      4.2500      4.9291      6.4103      9.0544      13.107    
  18.659      25.638      33.806      42.766      51.966      60.716      68.244      73.789      76.735      76.735    
  65.618      59.538      51.966      43.616      35.171      27.217      20.206      14.441      10.069      7.0755    
  5.2851      4.3923      4.0133      3.8176      3.7505      3.8176      4.0133      4.3923      5.2851      7.0755    
  10.069      14.441      20.206      27.217      35.171      43.616      51.966      59.538      65.618      69.566    
  70.936      69.566      56.140      49.968      42.766      35.171      27.764      21.028      15.314      10.831    
  7.6351      5.6207      4.5437      4.0620      3.8210      3.6971      3.6971      3.8210      4.0620      4.5437    
  5.6207      7.6351      10.831      15.314      21.028      27.764      35.171      42.766      49.968      56.140    
  60.672      63.075      63.075      60.672      46.197      40.314      33.806      27.217      21.028      15.617    
  11.240      8.0083      5.8824      4.6802      4.1097      3.8307      3.6628      3.6060      3.6628      3.8307    
  4.1097      4.6802      5.8824      8.0083      11.240      15.617      21.028      27.217      33.806      40.314    
  46.197      50.904      53.952      55.007      53.952      50.904      36.528      31.229      25.638      20.206    
  15.314      11.240      8.1394      6.0258      4.7755      4.1495      3.8418      3.6435      3.5431      3.5431    
  3.6435      3.8418      4.1495      4.7755      6.0258      8.1394      11.240      15.314      20.206      25.638    
  31.229      36.528      41.060      44.378      46.133      46.133      44.378      41.060      27.717      23.204    
  18.659      14.441      10.831      8.0083      6.0258      4.8097      4.1724      3.8505      3.6344      3.5039    
  3.4605      3.5039      3.6344      3.8505      4.1724      4.8097      6.0258      8.0083      10.831      14.441    
  18.659      23.204      27.717      31.802      35.068      37.179      37.910      37.179      35.068      31.803    
  20.176      16.564      13.107      10.069      7.6351      5.8824      4.7755      4.1724      3.8537      3.6311    
  3.4832      3.4101      3.4101      3.4832      3.6311      3.8537      4.1724      4.7755      5.8824      7.6351    
  10.069      13.107      16.564      20.176      23.628      26.590      28.761      29.910      29.910      28.761    
  26.590      23.628      14.150      11.470      9.0544      7.0755      5.6207      4.6802      4.1495      3.8505    
  3.6311      3.4768      3.3867      3.3572      3.3867      3.4768      3.6311      3.8505      4.1495      4.6802    
  5.6207      7.0754      9.0544      11.470      14.150      16.862      19.346      21.343      22.639      23.087    
  22.639      21.343      19.346      16.862      9.7166      7.9153      6.4103      5.2851      4.5437      4.1097    
  3.8418      3.6344      3.4832      3.3867      3.3402      3.3402      3.3867      3.4832      3.6344      3.8418    
  4.1097      4.5437      5.2851      6.4103      7.9153      9.7166      11.666      13.572      15.234      16.462    
  17.115      17.115      16.462      15.234      13.572      11.666      6.7874      5.7301      4.9291      4.3923    
  4.0620      3.8307      3.6435      3.5039      3.4101      3.3572      3.3402      3.3572      3.4101      3.5039    
  3.6435      3.8307      4.0620      4.3923      4.9291      5.7301      6.7874      8.0312      9.3439      10.581    
  11.595      12.260      12.492      12.260      11.595      10.581      9.3439      8.0312      5.1165      4.6023    
  4.2500      4.0133      3.8210      3.6628      3.5431      3.4605      3.4101      3.3867      3.3867      3.4101    
  3.4605      3.5431      3.6628      3.8210      4.0133      4.2500      4.6023      5.1165      5.7886      6.5678    
  7.3697      8.0933      8.6408      8.9357      8.9357      8.6409      8.0933      7.3697      6.5678      5.7886    
  4.3368      4.1292      3.9640      3.8176      3.6971      3.6060      3.5431      3.5039      3.4832      3.4768    
  3.4832      3.5039      3.5431      3.6060      3.6971      3.8176      3.9640      4.1292      4.3367      4.6253    
  4.9986      5.4265      5.8557      6.2231      6.4707      6.5580      6.4707      6.2231      5.8557      5.4265    
  4.9986      4.6253      4.0232      3.9171      3.8244      3.7505      3.6971      3.6628      3.6435      3.6344    
  3.6311      3.6311      3.6344      3.6435      3.6628      3.6971      3.7505      3.8244      3.9171      4.0232    
  4.1369      4.2730      4.4434      4.6369      4.8258      4.9769      5.0608      5.0608      4.9769      4.8258    
  4.6369      4.4434      4.2730      4.1369      3.8776      3.8442      3.8244      3.8176      3.8210      3.8307    
  3.8418      3.8505      3.8537      3.8505      3.8418      3.8307      3.8210      3.8176      3.8244      3.8442    
  3.8776      3.9225      3.9750      4.0302      4.0888      4.1525      4.2128      4.2565      4.2725      4.2565    
  4.2128      4.1525      4.0888      4.0302      3.9750      3.9225      3.8776      3.9171      3.9640      4.0133    
  4.0620      4.1097      4.1495      4.1724      4.1724      4.1495      4.1097      4.0620      4.0133      3.9640    
  3.9171      3.8776      3.8489      3.8328      3.8289      3.8346      3.8463      3.8599      3.8714      3.8782    
  3.8782      3.8714      3.8599      3.8463      3.8346      3.8289      3.8328      3.8489      4.0232      4.1292    
  4.2500      4.3923      4.5437      4.6802      4.7755      4.8097      4.7755      4.6802      4.5437      4.3923    
  4.2500      4.1292      4.0232      3.9225      3.8328      3.7597      3.7053      3.6690      3.6478      3.6373    
  3.6331      3.6320      3.6331      3.6373      3.6478      3.6690      3.7053      3.7596      3.8328      3.9225    
  4.3368      4.6023      4.9291      5.2851      5.6207      5.8824      6.0258      6.0258      5.8824      5.6207    
  5.2851      4.9291      4.6023      4.3367      4.1369      3.9750      3.8289      3.7053      3.6088      3.5395    
  3.4943      3.4681      3.4563      3.4563      3.4681      3.4943      3.5395      3.6088      3.7053      3.8289    
  3.9750      4.1369      5.1165      5.7301      6.4103      7.0755      7.6351      8.0083      8.1394      8.0083    
  7.6351      7.0754      6.4103      5.7301      5.1165      4.6253      4.2730      4.0302      3.8346      3.6690    
  3.5395      3.4465      3.3859      3.3526      3.3420      3.3526      3.3859      3.4465      3.5395      3.6690    
  3.8346      4.0302      4.2730      4.6253      6.7874      7.9153      9.0544      10.069      10.831      11.240    
  11.240      10.831      10.069      9.0544      7.9153      6.7874      5.7886      4.9986      4.4434      4.0888    
  3.8463      3.6478      3.4943      3.3859      3.3185      3.2865      3.2865      3.3185      3.3859      3.4943    
  3.6478      3.8463      4.0888      4.4434      4.9986      5.7886      9.7166      11.470      13.107      14.441    
  15.314      15.617      15.314      14.441      13.107      11.470      9.7166      8.0312      6.5678      5.4265    
  4.6369      4.1525      3.8599      3.6373      3.4681      3.3526      3.2865      3.2651      3.2865      3.3526    
  3.4681      3.6373      3.8599      4.1525      4.6369      5.4265      6.5678      8.0312      14.150      16.564    
  18.659      20.206      21.028      21.028      20.206      18.659      16.564      14.150      11.666      9.3439    
  7.3697      5.8557      4.8258      4.2128      3.8714      3.6331      3.4563      3.3420      3.2865      3.2865    
  3.3420      3.4563      3.6331      3.8714      4.2128      4.8258      5.8557      7.3697      9.3439      11.666    
  20.176      23.204      25.638      27.217      27.764      27.217      25.638      23.204      20.176      16.862    
  13.572      10.581      8.0933      6.2231      4.9769      4.2565      3.8782      3.6320      3.4563      3.3526    
  3.3185      3.3526      3.4563      3.6320      3.8782      4.2565      4.9769      6.2230      8.0933      10.581    
  13.572      16.862      27.717      31.229      33.806      35.171      35.171      33.806      31.229      27.717    
  23.628      19.346      15.234      11.595      8.6408      6.4707      5.0608      4.2725      3.8782      3.6331    
  3.4681      3.3859      3.3859      3.4681      3.6331      3.8782      4.2725      5.0608      6.4706      8.6408    
  11.595      15.234      19.346      23.628      36.528      40.314      42.766      43.616      42.766      40.314    
  36.528      31.802      26.590      21.343      16.462      12.260      8.9357      6.5580      5.0608      4.2565    
  3.8714      3.6373      3.4943      3.4465      3.4943      3.6373      3.8714      4.2565      5.0608      6.5580    
  8.9357      12.260      16.462      21.343      26.590      31.803      46.197      49.968      51.966      51.966    
  49.968      46.197      41.060      35.068      28.761      22.639      17.115      12.492      8.9357      6.4707    
  4.9769      4.2128      3.8599      3.6478      3.5395      3.5395      3.6478      3.8599      4.2128      4.9769    
  6.4706      8.9357      12.492      17.115      22.639      28.761      35.068      41.060      56.140      59.538    
  60.716      59.538      56.140      50.904      44.378      37.179      29.910      23.087      17.115      12.260    
  8.6409      6.2231      4.8258      4.1525      3.8463      3.6690      3.6088      3.6690      3.8463      4.1525    
  4.8258      6.2230      8.6408      12.260      17.115      23.087      29.910      37.179      44.378      50.904    
  65.618      68.244      68.244      65.618      60.672      53.952      46.133      37.910      29.910      22.639    
  16.462      11.595      8.0933      5.8557      4.6369      4.0888      3.8346      3.7053      3.7053      3.8346    
  4.0888      4.6369      5.8557      8.0933      11.595      16.462      22.639      29.910      37.910      46.133    
  53.952      60.672      73.789      75.255      73.789      69.566      63.075      55.007      46.133      37.179    
  28.761      21.343      15.234      10.581      7.3697      5.4265      4.4434      4.0302      3.8289      3.7596    
  3.8289      4.0302      4.4434      5.4265      7.3697      10.581      15.234      21.343      28.761      37.179    
  46.133      55.007      63.075      69.566      79.818      79.818      76.735      70.936      63.075      53.952    
  44.378      35.068      26.590      19.346      13.572      9.3439      6.5678      4.9986      4.2730      3.9750    
  3.8328      3.8328      3.9750      4.2730      4.9986      6.5678      9.3439      13.572      19.346      26.590    
  35.068      44.378      53.952      63.075      70.936      76.735      83.026      81.403      76.735      69.566    
  60.672      50.904      41.060      31.803      23.628      16.862      11.666      8.0312      5.7886      4.6253    
  4.1369      3.9225      3.8489      3.9225      4.1369      4.6253      5.7886      8.0312      11.666      16.862    
  23.628      31.803      41.060      50.904      60.672      69.566      76.735      81.403      78.264      73.789    
  66.912      58.371      48.980      39.507      30.593      22.724      16.220      11.239      7.7733      5.6507    
  4.5608      4.1038      3.8945      3.8226      3.8945      4.1038      4.5608      5.6507      7.7733      11.239    
  16.220      22.724      30.593      39.507      48.980      58.371      66.912      73.789      78.264      79.818    
  73.789      68.244      60.717      51.966      42.766      33.806      25.638      18.659      13.107      9.0544    
  6.4103      4.9291      4.2500      3.9640      3.8244      3.8244      3.9640      4.2500      4.9291      6.4103    
  9.0544      13.107      18.659      25.638      33.806      42.766      51.966      60.716      68.244      73.789    
  76.735      76.735      66.912      60.717      53.001      44.494      35.889      27.782      20.631      14.743    
  10.269      7.1961      5.3509      4.4263      4.0355      3.8374      3.7694      3.8374      4.0355      4.4263    
  5.3509      7.1961      10.269      14.743      20.631      27.782      35.889      44.494      53.001      60.716    
  66.912      70.936      72.332      70.936      58.371      51.966      44.494      36.611      28.920      21.914    
  15.959      11.270      7.9088      5.7746      4.6229      4.1069      3.8586      3.7314      3.7314      3.8586    
  4.1069      4.6229      5.7746      7.9088      11.270      15.959      21.914      28.920      36.611      44.494    
  51.966      58.371      63.075      65.568      65.568      63.075      48.980      42.766      35.889      28.920    
  22.360      16.607      11.929      8.4502      6.1383      4.8135      4.1797      3.8838      3.7093      3.6502    
  3.7093      3.8838      4.1797      4.8135      6.1383      8.4502      11.929      16.606      22.360      28.920    
  35.889      42.766      48.980      53.952      57.171      58.286      57.171      53.952      39.507      33.806    
  27.782      21.914      16.607      12.159      8.7425      6.3840      4.9655      4.2459      3.9081      3.6996    
  3.5935      3.5935      3.6996      3.9081      4.2459      4.9655      6.3840      8.7425      12.159      16.606    
  21.914      27.782      33.806      39.507      44.378      47.943      49.828      49.828      47.943      44.378    
  30.593      25.638      20.631      15.959      11.929      8.7425      6.4708      5.0499      4.2929      3.9272    
  3.6977      3.5579      3.5112      3.5579      3.6977      3.9272      4.2929      5.0499      6.4708      8.7425    
  11.929      15.959      20.631      25.638      30.593      35.068      38.641      40.949      41.747      40.949    
  38.641      35.068      22.724      18.659      14.743      11.270      8.4502      6.3840      5.0499      4.3100    
  3.9378      3.6987      3.5382      3.4585      3.4585      3.5382      3.6987      3.9378      4.3100      5.0499    
  6.3840      8.4502      11.270      14.743      18.659      22.724      26.590      29.898      32.318      33.597    
  33.597      32.318      29.898      26.590      16.220      13.107      10.269      7.9088      6.1383      4.9655    
  4.2929      3.9378      3.6995      3.5298      3.4299      3.3970      3.4299      3.5298      3.6995      3.9378    
  4.2929      4.9655      6.1383      7.9088      10.269      13.107      16.220      19.346      22.191      24.471    
  25.946      26.457      25.946      24.471      22.191      19.346      11.239      9.0544      7.1961      5.7746    
  4.8135      4.2459      3.9272      3.6987      3.5298      3.4209      3.3681      3.3681      3.4209      3.5298    
  3.6987      3.9272      4.2459      4.8135      5.7746      7.1961      9.0544      11.239      13.572      15.833    
  17.789      19.229      19.992      19.992      19.229      17.789      15.833      13.572      7.7733      6.4103    
  5.3509      4.6229      4.1797      3.9081      3.6977      3.5382      3.4299      3.3681      3.3481      3.3681    
  3.4299      3.5382      3.6977      3.9081      4.1797      4.6229      5.3509      6.4103      7.7733      9.3439    
  10.975      12.495      13.732      14.538      14.819      14.538      13.732      12.495      10.975      9.3439    
  5.6507      4.9291      4.4263      4.1069      3.8838      3.6996      3.5579      3.4585      3.3970      3.3681    
  3.3681      3.3970      3.4585      3.5579      3.6996      3.8838      4.1069      4.4263      4.9291      5.6507    
  6.5678      7.6055      8.6534      9.5861      10.285      10.660      10.660      10.285      9.5861      8.6534    
  7.6055      6.5678      4.5608      4.2500      4.0355      3.8586      3.7093      3.5935      3.5112      3.4585    
  3.4299      3.4209      3.4299      3.4585      3.5112      3.5935      3.7093      3.8586      4.0355      4.2500    