Co-fcc                                  
   1.00000000000000     
     0.000000    1.649012    1.649012
     1.649012    0.000000    1.649012
     1.649012    1.649012    0.000000
   Co
     1
Direct
  0.000000  0.000000  0.000000
 
   32   32   32
 0.84680141324E+02 0.83025567952E+02 0.78264036646E+02 0.70954308146E+02 0.61887238940E+02
 0.51931382966E+02 0.41899114430E+02 0.32463664939E+02 0.24127550820E+02 0.17221123234E+02
 0.11907144734E+02 0.81808942665E+01 0.58728654648E+01 0.46697001372E+01 0.41636875211E+01
 0.39460310832E+01 0.38715364860E+01 0.39460310832E+01 0.41636875211E+01 0.46697001372E+01
 0.58728654648E+01 0.81808942665E+01 0.11907144734E+02 0.17221123234E+02 0.24127550820E+02
 0.32463664939E+02 0.41899114430E+02 0.51931382966E+02 0.61887238940E+02 0.70954308146E+02
 0.78264036646E+02 0.83025567952E+02 0.83025567952E+02 0.79818348626E+02 0.73788789669E+02
 0.65617993355E+02 0.56140381132E+02 0.46197251072E+02 0.36528451660E+02 0.27717224690E+02
 0.20176165986E+02 0.14149905505E+02 0.97166033513E+01 0.67873678716E+01 0.51165040166E+01
 0.43367520106E+01 0.40232363063E+01 0.38775514511E+01 0.38775511306E+01 0.40232355290E+01
 0.43367512530E+01 0.51165038490E+01 0.67873687071E+01 0.97166052408E+01 0.14149908052E+02
 0.20176168428E+02 0.27717226118E+02 0.36528451320E+02 0.46197248641E+02 0.56140376871E+02
 0.65617988091E+02 0.73788784591E+02 0.79818344961E+02 0.83025566618E+02 0.78264036646E+02
 0.73788789669E+02 0.66912015073E+02 0.58371149235E+02 0.48980293321E+02 0.39506788997E+02
 0.30593015217E+02 0.22723717615E+02 0.16220018208E+02 0.11239359665E+02 0.77733084961E+01
 0.56507387754E+01 0.45607512305E+01 0.41037640530E+01 0.38945426280E+01 0.38225922934E+01
 0.38945413978E+01 0.41037622836E+01 0.45607500238E+01 0.56507391846E+01 0.77733110570E+01
 0.11239364093E+02 0.16220023383E+02 0.22723721875E+02 0.30593016880E+02 0.39506786936E+02
 0.48980287404E+02 0.58371140468E+02 0.66912005389E+02 0.73788781411E+02 0.78264031904E+02
 0.79818344961E+02 0.70954308146E+02 0.65617993355E+02 0.58371149235E+02 0.49944162753E+02
 0.41082854681E+02 0.32454620230E+02 0.24596337053E+02 0.17894449678E+02 0.12578677660E+02
 0.87171333802E+01 0.62145761855E+01 0.48256075778E+01 0.41936090404E+01 0.39195946127E+01
 0.37834912406E+01 0.37834902334E+01 0.39195921161E+01 0.41936064227E+01 0.48256065037E+01
 0.62145779282E+01 0.87171382418E+01 0.12578684721E+02 0.17894456981E+02 0.24596342184E+02
 0.32454621104E+02 0.41082850283E+02 0.49944153574E+02 0.58371137240E+02 0.65617981479E+02
 0.70954299462E+02 0.73788781411E+02 0.73788784591E+02 0.61887238940E+02 0.56140381132E+02
 0.48980293321E+02 0.41082854681E+02 0.33099098039E+02 0.25588562287E+02 0.18984105970E+02
 0.13575525825E+02 0.94994518554E+01 0.67330246212E+01 0.50994201650E+01 0.42959698111E+01
 0.39485746164E+01 0.37598456714E+01 0.36953749650E+01 0.37598432448E+01 0.39485709759E+01
 0.42959669138E+01 0.50994199435E+01 0.67330281893E+01 0.94994589777E+01 0.13575534852E+02
 0.18984114287E+02 0.25588567128E+02 0.33099097428E+02 0.41082848143E+02 0.48980282161E+02
 0.56140368129E+02 0.61887227565E+02 0.65617981479E+02 0.66912005389E+02 0.65617988091E+02
 0.51931382966E+02 0.46197251072E+02 0.39506788997E+02 0.32454620230E+02 0.25588562287E+02
 0.19362206570E+02 0.14107292798E+02 0.10016210991E+02 0.71303921220E+01 0.53393013171E+01
 0.43992328855E+01 0.39772689056E+01 0.37489089312E+01 0.36314108604E+01 0.36314094103E+01
 0.37489052542E+01 0.39772647683E+01 0.43992304794E+01 0.53393024087E+01 0.71303973278E+01
 0.10016219437E+02 0.14107302300E+02 0.19362214294E+02 0.25588565667E+02 0.32454617855E+02
 0.39506781147E+02 0.46197239724E+02 0.51931371248E+02 0.56140368129E+02 0.58371137240E+02
 0.58371140468E+02 0.56140376871E+02 0.41899114430E+02 0.36528451660E+02 0.30593015217E+02
 0.24596337053E+02 0.18984105970E+02 0.14107292798E+02 0.10196790398E+02 0.73459202395E+01
 0.55034239872E+01 0.44841940894E+01 0.40034365189E+01 0.37464861664E+01 0.35892749747E+01
 0.35363891679E+01 0.35892722718E+01 0.37464819430E+01 0.40034327039E+01 0.44841926400E+01
 0.55034261379E+01 0.73459259883E+01 0.10196798415E+02 0.14107300798E+02 0.18984111447E+02
 0.24596338108E+02 0.30593011236E+02 0.36528443573E+02 0.41899104483E+02 0.46197239724E+02
 0.48980282161E+02 0.49944153574E+02 0.48980287404E+02 0.46197248641E+02 0.32463664939E+02
 0.27717224690E+02 0.22723717615E+02 0.17894449678E+02 0.13575525825E+02 0.10016210991E+02
 0.73459202395E+01 0.55617582177E+01 0.45322702674E+01 0.40226907998E+01 0.37480627974E+01
 0.35644790233E+01 0.34722276633E+01 0.34722264058E+01 0.35644757470E+01 0.37480588118E+01
 0.40226877512E+01 0.45322695340E+01 0.55617603838E+01 0.73459248397E+01 0.10016216617E+02
 0.13575530568E+02 0.17894451765E+02 0.22723716019E+02 0.27717219519E+02 0.32463657453E+02
 0.36528443573E+02 0.39506781147E+02 0.41082848143E+02 0.41082850283E+02 0.39506786936E+02
 0.36528451320E+02 0.24127550820E+02 0.20176165986E+02 0.16220018208E+02 0.12578677660E+02
 0.94994518554E+01 0.71303921220E+01 0.55034239872E+01 0.45322702674E+01 0.40298413549E+01
 0.37499021853E+01 0.35521062642E+01 0.34338805877E+01 0.33947667982E+01 0.34338786785E+01
 0.35521030948E+01 0.37498988209E+01 0.40298388915E+01 0.45322694303E+01 0.55034248536E+01
 0.71303940683E+01 0.94994537555E+01 0.12578678266E+02 0.16220016599E+02 0.20176161915E+02
 0.24127544856E+02 0.27717219519E+02 0.30593011236E+02 0.32454617855E+02 0.33099097428E+02
 0.32454621104E+02 0.30593016880E+02 0.27717226118E+02 0.17221123234E+02 0.14149905505E+02
 0.11239359665E+02 0.87171333802E+01 0.67330246212E+01 0.53393013171E+01 0.44841940894E+01
 0.40226907998E+01 0.37499021853E+01 0.35484403408E+01 0.34162604858E+01 0.33514827009E+01
 0.33514819754E+01 0.34162585056E+01 0.35484376210E+01 0.37498993715E+01 0.40226884265E+01
 0.44841923783E+01 0.53393000846E+01 0.67330233367E+01 0.87171313605E+01 0.11239356337E+02
 0.14149900658E+02 0.17221117162E+02 0.20176161915E+02 0.22723716019E+02 0.24596338108E+02
 0.25588565667E+02 0.25588567128E+02 0.24596342184E+02 0.22723721875E+02 0.20176168428E+02
 0.11907144734E+02 0.97166033513E+01 0.77733084961E+01 0.62145761855E+01 0.50994201650E+01
 0.43992328855E+01 0.40034365189E+01 0.37480627974E+01 0.35521062642E+01 0.34162604858E+01
 0.33376640159E+01 0.33120848761E+01 0.33376630934E+01 0.34162588122E+01 0.35521041095E+01
 0.37480604135E+01 0.40034340242E+01 0.43992301980E+01 0.50994170186E+01 0.62145722238E+01
 0.77733034317E+01 0.97165971211E+01 0.11907137610E+02 0.14149900658E+02 0.16220016599E+02
 0.17894451765E+02 0.18984111447E+02 0.19362214294E+02 0.18984114287E+02 0.17894456981E+02
 0.16220023383E+02 0.14149908052E+02 0.81808942665E+01 0.67873678716E+01 0.56507387754E+01
 0.48256075778E+01 0.42959698111E+01 0.39772689056E+01 0.37464861664E+01 0.35644790233E+01
 0.34338805877E+01 0.33514827009E+01 0.33120848761E+01 0.33120846483E+01 0.33514820441E+01
 0.34338795626E+01 0.35644776711E+01 0.37464844502E+01 0.39772666747E+01 0.42959668108E+01
 0.48256035200E+01 0.56507334437E+01 0.67873612440E+01 0.81808866067E+01 0.97165971211E+01
 0.11239356337E+02 0.12578678266E+02 0.13575530568E+02 0.14107300798E+02 0.14107302300E+02
 0.13575534852E+02 0.12578684721E+02 0.11239364093E+02 0.97166052408E+01 0.58728654648E+01
 0.51165040166E+01 0.45607512305E+01 0.41936090404E+01 0.39485746164E+01 0.37489089312E+01
 0.35892749747E+01 0.34722276633E+01 0.33947667982E+01 0.33514819754E+01 0.33376630934E+01
 0.33514820441E+01 0.33947669128E+01 0.34722277547E+01 0.35892748975E+01 0.37489084409E+01
 0.39485733873E+01 0.41936067149E+01 0.45607475193E+01 0.51164988037E+01 0.58728588981E+01
 0.67873612440E+01 0.77733034317E+01 0.87171313605E+01 0.94994537555E+01 0.10016216617E+02
 0.10196798415E+02 0.10016219437E+02 0.94994589777E+01 0.87171382418E+01 0.77733110570E+01
 0.67873687071E+01 0.46697001372E+01 0.43367520106E+01 0.41037640530E+01 0.39195946127E+01
 0.37598456714E+01 0.36314108604E+01 0.35363891679E+01 0.34722264058E+01 0.34338786785E+01
 0.34162585056E+01 0.34162588122E+01 0.34338795626E+01 0.34722277547E+01 0.35363907783E+01
 0.36314124343E+01 0.37598468266E+01 0.39195949331E+01 0.41037631617E+01 0.43367496629E+01
 0.46696963139E+01 0.51164988037E+01 0.56507334437E+01 0.62145722238E+01 0.67330233367E+01
 0.71303940683E+01 0.73459248397E+01 0.73459259883E+01 0.71303973278E+01 0.67330281893E+01
 0.62145779282E+01 0.56507391846E+01 0.51165038490E+01 0.41636875211E+01 0.40232363063E+01
 0.38945426280E+01 0.37834912406E+01 0.36953749650E+01 0.36314094103E+01 0.35892722718E+01
 0.35644757470E+01 0.35521030948E+01 0.35484376210E+01 0.35521041095E+01 0.35644776711E+01
 0.35892748975E+01 0.36314124343E+01 0.36953780116E+01 0.37834938994E+01 0.38945445099E+01
 0.40232371136E+01 0.41636871052E+01 0.43367496629E+01 0.45607475193E+01 0.48256035200E+01
 0.50994170186E+01 0.53393000846E+01 0.55034248536E+01 0.55617603838E+01 0.55034261379E+01
 0.53393024087E+01 0.50994199435E+01 0.48256065037E+01 0.45607500238E+01 0.43367512530E+01
 0.39460310832E+01 0.38775514511E+01 0.38225922934E+01 0.37834902334E+01 0.37598432448E+01
 0.37489052542E+01 0.37464819430E+01 0.37480588118E+01 0.37498988209E+01 0.37498993715E+01
 0.37480604135E+01 0.37464844502E+01 0.37489084409E+01 0.37598468266E+01 0.37834938994E+01
 0.38225957417E+01 0.38775544232E+01 0.39460334003E+01 0.40232371136E+01 0.41037631617E+01
 0.41936067149E+01 0.42959668108E+01 0.43992301980E+01 0.44841923783E+01 0.45322694303E+01
 0.45322695340E+01 0.44841926400E+01 0.43992304794E+01 0.42959669138E+01 0.41936064227E+01
 0.41037622836E+01 0.40232355290E+01 0.38715364860E+01 0.38775511306E+01 0.38945413978E+01
 0.39195921161E+01 0.39485709759E+01 0.39772647683E+01 0.40034327039E+01 0.40226877512E+01
 0.40298388915E+01 0.40226884265E+01 0.40034340242E+01 0.39772666747E+01 0.39485733873E+01
 0.39195949331E+01 0.38945445099E+01 0.38775544232E+01 0.38715398397E+01 0.38775544232E+01
 0.38945445099E+01 0.39195949331E+01 0.39485733873E+01 0.39772666747E+01 0.40034340242E+01
 0.40226884265E+01 0.40298388915E+01 0.40226877512E+01 0.40034327039E+01 0.39772647683E+01
 0.39485709759E+01 0.39195921161E+01 0.38945413978E+01 0.38775511306E+01 0.39460310832E+01
 0.40232355290E+01 0.41037622836E+01 0.41936064227E+01 0.42959669138E+01 0.43992304794E+01
 0.44841926400E+01 0.45322695340E+01 0.45322694303E+01 0.44841923783E+01 0.43992301980E+01
 0.42959668108E+01 0.41936067149E+01 0.41037631617E+01 0.40232371136E+01 0.39460334003E+01
 0.38775544232E+01 0.38225957417E+01 0.37834938994E+01 0.37598468266E+01 0.37489084409E+01
 0.37464844502E+01 0.37480604135E+01 0.37498993715E+01 0.37498988209E+01 0.37480588118E+01
 0.37464819430E+01 0.37489052542E+01 0.37598432448E+01 0.37834902334E+01 0.38225922934E+01
 0.38775514511E+01 0.41636875211E+01 0.43367512530E+01 0.45607500238E+01 0.48256065037E+01
 0.50994199435E+01 0.53393024087E+01 0.55034261379E+01 0.55617603838E+01 0.55034248536E+01
 0.53393000846E+01 0.50994170186E+01 0.48256035200E+01 0.45607475193E+01 0.43367496629E+01
 0.41636871052E+01 0.40232371136E+01 0.38945445099E+01 0.37834938994E+01 0.36953780116E+01
 0.36314124343E+01 0.35892748975E+01 0.35644776711E+01 0.35521041095E+01 0.35484376210E+01
 0.35521030948E+01 0.35644757470E+01 0.35892722718E+01 0.36314094103E+01 0.36953749650E+01
 0.37834912406E+01 0.38945426280E+01 0.40232363063E+01 0.46697001372E+01 0.51165038490E+01
 0.56507391846E+01 0.62145779282E+01 0.67330281893E+01 0.71303973278E+01 0.73459259883E+01
 0.73459248397E+01 0.71303940683E+01 0.67330233367E+01 0.62145722238E+01 0.56507334437E+01
 0.51164988037E+01 0.46696963139E+01 0.43367496629E+01 0.41037631617E+01 0.39195949331E+01
 0.37598468266E+01 0.36314124343E+01 0.35363907783E+01 0.34722277547E+01 0.34338795626E+01
 0.34162588122E+01 0.34162585056E+01 0.34338786785E+01 0.34722264058E+01 0.35363891679E+01
 0.36314108604E+01 0.37598456714E+01 0.39195946127E+01 0.41037640530E+01 0.43367520106E+01
 0.58728654648E+01 0.67873687071E+01 0.77733110570E+01 0.87171382418E+01 0.94994589777E+01
 0.10016219437E+02 0.10196798415E+02 0.10016216617E+02 0.94994537555E+01 0.87171313605E+01
 0.77733034317E+01 0.67873612440E+01 0.58728588981E+01 0.51164988037E+01 0.45607475193E+01
 0.41936067149E+01 0.39485733873E+01 0.37489084409E+01 0.35892748975E+01 0.34722277547E+01
 0.33947669128E+01 0.33514820441E+01 0.33376630934E+01 0.33514819754E+01 0.33947667982E+01
 0.34722276633E+01 0.35892749747E+01 0.37489089312E+01 0.39485746164E+01 0.41936090404E+01
 0.45607512305E+01 0.51165040166E+01 0.81808942665E+01 0.97166052408E+01 0.11239364093E+02
 0.12578684721E+02 0.13575534852E+02 0.14107302300E+02 0.14107300798E+02 0.13575530568E+02
 0.12578678266E+02 0.11239356337E+02 0.97165971211E+01 0.81808866067E+01 0.67873612440E+01
 0.56507334437E+01 0.48256035200E+01 0.42959668108E+01 0.39772666747E+01 0.37464844502E+01
 0.35644776711E+01 0.34338795626E+01 0.33514820441E+01 0.33120846483E+01 0.33120848761E+01
 0.33514827009E+01 0.34338805877E+01 0.35644790233E+01 0.37464861664E+01 0.39772689056E+01
 0.42959698111E+01 0.48256075778E+01 0.56507387754E+01 0.67873678716E+01 0.11907144734E+02
 0.14149908052E+02 0.16220023383E+02 0.17894456981E+02 0.18984114287E+02 0.19362214294E+02
 0.18984111447E+02 0.17894451765E+02 0.16220016599E+02 0.14149900658E+02 0.11907137610E+02
 0.97165971211E+01 0.77733034317E+01 0.62145722238E+01 0.50994170186E+01 0.43992301980E+01
 0.40034340242E+01 0.37480604135E+01 0.35521041095E+01 0.34162588122E+01 0.33376630934E+01
 0.33120848761E+01 0.33376640159E+01 0.34162604858E+01 0.35521062642E+01 0.37480627974E+01
 0.40034365189E+01 0.43992328855E+01 0.50994201650E+01 0.62145761855E+01 0.77733084961E+01
 0.97166033513E+01 0.17221123234E+02 0.20176168428E+02 0.22723721875E+02 0.24596342184E+02
 0.25588567128E+02 0.25588565667E+02 0.24596338108E+02 0.22723716019E+02 0.20176161915E+02
 0.17221117162E+02 0.14149900658E+02 0.11239356337E+02 0.87171313605E+01 0.67330233367E+01
 0.53393000846E+01 0.44841923783E+01 0.40226884265E+01 0.37498993715E+01 0.35484376210E+01
 0.34162585056E+01 0.33514819754E+01 0.33514827009E+01 0.34162604858E+01 0.35484403408E+01
 0.37499021853E+01 0.40226907998E+01 0.44841940894E+01 0.53393013171E+01 0.67330246212E+01
 0.87171333802E+01 0.11239359665E+02 0.14149905505E+02 0.24127550820E+02 0.27717226118E+02
 0.30593016880E+02 0.32454621104E+02 0.33099097428E+02 0.32454617855E+02 0.30593011236E+02
 0.27717219519E+02 0.24127544856E+02 0.20176161915E+02 0.16220016599E+02 0.12578678266E+02
 0.94994537555E+01 0.71303940683E+01 0.55034248536E+01 0.45322694303E+01 0.40298388915E+01
 0.37498988209E+01 0.35521030948E+01 0.34338786785E+01 0.33947667982E+01 0.34338805877E+01
 0.35521062642E+01 0.37499021853E+01 0.40298413549E+01 0.45322702674E+01 0.55034239872E+01
 0.71303921220E+01 0.94994518554E+01 0.12578677660E+02 0.16220018208E+02 0.20176165986E+02
 0.32463664939E+02 0.36528451320E+02 0.39506786936E+02 0.41082850283E+02 0.41082848143E+02
 0.39506781147E+02 0.36528443573E+02 0.32463657453E+02 0.27717219519E+02 0.22723716019E+02
 0.17894451765E+02 0.13575530568E+02 0.10016216617E+02 0.73459248397E+01 0.55617603838E+01
 0.45322695340E+01 0.40226877512E+01 0.37480588118E+01 0.35644757470E+01 0.34722264058E+01
 0.34722276633E+01 0.35644790233E+01 0.37480627974E+01 0.40226907998E+01 0.45322702674E+01
 0.55617582177E+01 0.73459202395E+01 0.10016210991E+02 0.13575525825E+02 0.17894449678E+02
 0.22723717615E+02 0.27717224690E+02 0.41899114430E+02 0.46197248641E+02 0.48980287404E+02
 0.49944153574E+02 0.48980282161E+02 0.46197239724E+02 0.41899104483E+02 0.36528443573E+02
 0.30593011236E+02 0.24596338108E+02 0.18984111447E+02 0.14107300798E+02 0.10196798415E+02
 0.73459259883E+01 0.55034261379E+01 0.44841926400E+01 0.40034327039E+01 0.37464819430E+01
 0.35892722718E+01 0.35363891679E+01 0.35892749747E+01 0.37464861664E+01 0.40034365189E+01
 0.44841940894E+01 0.55034239872E+01 0.73459202395E+01 0.10196790398E+02 0.14107292798E+02
 0.18984105970E+02 0.24596337053E+02 0.30593015217E+02 0.36528451660E+02 0.51931382966E+02
 0.56140376871E+02 0.58371140468E+02 0.58371137240E+02 0.56140368129E+02 0.51931371248E+02
 0.46197239724E+02 0.39506781147E+02 0.32454617855E+02 0.25588565667E+02 0.19362214294E+02
 0.14107302300E+02 0.10016219437E+02 0.71303973278E+01 0.53393024087E+01 0.43992304794E+01
 0.39772647683E+01 0.37489052542E+01 0.36314094103E+01 0.36314108604E+01 0.37489089312E+01
 0.39772689056E+01 0.43992328855E+01 0.53393013171E+01 0.71303921220E+01 0.10016210991E+02
 0.14107292798E+02 0.19362206570E+02 0.25588562287E+02 0.32454620230E+02 0.39506788997E+02
 0.46197251072E+02 0.61887238940E+02 0.65617988091E+02 0.66912005389E+02 0.65617981479E+02
 0.61887227565E+02 0.56140368129E+02 0.48980282161E+02 0.41082848143E+02 0.33099097428E+02
 0.25588567128E+02 0.18984114287E+02 0.13575534852E+02 0.94994589777E+01 0.67330281893E+01
 0.50994199435E+01 0.42959669138E+01 0.39485709759E+01 0.37598432448E+01 0.36953749650E+01
 0.37598456714E+01 0.39485746164E+01 0.42959698111E+01 0.50994201650E+01 0.67330246212E+01
 0.94994518554E+01 0.13575525825E+02 0.18984105970E+02 0.25588562287E+02 0.33099098039E+02
 0.41082854681E+02 0.48980293321E+02 0.56140381132E+02 0.70954308146E+02 0.73788784591E+02
 0.73788781411E+02 0.70954299462E+02 0.65617981479E+02 0.58371137240E+02 0.49944153574E+02
 0.41082850283E+02 0.32454621104E+02 0.24596342184E+02 0.17894456981E+02 0.12578684721E+02
 0.87171382418E+01 0.62145779282E+01 0.48256065037E+01 0.41936064227E+01 0.39195921161E+01
 0.37834902334E+01 0.37834912406E+01 0.39195946127E+01 0.41936090404E+01 0.48256075778E+01
 0.62145761855E+01 0.87171333802E+01 0.12578677660E+02 0.17894449678E+02 0.24596337053E+02
 0.32454620230E+02 0.41082854681E+02 0.49944162753E+02 0.58371149235E+02 0.65617993355E+02
 0.78264036646E+02 0.79818344961E+02 0.78264031904E+02 0.73788781411E+02 0.66912005389E+02
 0.58371140468E+02 0.48980287404E+02 0.39506786936E+02 0.30593016880E+02 0.22723721875E+02
 0.16220023383E+02 0.11239364093E+02 0.77733110570E+01 0.56507391846E+01 0.45607500238E+01
 0.41037622836E+01 0.38945413978E+01 0.38225922934E+01 0.38945426280E+01 0.41037640530E+01
 0.45607512305E+01 0.56507387754E+01 0.77733084961E+01 0.11239359665E+02 0.16220018208E+02
 0.22723717615E+02 0.30593015217E+02 0.39506788997E+02 0.48980293321E+02 0.58371149235E+02
 0.66912015073E+02 0.73788789669E+02 0.83025567952E+02 0.83025566618E+02 0.79818344961E+02
 0.73788784591E+02 0.65617988091E+02 0.56140376871E+02 0.46197248641E+02 0.36528451320E+02
 0.27717226118E+02 0.20176168428E+02 0.14149908052E+02 0.97166052408E+01 0.67873687071E+01
 0.51165038490E+01 0.43367512530E+01 0.40232355290E+01 0.38775511306E+01 0.38775514511E+01
 0.40232363063E+01 0.43367520106E+01 0.51165040166E+01 0.67873678716E+01 0.97166033513E+01
 0.14149905505E+02 0.20176165986E+02 0.27717224690E+02 0.36528451660E+02 0.46197251072E+02
 0.56140381132E+02 0.65617993355E+02 0.73788789669E+02 0.79818348626E+02 0.83025567952E+02
 0.79818348626E+02 0.73788789669E+02 0.65617993355E+02 0.56140381132E+02 0.46197251072E+02
 0.36528451660E+02 0.27717224690E+02 0.20176165986E+02 0.14149905505E+02 0.97166033513E+01
 0.67873678716E+01 0.51165040166E+01 0.43367520106E+01 0.40232363063E+01 0.38775514511E+01
 0.38775511306E+01 0.40232355290E+01 0.43367512530E+01 0.51165038490E+01 0.67873687071E+01
 0.97166052408E+01 0.14149908052E+02 0.20176168428E+02 0.27717226118E+02 0.36528451320E+02
 0.46197248641E+02 0.56140376871E+02 0.65617988091E+02 0.73788784591E+02 0.79818344961E+02
 0.83025566618E+02 0.79818348626E+02 0.75254929238E+02 0.68243929989E+02 0.59538268241E+02
 0.49968030265E+02 0.40314163329E+02 0.31228976811E+02 0.23203752391E+02 0.16563878232E+02
 0.11469827491E+02 0.79153061588E+01 0.57300783410E+01 0.46022799364E+01 0.41292112432E+01
 0.39171127444E+01 0.38442434046E+01 0.39171115980E+01 0.41292095548E+01 0.46022786628E+01
 0.57300783815E+01 0.79153079384E+01 0.11469830696E+02 0.16563881812E+02 0.23203754836E+02
 0.31228976633E+02 0.40314159592E+02 0.49968022972E+02 0.59538258461E+02 0.68243919643E+02
 0.75254920606E+02 0.79818343721E+02 0.81403437836E+02 0.73788789669E+02 0.68243929989E+02
 0.60716511042E+02 0.51966188135E+02 0.42766265842E+02 0.33806059122E+02 0.25638001166E+02
 0.18659115023E+02 0.13106667448E+02 0.90543610524E+01 0.64103082956E+01 0.49291296778E+01
 0.42500182613E+01 0.39639735389E+01 0.38244270485E+01 0.38244261700E+01 0.39639713097E+01
 0.42500157324E+01 0.49291281054E+01 0.64103085906E+01 0.90543633277E+01 0.13106670842E+02
 0.18659117880E+02 0.25638001541E+02 0.33806055450E+02 0.42766257544E+02 0.51966175958E+02
 0.60716496998E+02 0.68243916887E+02 0.73788780375E+02 0.76734776149E+02 0.76734779508E+02
 0.65617993355E+02 0.59538268241E+02 0.51966188135E+02 0.43615596613E+02 0.35170800213E+02
 0.27217070219E+02 0.20205957482E+02 0.14441024308E+02 0.10069390090E+02 0.70754510934E+01
 0.52850811387E+01 0.43922951405E+01 0.40133104511E+01 0.38175853916E+01 0.37504927346E+01
 0.38175833735E+01 0.40133072529E+01 0.43922920961E+01 0.52850795199E+01 0.70754515425E+01
 0.10069392259E+02 0.14441026857E+02 0.20205958452E+02 0.27217067684E+02 0.35170792988E+02
 0.43615584787E+02 0.51966173229E+02 0.59538252921E+02 0.65617980762E+02 0.69566223944E+02
 0.70935972006E+02 0.69566231046E+02 0.56140381132E+02 0.49968030265E+02 0.42766265842E+02
 0.35170800213E+02 0.27764252326E+02 0.21027540558E+02 0.15313595573E+02 0.10831497652E+02
 0.76351082843E+01 0.56206690541E+01 0.45436898798E+01 0.40620446137E+01 0.38210397888E+01
 0.36971295793E+01 0.36971284732E+01 0.38210368892E+01 0.40620410097E+01 0.45436868914E+01
 0.56206676810E+01 0.76351087488E+01 0.10831499212E+02 0.15313596695E+02 0.21027539401E+02
 0.27764247396E+02 0.35170790965E+02 0.42766253011E+02 0.49968015819E+02 0.56140367814E+02
 0.60672110864E+02 0.63074504995E+02 0.63074508380E+02 0.60672120254E+02 0.46197251072E+02
 0.40314163329E+02 0.33806059122E+02 0.27217070219E+02 0.21027540558E+02 0.15617072047E+02
 0.11240079328E+02 0.80083272837E+01 0.58824011552E+01 0.46801904963E+01 0.41096697431E+01
 0.38306643188E+01 0.36627867125E+01 0.36060475103E+01 0.36627848788E+01 0.38306612875E+01
 0.41096665366E+01 0.46801881135E+01 0.58824001534E+01 0.80083275092E+01 0.11240079902E+02
 0.15617071627E+02 0.21027537800E+02 0.27217064289E+02 0.33806050077E+02 0.40314152242E+02
 0.46197239823E+02 0.50903976385E+02 0.53951554124E+02 0.55007101455E+02 0.53951559289E+02
 0.50903985571E+02 0.36528451660E+02 0.31228976811E+02 0.25638001166E+02 0.20205957482E+02
 0.15313595573E+02 0.11240079328E+02 0.81393506142E+01 0.60258108092E+01 0.47754931058E+01
 0.41494675511E+01 0.38418452288E+01 0.36435093846E+01 0.35430867844E+01 0.35430861232E+01
 0.36435076082E+01 0.38418428781E+01 0.41494652888E+01 0.47754914498E+01 0.60258099107E+01
 0.81393501660E+01 0.11240078643E+02 0.15313593817E+02 0.20205953983E+02 0.25637995700E+02
 0.31228969767E+02 0.36528444010E+02 0.41059810255E+02 0.44377500964E+02 0.46132596604E+02
 0.46132598337E+02 0.44377505792E+02 0.41059817173E+02 0.27717224690E+02 0.23203752391E+02
 0.18659115023E+02 0.14441024308E+02 0.10831497652E+02 0.80083272837E+01 0.60258108092E+01
 0.48097133630E+01 0.41723919131E+01 0.38504543113E+01 0.36343875016E+01 0.35038925427E+01
 0.34605023425E+01 0.35038919223E+01 0.36343863964E+01 0.38504529374E+01 0.41723904765E+01
 0.48097119712E+01 0.60258094155E+01 0.80083256940E+01 0.10831495591E+02 0.14441021533E+02
 0.18659111441E+02 0.23203748140E+02 0.27717220159E+02 0.31802497753E+02 0.35068050146E+02
 0.37179376243E+02 0.37909918131E+02 0.37179378047E+02 0.35068053439E+02 0.31802501986E+02
 0.20176165986E+02 0.16563878232E+02 0.13106667448E+02 0.10069390090E+02 0.76351082843E+01
 0.58824011552E+01 0.47754931058E+01 0.41723919131E+01 0.38536592078E+01 0.36310846174E+01
 0.34831771942E+01 0.34101466518E+01 0.34101465856E+01 0.34831769662E+01 0.36310841454E+01
 0.38536583799E+01 0.41723906154E+01 0.47754912559E+01 0.58823987261E+01 0.76351053216E+01
 0.10069386713E+02 0.13106663838E+02 0.16563874614E+02 0.20176162604E+02 0.23627941818E+02
 0.26590017499E+02 0.28761056546E+02 0.29909602613E+02 0.29909603094E+02 0.28761057955E+02
 0.26590019738E+02 0.23627944730E+02 0.14149905505E+02 0.11469827491E+02 0.90543610524E+01
 0.70754510934E+01 0.56206690541E+01 0.46801904963E+01 0.41494675511E+01 0.38504543113E+01
 0.36310846174E+01 0.34767909813E+01 0.33866535928E+01 0.33571739981E+01 0.33866536095E+01
 0.34767908826E+01 0.36310841774E+01 0.38504532782E+01 0.41494657206E+01 0.46801877762E+01
 0.56206654959E+01 0.70754468894E+01 0.90543565002E+01 0.11469822933E+02 0.14149901274E+02
 0.16862363579E+02 0.19345584898E+02 0.21343070384E+02 0.22638547830E+02 0.23087343139E+02
 0.22638548808E+02 0.21343072320E+02 0.19345587738E+02 0.16862367211E+02 0.97166033513E+01
 0.79153061588E+01 0.64103082956E+01 0.52850811387E+01 0.45436898798E+01 0.41096697431E+01
 0.38418452288E+01 0.36343875016E+01 0.34831771942E+01 0.33866535928E+01 0.33401553987E+01
 0.33401553461E+01 0.33866533881E+01 0.34831767097E+01 0.36343865530E+01 0.38418436190E+01
 0.41096673043E+01 0.45436865184E+01 0.52850768663E+01 0.64103032436E+01 0.79153005794E+01
 0.97165975933E+01 0.11665690122E+02 0.13572476249E+02 0.15233608803E+02 0.16462169223E+02
 0.17115182763E+02 0.17115183595E+02 0.16462171645E+02 0.15233612607E+02 0.13572481114E+02
 0.11665695648E+02 0.67873678716E+01 0.57300783410E+01 0.49291296778E+01 0.43922951405E+01
 0.40620446137E+01 0.38306643188E+01 0.36435093846E+01 0.35038925427E+01 0.34101466518E+01
 0.33571739981E+01 0.33401553461E+01 0.33571736552E+01 0.34101459815E+01 0.35038915534E+01
 0.36435080413E+01 0.38306625164E+01 0.40620421765E+01 0.43922918562E+01 0.49291253723E+01
 0.57300729586E+01 0.67873615560E+01 0.80312025445E+01 0.93438678443E+01 0.10580795448E+02
 0.11594824973E+02 0.12259993743E+02 0.12491653679E+02 0.12259996185E+02 0.11594829522E+02
 0.10580801504E+02 0.93438746716E+01 0.80312094136E+01 0.51165040166E+01 0.46022799364E+01
 0.42500182613E+01 0.40133104511E+01 0.38210397888E+01 0.36627867125E+01 0.35430867844E+01
 0.34605023425E+01 0.34101465856E+01 0.33866536095E+01 0.33866533881E+01 0.34101459815E+01
 0.34605015015E+01 0.35430858562E+01 0.36627857494E+01 0.38210386736E+01 0.40133088909E+01
 0.42500158530E+01 0.46022763070E+01 0.51164989785E+01 0.57885536817E+01 0.65678136209E+01
 0.73696765948E+01 0.80932706243E+01 0.86408490614E+01 0.89356726230E+01 0.89356740654E+01
 0.86408531431E+01 0.80932766696E+01 0.73696836627E+01 0.65678207240E+01 0.57885600016E+01
 0.43367520106E+01 0.41292112432E+01 0.39639735389E+01 0.38175853916E+01 0.36971295793E+01
 0.36060475103E+01 0.35430861232E+01 0.35038919223E+01 0.34831769662E+01 0.34767908826E+01
 0.34831767097E+01 0.35038915534E+01 0.35430858562E+01 0.36060475105E+01 0.36971298502E+01
 0.38175857091E+01 0.39639734811E+01 0.41292102970E+01 0.43367497426E+01 0.46253319019E+01
 0.49985894670E+01 0.54265146956E+01 0.58556684802E+01 0.62230509387E+01 0.64706545128E+01
 0.65580158306E+01 0.64706569787E+01 0.62230553899E+01 0.58556740811E+01 0.54265204676E+01
 0.49985945294E+01 0.46253356660E+01 0.40232363063E+01 0.39171127444E+01 0.38244270485E+01
 0.37504927346E+01 0.36971284732E+01 0.36627848788E+01 0.36435076082E+01 0.36343863964E+01
 0.36310841454E+01 0.36310841774E+01 0.36343865530E+01 0.36435080413E+01 0.36627857494E+01
 0.36971298502E+01 0.37504945191E+01 0.38244289511E+01 0.39171143377E+01 0.40232371402E+01
 0.41369143050E+01 0.42729873700E+01 0.44434199307E+01 0.46368560564E+01 0.48258261301E+01
 0.49768895600E+01 0.50608419850E+01 0.50608427136E+01 0.49768915696E+01 0.48258289389E+01
 0.46368590106E+01 0.44434223791E+01 0.42729888290E+01 0.41369145684E+01 0.38775514511E+01
 0.38442434046E+01 0.38244261700E+01 0.38175833735E+01 0.38210368892E+01 0.38306612875E+01
 0.38418428781E+01 0.38504529374E+01 0.38536583799E+01 0.38504532782E+01 0.38418436190E+01
 0.38306625164E+01 0.38210386736E+01 0.38175857091E+01 0.38244289511E+01 0.38442464222E+01
 0.38775544280E+01 0.39224634516E+01 0.39750192224E+01 0.40301969631E+01 0.40887861171E+01
 0.41525344287E+01 0.42128318183E+01 0.42565094641E+01 0.42724889753E+01 0.42565094853E+01
 0.42128317462E+01 0.41525340732E+01 0.40887852779E+01 0.40301954994E+01 0.39750171094E+01
 0.39224607973E+01 0.38775511306E+01 0.39171115980E+01 0.39639713097E+01 0.40133072529E+01
 0.40620410097E+01 0.41096665366E+01 0.41494652888E+01 0.41723904765E+01 0.41723906154E+01
 0.41494657206E+01 0.41096673043E+01 0.40620421765E+01 0.40133088909E+01 0.39639734811E+01
 0.39171143377E+01 0.38775544280E+01 0.38488970710E+01 0.38328324558E+01 0.38288757166E+01
 0.38346111149E+01 0.38463328410E+01 0.38598650082E+01 0.38714087047E+01 0.38781887313E+01
 0.38781881121E+01 0.38714069046E+01 0.38598621931E+01 0.38463292593E+01 0.38346070628E+01
 0.38288714990E+01 0.38328283475E+01 0.38488932925E+01 0.40232355290E+01 0.41292095548E+01
 0.42500157324E+01 0.43922920961E+01 0.45436868914E+01 0.46801881135E+01 0.47754914498E+01
 0.48097119712E+01 0.47754912559E+01 0.46801877762E+01 0.45436865184E+01 0.43922918562E+01
 0.42500158530E+01 0.41292102970E+01 0.40232371402E+01 0.39224634516E+01 0.38328324558E+01
 0.37596516043E+01 0.37052799113E+01 0.36690310253E+01 0.36478149120E+01 0.36372684907E+01
 0.36330543655E+01 0.36320299833E+01 0.36330524331E+01 0.36372648989E+01 0.36478101513E+01
 0.36690257076E+01 0.37052746562E+01 0.37596469328E+01 0.38328287186E+01 0.39224607973E+01
 0.43367512530E+01 0.46022786628E+01 0.49291281054E+01 0.52850795199E+01 0.56206676810E+01
 0.58824001534E+01 0.60258099107E+01 0.60258094155E+01 0.58823987261E+01 0.56206654959E+01
 0.52850768663E+01 0.49291253723E+01 0.46022763070E+01 0.43367497426E+01 0.41369143050E+01
 0.39750192224E+01 0.38288757166E+01 0.37052799113E+01 0.36087954391E+01 0.35395475734E+01
 0.34942701288E+01 0.34680688502E+01 0.34563385564E+01 0.34563375594E+01 0.34680660285E+01
 0.34942659544E+01 0.35395427263E+01 0.36087906718E+01 0.37052759077E+01 0.38288729781E+01