   1   1   1   0
  0.8968113E+01  0.2332054E-09  0.2332054E-09  0.2332054E-09  0.5000000E-15
  1.000000000000000E-004
  CAR 
 Co-fcc                                  
     56.54912176      0.79871575  301     13.26528818      1.00000000
      0.799  0.0000E+00  0.0000E+00  0.0000E+00  0.0000E+00
      0.985  0.0000E+00  0.0000E+00  0.0000E+00  0.0000E+00
      1.170  0.0000E+00  0.0000E+00  0.0000E+00  0.0000E+00
      1.356  0.0000E+00  0.0000E+00  0.0000E+00  0.0000E+00
      1.542  0.0000E+00  0.0000E+00  0.0000E+00  0.0000E+00
      1.728  0.0000E+00  0.0000E+00  0.0000E+00  0.0000E+00
      1.914  0.0000E+00  0.0000E+00  0.0000E+00  0.0000E+00
      2.100  0.0000E+00  0.0000E+00  0.0000E+00  0.0000E+00
      2.285  0.0000E+00  0.0000E+00  0.0000E+00  0.0000E+00
      2.471  0.0000E+00  0.0000E+00  0.0000E+00  0.0000E+00
      2.657  0.0000E+00  0.0000E+00  0.0000E+00  0.0000E+00
      2.843  0.0000E+00  0.0000E+00  0.0000E+00  0.0000E+00
      3.029  0.0000E+00  0.0000E+00  0.0000E+00  0.0000E+00
      3.215  0.8652E-07  0.7133E-11  0.1608E-07  0.1326E-11
      3.400  0.2042E-03  0.9335E-04  0.3797E-04  0.1735E-04
      3.586  0.5881E-05  0.1168E-03  0.3906E-04  0.3906E-04
      3.772  0.1212E-03  0.7946E-06  0.6158E-04  0.3921E-04
      3.958  0.5094E-03  0.6218E-03  0.1562E-03  0.1548E-03
      4.144  0.5999E-06  0.8009E-05  0.1564E-03  0.1563E-03
      4.330  0.6200E-03  0.2717E-03  0.2716E-03  0.2067E-03
      4.515  0.9966E-05  0.3589E-03  0.2734E-03  0.2734E-03
      4.701  0.5769E-03  0.1533E-04  0.3806E-03  0.2763E-03
      4.887  0.2639E-03  0.8247E-03  0.4297E-03  0.4296E-03
      5.073  0.2913E-03  0.8887E-06  0.4838E-03  0.4297E-03
      5.259  0.9699E-03  0.1193E-02  0.6641E-03  0.6515E-03
      5.445  0.2339E-03  0.6761E-04  0.7075E-03  0.6641E-03
      5.630  0.3968E-03  0.5620E-03  0.7812E-03  0.7685E-03
      5.816  0.3139E-03  0.6858E-04  0.8396E-03  0.7813E-03
      6.002  0.9493E-03  0.8114E-03  0.1016E-02  0.9320E-03
      6.188  0.1298E-02  0.4502E-03  0.1257E-02  0.1016E-02
      6.374  0.6064E-03  0.1485E-02  0.1370E-02  0.1292E-02
      6.560  0.8153E-03  0.4070E-03  0.1521E-02  0.1367E-02
      6.745  0.3854E-04  0.6205E-03  0.1529E-02  0.1483E-02
      6.931  0.3201E-02  0.2188E-03  0.2123E-02  0.1523E-02
      7.117  0.2232E-02  0.1235E-02  0.2538E-02  0.1753E-02
      7.303  0.4464E-02  0.1902E-02  0.3368E-02  0.2106E-02
      7.489  0.5138E-02  0.3388E-03  0.4322E-02  0.2169E-02
      7.675  0.5277E-02  0.1573E-02  0.5303E-02  0.2461E-02
      7.860  0.6173E-02  0.1071E-02  0.6450E-02  0.2660E-02
      8.046  0.8223E-02  0.2803E-02  0.7978E-02  0.3181E-02
      8.232  0.6933E-02  0.4916E-02  0.9267E-02  0.4095E-02
      8.418  0.7590E-02  0.4496E-02  0.1068E-01  0.4930E-02
      8.604  0.7143E-02  0.3003E-02  0.1200E-01  0.5488E-02
      8.790  0.6293E-02  0.3556E-02  0.1317E-01  0.6149E-02
      8.975  0.6504E-02  0.6725E-02  0.1438E-01  0.7399E-02
      9.161  0.7056E-02  0.5183E-02  0.1569E-01  0.8362E-02
      9.347  0.4247E-02  0.5999E-02  0.1648E-01  0.9477E-02
      9.533  0.7294E-02  0.6290E-02  0.1784E-01  0.1065E-01
      9.719  0.7808E-02  0.7728E-02  0.1929E-01  0.1208E-01
      9.905  0.9234E-02  0.3486E-02  0.2101E-01  0.1273E-01
     10.090  0.8567E-02  0.6762E-02  0.2260E-01  0.1399E-01
     10.276  0.1067E-01  0.6520E-02  0.2458E-01  0.1520E-01
     10.462  0.1210E-01  0.3246E-02  0.2683E-01  0.1580E-01
     10.648  0.1220E-01  0.6765E-02  0.2910E-01  0.1706E-01
     10.834  0.1005E-01  0.6439E-02  0.3096E-01  0.1826E-01
     11.020  0.5844E-02  0.9281E-02  0.3205E-01  0.1998E-01
     11.205  0.9516E-02  0.5038E-02  0.3382E-01  0.2092E-01
     11.391  0.6074E-02  0.9237E-02  0.3495E-01  0.2263E-01
     11.577  0.1022E-01  0.6903E-02  0.3685E-01  0.2392E-01
     11.763  0.1083E-01  0.8315E-02  0.3886E-01  0.2546E-01
     11.949  0.6500E-02  0.8663E-02  0.4007E-01  0.2707E-01
     12.135  0.1110E-01  0.1235E-01  0.4213E-01  0.2937E-01
     12.320  0.5466E-02  0.8223E-02  0.4315E-01  0.3089E-01
     12.506  0.9536E-02  0.5771E-02  0.4492E-01  0.3197E-01
     12.692  0.8936E-02  0.5836E-02  0.4658E-01  0.3305E-01
     12.878  0.1183E-01  0.7574E-02  0.4878E-01  0.3446E-01
     13.064  0.1322E-01  0.4538E-02  0.5123E-01  0.3530E-01
     13.250  0.8012E-02  0.1003E-01  0.5272E-01  0.3717E-01
     13.435  0.6853E-03  0.8898E-02  0.5285E-01  0.3882E-01
     13.621  0.1877E-05  0.4281E-02  0.5285E-01  0.3962E-01
     13.807  0.5274E-03  0.1056E-01  0.5295E-01  0.4158E-01
     13.993  0.1764E-02  0.7520E-02  0.5328E-01  0.4298E-01
     14.179  0.2778E-02  0.4632E-02  0.5379E-01  0.4384E-01
     14.365  0.1235E-02  0.1130E-01  0.5402E-01  0.4594E-01
     14.550  0.4470E-03  0.7507E-02  0.5411E-01  0.4733E-01
     14.736  0.1005E-02  0.1728E-01  0.5429E-01  0.5054E-01
     14.922  0.1240E-02  0.9194E-02  0.5452E-01  0.5225E-01
     15.108  0.1371E-02  0.3221E-02  0.5478E-01  0.5285E-01
     15.294  0.9831E-03  0.4927E-03  0.5496E-01  0.5294E-01
     15.480  0.1315E-02  0.2602E-02  0.5521E-01  0.5343E-01
     15.665  0.1298E-02  0.3501E-02  0.5545E-01  0.5408E-01
     15.851  0.5402E-03  0.1488E-02  0.5555E-01  0.5435E-01
     16.037  0.1331E-02  0.7374E-03  0.5579E-01  0.5449E-01
     16.223  0.8861E-03  0.3241E-04  0.5596E-01  0.5450E-01
     16.409  0.1612E-02  0.1255E-02  0.5626E-01  0.5473E-01
     16.595  0.1215E-02  0.1838E-02  0.5648E-01  0.5507E-01
     16.780  0.2072E-02  0.1523E-02  0.5687E-01  0.5535E-01
     16.966  0.1082E-02  0.2506E-02  0.5707E-01  0.5582E-01
     17.152  0.2840E-09  0.1053E-02  0.5707E-01  0.5602E-01
     17.338  0.4015E-06  0.1555E-02  0.5707E-01  0.5630E-01
     17.524  0.1219E-02  0.3358E-03  0.5730E-01  0.5637E-01
     17.710  0.4345E-03  0.9745E-03  0.5738E-01  0.5655E-01
     17.896  0.3049E-02  0.2112E-02  0.5794E-01  0.5694E-01
     18.081  0.3418E-03  0.6972E-03  0.5801E-01  0.5707E-01
     18.267  0.1011E-02  0.1630E-04  0.5820E-01  0.5707E-01
     18.453  0.8811E-03  0.2472E-02  0.5836E-01  0.5753E-01
     18.639  0.2562E-04  0.4089E-03  0.5836E-01  0.5761E-01
     18.825  0.7510E-03  0.2047E-02  0.5850E-01  0.5799E-01
     19.011  0.2293E-02  0.1058E-03  0.5893E-01  0.5801E-01
     19.196  0.8364E-04  0.9944E-03  0.5895E-01  0.5819E-01
     19.382  0.6332E-04  0.1249E-02  0.5896E-01  0.5843E-01
     19.568  0.1198E-02  0.2734E-03  0.5918E-01  0.5848E-01
     19.754  0.1906E-06  0.1214E-02  0.5918E-01  0.5870E-01
     19.940  0.2196E-03  0.1308E-02  0.5922E-01  0.5895E-01
     20.126  0.1042E-02  0.8519E-03  0.5941E-01  0.5910E-01
     20.311  0.6308E-03  0.4099E-03  0.5953E-01  0.5918E-01
     20.497  0.1210E-02  0.7171E-11  0.5976E-01  0.5918E-01
     20.683  0.5101E-04  0.7927E-04  0.5977E-01  0.5919E-01
     20.869  0.0000E+00  0.1657E-02  0.5977E-01  0.5950E-01
     21.055  0.9878E-12  0.1556E-03  0.5977E-01  0.5953E-01
     21.241  0.2741E-03  0.1142E-02  0.5982E-01  0.5974E-01
     21.426  0.1091E-02  0.1187E-03  0.6002E-01  0.5977E-01
     21.612  0.2006E-02  0.0000E+00  0.6039E-01  0.5977E-01
     21.798  0.1119E-02  0.7673E-07  0.6060E-01  0.5977E-01
     21.984  0.1823E-02  0.1162E-02  0.6094E-01  0.5998E-01
     22.170  0.1259E-02  0.9933E-04  0.6117E-01  0.6000E-01
     22.356  0.1737E-02  0.8696E-06  0.6150E-01  0.6000E-01
     22.541  0.1001E-02  0.2206E-02  0.6168E-01  0.6041E-01
     22.727  0.2175E-02  0.2809E-02  0.6209E-01  0.6093E-01
     22.913  0.1189E-02  0.1575E-02  0.6231E-01  0.6122E-01
     23.099  0.4085E-03  0.9796E-03  0.6238E-01  0.6141E-01
     23.285  0.1009E-02  0.2029E-02  0.6257E-01  0.6178E-01
     23.471  0.2095E-02  0.1119E-02  0.6296E-01  0.6199E-01
     23.656  0.7879E-03  0.1344E-02  0.6311E-01  0.6224E-01
     23.842  0.6082E-03  0.8822E-03  0.6322E-01  0.6241E-01
     24.028  0.1726E-02  0.2077E-02  0.6354E-01  0.6279E-01
     24.214  0.1317E-02  0.1580E-02  0.6378E-01  0.6309E-01
     24.400  0.3730E-04  0.7813E-05  0.6379E-01  0.6309E-01
     24.586  0.1676E-02  0.1133E-02  0.6410E-01  0.6330E-01
     24.771  0.5056E-03  0.1387E-02  0.6420E-01  0.6356E-01
     24.957  0.1409E-02  0.1247E-02  0.6446E-01  0.6379E-01
     25.143  0.1428E-02  0.6880E-03  0.6472E-01  0.6391E-01
     25.329  0.4957E-04  0.1215E-02  0.6473E-01  0.6414E-01
     25.515  0.3082E-02  0.9020E-03  0.6531E-01  0.6431E-01
     25.701  0.4439E-03  0.1672E-02  0.6539E-01  0.6462E-01
     25.886  0.1559E-02  0.5801E-03  0.6568E-01  0.6473E-01
     26.072  0.2037E-02  0.7578E-03  0.6606E-01  0.6487E-01
     26.258  0.2019E-02  0.1753E-02  0.6643E-01  0.6519E-01
     26.444  0.1887E-02  0.2424E-02  0.6678E-01  0.6564E-01
     26.630  0.1337E-02  0.1362E-02  0.6703E-01  0.6590E-01
     26.816  0.1440E-02  0.1809E-02  0.6730E-01  0.6623E-01
     27.001  0.1741E-02  0.1698E-02  0.6762E-01  0.6655E-01
     27.187  0.1944E-03  0.2677E-02  0.6766E-01  0.6705E-01
     27.373  0.2313E-03  0.3577E-03  0.6770E-01  0.6711E-01
     27.559  0.4359E-02  0.2789E-02  0.6851E-01  0.6763E-01
     27.745  0.2531E-02  0.1366E-03  0.6898E-01  0.6766E-01
     27.931  0.1475E-04  0.3510E-03  0.6898E-01  0.6772E-01
     28.116  0.1196E-02  0.4737E-02  0.6921E-01  0.6860E-01
     28.302  0.2650E-02  0.1506E-02  0.6970E-01  0.6888E-01
     28.488  0.2725E-02  0.5577E-03  0.7021E-01  0.6899E-01
     28.674  0.2256E-02  0.1815E-02  0.7062E-01  0.6932E-01
     28.860  0.8122E-03  0.2156E-02  0.7078E-01  0.6972E-01
     29.046  0.2532E-02  0.3691E-02  0.7125E-01  0.7041E-01
     29.231  0.4391E-03  0.1162E-02  0.7133E-01  0.7063E-01
     29.417  0.1077E-02  0.1528E-02  0.7153E-01  0.7091E-01
     29.603  0.2117E-02  0.2256E-02  0.7192E-01  0.7133E-01
     29.789  0.1864E-02  0.6146E-03  0.7227E-01  0.7144E-01
     29.975  0.4073E-02  0.2168E-02  0.7302E-01  0.7185E-01
     30.161  0.1532E-02  0.1533E-02  0.7331E-01  0.7213E-01
     30.346  0.2376E-02  0.2584E-02  0.7375E-01  0.7261E-01
     30.532  0.1520E-02  0.4625E-02  0.7403E-01  0.7347E-01
     30.718  0.1206E-02  0.6208E-03  0.7426E-01  0.7359E-01
     30.904  0.1920E-02  0.2110E-02  0.7461E-01  0.7398E-01
     31.090  0.1978E-02  0.1496E-02  0.7498E-01  0.7426E-01
     31.276  0.1153E-02  0.1355E-02  0.7520E-01  0.7451E-01
     31.461  0.3268E-02  0.1750E-02  0.7580E-01  0.7483E-01
     31.647  0.2443E-02  0.1886E-02  0.7626E-01  0.7518E-01
     31.833  0.1050E-02  0.3206E-02  0.7645E-01  0.7578E-01
     32.019  0.2440E-02  0.2005E-02  0.7691E-01  0.7615E-01
     32.205  0.2139E-02  0.1255E-02  0.7730E-01  0.7638E-01
     32.391  0.2768E-04  0.3120E-02  0.7731E-01  0.7696E-01
     32.576  0.3468E-02  0.1705E-02  0.7795E-01  0.7728E-01
     32.762  0.3410E-02  0.1299E-03  0.7859E-01  0.7731E-01
     32.948  0.1927E-02  0.3143E-02  0.7895E-01  0.7789E-01
     33.134  0.1247E-02  0.4326E-02  0.7918E-01  0.7869E-01
     33.320  0.1632E-02  0.1365E-02  0.7948E-01  0.7895E-01
     33.506  0.9217E-03  0.1626E-02  0.7965E-01  0.7925E-01
     33.691  0.1929E-03  0.9843E-03  0.7969E-01  0.7943E-01
     33.877  0.2021E-02  0.1208E-02  0.8006E-01  0.7966E-01
     34.063  0.4115E-02  0.1690E-03  0.8083E-01  0.7969E-01
     34.249  0.4219E-03  0.2260E-02  0.8091E-01  0.8011E-01
     34.435  0.1394E-02  0.4355E-02  0.8117E-01  0.8092E-01
     34.621  0.1979E-02  0.3226E-03  0.8153E-01  0.8098E-01
     34.806  0.2715E-02  0.1187E-02  0.8204E-01  0.8120E-01
     34.992  0.1857E-02  0.2522E-02  0.8238E-01  0.8167E-01
     35.178  0.1278E-02  0.3224E-02  0.8262E-01  0.8227E-01
     35.364  0.1088E-02  0.1933E-02  0.8282E-01  0.8262E-01
     35.550  0.2039E-02  0.6274E-03  0.8320E-01  0.8274E-01
     35.736  0.1266E-02  0.1437E-02  0.8344E-01  0.8301E-01
     35.921  0.6610E-03  0.2513E-02  0.8356E-01  0.8347E-01
     36.107  0.2481E-02  0.5188E-03  0.8402E-01  0.8357E-01
     36.293  0.2122E-02  0.1736E-02  0.8441E-01  0.8389E-01
     36.479  0.4404E-03  0.1615E-02  0.8450E-01  0.8419E-01
     36.665  0.2737E-02  0.1401E-02  0.8501E-01  0.8445E-01
     36.851  0.2350E-02  0.2399E-02  0.8544E-01  0.8490E-01
     37.036  0.1669E-02  0.2441E-02  0.8575E-01  0.8535E-01
     37.222  0.2777E-02  0.1817E-02  0.8627E-01  0.8569E-01
     37.408  0.5410E-03  0.1387E-02  0.8637E-01  0.8595E-01
     37.594  0.1133E-02  0.2124E-02  0.8658E-01  0.8634E-01
     37.780  0.8056E-03  0.1358E-02  0.8673E-01  0.8660E-01
     37.966  0.1729E-02  0.6251E-03  0.8705E-01  0.8671E-01
     38.151  0.1656E-02  0.7110E-03  0.8736E-01  0.8684E-01
     38.337  0.3181E-02  0.2038E-02  0.8795E-01  0.8722E-01
     38.523  0.3426E-02  0.3297E-02  0.8859E-01  0.8784E-01
     38.709  0.1933E-02  0.1503E-02  0.8895E-01  0.8812E-01
     38.895  0.2162E-02  0.3079E-02  0.8935E-01  0.8869E-01
     39.081  0.2748E-02  0.3537E-02  0.8986E-01  0.8934E-01
     39.266  0.6574E-03  0.1599E-02  0.8998E-01  0.8964E-01
     39.452  0.2642E-02  0.1505E-02  0.9047E-01  0.8992E-01
     39.638  0.2686E-02  0.5458E-03  0.9097E-01  0.9002E-01
     39.824  0.1108E-02  0.4075E-02  0.9118E-01  0.9078E-01
     40.010  0.4207E-02  0.1261E-02  0.9196E-01  0.9101E-01
     40.196  0.1305E-02  0.3401E-02  0.9220E-01  0.9165E-01
     40.382  0.6950E-03  0.2687E-02  0.9233E-01  0.9215E-01
     40.567  0.5271E-02  0.8926E-03  0.9331E-01  0.9231E-01
     40.753  0.6930E-03  0.4121E-02  0.9344E-01  0.9308E-01
     40.939  0.7843E-03  0.1371E-02  0.9358E-01  0.9333E-01
     41.125  0.2945E-02  0.5806E-03  0.9413E-01  0.9344E-01
     41.311  0.2971E-02  0.3237E-02  0.9468E-01  0.9404E-01
     41.497  0.1495E-02  0.2345E-02  0.9496E-01  0.9448E-01
     41.682  0.1175E-02  0.1999E-02  0.9518E-01  0.9485E-01
     41.868  0.2175E-02  0.1240E-02  0.9558E-01  0.9508E-01
     42.054  0.2676E-02  0.2073E-02  0.9608E-01  0.9546E-01
     42.240  0.2397E-02  0.1659E-02  0.9653E-01  0.9577E-01
     42.426  0.2537E-02  0.2766E-02  0.9700E-01  0.9629E-01
     42.612  0.3256E-02  0.2075E-02  0.9760E-01  0.9667E-01
     42.797  0.2645E-02  0.3793E-02  0.9809E-01  0.9738E-01
     42.983  0.2158E-02  0.2813E-02  0.9849E-01  0.9790E-01
     43.169  0.1843E-03  0.1012E-02  0.9853E-01  0.9809E-01
     43.355  0.1728E-02  0.2309E-02  0.9885E-01  0.9852E-01
     43.541  0.9384E-04  0.1868E-02  0.9887E-01  0.9886E-01
     43.727  0.1229E-02  0.1575E-04  0.9910E-01  0.9887E-01
     43.912  0.1712E-02  0.1653E-02  0.9941E-01  0.9917E-01
     44.098  0.8467E-03  0.1289E-02  0.9957E-01  0.9941E-01
     44.284  0.1132E-02  0.1290E-06  0.9978E-01  0.9941E-01
     44.470  0.1174E-02  0.3740E-12  0.1000E+00  0.9941E-01
     44.656  0.8632E-03  0.3050E-03  0.1002E+00  0.9947E-01
     44.842  0.4540E-02  0.2702E-02  0.1010E+00  0.9997E-01
     45.027  0.1388E-02  0.4461E-02  0.1013E+00  0.1008E+00
     45.213  0.8723E-03  0.1147E-02  0.1014E+00  0.1010E+00
     45.399  0.3244E-03  0.3037E-03  0.1015E+00  0.1011E+00
     45.585  0.3500E-03  0.2222E-02  0.1015E+00  0.1015E+00
     45.771  0.8923E-03  0.3155E-05  0.1017E+00  0.1015E+00
     45.957  0.3146E-02  0.6256E-03  0.1023E+00  0.1016E+00
     46.142  0.1852E-02  0.1663E-02  0.1026E+00  0.1019E+00
     46.328  0.2587E-02  0.1412E-02  0.1031E+00  0.1022E+00
     46.514  0.6692E-03  0.2239E-02  0.1032E+00  0.1026E+00
     46.700  0.7136E-02  0.2420E-02  0.1046E+00  0.1030E+00
     46.886  0.4136E-02  0.6444E-02  0.1053E+00  0.1042E+00
     47.072  0.2708E-02  0.3776E-02  0.1058E+00  0.1049E+00
     47.257  0.3085E-02  0.2325E-02  0.1064E+00  0.1054E+00
     47.443  0.9814E-03  0.1644E-02  0.1066E+00  0.1057E+00
     47.629  0.2155E-02  0.2370E-02  0.1070E+00  0.1061E+00
     47.815  0.2686E-02  0.2073E-02  0.1075E+00  0.1065E+00
     48.001  0.8428E-03  0.2665E-02  0.1077E+00  0.1070E+00
     48.187  0.2668E-02  0.1835E-02  0.1082E+00  0.1073E+00
     48.372  0.2916E-02  0.2341E-02  0.1087E+00  0.1078E+00
     48.558  0.4902E-02  0.2754E-02  0.1096E+00  0.1083E+00
     48.744  0.8498E-03  0.4302E-02  0.1098E+00  0.1091E+00
     48.930  0.6943E-04  0.3023E-02  0.1098E+00  0.1096E+00
     49.116  0.3960E-02  0.3560E-04  0.1105E+00  0.1097E+00
     49.302  0.5131E-02  0.1357E-02  0.1115E+00  0.1099E+00
     49.487  0.2816E-02  0.1845E-02  0.1120E+00  0.1102E+00
     49.673  0.1042E-01  0.1873E-02  0.1139E+00  0.1106E+00
     49.859  0.9903E-02  0.1472E-02  0.1158E+00  0.1109E+00
     50.045  0.4457E-02  0.3344E-02  0.1166E+00  0.1115E+00
     50.231  0.2611E-02  0.3847E-02  0.1171E+00  0.1122E+00
     50.417  0.6505E-02  0.2216E-02  0.1183E+00  0.1126E+00
     50.602  0.6019E-02  0.1977E-03  0.1194E+00  0.1127E+00
     50.788  0.6565E-03  0.1697E-02  0.1195E+00  0.1130E+00
     50.974  0.7430E-06  0.6266E-03  0.1195E+00  0.1131E+00
     51.160  0.5662E-04  0.1823E-02  0.1195E+00  0.1134E+00
     51.346  0.1204E-02  0.1360E-02  0.1198E+00  0.1137E+00
     51.532  0.2342E-06  0.3779E-02  0.1198E+00  0.1144E+00
     51.717  0.0000E+00  0.6078E-03  0.1198E+00  0.1145E+00
     51.903  0.0000E+00  0.6444E-03  0.1198E+00  0.1146E+00
     52.089  0.9600E-08  0.1256E-02  0.1198E+00  0.1148E+00
     52.275  0.5431E-03  0.2177E-02  0.1199E+00  0.1153E+00
     52.461  0.8747E-04  0.4616E-02  0.1199E+00  0.1161E+00
     52.647  0.0000E+00  0.3414E-03  0.1199E+00  0.1162E+00
     52.832  0.0000E+00  0.2233E-02  0.1199E+00  0.1166E+00
     53.018  0.0000E+00  0.2211E-02  0.1199E+00  0.1170E+00
     53.204  0.0000E+00  0.5408E-02  0.1199E+00  0.1180E+00
     53.390  0.1822E-13  0.1992E-02  0.1199E+00  0.1184E+00
     53.576  0.6179E-04  0.1822E-02  0.1199E+00  0.1187E+00
     53.762  0.5688E-03  0.3057E-02  0.1200E+00  0.1193E+00
     53.947  0.2333E-07  0.3170E-02  0.1200E+00  0.1199E+00
     54.133  0.0000E+00  0.7084E-03  0.1200E+00  0.1200E+00
     54.319  0.0000E+00  0.2596E-06  0.1200E+00  0.1200E+00
     54.505  0.0000E+00  0.0000E+00  0.1200E+00  0.1200E+00
     54.691  0.0000E+00  0.0000E+00  0.1200E+00  0.1200E+00
     54.877  0.0000E+00  0.0000E+00  0.1200E+00  0.1200E+00
     55.062  0.0000E+00  0.0000E+00  0.1200E+00  0.1200E+00
     55.248  0.0000E+00  0.0000E+00  0.1200E+00  0.1200E+00
     55.434  0.0000E+00  0.0000E+00  0.1200E+00  0.1200E+00
     55.620  0.0000E+00  0.0000E+00  0.1200E+00  0.1200E+00
     55.806  0.0000E+00  0.0000E+00  0.1200E+00  0.1200E+00
     55.992  0.0000E+00  0.0000E+00  0.1200E+00  0.1200E+00
     56.177  0.0000E+00  0.0000E+00  0.1200E+00  0.1200E+00
     56.363  0.0000E+00  0.0000E+00  0.1200E+00  0.1200E+00
     56.549  0.0000E+00  0.0000E+00  0.1200E+00  0.1200E+00
     56.54912176      0.79871575  301     13.26528818      1.00000000
      0.799  0.0000E+00  0.0000E+00  0.0000E+00  0.0000E+00  0.0000E+00  0.0000E+00  0.0000E+00  0.0000E+00  0.0000E+00  0.0000E+00  0.0000E+00  0.0000E+00  0.0000E+00  0.0000E+00  0.0000E+00  0.0000E+00  0.0000E+00  0.0000E+00
      0.985  0.0000E+00  0.0000E+00  0.0000E+00  0.0000E+00  0.0000E+00  0.0000E+00  0.0000E+00  0.0000E+00  0.0000E+00  0.0000E+00  0.0000E+00  0.0000E+00  0.0000E+00  0.0000E+00  0.0000E+00  0.0000E+00  0.0000E+00  0.0000E+00
      1.170  0.0000E+00  0.0000E+00  0.0000E+00  0.0000E+00  0.0000E+00  0.0000E+00  0.0000E+00  0.0000E+00  0.0000E+00  0.0000E+00  0.0000E+00  0.0000E+00  0.0000E+00  0.0000E+00  0.0000E+00  0.0000E+00  0.0000E+00  0.0000E+00
      1.356  0.0000E+00  0.0000E+00  0.0000E+00  0.0000E+00  0.0000E+00  0.0000E+00  0.0000E+00  0.0000E+00  0.0000E+00  0.0000E+00  0.0000E+00  0.0000E+00  0.0000E+00  0.0000E+00  0.0000E+00  0.0000E+00  0.0000E+00  0.0000E+00
      1.542  0.0000E+00  0.0000E+00  0.0000E+00  0.0000E+00  0.0000E+00  0.0000E+00  0.0000E+00  0.0000E+00  0.0000E+00  0.0000E+00  0.0000E+00  0.0000E+00  0.0000E+00  0.0000E+00  0.0000E+00  0.0000E+00  0.0000E+00  0.0000E+00
      1.728  0.0000E+00  0.0000E+00  0.0000E+00  0.0000E+00  0.0000E+00  0.0000E+00  0.0000E+00  0.0000E+00  0.0000E+00  0.0000E+00  0.0000E+00  0.0000E+00  0.0000E+00  0.0000E+00  0.0000E+00  0.0000E+00  0.0000E+00  0.0000E+00
      1.914  0.0000E+00  0.0000E+00  0.0000E+00  0.0000E+00  0.0000E+00  0.0000E+00  0.0000E+00  0.0000E+00  0.0000E+00  0.0000E+00  0.0000E+00  0.0000E+00  0.0000E+00  0.0000E+00  0.0000E+00  0.0000E+00  0.0000E+00  0.0000E+00
      2.100  0.0000E+00  0.0000E+00  0.0000E+00  0.0000E+00  0.0000E+00  0.0000E+00  0.0000E+00  0.0000E+00  0.0000E+00  0.0000E+00  0.0000E+00  0.0000E+00  0.0000E+00  0.0000E+00  0.0000E+00  0.0000E+00  0.0000E+00  0.0000E+00
      2.285  0.0000E+00  0.0000E+00  0.0000E+00  0.0000E+00  0.0000E+00  0.0000E+00  0.0000E+00  0.0000E+00  0.0000E+00  0.0000E+00  0.0000E+00  0.0000E+00  0.0000E+00  0.0000E+00  0.0000E+00  0.0000E+00  0.0000E+00  0.0000E+00
      2.471  0.0000E+00  0.0000E+00  0.0000E+00  0.0000E+00  0.0000E+00  0.0000E+00  0.0000E+00  0.0000E+00  0.0000E+00  0.0000E+00  0.0000E+00  0.0000E+00  0.0000E+00  0.0000E+00  0.0000E+00  0.0000E+00  0.0000E+00  0.0000E+00
      2.657  0.0000E+00  0.0000E+00  0.0000E+00  0.0000E+00  0.0000E+00  0.0000E+00  0.0000E+00  0.0000E+00  0.0000E+00  0.0000E+00  0.0000E+00  0.0000E+00  0.0000E+00  0.0000E+00  0.0000E+00  0.0000E+00  0.0000E+00  0.0000E+00
      2.843  0.0000E+00  0.0000E+00  0.0000E+00  0.0000E+00  0.0000E+00  0.0000E+00  0.0000E+00  0.0000E+00  0.0000E+00  0.0000E+00  0.0000E+00  0.0000E+00  0.0000E+00  0.0000E+00  0.0000E+00  0.0000E+00  0.0000E+00  0.0000E+00
      3.029  0.0000E+00  0.0000E+00  0.0000E+00  0.0000E+00  0.0000E+00  0.0000E+00  0.0000E+00  0.0000E+00  0.0000E+00  0.0000E+00  0.0000E+00  0.0000E+00  0.0000E+00  0.0000E+00  0.0000E+00  0.0000E+00  0.0000E+00  0.0000E+00
      3.215  0.7731E-05  0.6409E-09  0.4307E-07  0.3575E-11  0.4307E-07  0.3575E-11  0.4307E-07  0.3575E-11  0.6624E-09  0.4355E-13  0.6624E-09  0.4355E-13  0.1913E-21  0.1096E-24  0.6624E-09  0.4355E-13  0.1913E-21  0.1096E-24
      3.400  0.1825E-01  0.8388E-02  0.1017E-03  0.4678E-04  0.1017E-03  0.4678E-04  0.1017E-03  0.4678E-04  0.1563E-05  0.5700E-06  0.1563E-05  0.5700E-06  0.4516E-18  0.1435E-17  0.1563E-05  0.5700E-06  0.4516E-18  0.1435E-17
      3.586  0.5255E-03  0.1050E-01  0.2928E-05  0.5855E-04  0.2928E-05  0.5855E-04  0.2928E-05  0.5855E-04  0.4502E-07  0.7134E-06  0.4502E-07  0.7134E-06  0.1877E-13  0.1798E-17  0.4502E-07  0.7134E-06  0.1877E-13  0.1798E-17
      3.772  0.1034E-01  0.6823E-04  0.2143E-03  0.1417E-05  0.2143E-03  0.1417E-05  0.2143E-03  0.1417E-05  0.6053E-05  0.3114E-07  0.6053E-05  0.3114E-07  0.8017E-05  0.4222E-07  0.6053E-05  0.3114E-07  0.8017E-05  0.4222E-07
      3.958  0.4349E-01  0.5339E-01  0.9010E-03  0.1109E-02  0.9010E-03  0.1109E-02  0.9010E-03  0.1109E-02  0.2545E-04  0.2437E-04  0.2545E-04  0.2437E-04  0.3371E-04  0.3304E-04  0.2545E-04  0.2437E-04  0.3371E-04  0.3304E-04
      4.144  0.4886E-04  0.6876E-03  0.1740E-05  0.1428E-04  0.1740E-05  0.1428E-04  0.1740E-05  0.1428E-04  0.1646E-06  0.3139E-06  0.1646E-06  0.3139E-06  0.3604E-07  0.4255E-06  0.1646E-06  0.3139E-06  0.3604E-07  0.4255E-06
      4.330  0.5048E-01  0.2227E-01  0.1802E-02  0.8007E-03  0.1802E-02  0.8007E-03  0.1802E-02  0.8007E-03  0.1710E-03  0.5754E-04  0.1710E-03  0.5754E-04  0.3723E-04  0.1322E-04  0.1710E-03  0.5754E-04  0.3723E-04  0.1322E-04
      4.515  0.8115E-03  0.2941E-01  0.2897E-04  0.1058E-02  0.2897E-04  0.1058E-02  0.2897E-04  0.1058E-02  0.2749E-05  0.7601E-04  0.2749E-05  0.7601E-04  0.5986E-06  0.1746E-04  0.2749E-05  0.7601E-04  0.5986E-06  0.1746E-04
      4.701  0.4451E-01  0.1194E-02  0.2297E-02  0.6188E-04  0.2297E-02  0.6188E-04  0.2297E-02  0.6188E-04  0.1946E-03  0.4587E-05  0.1946E-03  0.4587E-05  0.3018E-03  0.5301E-05  0.1946E-03  0.4587E-05  0.3018E-03  0.5301E-05
      4.887  0.2036E-01  0.6420E-01  0.1058E-02  0.3348E-02  0.1058E-02  0.3348E-02  0.1058E-02  0.3348E-02  0.6978E-04  0.1918E-03  0.6978E-04  0.1918E-03  0.1579E-03  0.3444E-03  0.6978E-04  0.1918E-03  0.1579E-03  0.3444E-03
      5.073  0.2133E-01  0.6851E-04  0.1437E-02  0.3792E-05  0.1437E-02  0.3792E-05  0.1437E-02  0.3792E-05  0.2204E-03  0.2163E-06  0.2204E-03  0.2163E-06  0.1539E-03  0.4186E-06  0.2204E-03  0.2163E-06  0.1539E-03  0.4186E-06
      5.259  0.7099E-01  0.8835E-01  0.4784E-02  0.6028E-02  0.4784E-02  0.6028E-02  0.4784E-02  0.6028E-02  0.7336E-03  0.6726E-03  0.7336E-03  0.6726E-03  0.5122E-03  0.4824E-03  0.7336E-03  0.6726E-03  0.5122E-03  0.4824E-03
      5.445  0.1609E-01  0.5005E-02  0.1247E-02  0.3415E-03  0.1247E-02  0.3415E-03  0.1247E-02  0.3415E-03  0.4969E-03  0.3812E-04  0.4969E-03  0.3812E-04  0.7136E-04  0.2733E-04  0.4969E-03  0.3812E-04  0.7136E-04  0.2733E-04
      5.630  0.2729E-01  0.3944E-01  0.2115E-02  0.3165E-02  0.2115E-02  0.3165E-02  0.2115E-02  0.3165E-02  0.8431E-03  0.8351E-03  0.8431E-03  0.8351E-03  0.1211E-03  0.1313E-03  0.8431E-03  0.8351E-03  0.1211E-03  0.1313E-03
      5.816  0.1991E-01  0.4813E-02  0.2029E-02  0.3862E-03  0.2029E-02  0.3862E-03  0.2029E-02  0.3862E-03  0.1973E-03  0.1019E-03  0.1973E-03  0.1019E-03  0.1046E-02  0.1602E-04  0.1973E-03  0.1019E-03  0.1046E-02  0.1602E-04
      6.002  0.6098E-01  0.5320E-01  0.6118E-02  0.5476E-02  0.6118E-02  0.5476E-02  0.6118E-02  0.5476E-02  0.1318E-02  0.6017E-03  0.1318E-02  0.6017E-03  0.1827E-02  0.1500E-02  0.1318E-02  0.6017E-03  0.1827E-02  0.1500E-02
      6.188  0.7720E-01  0.2968E-01  0.8362E-02  0.3032E-02  0.8362E-02  0.3032E-02  0.8362E-02  0.3032E-02  0.4191E-02  0.4897E-03  0.4191E-02  0.4897E-03  0.2377E-02  0.5534E-03  0.4191E-02  0.4897E-03  0.2377E-02  0.5534E-03
      6.374  0.3599E-01  0.9187E-01  0.4268E-02  0.1050E-01  0.4268E-02  0.1050E-01  0.4268E-02  0.1050E-01  0.9329E-03  0.3063E-02  0.9329E-03  0.3063E-02  0.1993E-02  0.2142E-02  0.9329E-03  0.3063E-02  0.1993E-02  0.2142E-02
      6.560  0.4339E-01  0.2507E-01  0.5005E-02  0.3024E-02  0.5005E-02  0.3024E-02  0.5005E-02  0.3024E-02  0.4756E-02  0.4635E-03  0.4756E-02  0.4635E-03  0.1511E-02  0.9225E-03  0.4756E-02  0.4635E-03  0.1511E-02  0.9225E-03
      6.745  0.1838E-02  0.3588E-01  0.2532E-03  0.4632E-02  0.2532E-03  0.4632E-02  0.2532E-03  0.4632E-02  0.1859E-03  0.1774E-02  0.1859E-03  0.1774E-02  0.2081E-03  0.1109E-02  0.1859E-03  0.1774E-02  0.2081E-03  0.1109E-02
      6.931  0.1469E+00  0.1183E-01  0.2090E-01  0.1315E-02  0.2090E-01  0.1315E-02  0.2090E-01  0.1315E-02  0.1887E-01  0.1565E-02  0.1887E-01  0.1565E-02  0.1562E-01  0.1873E-04  0.1887E-01  0.1565E-02  0.1562E-01  0.1873E-04
      7.117  0.4961E-01  0.6710E-01  0.5250E-02  0.1054E-01  0.5250E-02  0.1054E-01  0.5250E-02  0.1054E-01  0.1753E-01  0.3697E-02  0.1753E-01  0.3697E-02  0.4605E-01  0.2109E-02  0.1753E-01  0.3697E-02  0.4605E-01  0.2109E-02
      7.303  0.9432E-01  0.9297E-01  0.1302E-01  0.1411E-01  0.1302E-01  0.1411E-01  0.1302E-01  0.1411E-01  0.3259E-01  0.8556E-02  0.3259E-01  0.8556E-02  0.9405E-01  0.7808E-02  0.3259E-01  0.8556E-02  0.9405E-01  0.7808E-02
      7.489  0.9447E-01  0.1460E-01  0.1282E-01  0.2272E-02  0.1282E-01  0.2272E-02  0.1282E-01  0.2272E-02  0.5816E-01  0.2375E-02  0.5816E-01  0.2375E-02  0.9002E-01  0.1580E-02  0.5816E-01  0.2375E-02  0.9002E-01  0.1580E-02
      7.675  0.1097E+00  0.6763E-01  0.2075E-01  0.1166E-01  0.2075E-01  0.1166E-01  0.2075E-01  0.1166E-01  0.4981E-01  0.7494E-02  0.4981E-01  0.7494E-02  0.8804E-01  0.1049E-01  0.4981E-01  0.7494E-02  0.8804E-01  0.1049E-01
      7.860  0.8282E-01  0.4040E-01  0.1648E-01  0.6753E-02  0.1648E-01  0.6753E-02  0.1648E-01  0.6753E-02  0.9509E-01  0.9826E-02  0.9509E-01  0.9826E-02  0.8646E-01  0.5353E-02  0.9509E-01  0.9826E-02  0.8646E-01  0.5353E-02
      8.046  0.5868E-01  0.8382E-01  0.1700E-01  0.1387E-01  0.1700E-01  0.1387E-01  0.1700E-01  0.1387E-01  0.1226E+00  0.2177E-01  0.1226E+00  0.2177E-01  0.1542E+00  0.3632E-01  0.1226E+00  0.2177E-01  0.1542E+00  0.3632E-01
      8.232  0.4977E-01  0.1392E+00  0.1768E-01  0.2561E-01  0.1768E-01  0.2561E-01  0.1768E-01  0.2561E-01  0.1357E+00  0.4674E-01  0.1357E+00  0.4674E-01  0.7924E-01  0.5369E-01  0.1357E+00  0.4674E-01  0.7924E-01  0.5369E-01
      8.418  0.2391E-01  0.7117E-01  0.1665E-01  0.1178E-01  0.1665E-01  0.1178E-01  0.1665E-01  0.1178E-01  0.1360E+00  0.3077E-01  0.1360E+00  0.3077E-01  0.1239E+00  0.1115E+00  0.1360E+00  0.3077E-01  0.1239E+00  0.1115E+00
      8.604  0.2686E-01  0.5979E-01  0.2339E-01  0.1119E-01  0.2339E-01  0.1119E-01  0.2339E-01  0.1119E-01  0.1513E+00  0.3774E-01  0.1513E+00  0.3774E-01  0.6983E-01  0.3964E-01  0.1513E+00  0.3774E-01  0.6983E-01  0.3964E-01
      8.790  0.1077E-01  0.5743E-01  0.1593E-01  0.1361E-01  0.1593E-01  0.1361E-01  0.1593E-01  0.1361E-01  0.1409E+00  0.4301E-01  0.1409E+00  0.4301E-01  0.6421E-01  0.5533E-01  0.1409E+00  0.4301E-01  0.6421E-01  0.5533E-01
      8.975  0.8123E-02  0.9154E-01  0.2470E-01  0.2864E-01  0.2470E-01  0.2864E-01  0.2470E-01  0.2864E-01  0.1252E+00  0.7164E-01  0.1252E+00  0.7164E-01  0.8427E-01  0.1216E+00  0.1252E+00  0.7164E-01  0.8427E-01  0.1216E+00
      9.161  0.3568E-02  0.3019E-01  0.1877E-01  0.1057E-01  0.1877E-01  0.1057E-01  0.1877E-01  0.1057E-01  0.1255E+00  0.8665E-01  0.1255E+00  0.8665E-01  0.1210E+00  0.8769E-01  0.1255E+00  0.8665E-01  0.1210E+00  0.8769E-01
      9.347  0.1659E-02  0.3641E-01  0.9510E-02  0.1683E-01  0.9510E-02  0.1683E-01  0.9510E-02  0.1683E-01  0.8998E-01  0.1230E+00  0.8998E-01  0.1230E+00  0.5482E-01  0.6248E-01  0.8998E-01  0.1230E+00  0.5482E-01  0.6248E-01
      9.533  0.1011E-01  0.2636E-01  0.2237E-01  0.2394E-01  0.2237E-01  0.2394E-01  0.2237E-01  0.2394E-01  0.1326E+00  0.8481E-01  0.1326E+00  0.8481E-01  0.1137E+00  0.1224E+00  0.1326E+00  0.8481E-01  0.1137E+00  0.1224E+00
      9.719  0.9414E-02  0.1871E-01  0.1848E-01  0.2641E-01  0.1848E-01  0.2641E-01  0.1848E-01  0.2641E-01  0.1764E+00  0.1872E+00  0.1764E+00  0.1872E+00  0.8191E-01  0.4679E-01  0.1764E+00  0.1872E+00  0.8191E-01  0.4679E-01
      9.905  0.8996E-02  0.4682E-02  0.3038E-01  0.1550E-01  0.3038E-01  0.1550E-01  0.3038E-01  0.1550E-01  0.1987E+00  0.6736E-01  0.1987E+00  0.6736E-01  0.1005E+00  0.4113E-01  0.1987E+00  0.6736E-01  0.1005E+00  0.4113E-01
     10.090  0.2116E-01  0.6518E-02  0.2386E-01  0.2118E-01  0.2386E-01  0.2118E-01  0.2386E-01  0.2118E-01  0.1790E+00  0.1393E+00  0.1790E+00  0.1393E+00  0.1021E+00  0.8210E-01  0.1790E+00  0.1393E+00  0.1021E+00  0.8210E-01