    1    1  100    2
  0.8968113E+01  0.2332054E-09  0.2332054E-09  0.2332054E-09  0.5000000E-15
  1.000000000000000E-004
  CAR 
 Co-fcc                                  
      9     60     12
 
  0.6250000E-01  0.6250000E-01  0.6250000E-01  0.3906250E-02
      1          3.332825        3.405370   1.000000   1.000000
      2         10.205788       11.706019   1.000000   1.000000
      3         10.316471       11.834426   1.000000   1.000000
      4         10.316471       11.834426   1.000000   1.000000
      5         11.739769       13.572362   1.000000   0.000000
      6         11.739769       13.572362   1.000000   0.000000
      7         37.760170       37.599397   0.000000   0.000000
      8         41.896800       42.039079   0.000000   0.000000
      9         43.637682       43.835368   0.000000   0.000000
     10         43.637682       43.835368   0.000000   0.000000
     11         48.456515       48.689448   0.000000   0.000000
     12         48.489032       48.799537   0.000000   0.000000
 
  0.1875000E+00  0.6250000E-01  0.6250000E-01  0.1171875E-01
      1          4.253583        4.335735   1.000000   1.000000
      2          9.912084       11.346559   1.000000   1.000000
      3         10.529422       12.063987   1.000000   1.000000
      4         10.533566       12.072860   1.000000   1.000000
      5         11.521467       13.317820   1.000000   0.068662
      6         11.854065       13.674900   1.000000   0.000000
      7         35.654733       35.880494   0.000000   0.000000
      8         38.356858       38.439744   0.000000   0.000000
      9         42.271278       42.439399   0.000000   0.000000
     10         44.773511       44.980309   0.000000   0.000000
     11         46.681042       46.790755   0.000000   0.000000
     12         48.491383       48.816802   0.000000   0.000000
 
  0.3125000E+00  0.6250000E-01  0.6250000E-01  0.1171875E-01
      1          6.098702        6.301736   1.000000   1.000000
      2          9.770629       10.975253   1.000000   1.000000
      3         10.459941       12.027407   1.000000   1.000000
      4         10.562297       12.159830   1.000000   1.000000
      5         11.788148       13.533379   1.000000   0.000000
      6         12.377819       14.151407   1.000000   0.000000
      7         29.392286       29.910285   0.000000   0.000000
      8         37.058238       37.107731   0.000000   0.000000
      9         41.294379       41.526063   0.000000   0.000000
     10         44.793582       45.122391   0.000000   0.000000
     11         46.078970       46.433990   0.000000   0.000000
     12         46.631435       46.789526   0.000000   0.000000
 
  0.4375000E+00  0.6250000E-01  0.6250000E-01  0.1171875E-01
      1          7.142067        7.863921   1.000000   1.000000
      2         10.150789       11.629045   1.000000   1.000000
      3         10.288271       11.833556   1.000000   1.000000
      4         11.112242       11.882850   1.000000   1.000000
      5         12.533570       14.318098   1.000000   0.000000
      6         13.338199       14.949488   0.019592   0.000000
      7         23.689869       24.485587   0.000000   0.000000
      8         36.196944       36.145386   0.000000   0.000000
      9         40.201104       40.494756   0.000000   0.000000
     10         42.600101       42.965583   0.000000   0.000000
     11         45.072238       45.425812   0.000000   0.000000
     12         46.613939       46.906329   0.000000   0.000000
 
 -0.4375000E+00  0.6250000E-01  0.6250000E-01  0.1171875E-01
      1          7.220534        8.111028   1.000000   1.000000
      2         10.021561       11.551458   1.000000   1.000000
      3         10.217117       11.803390   1.000000   1.000000
      4         11.846634       12.543534   1.000000   1.000000
      5         12.919542       14.744005   1.000000   0.000000
      6         14.064273       15.276833   0.000000   0.000000
      7         21.461052       22.461853   0.000000   0.000000
      8         36.041848       35.925107   0.000000   0.000000
      9         40.484889       40.850839   0.000000   0.000000
     10         40.641118       40.980330   0.000000   0.000000
     11         45.901809       46.212643   0.000000   0.000000
     12         45.977282       46.306215   0.000000   0.000000
 
 -0.3125000E+00  0.6250000E-01  0.6250000E-01  0.1171875E-01
      1          6.969578        7.512066   1.000000   1.000000
      2         10.197612       11.260638   1.000000   1.000000
      3         10.407912       11.809762   1.000000   1.000000
      4         10.475277       11.999120   1.000000   1.000000
      5         12.642642       14.320783   1.000000   0.000000
      6         12.677413       14.456076   1.000000   0.000000
      7         25.410294       26.100460   0.000000   0.000000
      8         36.846555       36.741584   0.000000   0.000000
      9         39.910499       40.308991   0.000000   0.000000
     10         42.703440       43.081071   0.000000   0.000000
     11         45.580022       45.862201   0.000000   0.000000
     12         47.729712       47.992592   0.000000   0.000000
 
 -0.1875000E+00  0.6250000E-01  0.6250000E-01  0.1171875E-01
      1          5.456238        5.586818   1.000000   1.000000
      2          9.699372       11.017019   1.000000   1.000000
      3         10.544710       12.120214   1.000000   1.000000
      4         10.624194       12.195900   1.000000   1.000000
      5         11.696747       13.424707   1.000000   0.000003
      6         12.057866       13.867668   1.000000   0.000000
      7         31.519066       31.957304   0.000000   0.000000
      8         38.166887       38.097190   0.000000   0.000000
      9         40.463214       40.857643   0.000000   0.000000
     10         44.836940       44.977575   0.000000   0.000000
     11         45.704512       46.070094   0.000000   0.000000
     12         49.872526       50.042108   0.000000   0.000000
 
 -0.6250000E-01  0.6250000E-01  0.6250000E-01  0.1171875E-01
      1          3.802831        3.878877   1.000000   1.000000
      2         10.008347       11.476444   1.000000   1.000000
      3         10.462723       11.989025   1.000000   1.000000
      4         10.468856       11.996166   1.000000   1.000000
      5         11.550791       13.352833   1.000000   0.006640
      6         11.828623       13.667103   1.000000   0.000000
      7         37.139166       37.153819   0.000000   0.000000
      8         39.988111       40.069884   0.000000   0.000000
      9         41.784148       42.100504   0.000000   0.000000
     10         43.317688       43.470752   0.000000   0.000000
     11         48.259784       48.518109   0.000000   0.000000
     12         49.779249       50.056109   0.000000   0.000000
 
  0.1875000E+00  0.1875000E+00  0.6250000E-01  0.1171875E-01
      1          4.686993        4.777835   1.000000   1.000000
      2          9.630544       11.044573   1.000000   1.000000
      3         10.725951       12.280123   1.000000   1.000000
      4         10.765875       12.313484   1.000000   1.000000
      5         11.291195       13.014068   1.000000   1.000000
      6         11.994311       13.843283   1.000000   0.000000
      7         36.013973       36.247773   0.000000   0.000000
      8         38.293484       38.342212   0.000000   0.000000
      9         39.395479       39.771749   0.000000   0.000000
     10         41.215549       41.389222   0.000000   0.000000
     11         48.627952       49.740544   0.000000   0.000000
     12         50.136126       50.879272   0.000000   0.000000
 
  0.3125000E+00  0.1875000E+00  0.6250000E-01  0.2343750E-01
      1          6.184909        6.356406   1.000000   1.000000
      2          9.225715       10.553362   1.000000   1.000000
      3         10.441126       12.007128   1.000000   1.000000
      4         11.117389       12.715007   1.000000   1.000000
      5         11.639724       13.277781   1.000000   0.361916
      6         12.488812       14.281044   1.000000   0.000000
      7         32.109182       32.531395   0.000000   0.000000
      8         34.804523       35.098498   0.000000   0.000000
      9         38.824883       39.060688   0.000000   0.000000
     10         41.064866       41.270324   0.000000   0.000000
     11         47.533132       48.358263   0.000000   0.000000
     12         49.812638       50.220656   0.000000   0.000000
 
  0.4375000E+00  0.1875000E+00  0.6250000E-01  0.2343750E-01
      1          7.554099        8.154434   1.000000   1.000000
      2          9.400241       10.511933   1.000000   1.000000
      3         10.037072       11.465984   1.000000   1.000000
      4         10.912713       12.534616   1.000000   1.000000
      5         12.588540       14.330743   1.000000   0.000000
      6         13.957220       15.423061   0.000000   0.000000
      7         25.912169       26.546737   0.000000   0.000000
      8         33.990784       34.255722   0.000000   0.000000
      9         36.576153       36.920729   0.000000   0.000000
     10         40.929246       41.204138   0.000000   0.000000
     11         48.125649       48.354115   0.000000   0.000000
     12         49.643056       51.394412   0.000000   0.000000
 
 -0.4375000E+00  0.1875000E+00  0.6250000E-01  0.2343750E-01
      1          7.801896        8.755437   1.000000   1.000000
      2          9.431977       10.712122   1.000000   1.000000
      3         10.592438       11.705263   1.000000   1.000000
      4         10.703069       12.316376   1.000000   1.000000
      5         12.865690       14.672001   1.000000   0.000000
      6         16.293821       17.257883   0.000000   0.000000
      7         21.595945       22.519057   0.000000   0.000000
      8         33.265034       33.524391   0.000000   0.000000
      9         35.993401       36.389662   0.000000   0.000000
     10         40.492233       40.687476   0.000000   0.000000
     11         47.276918       47.615650   0.000000   0.000000
     12         49.845710       51.314860   0.000000   0.000000
 
 -0.3125000E+00  0.1875000E+00  0.6250000E-01  0.2343750E-01
      1          7.783250        8.549866   1.000000   1.000000
      2          9.630621       10.834265   1.000000   1.000000
      3         10.120062       11.344068   1.000000   1.000000
      4         10.762340       12.385112   1.000000   1.000000
      5         12.424652       14.167650   1.000000   0.000000
      6         14.959615       16.295856   0.000000   0.000000
      7         24.140402       24.873999   0.000000   0.000000
      8         32.600425       32.933797   0.000000   0.000000
      9         37.422794       37.708894   0.000000   0.000000
     10         41.751762       41.967691   0.000000   0.000000
     11         46.556203       46.850682   0.000000   0.000000
     12         49.822861       50.674980   0.000000   0.000000
 
 -0.1875000E+00  0.1875000E+00  0.6250000E-01  0.2343750E-01
      1          6.823994        7.053113   1.000000   1.000000
      2          9.332182       10.612888   1.000000   1.000000
      3         10.197771       11.729346   1.000000   1.000000
      4         11.035254       12.674515   1.000000   1.000000
      5         11.540964       13.209548   1.000000   0.942553
      6         13.138052       14.842737   0.999840   0.000000
      7         29.990026       30.489412   0.000000   0.000000
      8         32.840775       33.197472   0.000000   0.000000
      9         39.971002       40.170333   0.000000   0.000000
     10         43.716574       43.862326   0.000000   0.000000
     11         45.904076       46.110633   0.000000   0.000000
     12         49.333002       50.023834   0.000000   0.000000
 
 -0.6250000E-01  0.1875000E+00  0.6250000E-01  0.2343750E-01
      1          5.098919        5.201792   1.000000   1.000000
      2          9.628407       11.012872   1.000000   1.000000
      3         10.590557       12.148126   1.000000   1.000000
      4         10.769885       12.331676   1.000000   1.000000
      5         11.394995       13.129299   1.000000   0.999940
      6         12.104151       13.917594   1.000000   0.000000
      7         33.867378       34.219647   0.000000   0.000000
      8         36.555173       36.744179   0.000000   0.000000
      9         41.307026       41.481768   0.000000   0.000000
     10         43.225043       43.355916   0.000000   0.000000
     11         47.610356       47.846583   0.000000   0.000000
     12         49.217845       49.635761   0.000000   0.000000
 
  0.3125000E+00  0.3125000E+00  0.6250000E-01  0.1171875E-01
      1          6.819683        7.186886   1.000000   1.000000
      2          8.663827        9.954549   1.000000   1.000000
      3         10.898639       12.252638   1.000000   1.000000
      4         11.688454       13.322708   1.000000   0.052180
      5         12.131712       13.672361   1.000000   0.000000
      6         12.464179       14.333772   1.000000   0.000000
      7         32.672259       33.041809   0.000000   0.000000
      8         34.397259       34.719348   0.000000   0.000000
      9         34.698541       35.063111   0.000000   0.000000
     10         37.596174       37.908697   0.000000   0.000000
     11         44.027805       44.715989   0.000000   0.000000
     12         50.360546       53.718472   0.000000   0.000000
 
  0.4375000E+00  0.3125000E+00  0.6250000E-01  0.2343750E-01
      1          7.488076        8.253343   1.000000   1.000000
      2          8.397394        9.628682   1.000000   1.000000
      3         10.805365       12.027046   1.000000   1.000000
      4         12.028310       13.725554   1.000000   0.000000
      5         12.655784       14.410338   1.000000   0.000000
      6         14.251107       15.571272   0.000000   0.000000
      7         28.979588       29.440156   0.000000   0.000000
      8         31.026811       31.467275   0.000000   0.000000
      9         32.464412       32.865710   0.000000   0.000000
     10         39.026486       39.334822   0.000000   0.000000
     11         44.867117       45.446031   0.000000   0.000000
     12         50.315758       53.465177   0.000000   0.000000
 
 -0.4375000E+00  0.3125000E+00  0.6250000E-01  0.2343750E-01
      1          7.999356        9.092307   1.000000   1.000000
      2          8.592733        9.725562   1.000000   1.000000
      3         10.387700       11.584959   1.000000   1.000000
      4         11.652538       13.372691   1.000000   0.001191
      5         12.947631       14.739579   1.000000   0.000000
      6         17.873941       18.774849   0.000000   0.000000
      7         23.473995       24.114209   0.000000   0.000000
      8         28.846737       29.396987   0.000000   0.000000
      9         32.559337       32.943036   0.000000   0.000000
     10         39.567785       39.844240   0.000000   0.000000
     11         49.109531       50.122137   0.000000   0.000000
     12         50.525137       52.415225   0.000000   0.000000
 
 -0.3125000E+00  0.3125000E+00  0.6250000E-01  0.2343750E-01
      1          8.647405        9.689396   1.000000   1.000000
      2          8.822123        9.984009   1.000000   1.000000
      3          9.777018       10.971657   1.000000   1.000000
      4         11.387383       13.113186   1.000000   0.999992
      5         12.510078       14.229131   1.000000   0.000000
      6         18.272687       19.215505   0.000000   0.000000
      7         23.313486       24.005601   0.000000   0.000000
      8         27.463840       28.037428   0.000000   0.000000
      9         34.465212       34.850735   0.000000   0.000000
     10         40.441683       40.663498   0.000000   0.000000
     11         49.569960       49.922949   0.000000   0.000000
     12         49.978252       53.178843   0.000000   0.000000
 
 -0.1875000E+00  0.3125000E+00  0.6250000E-01  0.2343750E-01
      1          8.207742        8.792613   1.000000   1.000000
      2          9.361912       10.534514   1.000000   1.000000
      3          9.557296       10.982887   1.000000   1.000000
      4         11.147544       12.830099   1.000000   1.000000
      5         12.003360       13.680443   1.000000   0.000000
      6         15.135215       16.527248   0.000000   0.000000
      7         26.465170       27.083903   0.000000   0.000000
      8         29.673841       30.134773   0.000000   0.000000
      9         37.173776       37.473622   0.000000   0.000000
     10         42.395235       42.617465   0.000000   0.000000
     11         46.739707       46.876629   0.000000   0.000000
     12         49.698629       52.260357   0.000000   0.000000
 
 -0.6250000E-01  0.3125000E+00  0.6250000E-01  0.2343750E-01
      1          6.871790        7.224802   1.000000   1.000000
      2          9.718822       10.822732   1.000000   1.000000
      3         10.225439       11.782722   1.000000   1.000000
      4         10.651944       12.257722   1.000000   1.000000
      5         12.092362       13.796136   1.000000   0.000000
      6         12.957367       14.667915   1.000000   0.000000
      7         27.527583       28.114905   0.000000   0.000000
      8         35.547182       35.720540   0.000000   0.000000
      9         39.550078       39.775449   0.000000   0.000000
     10         42.934118       43.251972   0.000000   0.000000
     11         46.606749       46.871329   0.000000   0.000000
     12         48.351013       48.594257   0.000000   0.000000
 
  0.4375000E+00  0.4375000E+00  0.6250000E-01  0.1171875E-01
      1          7.103967        8.080790   1.000000   1.000000
      2          7.908710        9.115682   1.000000   1.000000
      3         12.446265       13.754446   1.000000   0.000000
      4         12.566376       14.391471   1.000000   0.000000
      5         12.981086       14.798673   1.000000   0.000000
      6         14.850890       15.666435   0.000000   0.000000
      7         27.673310       28.343148   0.000000   0.000000
      8         30.159924       30.490374   0.000000   0.000000
      9         31.368372       31.638693   0.000000   0.000000
     10         36.823253       37.266390   0.000000   0.000000
     11         42.249357       42.812000   0.000000   0.000000
     12         50.391897       53.800275   0.000000   0.000000
 
 -0.4375000E+00  0.4375000E+00  0.6250000E-01  0.2343750E-01
      1          7.250037        8.329700   1.000000   1.000000
      2          7.949986        9.135463   1.000000   1.000000
      3         11.880787       13.177448   1.000000   0.993513
      4         12.498756       14.360183   1.000000   0.000000
      5         13.161121       14.935849   0.998392   0.000000
      6         17.734308       18.346471   0.000000   0.000000
      7         25.401364       26.218012   0.000000   0.000000
      8         27.568537       27.978601   0.000000   0.000000
      9         30.190274       30.501186   0.000000   0.000000
     10         38.408900       38.780224   0.000000   0.000000
     11         44.130172       44.689050   0.000000   0.000000
     12         50.435901       53.797104   0.000000   0.000000
 
 -0.3125000E+00  0.4375000E+00  0.6250000E-01  0.2343750E-01
      1          7.902420        9.062993   1.000000   1.000000
      2          8.476744        9.602198   1.000000   1.000000
      3         10.605004       11.807831   1.000000   1.000000
      4         11.900574       13.684130   1.000000   0.000000
      5         12.924207       14.680281   1.000000   0.000000
      6         20.125517       20.827908   0.000000   0.000000
      7         22.626229       23.261384   0.000000   0.000000
      8         26.331814       27.022732   0.000000   0.000000
      9         31.992604       32.368711   0.000000   0.000000
     10         39.413414       39.707227   0.000000   0.000000
     11         49.011012       50.303706   0.000000   0.000000
     12         51.219898       53.353190   0.000000   0.000000
 
 -0.1875000E+00  0.4375000E+00  0.6250000E-01  0.2343750E-01
      1          8.259176        9.276910   1.000000   1.000000
      2          9.028367       10.221550   1.000000   1.000000
      3         10.170304       11.343704   1.000000   1.000000
      4         11.057672       12.728565   1.000000   1.000000
      5         12.725500       14.498535   1.000000   0.000000
      6         17.762196       18.657665   0.000000   0.000000
      7         21.795036       22.648083   0.000000   0.000000
      8         30.311599       30.757876   0.000000   0.000000
      9         34.888521       35.266535   0.000000   0.000000
     10         40.408903       40.609091   0.000000   0.000000
     11         48.519512       48.850052   0.000000   0.000000
     12         49.937086       53.182430   0.000000   0.000000
 
 -0.6250000E-01  0.4375000E+00  0.6250000E-01  0.2343750E-01
      1          7.417980        8.275534   1.000000   1.000000
      2          9.860340       11.270158   1.000000   1.000000
      3         10.404357       11.907692   1.000000   1.000000
      4         11.012002       12.020813   1.000000   1.000000
      5         12.788765       14.585259   1.000000   0.000000
      6         14.563751       15.804224   0.000000   0.000000
      7         22.383065       23.266181   0.000000   0.000000
      8         35.102981       35.177731   0.000000   0.000000
      9         38.364534       38.713686   0.000000   0.000000
     10         41.018177       41.292108   0.000000   0.000000
     11         46.219494       46.562443   0.000000   0.000000
     12         48.407797       48.662893   0.000000   0.000000
 
 -0.4375000E+00 -0.4375000E+00  0.6250000E-01  0.1171875E-01
      1          6.981707        8.038129   1.000000   1.000000
      2          7.739370        8.928809   1.000000   1.000000
      3         12.737429       14.335105   1.000000   0.000000
      4         12.839777       14.644147   1.000000   0.000000
      5         13.178589       14.959005   0.992901   0.000000
      6         16.462498       16.874473   0.000000   0.000000
      7         25.416447       26.283285   0.000000   0.000000
      8         29.432443       29.719798   0.000000   0.000000
      9         30.610484       30.845421   0.000000   0.000000
     10         36.718505       37.189751   0.000000   0.000000
     11         42.042750       42.597459   0.000000   0.000000
     12         50.499281       53.911062   0.000000   0.000000
 
 -0.3125000E+00 -0.4375000E+00  0.6250000E-01  0.2343750E-01
      1          7.385778        8.389041   1.000000   1.000000
      2          8.104306        9.305456   1.000000   1.000000
      3         11.444309       12.673527   1.000000   1.000000
      4         12.384011       14.169281   1.000000   0.000000
      5         12.962607       14.744331   1.000000   0.000000
      6         16.026696       16.951966   0.000000   0.000000
      7         27.444953       27.999700   0.000000   0.000000
      8         28.527574       29.040776   0.000000   0.000000
      9         30.887345       31.227624   0.000000   0.000000
     10         38.599969       38.948789   0.000000   0.000000
     11         44.336550       44.895036   0.000000   0.000000
     12         50.407880       53.729686   0.000000   0.000000
 
 -0.1875000E+00 -0.4375000E+00  0.6250000E-01  0.2343750E-01
      1          7.945729        8.833885   1.000000   1.000000
      2          8.924843       10.075365   1.000000   1.000000
      3         10.128955       11.387601   1.000000   1.000000
      4         11.279439       12.939211   1.000000   1.000000
      5         12.871480       14.671273   1.000000   0.000000
      6         15.659105       16.809642   0.000000   0.000000
      7         24.550403       25.201220   0.000000   0.000000
      8         31.882003       32.264327   0.000000   0.000000
      9         33.870111       34.277656   0.000000   0.000000
     10         39.985563       40.244233   0.000000   0.000000
     11         49.207356       49.480447   0.000000   0.000000
     12         49.564486       51.978004   0.000000   0.000000
 
 -0.3125000E+00 -0.3125000E+00  0.6250000E-01  0.1171875E-01
      1          7.183800        7.925250   1.000000   1.000000
      2          8.229362        9.470737   1.000000   1.000000
      3         11.674060       12.795835   1.000000   1.000000
      4         12.191012       13.904143   1.000000   0.000000
      5         12.720880       14.513945   1.000000   0.000000
      6         13.181308       14.582177   0.991233   0.000000
      7         30.572708       31.018746   0.000000   0.000000
      8         31.676261       32.087768   0.000000   0.000000
      9         32.781676       33.102482   0.000000   0.000000
     10         37.071702       37.459131   0.000000   0.000000
     11         42.818592       43.416063   0.000000   0.000000
     12         50.361444       53.754863   0.000000   0.000000
 
 -0.1875000E+00 -0.3125000E+00  0.6250000E-01  0.2343750E-01
      1          7.141992        7.529036   1.000000   1.000000
      2          8.791683       10.065591   1.000000   1.000000
      3         10.371319       11.794953   1.000000   1.000000
      4         11.555006       13.193417   1.000000   0.978965
      5         12.191579       13.839790   1.000000   0.000000
      6         13.086000       14.752415   1.000000   0.000000
      7         30.463836       30.919760   0.000000   0.000000
      8         33.052906       33.408825   0.000000   0.000000
      9         35.487355       35.836679   0.000000   0.000000
     10         39.788249       40.048008   0.000000   0.000000
     11         45.901798       46.553465   0.000000   0.000000
     12         50.184649       52.372290   0.000000   0.000000
 
 -0.1875000E+00 -0.1875000E+00  0.6250000E-01  0.1171875E-01
      1          5.825383        5.977027   1.000000   1.000000
      2          9.155112       10.506009   1.000000   1.000000
      3         10.749569       12.331119   1.000000   1.000000
      4         11.186573       12.768315   1.000000   1.000000
      5         11.475511       13.060859   1.000000   1.000000
      6         12.214901       14.076095   1.000000   0.000000
      7         34.446985       34.791202   0.000000   0.000000
      8         36.790756       36.927128   0.000000   0.000000
      9         36.958392       37.345373   0.000000   0.000000
     10         38.918231       39.159884   0.000000   0.000000
     11         46.121059       46.982279   0.000000   0.000000
     12         50.332809       53.000290   0.000000   0.000000
 
  0.1875000E+00  0.1875000E+00  0.1875000E+00  0.3906250E-02
      1          4.674570        4.769080   1.000000   1.000000
      2          9.874458       11.258605   1.000000   1.000000
      3         10.541150       12.093812   1.000000   1.000000
      4         10.541150       12.093812   1.000000   1.000000
      5         11.730819       13.529455   1.000000   0.000000
      6         11.730819       13.529455   1.000000   0.000000
      7         33.554759       33.907506   0.000000   0.000000
      8         39.062146       38.921279   0.000000   0.000000
      9         42.911302       43.251551   0.000000   0.000000
     10         42.911302       43.251551   0.000000   0.000000
     11         48.303475       48.339014   0.000000   0.000000
     12         48.952753       49.162246   0.000000   0.000000
 
  0.3125000E+00  0.1875000E+00  0.1875000E+00  0.1171875E-01
      1          5.861644        5.999784   1.000000   1.000000
      2          9.543073       10.877597   1.000000   1.000000
      3         10.466954       12.009699   1.000000   1.000000
      4         10.855140       12.453169   1.000000   1.000000
      5         11.329880       13.059568   1.000000   1.000000
      6         12.519156       14.286137   1.000000   0.000000
      7         31.827427       32.261551   0.000000   0.000000
      8         34.600987       34.883691   0.000000   0.000000
      9         42.570487       42.646907   0.000000   0.000000
     10         44.648385       44.702257   0.000000   0.000000
     11         45.214487       45.451870   0.000000   0.000000
     12         48.120500       48.523014   0.000000   0.000000
 
  0.4375000E+00  0.1875000E+00  0.1875000E+00  0.1171875E-01
      1          7.570135        7.932197   1.000000   1.000000
      2          9.406412       10.625678   1.000000   1.000000
      3          9.956699       11.430274   1.000000   1.000000
      4         10.945964       12.631447   1.000000   1.000000
      5         11.643388       13.305544   1.000000   0.127436
      6         13.986290       15.582063   0.000000   0.000000
      7         28.112651       28.682285   0.000000   0.000000
      8         31.112949       31.526486   0.000000   0.000000
      9         40.515837       40.600941   0.000000   0.000000
     10         41.894968       42.283736   0.000000   0.000000
     11         46.694764       46.723847   0.000000   0.000000
     12         49.455760       49.761181   0.000000   0.000000
 
 -0.4375000E+00  0.1875000E+00  0.1875000E+00  0.1171875E-01
      1          8.006521        8.913300   1.000000   1.000000
      2          9.420246       10.686985   1.000000   1.000000
      3         10.294261       11.403317   1.000000   1.000000
      4         10.786124       12.436061   1.000000   1.000000
      5         12.509585       14.268218   1.000000   0.000000
      6         16.225640       17.338810   0.000000   0.000000
      7         22.726314       23.542296   0.000000   0.000000
      8         31.320590       31.713997   0.000000   0.000000
      9         38.479035       38.877021   0.000000   0.000000
     10         38.823706       38.957255   0.000000   0.000000