       N       E                     dE             d eps       ncg     rms          rms(c)
DAV:   1     0.235990947463E+02    0.23599E+02   -0.35817E+03  3000   0.836E+02
DAV:   2    -0.655491217229E+01   -0.30154E+02   -0.28123E+02  3072   0.143E+02
DAV:   3    -0.725258209145E+01   -0.69767E+00   -0.69500E+00  3436   0.248E+01
DAV:   4    -0.725740665066E+01   -0.48246E-02   -0.48234E-02  3528   0.187E+00
DAV:   5    -0.725748556772E+01   -0.78917E-04   -0.78915E-04  3820   0.217E-01    0.146E+01
DAV:   6    -0.677362275198E+01    0.48386E+00   -0.74182E+00  3748   0.374E+01    0.367E+00
DAV:   7    -0.672459708473E+01    0.49026E-01   -0.44772E-01  3444   0.817E+00    0.257E+00
DAV:   8    -0.670502152444E+01    0.19576E-01   -0.23315E-02  4208   0.122E+00    0.947E-01
DAV:   9    -0.670395815843E+01    0.10634E-02   -0.92668E-04  4088   0.278E-01    0.230E-01
DAV:  10    -0.670391292013E+01    0.45238E-04   -0.77292E-05  3724   0.125E-01    0.461E-02
DAV:  11    -0.670392667726E+01   -0.13757E-04   -0.45205E-05  3724   0.710E-02    0.261E-02
DAV:  12    -0.670392241752E+01    0.42597E-05   -0.23036E-06  2812   0.151E-02    0.148E-02
DAV:  13    -0.670392211965E+01    0.29787E-06   -0.60472E-07  2168   0.735E-03
   1 F= -.67039221E+01 E0= -.67035018E+01  d E =-.670392E+01  mag=     1.5468
