PROCAR lm decomposed
# of k-points:   60         # of bands:   12         # of ions:    1

 k-point     1 :    0.06250000 0.06250000 0.06250000     weight = 0.00390625

band     1 # energy    3.33282511 # occ.  1.00000000
 
ion      s     py     pz     px    dxy    dyz    dz2    dxz  x2-y2    tot
    1  0.894  0.005  0.005  0.005  0.000  0.000  0.000  0.000  0.000  0.909
 
band     2 # energy   10.20578794 # occ.  1.00000000
 
ion      s     py     pz     px    dxy    dyz    dz2    dxz  x2-y2    tot
    1  0.000  0.001  0.001  0.001  0.330  0.330  0.000  0.330  0.000  0.991
 
band     3 # energy   10.31647122 # occ.  1.00000000
 
ion      s     py     pz     px    dxy    dyz    dz2    dxz  x2-y2    tot
    1  0.000  0.000  0.000  0.000  0.263  0.585  0.000  0.143  0.001  0.992
 
band     4 # energy   10.31647122 # occ.  1.00000000
 
ion      s     py     pz     px    dxy    dyz    dz2    dxz  x2-y2    tot
    1  0.000  0.000  0.000  0.000  0.398  0.076  0.001  0.517  0.000  0.992
 
band     5 # energy   11.73976887 # occ.  1.00000000
 
ion      s     py     pz     px    dxy    dyz    dz2    dxz  x2-y2    tot
    1  0.000  0.000  0.000  0.000  0.000  0.000  0.340  0.001  0.650  0.991
 
band     6 # energy   11.73976887 # occ.  1.00000000
 
ion      s     py     pz     px    dxy    dyz    dz2    dxz  x2-y2    tot
    1  0.000  0.000  0.000  0.000  0.001  0.001  0.650  0.000  0.340  0.991
 
band     7 # energy   37.76017026 # occ.  0.00000000
 
ion      s     py     pz     px    dxy    dyz    dz2    dxz  x2-y2    tot
    1  0.000  0.002  0.002  0.002  0.043  0.043  0.000  0.043  0.000  0.137
 
band     8 # energy   41.89680004 # occ.  0.00000000
 
ion      s     py     pz     px    dxy    dyz    dz2    dxz  x2-y2    tot
    1  0.026  0.072  0.072  0.072  0.050  0.050  0.000  0.050  0.000  0.393
 
band     9 # energy   43.63768211 # occ.  0.00000000
 
ion      s     py     pz     px    dxy    dyz    dz2    dxz  x2-y2    tot
    1  0.000  0.039  0.054  0.147  0.029  0.079  0.009  0.021  0.018  0.396
 
band    10 # energy   43.63768211 # occ.  0.00000000
 
ion      s     py     pz     px    dxy    dyz    dz2    dxz  x2-y2    tot
    1  0.000  0.121  0.106  0.013  0.057  0.007  0.018  0.065  0.009  0.396
 
band    11 # energy   48.45651472 # occ.  0.00000000
 
ion      s     py     pz     px    dxy    dyz    dz2    dxz  x2-y2    tot
    1  0.000  0.000  0.000  0.000  0.407  0.920  0.003  0.235  0.004  1.570
 
band    12 # energy   48.48903176 # occ.  0.00000000
 
ion      s     py     pz     px    dxy    dyz    dz2    dxz  x2-y2    tot
    1  0.362  0.009  0.009  0.009  0.357  0.236  0.000  0.403  0.000  1.386
 

 k-point     2 :    0.18750000 0.06250000 0.06250000     weight = 0.01171875

band     1 # energy    4.25358320 # occ.  1.00000000
 
ion      s     py     pz     px    dxy    dyz    dz2    dxz  x2-y2    tot
    1  0.814  0.041  0.041  0.004  0.001  0.006  0.000  0.001  0.001  0.911
 
band     2 # energy    9.91208359 # occ.  1.00000000
 
ion      s     py     pz     px    dxy    dyz    dz2    dxz  x2-y2    tot
    1  0.001  0.002  0.002  0.010  0.468  0.035  0.000  0.468  0.000  0.985
 
band     3 # energy   10.52942213 # occ.  1.00000000
 
ion      s     py     pz     px    dxy    dyz    dz2    dxz  x2-y2    tot
    1  0.001  0.004  0.004  0.000  0.017  0.861  0.021  0.017  0.064  0.989
 
band     4 # energy   10.53356565 # occ.  1.00000000
 
ion      s     py     pz     px    dxy    dyz    dz2    dxz  x2-y2    tot
    1  0.000  0.000  0.000  0.000  0.484  0.000  0.016  0.484  0.005  0.989
 
band     5 # energy   11.52146722 # occ.  1.00000000
 
ion      s     py     pz     px    dxy    dyz    dz2    dxz  x2-y2    tot
    1  0.000  0.000  0.000  0.000  0.010  0.000  0.724  0.010  0.241  0.986
 
band     6 # energy   11.85406504 # occ.  1.00000000
 
ion      s     py     pz     px    dxy    dyz    dz2    dxz  x2-y2    tot
    1  0.002  0.001  0.001  0.000  0.002  0.080  0.226  0.002  0.677  0.989
 
band     7 # energy   35.65473263 # occ.  0.00000000
 
ion      s     py     pz     px    dxy    dyz    dz2    dxz  x2-y2    tot
    1  0.021  0.034  0.034  0.099  0.232  0.094  0.001  0.232  0.002  0.748
 
band     8 # energy   38.35685788 # occ.  0.00000000
 
ion      s     py     pz     px    dxy    dyz    dz2    dxz  x2-y2    tot
    1  0.044  0.065  0.065  0.008  0.044  0.147  0.009  0.044  0.027  0.455
 
band     9 # energy   42.27127793 # occ.  0.00000000
 
ion      s     py     pz     px    dxy    dyz    dz2    dxz  x2-y2    tot
    1  0.000  0.009  0.009  0.232  0.040  0.097  0.003  0.040  0.010  0.442
 
band    10 # energy   44.77351150 # occ.  0.00000000
 
ion      s     py     pz     px    dxy    dyz    dz2    dxz  x2-y2    tot
    1  0.000  0.074  0.074  0.000  0.076  0.000  0.206  0.076  0.069  0.574
 
band    11 # energy   46.68104210 # occ.  0.00000000
 
ion      s     py     pz     px    dxy    dyz    dz2    dxz  x2-y2    tot
    1  0.001  0.073  0.073  0.008  0.000  0.462  0.011  0.000  0.033  0.662
 
band    12 # energy   48.49138272 # occ.  0.00000000
 
ion      s     py     pz     px    dxy    dyz    dz2    dxz  x2-y2    tot
    1  0.000  0.007  0.007  0.000  0.669  0.000  0.069  0.669  0.023  1.444
 

 k-point     3 :    0.31250000 0.06250000 0.06250000     weight = 0.01171875

band     1 # energy    6.09870235 # occ.  1.00000000
 
ion      s     py     pz     px    dxy    dyz    dz2    dxz  x2-y2    tot
    1  0.595  0.076  0.076  0.021  0.042  0.070  0.001  0.042  0.003  0.927
 
band     2 # energy    9.77062881 # occ.  1.00000000
 
ion      s     py     pz     px    dxy    dyz    dz2    dxz  x2-y2    tot
    1  0.034  0.035  0.035  0.049  0.377  0.056  0.001  0.377  0.002  0.966
 
band     3 # energy   10.45994149 # occ.  1.00000000
 
ion      s     py     pz     px    dxy    dyz    dz2    dxz  x2-y2    tot
    1  0.000  0.005  0.005  0.000  0.036  0.487  0.103  0.036  0.310  0.983
 
band     4 # energy   10.56229681 # occ.  1.00000000
 
ion      s     py     pz     px    dxy    dyz    dz2    dxz  x2-y2    tot
    1  0.000  0.000  0.000  0.000  0.279  0.000  0.319  0.279  0.106  0.985
 
band     5 # energy   11.78814818 # occ.  1.00000000
 
ion      s     py     pz     px    dxy    dyz    dz2    dxz  x2-y2    tot
    1  0.000  0.001  0.001  0.000  0.213  0.000  0.416  0.213  0.139  0.983
 
band     6 # energy   12.37781906 # occ.  1.00000000
 
ion      s     py     pz     px    dxy    dyz    dz2    dxz  x2-y2    tot
    1  0.011  0.007  0.007  0.000  0.017  0.361  0.141  0.017  0.423  0.987
 
band     7 # energy   29.39228580 # occ.  0.00000000
 
ion      s     py     pz     px    dxy    dyz    dz2    dxz  x2-y2    tot
    1  0.124  0.078  0.078  0.137  0.186  0.150  0.001  0.186  0.004  0.944
 
band     8 # energy   37.05823752 # occ.  0.00000000
 
ion      s     py     pz     px    dxy    dyz    dz2    dxz  x2-y2    tot
    1  0.023  0.012  0.012  0.073  0.120  0.043  0.019  0.120  0.056  0.479
 
band     9 # energy   41.29437942 # occ.  0.00000000
 
ion      s     py     pz     px    dxy    dyz    dz2    dxz  x2-y2    tot
    1  0.003  0.076  0.076  0.160  0.021  0.237  0.006  0.021  0.019  0.620
 
band    10 # energy   44.79358212 # occ.  0.00000000
 
ion      s     py     pz     px    dxy    dyz    dz2    dxz  x2-y2    tot
    1  0.000  0.064  0.064  0.000  0.279  0.000  0.313  0.279  0.104  1.104
 
band    11 # energy   46.07897049 # occ.  0.00000000
 
ion      s     py     pz     px    dxy    dyz    dz2    dxz  x2-y2    tot
    1  0.000  0.144  0.144  0.000  0.060  0.000  0.387  0.060  0.129  0.922
 
band    12 # energy   46.63143492 # occ.  0.00000000
 
ion      s     py     pz     px    dxy    dyz    dz2    dxz  x2-y2    tot
    1  0.187  0.058  0.058  0.011  0.010  0.005  0.073  0.010  0.219  0.630
 

 k-point     4 :    0.43750000 0.06250000 0.06250000     weight = 0.01171875

band     1 # energy    7.14206659 # occ.  1.00000000
 
ion      s     py     pz     px    dxy    dyz    dz2    dxz  x2-y2    tot
    1  0.270  0.024  0.024  0.001  0.212  0.226  0.000  0.212  0.001  0.971
 
band     2 # energy   10.15078922 # occ.  1.00000000
 
ion      s     py     pz     px    dxy    dyz    dz2    dxz  x2-y2    tot
    1  0.000  0.004  0.004  0.000  0.045  0.294  0.147  0.045  0.440  0.980
 
band     3 # energy   10.28827060 # occ.  1.00000000
 
ion      s     py     pz     px    dxy    dyz    dz2    dxz  x2-y2    tot
    1  0.000  0.000  0.000  0.000  0.191  0.000  0.450  0.191  0.150  0.983
 
band     4 # energy   11.11224168 # occ.  1.00000000
 
ion      s     py     pz     px    dxy    dyz    dz2    dxz  x2-y2    tot
    1  0.072  0.142  0.142  0.142  0.173  0.021  0.015  0.173  0.045  0.927
 
band     5 # energy   12.53357043 # occ.  1.00000000
 
ion      s     py     pz     px    dxy    dyz    dz2    dxz  x2-y2    tot
    1  0.000  0.001  0.001  0.000  0.303  0.000  0.285  0.303  0.095  0.988
 
band     6 # energy   13.33819937 # occ.  0.01959245
 
ion      s     py     pz     px    dxy    dyz    dz2    dxz  x2-y2    tot
    1  0.040  0.056  0.056  0.033  0.015  0.420  0.084  0.015  0.253  0.974
 
band     7 # energy   23.68986888 # occ.  0.00000000
 
ion      s     py     pz     px    dxy    dyz    dz2    dxz  x2-y2    tot
    1  0.310  0.045  0.045  0.103  0.173  0.143  0.001  0.173  0.003  0.996
 
band     8 # energy   36.19694408 # occ.  0.00000000
 
ion      s     py     pz     px    dxy    dyz    dz2    dxz  x2-y2    tot
    1  0.007  0.000  0.000  0.070  0.055  0.027  0.025  0.055  0.076  0.316
 
band     9 # energy   40.20110443 # occ.  0.00000000
 
ion      s     py     pz     px    dxy    dyz    dz2    dxz  x2-y2    tot
    1  0.021  0.105  0.105  0.224  0.036  0.067  0.013  0.036  0.040  0.649
 
band    10 # energy   42.60010133 # occ.  0.00000000
 
ion      s     py     pz     px    dxy    dyz    dz2    dxz  x2-y2    tot
    1  0.000  0.232  0.232  0.000  0.001  0.000  0.225  0.001  0.075  0.765
 
band    11 # energy   45.07223826 # occ.  0.00000000
 
ion      s     py     pz     px    dxy    dyz    dz2    dxz  x2-y2    tot
    1  0.000  0.037  0.037  0.000  0.272  0.000  0.512  0.272  0.171  1.300
 
band    12 # energy   46.61393939 # occ.  0.00000000
 
ion      s     py     pz     px    dxy    dyz    dz2    dxz  x2-y2    tot
    1  0.167  0.017  0.017  0.012  0.000  0.243  0.169  0.000  0.507  1.132
 

 k-point     5 :   -0.43750000 0.06250000 0.06250000     weight = 0.01171875

band     1 # energy    7.22053402 # occ.  1.00000000
 
ion      s     py     pz     px    dxy    dyz    dz2    dxz  x2-y2    tot
    1  0.201  0.000  0.000  0.009  0.249  0.273  0.000  0.249  0.000  0.982
 
band     2 # energy   10.02156091 # occ.  1.00000000
 
ion      s     py     pz     px    dxy    dyz    dz2    dxz  x2-y2    tot
    1  0.000  0.004  0.004  0.001  0.064  0.203  0.159  0.064  0.478  0.978
 
band     3 # energy   10.21711721 # occ.  1.00000000
 
ion      s     py     pz     px    dxy    dyz    dz2    dxz  x2-y2    tot
    1  0.000  0.001  0.001  0.000  0.189  0.000  0.454  0.189  0.151  0.983
 
band     4 # energy   11.84663399 # occ.  1.00000000
 
ion      s     py     pz     px    dxy    dyz    dz2    dxz  x2-y2    tot
    1  0.004  0.124  0.124  0.123  0.053  0.316  0.035  0.053  0.106  0.940
 
band     5 # energy   12.91954212 # occ.  1.00000000
 
ion      s     py     pz     px    dxy    dyz    dz2    dxz  x2-y2    tot
    1  0.000  0.000  0.000  0.000  0.307  0.000  0.284  0.307  0.095  0.993
 
band     6 # energy   14.06427350 # occ.  0.00000000
 
ion      s     py     pz     px    dxy    dyz    dz2    dxz  x2-y2    tot
    1  0.006  0.150  0.150  0.170  0.062  0.126  0.052  0.062  0.155  0.933
 
band     7 # energy   21.46105186 # occ.  0.00000000
 
ion      s     py     pz     px    dxy    dyz    dz2    dxz  x2-y2    tot
    1  0.461  0.012  0.012  0.000  0.174  0.188  0.000  0.174  0.000  1.022
 
band     8 # energy   36.04184782 # occ.  0.00000000
 
ion      s     py     pz     px    dxy    dyz    dz2    dxz  x2-y2    tot
    1  0.000  0.005  0.005  0.034  0.008  0.046  0.025  0.008  0.075  0.205
 
band     9 # energy   40.48488854 # occ.  0.00000000
 
ion      s     py     pz     px    dxy    dyz    dz2    dxz  x2-y2    tot
    1  0.000  0.241  0.241  0.000  0.050  0.000  0.166  0.050  0.055  0.803
 
band    10 # energy   40.64111849 # occ.  0.00000000
 
ion      s     py     pz     px    dxy    dyz    dz2    dxz  x2-y2    tot
    1  0.041  0.084  0.084  0.311  0.020  0.001  0.030  0.020  0.089  0.680
 
band    11 # energy   45.90180888 # occ.  0.00000000
 
ion      s     py     pz     px    dxy    dyz    dz2    dxz  x2-y2    tot
    1  0.031  0.004  0.004  0.029  0.036  0.356  0.188  0.036  0.564  1.250
 
band    12 # energy   45.97728154 # occ.  0.00000000
 
ion      s     py     pz     px    dxy    dyz    dz2    dxz  x2-y2    tot
    1  0.000  0.050  0.050  0.000  0.181  0.000  0.551  0.181  0.184  1.196
 

 k-point     6 :   -0.31250000 0.06250000 0.06250000     weight = 0.01171875

band     1 # energy    6.96957753 # occ.  1.00000000
 
ion      s     py     pz     px    dxy    dyz    dz2    dxz  x2-y2    tot
    1  0.356  0.016  0.016  0.062  0.163  0.173  0.002  0.163  0.005  0.958
 
band     2 # energy   10.19761227 # occ.  1.00000000
 
ion      s     py     pz     px    dxy    dyz    dz2    dxz  x2-y2    tot
    1  0.003  0.012  0.012  0.009  0.120  0.075  0.155  0.120  0.466  0.973
 
band     3 # energy   10.40791244 # occ.  1.00000000
 
ion      s     py     pz     px    dxy    dyz    dz2    dxz  x2-y2    tot
    1  0.000  0.002  0.002  0.000  0.232  0.000  0.387  0.232  0.129  0.984
 
band     4 # energy   10.47527682 # occ.  1.00000000
 
ion      s     py     pz     px    dxy    dyz    dz2    dxz  x2-y2    tot
    1  0.084  0.098  0.098  0.103  0.006  0.547  0.000  0.006  0.000  0.943
 
band     5 # energy   12.64264166 # occ.  1.00000000
 
ion      s     py     pz     px    dxy    dyz    dz2    dxz  x2-y2    tot
    1  0.000  0.001  0.001  0.000  0.260  0.000  0.351  0.260  0.117  0.990
 
band     6 # energy   12.67741305 # occ.  1.00000000
 
ion      s     py     pz     px    dxy    dyz    dz2    dxz  x2-y2    tot
    1  0.033  0.019  0.019  0.045  0.177  0.153  0.088  0.177  0.264  0.977
 
band     7 # energy   25.41029435 # occ.  0.00000000
 
ion      s     py     pz     px    dxy    dyz    dz2    dxz  x2-y2    tot
    1  0.236  0.103  0.103  0.049  0.151  0.185  0.001  0.151  0.003  0.981
 
band     8 # energy   36.84655494 # occ.  0.00000000
 
ion      s     py     pz     px    dxy    dyz    dz2    dxz  x2-y2    tot
    1  0.005  0.008  0.008  0.006  0.001  0.113  0.022  0.001  0.067  0.229
 
band     9 # energy   39.91049906 # occ.  0.00000000
 
ion      s     py     pz     px    dxy    dyz    dz2    dxz  x2-y2    tot
    1  0.000  0.218  0.218  0.000  0.172  0.000  0.113  0.172  0.038  0.930
 
band    10 # energy   42.70343978 # occ.  0.00000000
 
ion      s     py     pz     px    dxy    dyz    dz2    dxz  x2-y2    tot
    1  0.063  0.036  0.036  0.352  0.000  0.109  0.045  0.000  0.136  0.779
 
band    11 # energy   45.58002151 # occ.  0.00000000
 
ion      s     py     pz     px    dxy    dyz    dz2    dxz  x2-y2    tot
    1  0.001  0.004  0.004  0.024  0.083  0.269  0.172  0.083  0.516  1.156
 
band    12 # energy   47.72971203 # occ.  0.00000000
 
ion      s     py     pz     px    dxy    dyz    dz2    dxz  x2-y2    tot
    1  0.000  0.059  0.059  0.000  0.042  0.000  0.547  0.042  0.182  0.930
 

 k-point     7 :   -0.18750000 0.06250000 0.06250000     weight = 0.01171875

band     1 # energy    5.45623764 # occ.  1.00000000
 
ion      s     py     pz     px    dxy    dyz    dz2    dxz  x2-y2    tot
    1  0.688  0.031  0.031  0.097  0.024  0.015  0.002  0.024  0.005  0.918
 
band     2 # energy    9.69937163 # occ.  1.00000000
 
ion      s     py     pz     px    dxy    dyz    dz2    dxz  x2-y2    tot
    1  0.013  0.021  0.021  0.014  0.136  0.632  0.000  0.136  0.001  0.975
 
band     3 # energy   10.54471013 # occ.  1.00000000
 
ion      s     py     pz     px    dxy    dyz    dz2    dxz  x2-y2    tot
    1  0.000  0.001  0.001  0.002  0.202  0.224  0.088  0.202  0.264  0.984
 
band     4 # energy   10.62419417 # occ.  1.00000000
 
ion      s     py     pz     px    dxy    dyz    dz2    dxz  x2-y2    tot
    1  0.000  0.003  0.003  0.000  0.365  0.000  0.188  0.365  0.063  0.987
 
band     5 # energy   11.69674652 # occ.  1.00000000
 
ion      s     py     pz     px    dxy    dyz    dz2    dxz  x2-y2    tot
    1  0.008  0.001  0.001  0.008  0.120  0.102  0.155  0.120  0.466  0.983
 
band     6 # energy   12.05786574 # occ.  1.00000000
 
ion      s     py     pz     px    dxy    dyz    dz2    dxz  x2-y2    tot
    1  0.000  0.001  0.001  0.000  0.125  0.000  0.552  0.125  0.184  0.987
 
band     7 # energy   31.51906572 # occ.  0.00000000
 
ion      s     py     pz     px    dxy    dyz    dz2    dxz  x2-y2    tot
    1  0.084  0.110  0.110  0.057  0.166  0.211  0.001  0.166  0.004  0.911
 
band     8 # energy   38.16688715 # occ.  0.00000000
 
ion      s     py     pz     px    dxy    dyz    dz2    dxz  x2-y2    tot
    1  0.023  0.001  0.001  0.005  0.002  0.186  0.016  0.002  0.047  0.282
 
band     9 # energy   40.46321393 # occ.  0.00000000
 
ion      s     py     pz     px    dxy    dyz    dz2    dxz  x2-y2    tot
    1  0.000  0.182  0.182  0.000  0.258  0.000  0.063  0.258  0.021  0.963
 
band    10 # energy   44.83694020 # occ.  0.00000000
 
ion      s     py     pz     px    dxy    dyz    dz2    dxz  x2-y2    tot
    1  0.024  0.028  0.028  0.023  0.000  0.000  0.130  0.000  0.390  0.623
 
band    11 # energy   45.70451245 # occ.  0.00000000
 
ion      s     py     pz     px    dxy    dyz    dz2    dxz  x2-y2    tot
    1  0.048  0.010  0.010  0.276  0.112  0.393  0.001  0.112  0.003  0.966
 
band    12 # energy   49.87252602 # occ.  0.00000000
 
ion      s     py     pz     px    dxy    dyz    dz2    dxz  x2-y2    tot
    1  0.001  0.036  0.036  0.000  0.037  0.000  0.371  0.037  0.124  0.643
 

 k-point     8 :   -0.06250000 0.06250000 0.06250000     weight = 0.01171875

band     1 # energy    3.80283101 # occ.  1.00000000
 
ion      s     py     pz     px    dxy    dyz    dz2    dxz  x2-y2    tot
    1  0.854  0.005  0.005  0.044  0.001  0.000  0.000  0.001  0.001  0.910
 
band     2 # energy   10.00834701 # occ.  1.00000000
 
ion      s     py     pz     px    dxy    dyz    dz2    dxz  x2-y2    tot
    1  0.000  0.002  0.002  0.000  0.059  0.866  0.000  0.059  0.000  0.988
 
band     3 # energy   10.46272283 # occ.  1.00000000
 
ion      s     py     pz     px    dxy    dyz    dz2    dxz  x2-y2    tot
    1  0.000  0.001  0.001  0.001  0.429  0.120  0.002  0.429  0.007  0.990
 
band     4 # energy   10.46885612 # occ.  1.00000000
 
ion      s     py     pz     px    dxy    dyz    dz2    dxz  x2-y2    tot
    1  0.000  0.002  0.002  0.000  0.488  0.000  0.008  0.488  0.003  0.991
 
band     5 # energy   11.55079068 # occ.  1.00000000
 
ion      s     py     pz     px    dxy    dyz    dz2    dxz  x2-y2    tot
    1  0.001  0.000  0.000  0.000  0.004  0.001  0.244  0.004  0.733  0.987
 
band     6 # energy   11.82862298 # occ.  1.00000000
 
ion      s     py     pz     px    dxy    dyz    dz2    dxz  x2-y2    tot
    1  0.000  0.000  0.000  0.000  0.006  0.000  0.735  0.006  0.245  0.991
 
band     7 # energy   37.13916609 # occ.  0.00000000
 
ion      s     py     pz     px    dxy    dyz    dz2    dxz  x2-y2    tot
    1  0.003  0.024  0.024  0.006  0.066  0.273  0.000  0.066  0.000  0.464
 
band     8 # energy   39.98811066 # occ.  0.00000000
 
ion      s     py     pz     px    dxy    dyz    dz2    dxz  x2-y2    tot
    1  0.041  0.048  0.048  0.063  0.066  0.009  0.010  0.066  0.029  0.378
 
band     9 # energy   41.78414773 # occ.  0.00000000
 
ion      s     py     pz     px    dxy    dyz    dz2    dxz  x2-y2    tot
    1  0.000  0.150  0.150  0.000  0.228  0.000  0.012  0.228  0.004  0.771
 
band    10 # energy   43.31768762 # occ.  0.00000000
 
ion      s     py     pz     px    dxy    dyz    dz2    dxz  x2-y2    tot
    1  0.007  0.079  0.079  0.030  0.051  0.010  0.032  0.051  0.095  0.433
 
band    11 # energy   48.25978356 # occ.  0.00000000
 
ion      s     py     pz     px    dxy    dyz    dz2    dxz  x2-y2    tot
    1  0.005  0.000  0.000  0.066  0.352  0.444  0.000  0.352  0.000  1.220
 
band    12 # energy   49.77924906 # occ.  0.00000000
 
ion      s     py     pz     px    dxy    dyz    dz2    dxz  x2-y2    tot
    1  5.758  0.011  0.004  0.020  0.005  0.017  0.003  0.004  0.013  5.834
 

 k-point     9 :    0.18750000 0.18750000 0.06250000     weight = 0.01171875

band     1 # energy    4.68699341 # occ.  1.00000000
 
ion      s     py     pz     px    dxy    dyz    dz2    dxz  x2-y2    tot
    1  0.771  0.004  0.113  0.004  0.000  0.002  0.015  0.002  0.000  0.911
 
band     2 # energy    9.63054381 # occ.  1.00000000
 
ion      s     py     pz     px    dxy    dyz    dz2    dxz  x2-y2    tot
    1  0.000  0.002  0.000  0.002  0.942  0.019  0.000  0.019  0.000  0.984
 
band     3 # energy   10.72595071 # occ.  1.00000000
 
ion      s     py     pz     px    dxy    dyz    dz2    dxz  x2-y2    tot
    1  0.000  0.004  0.000  0.004  0.036  0.407  0.128  0.407  0.000  0.986
 
band     4 # energy   10.76587508 # occ.  1.00000000
 
ion      s     py     pz     px    dxy    dyz    dz2    dxz  x2-y2    tot
    1  0.000  0.005  0.000  0.005  0.000  0.472  0.000  0.472  0.033  0.988
 
band     5 # energy   11.29119537 # occ.  1.00000000
 
ion      s     py     pz     px    dxy    dyz    dz2    dxz  x2-y2    tot
    1  0.011  0.001  0.006  0.001  0.005  0.060  0.838  0.060  0.000  0.982
 
band     6 # energy   11.99431103 # occ.  1.00000000
 
ion      s     py     pz     px    dxy    dyz    dz2    dxz  x2-y2    tot
    1  0.000  0.000  0.000  0.000  0.000  0.017  0.000  0.017  0.957  0.991
 
band     7 # energy   36.01397309 # occ.  0.00000000
 
ion      s     py     pz     px    dxy    dyz    dz2    dxz  x2-y2    tot
    1  0.015  0.076  0.010  0.076  0.371  0.109  0.014  0.109  0.000  0.778
 
band     8 # energy   38.29348424 # occ.  0.00000000
 
ion      s     py     pz     px    dxy    dyz    dz2    dxz  x2-y2    tot
    1  0.035  0.020  0.015  0.020  0.176  0.026  0.139  0.026  0.000  0.457
 
band     9 # energy   39.39547892 # occ.  0.00000000
 
ion      s     py     pz     px    dxy    dyz    dz2    dxz  x2-y2    tot
    1  0.000  0.192  0.000  0.192  0.000  0.250  0.000  0.250  0.011  0.894
 
band    10 # energy   41.21554892 # occ.  0.00000000
 
ion      s     py     pz     px    dxy    dyz    dz2    dxz  x2-y2    tot
    1  0.001  0.089  0.002  0.089  0.037  0.097  0.215  0.097  0.000  0.626
 
band    11 # energy   48.62795165 # occ.  0.00000000
 
ion      s     py     pz     px    dxy    dyz    dz2    dxz  x2-y2    tot
    1  2.697  0.007  0.315  0.007  0.017  0.001  0.096  0.001  0.000  3.141
 
band    12 # energy   50.13612581 # occ.  0.00000000
 
ion      s     py     pz     px    dxy    dyz    dz2    dxz  x2-y2    tot
    1  1.830  0.000  0.075  0.000  0.260  0.123  0.006  0.123  0.000  2.418
 

 k-point    10 :    0.31250000 0.18750000 0.06250000     weight = 0.02343750

band     1 # energy    6.18490915 # occ.  1.00000000
 
ion      s     py     pz     px    dxy    dyz    dz2    dxz  x2-y2    tot
    1  0.595  0.031  0.178  0.003  0.004  0.034  0.066  0.005  0.001  0.916
 
band     2 # energy    9.22571550 # occ.  1.00000000
 
ion      s     py     pz     px    dxy    dyz    dz2    dxz  x2-y2    tot
    1  0.002  0.003  0.002  0.017  0.870  0.006  0.003  0.077  0.000  0.980
 
band     3 # energy   10.44112600 # occ.  1.00000000
 
ion      s     py     pz     px    dxy    dyz    dz2    dxz  x2-y2    tot
    1  0.009  0.006  0.003  0.000  0.018  0.364  0.523  0.016  0.037  0.977
 
band     4 # energy   11.11738875 # occ.  1.00000000
 
ion      s     py     pz     px    dxy    dyz    dz2    dxz  x2-y2    tot
    1  0.002  0.003  0.002  0.007  0.046  0.118  0.046  0.588  0.172  0.984
 
band     5 # energy   11.63972363 # occ.  1.00000000
 
ion      s     py     pz     px    dxy    dyz    dz2    dxz  x2-y2    tot
    1  0.021  0.006  0.021  0.004  0.034  0.123  0.271  0.276  0.224  0.981
 
band     6 # energy   12.48881207 # occ.  1.00000000
 
ion      s     py     pz     px    dxy    dyz    dz2    dxz  x2-y2    tot
    1  0.017  0.007  0.011  0.000  0.001  0.329  0.066  0.004  0.555  0.989
 
band     7 # energy   32.10918156 # occ.  0.00000000
 
ion      s     py     pz     px    dxy    dyz    dz2    dxz  x2-y2    tot
    1  0.055  0.104  0.016  0.187  0.248  0.112  0.033  0.160  0.005  0.920
 
band     8 # energy   34.80452275 # occ.  0.00000000
 
ion      s     py     pz     px    dxy    dyz    dz2    dxz  x2-y2    tot
    1  0.033  0.113  0.004  0.124  0.171  0.130  0.100  0.097  0.023  0.797
 
band     9 # energy   38.82488346 # occ.  0.00000000
 
ion      s     py     pz     px    dxy    dyz    dz2    dxz  x2-y2    tot
    1  0.012  0.110  0.081  0.040  0.030  0.080  0.344  0.035  0.012  0.745
 
band    10 # energy   41.06486604 # occ.  0.00000000
 
ion      s     py     pz     px    dxy    dyz    dz2    dxz  x2-y2    tot
    1  0.025  0.000  0.057  0.114  0.338  0.000  0.095  0.091  0.000  0.720
 
band    11 # energy   47.53313235 # occ.  0.00000000
 
ion      s     py     pz     px    dxy    dyz    dz2    dxz  x2-y2    tot
    1  1.157  0.149  0.287  0.017  0.004  0.063  0.026  0.003  0.000  1.707
 
band    12 # energy   49.81263783 # occ.  0.00000000
 
ion      s     py     pz     px    dxy    dyz    dz2    dxz  x2-y2    tot
    1  1.997  0.051  0.001  0.000  0.036  0.015  0.190  0.012  0.123  2.425
 

 k-point    11 :    0.43750000 0.18750000 0.06250000     weight = 0.02343750

band     1 # energy    7.55409860 # occ.  1.00000000
 
ion      s     py     pz     px    dxy    dyz    dz2    dxz  x2-y2    tot
    1  0.277  0.022  0.115  0.000  0.201  0.147  0.095  0.093  0.001  0.952
 
band     2 # energy    9.40024134 # occ.  1.00000000
 
ion      s     py     pz     px    dxy    dyz    dz2    dxz  x2-y2    tot
    1  0.019  0.058  0.035  0.056  0.328  0.026  0.355  0.060  0.012  0.950
 
band     3 # energy   10.03707231 # occ.  1.00000000
 
ion      s     py     pz     px    dxy    dyz    dz2    dxz  x2-y2    tot
    1  0.037  0.001  0.035  0.011  0.319  0.291  0.235  0.007  0.042  0.978
 
band     4 # energy   10.91271302 # occ.  1.00000000
 
ion      s     py     pz     px    dxy    dyz    dz2    dxz  x2-y2    tot
    1  0.003  0.006  0.008  0.002  0.039  0.077  0.052  0.307  0.487  0.981
 
band     5 # energy   12.58853967 # occ.  1.00000000
 
ion      s     py     pz     px    dxy    dyz    dz2    dxz  x2-y2    tot
    1  0.004  0.002  0.012  0.006  0.039  0.054  0.060  0.465  0.344  0.987
 
band     6 # energy   13.95722006 # occ.  0.00000000
 
ion      s     py     pz     px    dxy    dyz    dz2    dxz  x2-y2    tot
    1  0.092  0.043  0.112  0.022  0.018  0.387  0.179  0.025  0.096  0.975
 
band     7 # energy   25.91216857 # occ.  0.00000000
 
ion      s     py     pz     px    dxy    dyz    dz2    dxz  x2-y2    tot
    1  0.192  0.109  0.016  0.188  0.208  0.103  0.021  0.128  0.005  0.968
 
band     8 # energy   33.99078427 # occ.  0.00000000
 
ion      s     py     pz     px    dxy    dyz    dz2    dxz  x2-y2    tot
    1  0.008  0.070  0.010  0.137  0.148  0.079  0.210  0.041  0.062  0.766
 
band     9 # energy   36.57615310 # occ.  0.00000000
 
ion      s     py     pz     px    dxy    dyz    dz2    dxz  x2-y2    tot
    1  0.072  0.060  0.187  0.114  0.000  0.012  0.246  0.065  0.054  0.811
 
band    10 # energy   40.92924629 # occ.  0.00000000
 
ion      s     py     pz     px    dxy    dyz    dz2    dxz  x2-y2    tot
    1  0.074  0.124  0.118  0.027  0.278  0.027  0.037  0.019  0.008  0.713
 
band    11 # energy   48.12564921 # occ.  0.00000000
 
ion      s     py     pz     px    dxy    dyz    dz2    dxz  x2-y2    tot
    1  0.165  0.089  0.001  0.001  0.231  0.018  0.182  0.053  0.251  0.991
 
band    12 # energy   49.64305629 # occ.  0.00000000
 
ion      s     py     pz     px    dxy    dyz    dz2    dxz  x2-y2    tot
    1  5.360  0.020  0.006  0.006  0.023  0.008  0.011  0.008  0.001  5.443
 

 k-point    12 :   -0.43750000 0.18750000 0.06250000     weight = 0.02343750

band     1 # energy    7.80189579 # occ.  1.00000000
 
ion      s     py     pz     px    dxy    dyz    dz2    dxz  x2-y2    tot
    1  0.146  0.000  0.033  0.013  0.357  0.245  0.011  0.173  0.000  0.980
 
band     2 # energy    9.43197727 # occ.  1.00000000
 
ion      s     py     pz     px    dxy    dyz    dz2    dxz  x2-y2    tot
    1  0.000  0.043  0.005  0.019  0.030  0.077  0.688  0.012  0.076  0.950
 
band     3 # energy   10.59243752 # occ.  1.00000000
 
ion      s     py     pz     px    dxy    dyz    dz2    dxz  x2-y2    tot
    1  0.003  0.050  0.073  0.079  0.309  0.332  0.054  0.003  0.063  0.967
 
band     4 # energy   10.70306863 # occ.  1.00000000
 
ion      s     py     pz     px    dxy    dyz    dz2    dxz  x2-y2    tot
    1  0.001  0.015  0.028  0.002  0.110  0.002  0.032  0.262  0.525  0.977
 
band     5 # energy   12.86569025 # occ.  1.00000000
 
ion      s     py     pz     px    dxy    dyz    dz2    dxz  x2-y2    tot
    1  0.000  0.000  0.000  0.000  0.037  0.169  0.031  0.462  0.290  0.991
 
band     6 # energy   16.29382060 # occ.  0.00000000
 
ion      s     py     pz     px    dxy    dyz    dz2    dxz  x2-y2    tot
    1  0.010  0.149  0.215  0.153  0.074  0.119  0.182  0.015  0.024  0.940
 
band     7 # energy   21.59594528 # occ.  0.00000000
 
ion      s     py     pz     px    dxy    dyz    dz2    dxz  x2-y2    tot
    1  0.424  0.015  0.016  0.062  0.194  0.148  0.001  0.145  0.001  1.005
 
band     8 # energy   33.26503428 # occ.  0.00000000
 
ion      s     py     pz     px    dxy    dyz    dz2    dxz  x2-y2    tot