<?xml version="1.0" encoding="ISO-8859-1"?>
<modeling>
 <generator>
  <i name="program" type="string">vasp </i>
  <i name="version" type="string">6.3.2  </i>
  <i name="subversion" type="string">27Jun22 (build Aug 12 2022 00:53:59) complex                          parallel </i>
  <i name="platform" type="string">tv2STD </i>
  <i name="date" type="string">2024 12 03 </i>
  <i name="time" type="string">01:40:48 </i>
 </generator>
 <incar>
  <i type="string" name="SYSTEM">Co-fcc</i>
  <i type="int" name="ISTART">     0</i>
  <i type="string" name="PREC">Accurate      normal | accurate</i>
  <i type="string" name="ALGO">Normal     Normal, Fast, Very_Fast</i>
  <i type="logical" name="ADDGRID"> F  </i>
  <i type="int" name="ISPIN">     2</i>
  <i type="int" name="ICHARG">     2</i>
  <i type="int" name="INIWAV">     1</i>
  <i type="int" name="NELM">   100</i>
  <i type="int" name="IBRION">     2</i>
  <i name="EDIFF">      0.00000100</i>
  <i name="EDIFFG">     -0.02000000</i>
  <i type="int" name="NSW">   100</i>
  <i type="int" name="ISIF">     2</i>
  <i type="int" name="ISYM">     1</i>
  <i name="ENCUT">    400.00000000</i>
  <v name="MAGMOM">      3.00000000</v>
  <i type="logical" name="LREAL"> F  </i>
  <i type="int" name="ISMEAR">     0</i>
  <i name="SIGMA">      0.05000000</i>
  <i type="int" name="NWRITE">     2</i>
  <i type="logical" name="LWAVE"> T  </i>
  <i type="logical" name="LCHARG"> T  </i>
  <i type="int" name="LORBIT">    11</i>
 </incar>
 <primitive_cell>
  <structure name="primitive_cell" >
   <crystal>
    <varray name="basis" >
     <v>       0.00000000       1.64901150       1.64901150 </v>
     <v>       1.64901150       0.00000000       1.64901150 </v>
     <v>       1.64901150       1.64901150       0.00000000 </v>
    </varray>
    <i name="volume">      8.96811258 </i>
    <varray name="rec_basis" >
     <v>      -0.30321195       0.30321195       0.30321195 </v>
     <v>       0.30321195      -0.30321195       0.30321195 </v>
     <v>       0.30321195       0.30321195      -0.30321195 </v>
    </varray>
   </crystal>
   <varray name="positions" >
    <v>       0.00000000       0.00000000       0.00000000 </v>
   </varray>
  </structure>
  <varray name="primitive_index" >
   <v type="int" >        1 </v>
  </varray>
 </primitive_cell>
 <kpoints>
  <generation param="Monkhorst-Pack">
   <v type="int" name="divisions">       8        8        8 </v>
   <v name="usershift">      0.00000000       0.00000000       0.00000000 </v>
   <v name="genvec1">      0.12500000       0.00000000       0.00000000 </v>
   <v name="genvec2">      0.00000000       0.12500000       0.00000000 </v>
   <v name="genvec3">      0.00000000       0.00000000       0.12500000 </v>
   <v name="shift">      0.50000000       0.50000000       0.50000000 </v>
  </generation>
  <varray name="kpointlist" >
   <v>       0.06250000       0.06250000       0.06250000 </v>
   <v>       0.18750000       0.06250000       0.06250000 </v>
   <v>       0.31250000       0.06250000       0.06250000 </v>
   <v>       0.43750000       0.06250000       0.06250000 </v>
   <v>      -0.43750000       0.06250000       0.06250000 </v>
   <v>      -0.31250000       0.06250000       0.06250000 </v>
   <v>      -0.18750000       0.06250000       0.06250000 </v>
   <v>      -0.06250000       0.06250000       0.06250000 </v>
   <v>       0.18750000       0.18750000       0.06250000 </v>
   <v>       0.31250000       0.18750000       0.06250000 </v>
   <v>       0.43750000       0.18750000       0.06250000 </v>
   <v>      -0.43750000       0.18750000       0.06250000 </v>
   <v>      -0.31250000       0.18750000       0.06250000 </v>
   <v>      -0.18750000       0.18750000       0.06250000 </v>
   <v>      -0.06250000       0.18750000       0.06250000 </v>
   <v>       0.31250000       0.31250000       0.06250000 </v>
   <v>       0.43750000       0.31250000       0.06250000 </v>
   <v>      -0.43750000       0.31250000       0.06250000 </v>
   <v>      -0.31250000       0.31250000       0.06250000 </v>
   <v>      -0.18750000       0.31250000       0.06250000 </v>
   <v>      -0.06250000       0.31250000       0.06250000 </v>
   <v>       0.43750000       0.43750000       0.06250000 </v>
   <v>      -0.43750000       0.43750000       0.06250000 </v>
   <v>      -0.31250000       0.43750000       0.06250000 </v>
   <v>      -0.18750000       0.43750000       0.06250000 </v>
   <v>      -0.06250000       0.43750000       0.06250000 </v>
   <v>      -0.43750000      -0.43750000       0.06250000 </v>
   <v>      -0.31250000      -0.43750000       0.06250000 </v>
   <v>      -0.18750000      -0.43750000       0.06250000 </v>
   <v>      -0.31250000      -0.31250000       0.06250000 </v>
   <v>      -0.18750000      -0.31250000       0.06250000 </v>
   <v>      -0.18750000      -0.18750000       0.06250000 </v>
   <v>       0.18750000       0.18750000       0.18750000 </v>
   <v>       0.31250000       0.18750000       0.18750000 </v>
   <v>       0.43750000       0.18750000       0.18750000 </v>
   <v>      -0.43750000       0.18750000       0.18750000 </v>
   <v>      -0.31250000       0.18750000       0.18750000 </v>
   <v>      -0.18750000       0.18750000       0.18750000 </v>
   <v>       0.31250000       0.31250000       0.18750000 </v>
   <v>       0.43750000       0.31250000       0.18750000 </v>
   <v>      -0.43750000       0.31250000       0.18750000 </v>
   <v>      -0.31250000       0.31250000       0.18750000 </v>
   <v>      -0.18750000       0.31250000       0.18750000 </v>
   <v>       0.43750000       0.43750000       0.18750000 </v>
   <v>      -0.43750000       0.43750000       0.18750000 </v>
   <v>      -0.31250000       0.43750000       0.18750000 </v>
   <v>      -0.18750000       0.43750000       0.18750000 </v>
   <v>      -0.43750000      -0.43750000       0.18750000 </v>
   <v>      -0.31250000      -0.43750000       0.18750000 </v>
   <v>      -0.31250000      -0.31250000       0.18750000 </v>
   <v>       0.31250000       0.31250000       0.31250000 </v>
   <v>       0.43750000       0.31250000       0.31250000 </v>
   <v>      -0.43750000       0.31250000       0.31250000 </v>
   <v>      -0.31250000       0.31250000       0.31250000 </v>
   <v>       0.43750000       0.43750000       0.31250000 </v>
   <v>      -0.43750000       0.43750000       0.31250000 </v>
   <v>      -0.31250000       0.43750000       0.31250000 </v>
   <v>      -0.43750000      -0.43750000       0.31250000 </v>
   <v>       0.43750000       0.43750000       0.43750000 </v>
   <v>      -0.43750000       0.43750000       0.43750000 </v>
  </varray>
  <varray name="weights" >
   <v>       0.00390625 </v>
   <v>       0.01171875 </v>
   <v>       0.01171875 </v>
   <v>       0.01171875 </v>
   <v>       0.01171875 </v>
   <v>       0.01171875 </v>
   <v>       0.01171875 </v>
   <v>       0.01171875 </v>
   <v>       0.01171875 </v>
   <v>       0.02343750 </v>
   <v>       0.02343750 </v>
   <v>       0.02343750 </v>
   <v>       0.02343750 </v>
   <v>       0.02343750 </v>
   <v>       0.02343750 </v>
   <v>       0.01171875 </v>
   <v>       0.02343750 </v>
   <v>       0.02343750 </v>
   <v>       0.02343750 </v>
   <v>       0.02343750 </v>
   <v>       0.02343750 </v>
   <v>       0.01171875 </v>
   <v>       0.02343750 </v>
   <v>       0.02343750 </v>
   <v>       0.02343750 </v>
   <v>       0.02343750 </v>
   <v>       0.01171875 </v>
   <v>       0.02343750 </v>
   <v>       0.02343750 </v>
   <v>       0.01171875 </v>
   <v>       0.02343750 </v>
   <v>       0.01171875 </v>
   <v>       0.00390625 </v>
   <v>       0.01171875 </v>
   <v>       0.01171875 </v>
   <v>       0.01171875 </v>
   <v>       0.01171875 </v>
   <v>       0.01171875 </v>
   <v>       0.01171875 </v>
   <v>       0.02343750 </v>
   <v>       0.02343750 </v>
   <v>       0.02343750 </v>
   <v>       0.02343750 </v>
   <v>       0.01171875 </v>
   <v>       0.02343750 </v>
   <v>       0.02343750 </v>
   <v>       0.02343750 </v>
   <v>       0.01171875 </v>
   <v>       0.02343750 </v>
   <v>       0.01171875 </v>
   <v>       0.00390625 </v>
   <v>       0.01171875 </v>
   <v>       0.01171875 </v>
   <v>       0.01171875 </v>
   <v>       0.01171875 </v>
   <v>       0.02343750 </v>
   <v>       0.02343750 </v>
   <v>       0.01171875 </v>
   <v>       0.00390625 </v>
   <v>       0.01171875 </v>
  </varray>
 </kpoints>
 <parameters>
  <separator name="general" >
   <i type="string" name="SYSTEM">Co-fcc</i>
   <i type="logical" name="LCOMPAT"> F  </i>
  </separator>
  <separator name="electronic" >
   <i type="string" name="PREC">accura</i>
   <i name="ENMAX">    400.00000000</i>
   <i name="ENAUG">    477.81800000</i>
   <i name="EDIFF">      0.00000100</i>
   <i type="int" name="IALGO">    38</i>
   <i type="int" name="IWAVPR">    11</i>
   <i type="int" name="NBANDS">    12</i>
   <i type="int" name="NBANDSLOW">    -1</i>
   <i type="int" name="NBANDSHIGH">    -1</i>
   <i name="NELECT">      9.00000000</i>
   <i type="int" name="TURBO">     0</i>
   <i type="int" name="IRESTART">     0</i>
   <i type="int" name="NREBOOT">     0</i>
   <i type="int" name="NMIN">     0</i>
   <i name="EREF">      0.00000000</i>
   <separator name="electronic smearing" >
    <i type="int" name="ISMEAR">     0</i>
    <i name="SIGMA">      0.05000000</i>
    <i name="KSPACING">      0.50000000</i>
    <i type="logical" name="KGAMMA"> T  </i>
    <i type="logical" name="KBLOWUP"> T  </i>
   </separator>
   <separator name="electronic projectors" >
    <i type="logical" name="LREAL"> F  </i>
    <v name="ROPT">      0.00000000</v>
    <i type="int" name="LMAXPAW">  -100</i>
    <i type="int" name="LMAXMIX">     2</i>
    <i type="logical" name="NLSPLINE"> F  </i>
   </separator>
   <separator name="electronic startup" >
    <i type="int" name="ISTART">     0</i>
    <i type="int" name="ICHARG">     2</i>
    <i type="int" name="INIWAV">     1</i>
   </separator>
   <separator name="electronic spin" >
    <i type="int" name="ISPIN">     2</i>
    <i type="logical" name="LNONCOLLINEAR"> F  </i>
    <v name="MAGMOM">      3.00000000</v>
    <i name="NUPDOWN">     -1.00000000</i>
    <i type="logical" name="LSORBIT"> F  </i>
    <v name="SAXIS">      0.00000000      0.00000000      1.00000000</v>
    <i type="logical" name="LSPIRAL"> F  </i>
    <v name="QSPIRAL">      0.00000000      0.00000000      0.00000000</v>
    <i type="logical" name="LZEROZ"> F  </i>
   </separator>
   <separator name="electronic exchange-correlation" >
    <i type="logical" name="LASPH"> F  </i>
    <i type="logical" name="LMETAGGA"> F  </i>
   </separator>
   <separator name="electronic convergence" >
    <i type="int" name="NELM">   100</i>
    <i type="int" name="NELMDL">    -5</i>
    <i type="int" name="NELMIN">     2</i>
    <i name="ENINI">    400.00000000</i>
    <separator name="electronic convergence detail" >
     <i type="logical" name="LDIAG"> T  </i>
     <i type="logical" name="LSUBROT"> F  </i>
     <i name="WEIMIN">      0.00100000</i>
     <i name="EBREAK">      0.00000002</i>
     <i name="DEPER">      0.30000000</i>
     <i type="int" name="NRMM">     4</i>
     <i name="TIME">      0.40000000</i>
    </separator>
   </separator>
   <separator name="electronic mixer" >
    <i name="AMIX">      0.40000000</i>
    <i name="BMIX">      1.00000000</i>
    <i name="AMIN">      0.10000000</i>
    <i name="AMIX_MAG">      1.60000000</i>
    <i name="BMIX_MAG">      1.00000000</i>
    <separator name="electronic mixer details" >
     <i type="int" name="IMIX">     4</i>
     <i type="logical" name="MIXFIRST"> F  </i>
     <i type="int" name="MAXMIX">   -45</i>
     <i name="WC">    100.00000000</i>
     <i type="int" name="INIMIX">     1</i>
     <i type="int" name="MIXPRE">     1</i>
     <i type="int" name="MREMOVE">     5</i>
    </separator>
   </separator>
   <separator name="electronic dipolcorrection" >
    <i type="logical" name="LDIPOL"> F  </i>
    <i type="logical" name="LMONO"> F  </i>
    <i type="int" name="IDIPOL">     0</i>
    <i name="EPSILON">      1.00000000</i>
    <v name="DIPOL">   -100.00000000   -100.00000000   -100.00000000</v>
    <i name="EFIELD">      0.00000000</i>
   </separator>
  </separator>
  <separator name="grids" >
   <i type="int" name="NGX">    16</i>
   <i type="int" name="NGY">    16</i>
   <i type="int" name="NGZ">    16</i>
   <i type="int" name="NGXF">    32</i>
   <i type="int" name="NGYF">    32</i>
   <i type="int" name="NGZF">    32</i>
   <i type="logical" name="ADDGRID"> F  </i>
  </separator>
  <separator name="ionic" >
   <i type="int" name="NSW">   100</i>
   <i type="int" name="IBRION">     2</i>
   <i type="int" name="MDALGO">     0</i>
   <i type="int" name="ISIF">     2</i>
   <i name="PSTRESS">      0.00000000</i>
   <i name="EDIFFG">     -0.02000000</i>
   <i type="int" name="NFREE">     1</i>
   <i name="POTIM">      0.50000000</i>
   <i name="SMASS">     -3.00000000</i>
   <i name="SCALEE">      1.00000000</i>
  </separator>
  <separator name="ionic md" >
   <i name="TEBEG">      0.00010000</i>
   <i name="TEEND">      0.00010000</i>
   <i type="int" name="NBLOCK">     1</i>
   <i type="int" name="KBLOCK">   100</i>
   <i type="int" name="NPACO">   256</i>
   <i name="APACO">     10.00000000</i>
  </separator>
  <separator name="symmetry" >
   <i type="int" name="ISYM">     1</i>
   <i name="SYMPREC">      0.00001000</i>
  </separator>
  <separator name="dos" >
   <i type="int" name="LORBIT">    11</i>
   <v name="RWIGS">     -1.00000000</v>
   <i type="int" name="NEDOS">   301</i>
   <i name="EMIN">     10.00000000</i>
   <i name="EMAX">    -10.00000000</i>
   <i name="EFERMI">      0.00000000</i>
  </separator>
  <separator name="writing" >
   <i type="int" name="NWRITE">     2</i>
   <i type="logical" name="LWAVE"> T  </i>
   <i type="logical" name="LDOWNSAMPLE"> F  </i>
   <i type="logical" name="LCHARG"> T  </i>
   <i type="logical" name="LPARD"> F  </i>
   <i type="logical" name="LVTOT"> F  </i>
   <i type="logical" name="LVHAR"> F  </i>
   <i type="logical" name="LELF"> F  </i>
   <i type="logical" name="LOPTICS"> F  </i>
   <v name="STM">      0.00000000      0.00000000      0.00000000      0.00000000      0.00000000      0.00000000      0.00000000</v>
  </separator>
  <separator name="performance" >
   <i type="int" name="NPAR">     4</i>
   <i type="int" name="NSIM">     4</i>
   <i type="int" name="NBLK">    -1</i>
   <i type="logical" name="LPLANE"> T  </i>
   <i type="logical" name="LSCALAPACK"> T  </i>
   <i type="logical" name="LSCAAWARE"> T  </i>
   <i type="logical" name="LSCALU"> F  </i>
   <i type="logical" name="LASYNC"> F  </i>
   <i type="logical" name="LORBITALREAL"> F  </i>
  </separator>
  <separator name="miscellaneous" >
   <i type="int" name="IDIOT">     3</i>
   <i type="int" name="PHON_NSTRUCT">    -1</i>
   <i type="logical" name="LMUSIC"> F  </i>
   <v name="POMASS">     58.93300000</v>
   <v name="DARWINR">      0.00000000</v>
   <v name="DARWINV">      1.00000000</v>
   <i type="logical" name="LCORR"> T  </i>
  </separator>
  <i type="logical" name="GGA_COMPAT"> T  </i>
  <i type="logical" name="LBERRY"> F  </i>
  <i type="int" name="ICORELEVEL">     0</i>
  <i type="logical" name="LDAU"> F  </i>
  <i type="int" name="I_CONSTRAINED_M">     0</i>
  <separator name="electronic exchange-correlation" >
   <i type="string" name="GGA">--</i>
   <i type="int" name="VOSKOWN">     0</i>
   <i type="logical" name="LHFCALC"> F  </i>
   <i type="string" name="PRECFOCK"></i>
   <i type="logical" name="LSYMGRAD"> F  </i>
   <i type="logical" name="LHFONE"> F  </i>
   <i type="logical" name="LRHFCALC"> F  </i>
   <i type="logical" name="LTHOMAS"> F  </i>
   <i type="logical" name="LMODELHF"> F  </i>
   <i type="logical" name="LFOCKACE"> F  </i>
   <i name="ENCUT4O">     -1.00000000</i>
   <i type="int" name="EXXOEP">     0</i>
   <i type="int" name="FOURORBIT">     0</i>
   <i name="AEXX">      0.00000000</i>
   <i name="HFALPHA">      0.00000000</i>
   <i name="MCALPHA">      0.00000000</i>
   <i name="ALDAX">      1.00000000</i>
   <i name="AGGAX">      1.00000000</i>
   <i name="ALDAC">      1.00000000</i>
   <i name="AGGAC">      1.00000000</i>
   <i type="int" name="NKREDX">     1</i>
   <i type="int" name="NKREDY">     1</i>
   <i type="int" name="NKREDZ">     1</i>
   <i type="logical" name="SHIFTRED"> F  </i>
   <i type="logical" name="ODDONLY"> F  </i>
   <i type="logical" name="EVENONLY"> F  </i>
   <i type="int" name="LMAXFOCK">     0</i>
   <i type="int" name="NMAXFOCKAE">     0</i>
   <i type="logical" name="LFOCKAEDFT"> F  </i>
   <i name="HFSCREEN">      0.00000000</i>
   <i name="HFSCREENC">      0.00000000</i>
   <i type="int" name="NBANDSGWLOW">     0</i>
  </separator>
  <separator name="vdW DFT" >
   <i type="logical" name="LUSE_VDW"> F  </i>
   <i name="Zab_VDW">     -0.84910000</i>
   <i name="PARAM1">      0.12340000</i>
   <i name="PARAM2">      1.00000000</i>
   <i name="PARAM3">      0.00000000</i>
  </separator>
  <separator name="model GW" >
   <i type="int" name="MODEL_GW">     0</i>
   <i name="MODEL_EPS0">      5.38086755</i>
   <i name="MODEL_ALPHA">      1.00000000</i>
  </separator>
  <separator name="linear response parameters" >
   <i type="logical" name="LEPSILON"> F  </i>
   <i type="logical" name="LRPA"> F  </i>
   <i type="logical" name="LNABLA"> F  </i>
   <i type="logical" name="LVEL"> F  </i>
   <i name="CSHIFT">      0.10000000</i>
   <i name="OMEGAMAX">     -1.00000000</i>
   <i name="DEG_THRESHOLD">      0.00200000</i>
   <i name="RTIME">     -0.10000000</i>
   <i name="WPLASMAI">      0.00000000</i>
   <v name="DFIELD">      0.00000000      0.00000000      0.00000000</v>
   <v name="WPLASMA">      0.00000000      0.00000000      0.00000000      0.00000000      0.00000000      0.00000000      0.00000000      0.00000000      0.00000000</v>
  </separator>
  <separator name="orbital magnetization" >
   <i type="logical" name="NUCIND"> F  </i>
   <v name="MAGPOS">      0.00000000      0.00000000      0.00000000</v>
   <i type="logical" name="LNICSALL"> T  </i>
   <i type="logical" name="ORBITALMAG"> F  </i>
   <i type="logical" name="LMAGBLOCH"> F  </i>
   <i type="logical" name="LCHIMAG"> F  </i>
   <i type="logical" name="LGAUGE"> T  </i>
   <i type="int" name="MAGATOM">     0</i>
   <v name="MAGDIPOL">      0.00000000      0.00000000      0.00000000</v>
   <v name="AVECCONST">      0.00000000      0.00000000      0.00000000</v>
  </separator>
  <separator name="response functions" >
   <i type="logical" name="LFINITE_TEMPERATURE"> F  </i>
   <i type="logical" name="LADDER"> F  </i>
   <i type="logical" name="LRPAFORCE"> F  </i>
   <i type="logical" name="LFXC"> F  </i>
   <i type="logical" name="LHARTREE"> T  </i>
   <i type="int" name="IBSE">     0</i>
   <v type="int" name="KPOINT">    -1     0     0     0</v>
   <i type="logical" name="LTCTC"> F  </i>
   <i type="logical" name="LTCTE"> F  </i>
   <i type="logical" name="LTETE"> F  </i>
   <i type="logical" name="LTRIPLET"> F  </i>
   <i type="logical" name="LFXCEPS"> F  </i>
   <i type="logical" name="LFXHEG"> F  </i>
   <i type="int" name="NATURALO">     2</i>
   <i type="logical" name="LHOLEGF"> F  </i>
   <i type="logical" name="L2ORDER"> F  </i>
   <i type="logical" name="LDMP1"> F  </i>
   <i type="logical" name="LMP2LT"> F  </i>
   <i type="logical" name="LSMP2LT"> F  </i>
   <i type="logical" name="LGWLF"> F  </i>
   <i name="ENCUTGW">     -2.00000000</i>
   <i name="ENCUTGWSOFT">     -2.00000000</i>
   <i name="ENCUTLF">     -1.00000000</i>
   <i type="logical" name="LESF_SPLINES"> F  </i>
   <i type="int" name="LMAXMP2">    -1</i>
   <i name="SCISSOR">      0.00000000</i>
   <i type="int" name="NOMEGA">     0</i>
   <i type="int" name="NOMEGAR">     0</i>
   <i type="int" name="NBANDSGW">    -1</i>
   <i type="int" name="NBANDSO">    -1</i>
   <i type="int" name="NBANDSV">    -1</i>
   <i type="int" name="NELMGW">     1</i>
   <i type="int" name="NELMHF">     1</i>
   <i type="int" name="DIM">     3</i>
   <i type="int" name="IESPILON">     4</i>
   <i type="int" name="ANTIRES">     0</i>
   <i name="OMEGAMAX">    -30.00000000</i>
   <i name="OMEGAMIN">    -30.00000000</i>
   <i name="OMEGATL">   -200.00000000</i>
   <i type="int" name="OMEGAGRID">     0</i>
   <i name="CSHIFT">     -0.10000000</i>
   <i type="logical" name="LSELFENERGY"> F  </i>
   <i type="logical" name="LSPECTRAL"> F  </i>
   <i type="logical" name="LSPECTRALGW"> F  </i>
   <i type="logical" name="LSINGLES"> F  </i>
   <i type="logical" name="LFERMIGW"> F  </i>
   <i type="logical" name="ODDONLYGW"> F  </i>
   <i type="logical" name="EVENONLYGW"> F  </i>
   <i type="int" name="NKREDLFX">     1</i>
   <i type="int" name="NKREDLFY">     1</i>
   <i type="int" name="NKREDLFZ">     1</i>
   <i type="int" name="MAXMEM">  2800</i>
   <i type="int" name="TELESCOPE">     0</i>
   <i type="int" name="NTAUPAR">    -1</i>
   <i type="int" name="NOMEGAPAR">    -1</i>
   <i name="DAMP_NEWTON">      0.80000001</i>
   <i name="LAMBDA">      1.00000000</i>
  </separator>
  <separator name="External order field" >
   <i name="OFIELD_KAPPA">      0.00000000</i>
   <v name="OFIELD_K">      0.00000000      0.00000000      0.00000000</v>
   <i name="OFIELD_Q6_NEAR">      0.00000000</i>
   <i name="OFIELD_Q6_FAR">      0.00000000</i>
   <i name="OFIELD_A">      0.00000000</i>
  </separator>
  <separator name="optional k-points parameters" >
   <i type="int" name="KPOINTS_OPT_MODE">     1</i>
   <i type="logical" name="LKPOINTS_OPT"> F  </i>
  </separator>
 </parameters>
 <atominfo>
  <atoms>       1 </atoms>
  <types>       1 </types>
  <array name="atoms" >
   <dimension dim="1">ion</dimension>
   <field type="string">element</field>
   <field type="int">atomtype</field>
   <set>
    <rc><c>Co</c><c>   1</c></rc>
   </set>
  </array>
  <array name="atomtypes" >
   <dimension dim="1">type</dimension>
   <field type="int">atomspertype</field>
   <field type="string">element</field>
   <field>mass</field>
   <field>valence</field>
   <field type="string">pseudopotential</field>
   <set>
    <rc><c>   1</c><c>Co</c><c>     58.93300000</c><c>      9.00000000</c><c>  PAW_PBE Co 02Aug2007                  </c></rc>
   </set>
  </array>
 </atominfo>
 <structure name="initialpos" >
  <crystal>
   <varray name="basis" >
    <v>       0.00000000       1.64901150       1.64901150 </v>
    <v>       1.64901150       0.00000000       1.64901150 </v>
    <v>       1.64901150       1.64901150       0.00000000 </v>
   </varray>
   <i name="volume">      8.96811258 </i>
   <varray name="rec_basis" >
    <v>      -0.30321195       0.30321195       0.30321195 </v>
    <v>       0.30321195      -0.30321195       0.30321195 </v>
    <v>       0.30321195       0.30321195      -0.30321195 </v>
   </varray>
  </crystal>
  <varray name="positions" >
   <v>       0.00000000       0.00000000       0.00000000 </v>
  </varray>
 </structure>
 <calculation>
  <scstep>
   <time name="dav">    0.27    0.27</time>
   <time name="total">    0.28    0.28</time>
   <energy>
    <i name="alphaZ">     47.23144422 </i>
    <i name="ewald">   -810.74390189 </i>
    <i name="hartreedc">   -130.10454013 </i>
    <i name="XCdc">     18.48894198 </i>
    <i name="pawpsdc">    719.99081943 </i>
    <i name="pawaedc">   -772.94345096 </i>
    <i name="eentropy">     -0.00069042 </i>
    <i name="bandstr">    138.32273842 </i>
    <i name="atom">    813.35773410 </i>
    <i name="e_fr_energy">     23.59909475 </i>
    <i name="e_wo_entrp">     23.59978517 </i>
    <i name="e_0_energy">     23.59943996 </i>
   </energy>
  </scstep>
  <scstep>
   <time name="dav">    0.25    0.26</time>
   <time name="total">    0.25    0.26</time>
   <energy>
    <i name="e_fr_energy">     -6.55491217 </i>
    <i name="e_wo_entrp">     -6.55381717 </i>
    <i name="e_0_energy">     -6.55436467 </i>
   </energy>
  </scstep>
  <scstep>
   <time name="dav">    0.27    0.27</time>
   <time name="total">    0.27    0.27</time>
   <energy>
    <i name="e_fr_energy">     -7.25258209 </i>
    <i name="e_wo_entrp">     -7.25099268 </i>
    <i name="e_0_energy">     -7.25178739 </i>
   </energy>
  </scstep>
  <scstep>
   <time name="dav">    0.27    0.28</time>
   <time name="total">    0.28    0.28</time>
   <energy>
    <i name="e_fr_energy">     -7.25740665 </i>
    <i name="e_wo_entrp">     -7.25581981 </i>
    <i name="e_0_energy">     -7.25661323 </i>
   </energy>
  </scstep>
  <scstep>
   <time name="dav">    0.30    0.30</time>
   <time name="total">    0.31    0.32</time>
   <energy>
    <i name="e_fr_energy">     -7.25748557 </i>
    <i name="e_wo_entrp">     -7.25589884 </i>
    <i name="e_0_energy">     -7.25669220 </i>
   </energy>
  </scstep>
  <scstep>
   <time name="dav">    0.29    0.29</time>
   <time name="total">    0.31    0.31</time>
   <energy>
    <i name="e_fr_energy">     -6.77362275 </i>
    <i name="e_wo_entrp">     -6.77060781 </i>
    <i name="e_0_energy">     -6.77211528 </i>
   </energy>
  </scstep>
  <scstep>
   <time name="dav">    0.27    0.27</time>
   <time name="total">    0.29    0.29</time>
   <energy>
    <i name="e_fr_energy">     -6.72459708 </i>
    <i name="e_wo_entrp">     -6.72230960 </i>
    <i name="e_0_energy">     -6.72345334 </i>
   </energy>
  </scstep>
  <scstep>
   <time name="dav">    0.32    0.32</time>
   <time name="total">    0.33    0.33</time>
   <energy>
    <i name="e_fr_energy">     -6.70502152 </i>
    <i name="e_wo_entrp">     -6.70417468 </i>
    <i name="e_0_energy">     -6.70459810 </i>
   </energy>
  </scstep>
  <scstep>
   <time name="dav">    0.31    0.31</time>
   <time name="total">    0.33    0.33</time>
   <energy>
    <i name="e_fr_energy">     -6.70395816 </i>
    <i name="e_wo_entrp">     -6.70312038 </i>
    <i name="e_0_energy">     -6.70353927 </i>
   </energy>
  </scstep>
  <scstep>
   <time name="dav">    0.29    0.29</time>
   <time name="total">    0.30    0.31</time>
   <energy>
    <i name="e_fr_energy">     -6.70391292 </i>
    <i name="e_wo_entrp">     -6.70307686 </i>
    <i name="e_0_energy">     -6.70349489 </i>
   </energy>
  </scstep>
  <scstep>
   <time name="dav">    0.29    0.29</time>
   <time name="total">    0.30    0.30</time>
   <energy>
    <i name="e_fr_energy">     -6.70392668 </i>
    <i name="e_wo_entrp">     -6.70308455 </i>
    <i name="e_0_energy">     -6.70350562 </i>
   </energy>
  </scstep>
  <scstep>
   <time name="dav">    0.24    0.24</time>
   <time name="total">    0.26    0.26</time>
   <energy>
    <i name="e_fr_energy">     -6.70392242 </i>
    <i name="e_wo_entrp">     -6.70308035 </i>
    <i name="e_0_energy">     -6.70350138 </i>
   </energy>
  </scstep>
  <scstep>
   <time name="dav">    0.22    0.22</time>
   <time name="total">    0.22    0.22</time>
   <energy>
    <i name="alphaZ">     47.23144422 </i>
    <i name="ewald">   -810.74390189 </i>
    <i name="hartreedc">   -112.74010293 </i>
    <i name="XCdc">     17.01154892 </i>
    <i name="pawpsdc">   1039.39506525 </i>
    <i name="pawaedc">  -1093.63047706 </i>
    <i name="eentropy">     -0.00084064 </i>
    <i name="bandstr">     93.41560790 </i>
    <i name="atom">    813.35773410 </i>
    <i name="e_fr_energy">     -6.70392212 </i>
    <i name="e_wo_entrp">     -6.70308148 </i>
    <i name="e_0_energy">     -6.70350180 </i>
   </energy>
  </scstep>
  <structure>
   <crystal>
    <varray name="basis" >
     <v>       0.00000000       1.64901150       1.64901150 </v>
     <v>       1.64901150       0.00000000       1.64901150 </v>
     <v>       1.64901150       1.64901150       0.00000000 </v>
    </varray>
    <i name="volume">      8.96811258 </i>
    <varray name="rec_basis" >
     <v>      -0.30321195       0.30321195       0.30321195 </v>
     <v>       0.30321195      -0.30321195       0.30321195 </v>
     <v>       0.30321195       0.30321195      -0.30321195 </v>
    </varray>
   </crystal>
   <varray name="positions" >
    <v>       0.00000000       0.00000000       0.00000000 </v>
   </varray>
  </structure>
  <varray name="forces" >
   <v>      -0.00000000       0.00000000       0.00000000 </v>
  </varray>
  <varray name="stress" >
   <v>     643.05667187       0.00000000      -0.00000000 </v>
   <v>       0.00000000     643.05667187      -0.00000000 </v>
   <v>       0.00000000       0.00000000     643.05667187 </v>
  </varray>
  <energy>
   <i name="e_fr_energy">     -6.70392212 </i>
   <i name="e_wo_entrp">     -6.70308148 </i>
   <i name="e_0_energy">     -6.70350180 </i>
  </energy>
  <time name="totalsc">    3.85    3.93</time>
  <eigenvalues>
   <array>
    <dimension dim="1">band</dimension>
    <dimension dim="2">kpoint</dimension>
    <dimension dim="3">spin</dimension>
    <field>eigene</field>
    <field>occ</field>
    <set>
     <set comment="spin 1">
      <set comment="kpoint 1">
       <r>    3.3328    1.0000 </r>
       <r>   10.2058    1.0000 </r>
       <r>   10.3165    1.0000 </r>
       <r>   10.3165    1.0000 </r>
       <r>   11.7398    1.0000 </r>
       <r>   11.7398    1.0000 </r>
       <r>   37.7602    0.0000 </r>
       <r>   41.8968    0.0000 </r>
       <r>   43.6377    0.0000 </r>
       <r>   43.6377    0.0000 </r>
       <r>   48.4565    0.0000 </r>
       <r>   48.4890    0.0000 </r>
      </set>
      <set comment="kpoint 2">
       <r>    4.2536    1.0000 </r>
       <r>    9.9121    1.0000 </r>
       <r>   10.5294    1.0000 </r>
       <r>   10.5336    1.0000 </r>
       <r>   11.5215    1.0000 </r>
       <r>   11.8541    1.0000 </r>
       <r>   35.6547    0.0000 </r>
       <r>   38.3569    0.0000 </r>
       <r>   42.2713    0.0000 </r>
       <r>   44.7735    0.0000 </r>
       <r>   46.6810    0.0000 </r>
       <r>   48.4914    0.0000 </r>
      </set>
      <set comment="kpoint 3">
       <r>    6.0987    1.0000 </r>
       <r>    9.7706    1.0000 </r>
       <r>   10.4599    1.0000 </r>
       <r>   10.5623    1.0000 </r>
       <r>   11.7881    1.0000 </r>
       <r>   12.3778    1.0000 </r>
       <r>   29.3923    0.0000 </r>
       <r>   37.0582    0.0000 </r>
       <r>   41.2944    0.0000 </r>
       <r>   44.7936    0.0000 </r>
       <r>   46.0790    0.0000 </r>
       <r>   46.6314    0.0000 </r>
      </set>
      <set comment="kpoint 4">
       <r>    7.1421    1.0000 </r>
       <r>   10.1508    1.0000 </r>
       <r>   10.2883    1.0000 </r>
       <r>   11.1122    1.0000 </r>
       <r>   12.5336    1.0000 </r>
       <r>   13.3382    0.0196 </r>
       <r>   23.6899    0.0000 </r>
       <r>   36.1969    0.0000 </r>
       <r>   40.2011    0.0000 </r>
       <r>   42.6001    0.0000 </r>
       <r>   45.0722    0.0000 </r>
       <r>   46.6139    0.0000 </r>
      </set>
      <set comment="kpoint 5">
       <r>    7.2205    1.0000 </r>
       <r>   10.0216    1.0000 </r>
       <r>   10.2171    1.0000 </r>
       <r>   11.8466    1.0000 </r>
       <r>   12.9195    1.0000 </r>
       <r>   14.0643    0.0000 </r>
       <r>   21.4611    0.0000 </r>
       <r>   36.0418    0.0000 </r>
       <r>   40.4849    0.0000 </r>
       <r>   40.6411    0.0000 </r>
       <r>   45.9018    0.0000 </r>
       <r>   45.9773    0.0000 </r>
      </set>
      <set comment="kpoint 6">
       <r>    6.9696    1.0000 </r>
       <r>   10.1976    1.0000 </r>
       <r>   10.4079    1.0000 </r>
       <r>   10.4753    1.0000 </r>
       <r>   12.6426    1.0000 </r>
       <r>   12.6774    1.0000 </r>
       <r>   25.4103    0.0000 </r>
       <r>   36.8466    0.0000 </r>
       <r>   39.9105    0.0000 </r>
       <r>   42.7034    0.0000 </r>
       <r>   45.5800    0.0000 </r>
       <r>   47.7297    0.0000 </r>
      </set>
      <set comment="kpoint 7">
       <r>    5.4562    1.0000 </r>
       <r>    9.6994    1.0000 </r>
       <r>   10.5447    1.0000 </r>
       <r>   10.6242    1.0000 </r>
       <r>   11.6967    1.0000 </r>
       <r>   12.0579    1.0000 </r>
       <r>   31.5191    0.0000 </r>
       <r>   38.1669    0.0000 </r>
       <r>   40.4632    0.0000 </r>
       <r>   44.8369    0.0000 </r>
       <r>   45.7045    0.0000 </r>
       <r>   49.8725    0.0000 </r>
      </set>
      <set comment="kpoint 8">
       <r>    3.8028    1.0000 </r>
       <r>   10.0083    1.0000 </r>
       <r>   10.4627    1.0000 </r>
       <r>   10.4689    1.0000 </r>
       <r>   11.5508    1.0000 </r>
       <r>   11.8286    1.0000 </r>
       <r>   37.1392    0.0000 </r>
       <r>   39.9881    0.0000 </r>
       <r>   41.7841    0.0000 </r>
       <r>   43.3177    0.0000 </r>
       <r>   48.2598    0.0000 </r>
       <r>   49.7792    0.0000 </r>
      </set>
      <set comment="kpoint 9">
       <r>    4.6870    1.0000 </r>
       <r>    9.6305    1.0000 </r>
       <r>   10.7260    1.0000 </r>
       <r>   10.7659    1.0000 </r>
       <r>   11.2912    1.0000 </r>
       <r>   11.9943    1.0000 </r>
       <r>   36.0140    0.0000 </r>
       <r>   38.2935    0.0000 </r>
       <r>   39.3955    0.0000 </r>
       <r>   41.2155    0.0000 </r>
       <r>   48.6280    0.0000 </r>
       <r>   50.1361    0.0000 </r>
      </set>
      <set comment="kpoint 10">
       <r>    6.1849    1.0000 </r>
       <r>    9.2257    1.0000 </r>
       <r>   10.4411    1.0000 </r>
       <r>   11.1174    1.0000 </r>
       <r>   11.6397    1.0000 </r>
       <r>   12.4888    1.0000 </r>
       <r>   32.1092    0.0000 </r>
       <r>   34.8045    0.0000 </r>
       <r>   38.8249    0.0000 </r>
       <r>   41.0649    0.0000 </r>
       <r>   47.5331    0.0000 </r>
       <r>   49.8126    0.0000 </r>
      </set>
      <set comment="kpoint 11">
       <r>    7.5541    1.0000 </r>
       <r>    9.4002    1.0000 </r>
       <r>   10.0371    1.0000 </r>
       <r>   10.9127    1.0000 </r>
       <r>   12.5885    1.0000 </r>
       <r>   13.9572    0.0000 </r>
       <r>   25.9122    0.0000 </r>
       <r>   33.9908    0.0000 </r>
       <r>   36.5762    0.0000 </r>
       <r>   40.9292    0.0000 </r>
       <r>   48.1256    0.0000 </r>
       <r>   49.6431    0.0000 </r>
      </set>
      <set comment="kpoint 12">
       <r>    7.8019    1.0000 </r>
       <r>    9.4320    1.0000 </r>
       <r>   10.5924    1.0000 </r>
       <r>   10.7031    1.0000 </r>
       <r>   12.8657    1.0000 </r>
       <r>   16.2938    0.0000 </r>
       <r>   21.5959    0.0000 </r>
       <r>   33.2650    0.0000 </r>
       <r>   35.9934    0.0000 </r>
       <r>   40.4922    0.0000 </r>
       <r>   47.2769    0.0000 </r>
       <r>   49.8457    0.0000 </r>
      </set>
      <set comment="kpoint 13">
       <r>    7.7833    1.0000 </r>
       <r>    9.6306    1.0000 </r>
       <r>   10.1201    1.0000 </r>
       <r>   10.7623    1.0000 </r>
       <r>   12.4247    1.0000 </r>
       <r>   14.9596    0.0000 </r>
       <r>   24.1404    0.0000 </r>
       <r>   32.6004    0.0000 </r>
       <r>   37.4228    0.0000 </r>
       <r>   41.7518    0.0000 </r>
       <r>   46.5562    0.0000 </r>
       <r>   49.8229    0.0000 </r>
      </set>
      <set comment="kpoint 14">
       <r>    6.8240    1.0000 </r>
       <r>    9.3322    1.0000 </r>
       <r>   10.1978    1.0000 </r>
       <r>   11.0353    1.0000 </r>
       <r>   11.5410    1.0000 </r>
       <r>   13.1381    0.9998 </r>
       <r>   29.9900    0.0000 </r>
       <r>   32.8408    0.0000 </r>
       <r>   39.9710    0.0000 </r>
       <r>   43.7166    0.0000 </r>
       <r>   45.9041    0.0000 </r>
       <r>   49.3330    0.0000 </r>
      </set>
      <set comment="kpoint 15">
       <r>    5.0989    1.0000 </r>
       <r>    9.6284    1.0000 </r>
       <r>   10.5906    1.0000 </r>
       <r>   10.7699    1.0000 </r>
       <r>   11.3950    1.0000 </r>
       <r>   12.1042    1.0000 </r>
       <r>   33.8674    0.0000 </r>
       <r>   36.5552    0.0000 </r>
       <r>   41.3070    0.0000 </r>
       <r>   43.2250    0.0000 </r>
       <r>   47.6104    0.0000 </r>
       <r>   49.2178    0.0000 </r>
      </set>
      <set comment="kpoint 16">
       <r>    6.8197    1.0000 </r>
       <r>    8.6638    1.0000 </r>
       <r>   10.8986    1.0000 </r>
       <r>   11.6885    1.0000 </r>
       <r>   12.1317    1.0000 </r>
       <r>   12.4642    1.0000 </r>
       <r>   32.6723    0.0000 </r>
       <r>   34.3973    0.0000 </r>
       <r>   34.6985    0.0000 </r>
       <r>   37.5962    0.0000 </r>
       <r>   44.0278    0.0000 </r>
       <r>   50.3605    0.0000 </r>
      </set>
      <set comment="kpoint 17">
       <r>    7.4881    1.0000 </r>
       <r>    8.3974    1.0000 </r>
       <r>   10.8054    1.0000 </r>
       <r>   12.0283    1.0000 </r>
       <r>   12.6558    1.0000 </r>
       <r>   14.2511    0.0000 </r>
       <r>   28.9796    0.0000 </r>
       <r>   31.0268    0.0000 </r>
       <r>   32.4644    0.0000 </r>
       <r>   39.0265    0.0000 </r>
       <r>   44.8671    0.0000 </r>
       <r>   50.3158    0.0000 </r>
      </set>
      <set comment="kpoint 18">
       <r>    7.9994    1.0000 </r>
       <r>    8.5927    1.0000 </r>
       <r>   10.3877    1.0000 </r>
       <r>   11.6525    1.0000 </r>
       <r>   12.9476    1.0000 </r>
       <r>   17.8739    0.0000 </r>
       <r>   23.4740    0.0000 </r>
       <r>   28.8467    0.0000 </r>
       <r>   32.5593    0.0000 </r>
       <r>   39.5678    0.0000 </r>
       <r>   49.1095    0.0000 </r>
       <r>   50.5251    0.0000 </r>
      </set>
      <set comment="kpoint 19">
       <r>    8.6474    1.0000 </r>
       <r>    8.8221    1.0000 </r>
       <r>    9.7770    1.0000 </r>
       <r>   11.3874    1.0000 </r>
       <r>   12.5101    1.0000 </r>
       <r>   18.2727    0.0000 </r>
       <r>   23.3135    0.0000 </r>
       <r>   27.4638    0.0000 </r>
       <r>   34.4652    0.0000 </r>
       <r>   40.4417    0.0000 </r>
       <r>   49.5700    0.0000 </r>
       <r>   49.9783    0.0000 </r>
      </set>
      <set comment="kpoint 20">
       <r>    8.2077    1.0000 </r>
       <r>    9.3619    1.0000 </r>
       <r>    9.5573    1.0000 </r>
       <r>   11.1475    1.0000 </r>
       <r>   12.0034    1.0000 </r>
       <r>   15.1352    0.0000 </r>
       <r>   26.4652    0.0000 </r>
       <r>   29.6738    0.0000 </r>
       <r>   37.1738    0.0000 </r>
       <r>   42.3952    0.0000 </r>
       <r>   46.7397    0.0000 </r>
       <r>   49.6986    0.0000 </r>
      </set>
      <set comment="kpoint 21">
       <r>    6.8718    1.0000 </r>
       <r>    9.7188    1.0000 </r>
       <r>   10.2254    1.0000 </r>
       <r>   10.6519    1.0000 </r>
       <r>   12.0924    1.0000 </r>
       <r>   12.9574    1.0000 </r>
       <r>   27.5276    0.0000 </r>
       <r>   35.5472    0.0000 </r>
       <r>   39.5501    0.0000 </r>
       <r>   42.9341    0.0000 </r>
       <r>   46.6067    0.0000 </r>
       <r>   48.3510    0.0000 </r>
      </set>
      <set comment="kpoint 22">
       <r>    7.1040    1.0000 </r>
       <r>    7.9087    1.0000 </r>
       <r>   12.4463    1.0000 </r>
       <r>   12.5664    1.0000 </r>
       <r>   12.9811    1.0000 </r>
       <r>   14.8509    0.0000 </r>
       <r>   27.6733    0.0000 </r>
       <r>   30.1599    0.0000 </r>
       <r>   31.3684    0.0000 </r>
       <r>   36.8233    0.0000 </r>
       <r>   42.2494    0.0000 </r>
       <r>   50.3919    0.0000 </r>
      </set>
      <set comment="kpoint 23">
       <r>    7.2500    1.0000 </r>
       <r>    7.9500    1.0000 </r>
       <r>   11.8808    1.0000 </r>
       <r>   12.4988    1.0000 </r>
       <r>   13.1611    0.9984 </r>
       <r>   17.7343    0.0000 </r>
       <r>   25.4014    0.0000 </r>
       <r>   27.5685    0.0000 </r>
       <r>   30.1903    0.0000 </r>
       <r>   38.4089    0.0000 </r>
       <r>   44.1302    0.0000 </r>
       <r>   50.4359    0.0000 </r>
      </set>
      <set comment="kpoint 24">
       <r>    7.9024    1.0000 </r>
       <r>    8.4767    1.0000 </r>
       <r>   10.6050    1.0000 </r>
       <r>   11.9006    1.0000 </r>
       <r>   12.9242    1.0000 </r>
       <r>   20.1255    0.0000 </r>
       <r>   22.6262    0.0000 </r>
       <r>   26.3318    0.0000 </r>
       <r>   31.9926    0.0000 </r>
       <r>   39.4134    0.0000 </r>
       <r>   49.0110    0.0000 </r>
       <r>   51.2199    0.0000 </r>
      </set>
      <set comment="kpoint 25">
       <r>    8.2592    1.0000 </r>
       <r>    9.0284    1.0000 </r>
       <r>   10.1703    1.0000 </r>
       <r>   11.0577    1.0000 </r>
       <r>   12.7255    1.0000 </r>
       <r>   17.7622    0.0000 </r>
       <r>   21.7950    0.0000 </r>
       <r>   30.3116    0.0000 </r>
       <r>   34.8885    0.0000 </r>
       <r>   40.4089    0.0000 </r>
       <r>   48.5195    0.0000 </r>
       <r>   49.9371    0.0000 </r>
      </set>
      <set comment="kpoint 26">
       <r>    7.4180    1.0000 </r>
       <r>    9.8603    1.0000 </r>
       <r>   10.4044    1.0000 </r>
       <r>   11.0120    1.0000 </r>
       <r>   12.7888    1.0000 </r>
       <r>   14.5638    0.0000 </r>
       <r>   22.3831    0.0000 </r>
       <r>   35.1030    0.0000 </r>
       <r>   38.3645    0.0000 </r>
       <r>   41.0182    0.0000 </r>
       <r>   46.2195    0.0000 </r>
       <r>   48.4078    0.0000 </r>
      </set>
      <set comment="kpoint 27">
       <r>    6.9817    1.0000 </r>
       <r>    7.7394    1.0000 </r>
       <r>   12.7374    1.0000 </r>
       <r>   12.8398    1.0000 </r>
       <r>   13.1786    0.9929 </r>
       <r>   16.4625    0.0000 </r>
       <r>   25.4164    0.0000 </r>
       <r>   29.4324    0.0000 </r>
       <r>   30.6105    0.0000 </r>
       <r>   36.7185    0.0000 </r>
       <r>   42.0428    0.0000 </r>
       <r>   50.4993    0.0000 </r>
      </set>
      <set comment="kpoint 28">
       <r>    7.3858    1.0000 </r>
       <r>    8.1043    1.0000 </r>
       <r>   11.4443    1.0000 </r>
       <r>   12.3840    1.0000 </r>
       <r>   12.9626    1.0000 </r>
       <r>   16.0267    0.0000 </r>
       <r>   27.4450    0.0000 </r>
       <r>   28.5276    0.0000 </r>
       <r>   30.8873    0.0000 </r>
       <r>   38.6000    0.0000 </r>
       <r>   44.3365    0.0000 </r>
       <r>   50.4079    0.0000 </r>
      </set>
      <set comment="kpoint 29">
       <r>    7.9457    1.0000 </r>
       <r>    8.9248    1.0000 </r>
       <r>   10.1290    1.0000 </r>
       <r>   11.2794    1.0000 </r>
       <r>   12.8715    1.0000 </r>
       <r>   15.6591    0.0000 </r>
       <r>   24.5504    0.0000 </r>
       <r>   31.8820    0.0000 </r>
       <r>   33.8701    0.0000 </r>
       <r>   39.9856    0.0000 </r>
       <r>   49.2074    0.0000 </r>
       <r>   49.5645    0.0000 </r>
      </set>
      <set comment="kpoint 30">
       <r>    7.1838    1.0000 </r>
       <r>    8.2294    1.0000 </r>
       <r>   11.6741    1.0000 </r>
       <r>   12.1910    1.0000 </r>
       <r>   12.7209    1.0000 </r>
       <r>   13.1813    0.9912 </r>
       <r>   30.5727    0.0000 </r>
       <r>   31.6763    0.0000 </r>
       <r>   32.7817    0.0000 </r>
       <r>   37.0717    0.0000 </r>
       <r>   42.8186    0.0000 </r>
       <r>   50.3614    0.0000 </r>
      </set>
      <set comment="kpoint 31">
       <r>    7.1420    1.0000 </r>
       <r>    8.7917    1.0000 </r>
       <r>   10.3713    1.0000 </r>
       <r>   11.5550    1.0000 </r>
       <r>   12.1916    1.0000 </r>
       <r>   13.0860    1.0000 </r>
       <r>   30.4638    0.0000 </r>
       <r>   33.0529    0.0000 </r>
       <r>   35.4874    0.0000 </r>
       <r>   39.7882    0.0000 </r>
       <r>   45.9018    0.0000 </r>
       <r>   50.1846    0.0000 </r>
      </set>
      <set comment="kpoint 32">
       <r>    5.8254    1.0000 </r>
       <r>    9.1551    1.0000 </r>
       <r>   10.7496    1.0000 </r>
       <r>   11.1866    1.0000 </r>
       <r>   11.4755    1.0000 </r>
       <r>   12.2149    1.0000 </r>
       <r>   34.4470    0.0000 </r>
       <r>   36.7908    0.0000 </r>
       <r>   36.9584    0.0000 </r>
       <r>   38.9182    0.0000 </r>
       <r>   46.1211    0.0000 </r>
       <r>   50.3328    0.0000 </r>
      </set>
      <set comment="kpoint 33">
       <r>    4.6746    1.0000 </r>
       <r>    9.8745    1.0000 </r>
       <r>   10.5411    1.0000 </r>
       <r>   10.5411    1.0000 </r>
       <r>   11.7308    1.0000 </r>
       <r>   11.7308    1.0000 </r>
       <r>   33.5548    0.0000 </r>
       <r>   39.0621    0.0000 </r>
       <r>   42.9113    0.0000 </r>
       <r>   42.9113    0.0000 </r>
       <r>   48.3035    0.0000 </r>
       <r>   48.9528    0.0000 </r>
      </set>
      <set comment="kpoint 34">
       <r>    5.8616    1.0000 </r>
       <r>    9.5431    1.0000 </r>
       <r>   10.4670    1.0000 </r>
       <r>   10.8551    1.0000 </r>
       <r>   11.3299    1.0000 </r>
       <r>   12.5192    1.0000 </r>
       <r>   31.8274    0.0000 </r>
       <r>   34.6010    0.0000 </r>
       <r>   42.5705    0.0000 </r>
       <r>   44.6484    0.0000 </r>
       <r>   45.2145    0.0000 </r>
       <r>   48.1205    0.0000 </r>
      </set>
      <set comment="kpoint 35">
       <r>    7.5701    1.0000 </r>
       <r>    9.4064    1.0000 </r>
       <r>    9.9567    1.0000 </r>
       <r>   10.9460    1.0000 </r>
       <r>   11.6434    1.0000 </r>
       <r>   13.9863    0.0000 </r>
       <r>   28.1127    0.0000 </r>
       <r>   31.1129    0.0000 </r>
       <r>   40.5158    0.0000 </r>
       <r>   41.8950    0.0000 </r>
       <r>   46.6948    0.0000 </r>
       <r>   49.4558    0.0000 </r>
      </set>
      <set comment="kpoint 36">
       <r>    8.0065    1.0000 </r>
       <r>    9.4202    1.0000 </r>
       <r>   10.2943    1.0000 </r>
       <r>   10.7861    1.0000 </r>
       <r>   12.5096    1.0000 </r>
       <r>   16.2256    0.0000 </r>
       <r>   22.7263    0.0000 </r>
       <r>   31.3206    0.0000 </r>
       <r>   38.4790    0.0000 </r>
       <r>   38.8237    0.0000 </r>
       <r>   49.0360    0.0000 </r>
       <r>   49.6523    0.0000 </r>
      </set>
      <set comment="kpoint 37">
       <r>    7.8592    1.0000 </r>
       <r>    9.2341    1.0000 </r>
       <r>   10.3589    1.0000 </r>
       <r>   10.8878    1.0000 </r>
       <r>   12.9642    1.0000 </r>
       <r>   15.9961    0.0000 </r>
       <r>   22.6651    0.0000 </r>
       <r>   32.6455    0.0000 </r>
       <r>   36.3064    0.0000 </r>
       <r>   38.6055    0.0000 </r>
       <r>   49.5783    0.0000 </r>
       <r>   50.6807    0.0000 </r>
      </set>
      <set comment="kpoint 38">
       <r>    7.3126    1.0000 </r>
       <r>    8.9999    1.0000 </r>
       <r>   10.2254    1.0000 </r>
       <r>   11.1399    1.0000 </r>
       <r>   12.7332    1.0000 </r>
       <r>   13.1763    0.9941 </r>
       <r>   28.0340    0.0000 </r>
       <r>   34.7227    0.0000 </r>
       <r>   35.8347    0.0000 </r>
       <r>   39.2962    0.0000 </r>
       <r>   48.0707    0.0000 </r>
       <r>   50.2743    0.0000 </r>
      </set>
      <set comment="kpoint 39">
       <r>    6.4438    1.0000 </r>
       <r>    9.3916    1.0000 </r>
       <r>   10.3516    1.0000 </r>
       <r>   10.8239    1.0000 </r>
       <r>   12.1521    1.0000 </r>
       <r>   12.4155    1.0000 </r>
       <r>   29.6760    0.0000 </r>
       <r>   36.8517    0.0000 </r>
       <r>   38.0260    0.0000 </r>
       <r>   41.6519    0.0000 </r>
       <r>   48.3453    0.0000 </r>
       <r>   49.5052    0.0000 </r>
      </set>
      <set comment="kpoint 40">
       <r>    7.6814    1.0000 </r>
       <r>    9.0398    1.0000 </r>
       <r>    9.8864    1.0000 </r>
       <r>   11.3868    1.0000 </r>
       <r>   12.0255    1.0000 </r>
       <r>   14.0395    0.0000 </r>
       <r>   28.3611    0.0000 </r>
       <r>   31.2804    0.0000 </r>
       <r>   36.2035    0.0000 </r>
       <r>   42.7525    0.0000 </r>
       <r>   46.5750    0.0000 </r>
       <r>   49.2513    0.0000 </r>
      </set>
      <set comment="kpoint 41">
       <r>    8.5381    1.0000 </r>
       <r>    9.0283    1.0000 </r>
       <r>    9.4603    1.0000 </r>
       <r>   11.4755    1.0000 </r>
       <r>   12.4621    1.0000 </r>
       <r>   16.7864    0.0000 </r>
       <r>   25.0613    0.0000 </r>
       <r>   28.5337    0.0000 </r>
       <r>   33.3340    0.0000 </r>
       <r>   43.7912    0.0000 </r>
       <r>   46.1902    0.0000 </r>
       <r>   49.6070    0.0000 </r>
      </set>
      <set comment="kpoint 42">
       <r>    8.4518    1.0000 </r>
       <r>    8.7564    1.0000 </r>
       <r>    9.9066    1.0000 </r>
       <r>   11.4076    1.0000 </r>
       <r>   12.8553    1.0000 </r>
       <r>   18.8670    0.0000 </r>
       <r>   22.0729    0.0000 </r>
       <r>   29.4482    0.0000 </r>
       <r>   31.5123    0.0000 </r>
       <r>   42.4843    0.0000 </r>
       <r>   47.7797    0.0000 </r>
       <r>   49.7869    0.0000 </r>
      </set>
      <set comment="kpoint 43">
       <r>    8.0053    1.0000 </r>
       <r>    8.7220    1.0000 </r>
       <r>    9.9837    1.0000 </r>
       <r>   11.7906    1.0000 </r>
       <r>   12.5150    1.0000 </r>
       <r>   15.4734    0.0000 </r>
       <r>   26.9640    0.0000 </r>
       <r>   29.8917    0.0000 </r>
       <r>   32.5441    0.0000 </r>
       <r>   41.9911    0.0000 </r>
       <r>   46.9246    0.0000 </r>
       <r>   49.5079    0.0000 </r>
      </set>
      <set comment="kpoint 44">
       <r>    7.6726    1.0000 </r>
       <r>    8.5890    1.0000 </r>
       <r>   10.5319    1.0000 </r>
       <r>   11.5371    1.0000 </r>
       <r>   12.9537    1.0000 </r>
       <r>   14.7548    0.0000 </r>
       <r>   26.6146    0.0000 </r>
       <r>   31.6092    0.0000 </r>
       <r>   34.0355    0.0000 </r>
       <r>   38.3020    0.0000 </r>
       <r>   47.2168    0.0000 </r>
       <r>   50.3778    0.0000 </r>
      </set>
      <set comment="kpoint 45">
       <r>    7.8616    1.0000 </r>
       <r>    8.4845    1.0000 </r>
       <r>   10.4226    1.0000 </r>
       <r>   12.0359    1.0000 </r>
       <r>   12.9078    1.0000 </r>
       <r>   17.4588    0.0000 </r>
       <r>   25.8530    0.0000 </r>
       <r>   28.1829    0.0000 </r>
       <r>   29.8720    0.0000 </r>
       <r>   41.4968    0.0000 </r>
       <r>   47.0588    0.0000 </r>
       <r>   50.0443    0.0000 </r>
      </set>
      <set comment="kpoint 46">
       <r>    8.0902    1.0000 </r>
       <r>    8.9718    1.0000 </r>
       <r>    9.7921    1.0000 </r>
       <r>   11.7026    1.0000 </r>
       <r>   13.1534    0.9992 </r>
       <r>   21.2681    0.0000 </r>
       <r>   23.2765    0.0000 </r>
       <r>   26.0564    0.0000 </r>
       <r>   28.1526    0.0000 </r>
       <r>   44.6851    0.0000 </r>
       <r>   48.4919    0.0000 </r>
       <r>   49.4913    0.0000 </r>
      </set>
      <set comment="kpoint 47">
       <r>    8.3156    1.0000 </r>
       <r>    8.9803    1.0000 </r>
       <r>    9.6055    1.0000 </r>
       <r>   11.6667    1.0000 </r>
       <r>   12.8839    1.0000 </r>
       <r>   18.9573    0.0000 </r>
       <r>   23.9742    0.0000 </r>
       <r>   27.5794    0.0000 </r>
       <r>   29.9256    0.0000 </r>
       <r>   44.6868    0.0000 </r>
       <r>   46.7074    0.0000 </r>
       <r>   49.5827    0.0000 </r>
      </set>
      <set comment="kpoint 48">
       <r>    7.4893    1.0000 </r>
       <r>    8.1363    1.0000 </r>
       <r>   11.4043    1.0000 </r>
       <r>   12.2466    1.0000 </r>
       <r>   13.0199    1.0000 </r>
       <r>   18.7005    0.0000 </r>
       <r>   24.4713    0.0000 </r>
       <r>   26.2554    0.0000 </r>
       <r>   32.0784    0.0000 </r>
       <r>   37.8116    0.0000 </r>
       <r>   46.4926    0.0000 </r>
       <r>   50.5327    0.0000 </r>
      </set>
      <set comment="kpoint 49">
       <r>    7.6955    1.0000 </r>
       <r>    8.3658    1.0000 </r>
       <r>   10.7779    1.0000 </r>
       <r>   12.0780    1.0000 </r>
       <r>   13.1552    0.9991 </r>
       <r>   19.4403    0.0000 </r>
       <r>   24.9197    0.0000 </r>
       <r>   26.1706    0.0000 </r>
       <r>   29.0288    0.0000 </r>
       <r>   41.2575    0.0000 </r>
       <r>   47.1091    0.0000 </r>
       <r>   50.4805    0.0000 </r>
      </set>
      <set comment="kpoint 50">
       <r>    7.6127    1.0000 </r>
       <r>    8.2837    1.0000 </r>
       <r>   11.0549    1.0000 </r>
       <r>   11.9465    1.0000 </r>
       <r>   13.0412    1.0000 </r>
       <r>   16.7818    0.0000 </r>
       <r>   25.4564    0.0000 </r>
       <r>   28.4241    0.0000 </r>
       <r>   32.7504    0.0000 </r>
       <r>   37.9369    0.0000 </r>
       <r>   46.7097    0.0000 </r>
       <r>   50.4718    0.0000 </r>
      </set>
      <set comment="kpoint 51">
       <r>    6.5009    1.0000 </r>
       <r>   10.1870    1.0000 </r>
       <r>   10.4028    1.0000 </r>
       <r>   10.4028    1.0000 </r>
       <r>   12.2527    1.0000 </r>
       <r>   12.2527    1.0000 </r>
       <r>   27.2432    0.0000 </r>
       <r>   37.6974    0.0000 </r>
       <r>   42.3099    0.0000 </r>
       <r>   42.3099    0.0000 </r>
       <r>   46.6155    0.0000 </r>
       <r>   46.6155    0.0000 </r>
      </set>
      <set comment="kpoint 52">
       <r>    7.3417    1.0000 </r>
       <r>   10.0295    1.0000 </r>
       <r>   10.0712    1.0000 </r>
       <r>   10.5725    1.0000 </r>
       <r>   12.1027    1.0000 </r>
       <r>   13.7725    0.0000 </r>
       <r>   25.6871    0.0000 </r>
       <r>   33.9819    0.0000 </r>
       <r>   40.0176    0.0000 </r>
       <r>   42.1951    0.0000 </r>
       <r>   47.0063    0.0000 </r>
       <r>   47.1413    0.0000 </r>
      </set>
      <set comment="kpoint 53">
       <r>    8.5200    1.0000 </r>
       <r>    9.2144    1.0000 </r>
       <r>    9.6542    1.0000 </r>
       <r>   11.1379    1.0000 </r>
       <r>   12.1793    1.0000 </r>
       <r>   16.4943    0.0000 </r>
       <r>   24.7731    0.0000 </r>
       <r>   28.3934    0.0000 </r>
       <r>   38.0778    0.0000 </r>
       <r>   38.9196    0.0000 </r>
       <r>   49.6619    0.0000 </r>
       <r>   50.2651    0.0000 </r>
      </set>
      <set comment="kpoint 54">
       <r>    8.2432    1.0000 </r>
       <r>    8.6876    1.0000 </r>
       <r>   10.2410    1.0000 </r>
       <r>   11.6148    1.0000 </r>
       <r>   12.6697    1.0000 </r>
       <r>   19.9535    0.0000 </r>
       <r>   21.8731    0.0000 </r>
       <r>   26.7479    0.0000 </r>
       <r>   34.6918    0.0000 </r>
       <r>   38.1897    0.0000 </r>
       <r>   49.6648    0.0000 </r>
       <r>   53.6215    0.0000 </r>
      </set>
      <set comment="kpoint 55">
       <r>    7.4370    1.0000 </r>
       <r>    9.7617    1.0000 </r>
       <r>   10.4533    1.0000 </r>
       <r>   10.5780    1.0000 </r>
       <r>   12.8935    1.0000 </r>
       <r>   14.0280    0.0000 </r>
       <r>   23.8810    0.0000 </r>
       <r>   35.3402    0.0000 </r>
       <r>   37.8819    0.0000 </r>
       <r>   39.9240    0.0000 </r>
       <r>   48.2001    0.0000 </r>
       <r>   49.1680    0.0000 </r>
      </set>
      <set comment="kpoint 56">
       <r>    8.1856    1.0000 </r>
       <r>    9.1084    1.0000 </r>
       <r>   10.0309    1.0000 </r>
       <r>   11.0873    1.0000 </r>
       <r>   12.7251    1.0000 </r>
       <r>   16.7159    0.0000 </r>
       <r>   22.8969    0.0000 </r>
       <r>   31.3649    0.0000 </r>
       <r>   33.8853    0.0000 </r>
       <r>   42.1880    0.0000 </r>
       <r>   46.7863    0.0000 </r>
       <r>   49.8164    0.0000 </r>
      </set>
      <set comment="kpoint 57">
       <r>    8.3294    1.0000 </r>
       <r>    8.8692    1.0000 </r>
       <r>    9.8060    1.0000 </r>
       <r>   11.6072    1.0000 </r>
       <r>   12.8863    1.0000 </r>
       <r>   20.4355    0.0000 </r>
       <r>   22.2602    0.0000 </r>
       <r>   26.8165    0.0000 </r>
       <r>   30.8686    0.0000 </r>
       <r>   42.5948    0.0000 </r>
       <r>   49.0650    0.0000 </r>
       <r>   49.7680    0.0000 </r>
      </set>
      <set comment="kpoint 58">
       <r>    8.1621    1.0000 </r>
       <r>    8.8254    1.0000 </r>
       <r>   10.2806    1.0000 </r>
       <r>   11.2777    1.0000 </r>
       <r>   12.8575    1.0000 </r>
       <r>   18.2459    0.0000 </r>
       <r>   21.8617    0.0000 </r>
       <r>   29.4430    0.0000 </r>
       <r>   35.2337    0.0000 </r>
       <r>   38.2543    0.0000 </r>
       <r>   49.6989    0.0000 </r>
       <r>   52.2365    0.0000 </r>
      </set>
      <set comment="kpoint 59">
       <r>    7.0892    1.0000 </r>
       <r>   10.1637    1.0000 </r>
       <r>   10.1637    1.0000 </r>
       <r>   12.3415    1.0000 </r>
       <r>   12.8255    1.0000 </r>
       <r>   12.8255    1.0000 </r>
       <r>   22.2508    0.0000 </r>
       <r>   36.5911    0.0000 </r>
       <r>   41.9334    0.0000 </r>
       <r>   41.9334    0.0000 </r>
       <r>   44.7570    0.0000 </r>
       <r>   44.7570    0.0000 </r>
      </set>
      <set comment="kpoint 60">
       <r>    7.5369    1.0000 </r>
       <r>    9.7380    1.0000 </r>
       <r>   10.4389    1.0000 </r>
       <r>   11.0516    1.0000 </r>
       <r>   12.8010    1.0000 </r>
       <r>   15.4233    0.0000 </r>
       <r>   21.5276    0.0000 </r>
       <r>   34.2579    0.0000 </r>
       <r>   39.0646    0.0000 </r>
       <r>   39.2859    0.0000 </r>
       <r>   47.6958    0.0000 </r>
       <r>   47.8921    0.0000 </r>
      </set>
     </set>
     <set comment="spin 2">
      <set comment="kpoint 1">
       <r>    3.4054    1.0000 </r>
       <r>   11.7060    1.0000 </r>
       <r>   11.8344    1.0000 </r>
       <r>   11.8344    1.0000 </r>
       <r>   13.5724    0.0000 </r>
       <r>   13.5724    0.0000 </r>
       <r>   37.5994    0.0000 </r>
       <r>   42.0391    0.0000 </r>
       <r>   43.8354    0.0000 </r>
       <r>   43.8354    0.0000 </r>
       <r>   48.6894    0.0000 </r>
       <r>   48.7995    0.0000 </r>
      </set>
      <set comment="kpoint 2">
       <r>    4.3357    1.0000 </r>
       <r>   11.3466    1.0000 </r>
       <r>   12.0640    1.0000 </r>
       <r>   12.0729    1.0000 </r>
       <r>   13.3178    0.0687 </r>
       <r>   13.6749    0.0000 </r>
       <r>   35.8805    0.0000 </r>
       <r>   38.4397    0.0000 </r>
       <r>   42.4394    0.0000 </r>
       <r>   44.9803    0.0000 </r>
       <r>   46.7908    0.0000 </r>
       <r>   48.8168    0.0000 </r>
      </set>
      <set comment="kpoint 3">
       <r>    6.3017    1.0000 </r>
       <r>   10.9753    1.0000 </r>
       <r>   12.0274    1.0000 </r>
       <r>   12.1598    1.0000 </r>
       <r>   13.5334    0.0000 </r>
       <r>   14.1514    0.0000 </r>
       <r>   29.9103    0.0000 </r>
       <r>   37.1077    0.0000 </r>
       <r>   41.5261    0.0000 </r>
       <r>   45.1224    0.0000 </r>
       <r>   46.4340    0.0000 </r>
       <r>   46.7895    0.0000 </r>
      </set>
      <set comment="kpoint 4">
       <r>    7.8639    1.0000 </r>
       <r>   11.6290    1.0000 </r>
       <r>   11.8336    1.0000 </r>
       <r>   11.8829    1.0000 </r>
       <r>   14.3181    0.0000 </r>
       <r>   14.9495    0.0000 </r>
       <r>   24.4856    0.0000 </r>
       <r>   36.1454    0.0000 </r>
       <r>   40.4948    0.0000 </r>
       <r>   42.9656    0.0000 </r>
       <r>   45.4258    0.0000 </r>
       <r>   46.9063    0.0000 </r>
      </set>
      <set comment="kpoint 5">
       <r>    8.1110    1.0000 </r>
       <r>   11.5515    1.0000 </r>
       <r>   11.8034    1.0000 </r>
       <r>   12.5435    1.0000 </r>
       <r>   14.7440    0.0000 </r>
       <r>   15.2768    0.0000 </r>
       <r>   22.4619    0.0000 </r>
       <r>   35.9251    0.0000 </r>
       <r>   40.8508    0.0000 </r>
       <r>   40.9803    0.0000 </r>
       <r>   46.2126    0.0000 </r>
       <r>   46.3062    0.0000 </r>
      </set>
      <set comment="kpoint 6">
       <r>    7.5121    1.0000 </r>
       <r>   11.2606    1.0000 </r>
       <r>   11.8098    1.0000 </r>
       <r>   11.9991    1.0000 </r>
       <r>   14.3208    0.0000 </r>
       <r>   14.4561    0.0000 </r>
       <r>   26.1005    0.0000 </r>
       <r>   36.7416    0.0000 </r>
       <r>   40.3090    0.0000 </r>
       <r>   43.0811    0.0000 </r>
       <r>   45.8622    0.0000 </r>
       <r>   47.9926    0.0000 </r>
      </set>
      <set comment="kpoint 7">
       <r>    5.5868    1.0000 </r>
       <r>   11.0170    1.0000 </r>
       <r>   12.1202    1.0000 </r>
       <r>   12.1959    1.0000 </r>
       <r>   13.4247    0.0000 </r>
       <r>   13.8677    0.0000 </r>
       <r>   31.9573    0.0000 </r>
       <r>   38.0972    0.0000 </r>
       <r>   40.8576    0.0000 </r>
       <r>   44.9776    0.0000 </r>
       <r>   46.0701    0.0000 </r>
       <r>   50.0421    0.0000 </r>
      </set>
      <set comment="kpoint 8">
       <r>    3.8789    1.0000 </r>
       <r>   11.4764    1.0000 </r>
       <r>   11.9890    1.0000 </r>
       <r>   11.9962    1.0000 </r>
       <r>   13.3528    0.0066 </r>
       <r>   13.6671    0.0000 </r>
       <r>   37.1538    0.0000 </r>
       <r>   40.0699    0.0000 </r>
       <r>   42.1005    0.0000 </r>
       <r>   43.4708    0.0000 </r>
       <r>   48.5181    0.0000 </r>
       <r>   50.0561    0.0000 </r>
      </set>
      <set comment="kpoint 9">
       <r>    4.7778    1.0000 </r>
       <r>   11.0446    1.0000 </r>
       <r>   12.2801    1.0000 </r>
       <r>   12.3135    1.0000 </r>
       <r>   13.0141    1.0000 </r>
       <r>   13.8433    0.0000 </r>
       <r>   36.2478    0.0000 </r>
       <r>   38.3422    0.0000 </r>
       <r>   39.7717    0.0000 </r>
       <r>   41.3892    0.0000 </r>
       <r>   49.7405    0.0000 </r>
       <r>   50.8793    0.0000 </r>
      </set>
      <set comment="kpoint 10">
       <r>    6.3564    1.0000 </r>
       <r>   10.5534    1.0000 </r>
       <r>   12.0071    1.0000 </r>
       <r>   12.7150    1.0000 </r>
       <r>   13.2778    0.3619 </r>
       <r>   14.2810    0.0000 </r>
       <r>   32.5314    0.0000 </r>
       <r>   35.0985    0.0000 </r>
       <r>   39.0607    0.0000 </r>
       <r>   41.2703    0.0000 </r>
       <r>   48.3583    0.0000 </r>
       <r>   50.2207    0.0000 </r>
      </set>
      <set comment="kpoint 11">
       <r>    8.1544    1.0000 </r>
       <r>   10.5119    1.0000 </r>
       <r>   11.4660    1.0000 </r>
       <r>   12.5346    1.0000 </r>
       <r>   14.3307    0.0000 </r>
       <r>   15.4231    0.0000 </r>
       <r>   26.5467    0.0000 </r>
       <r>   34.2557    0.0000 </r>
       <r>   36.9207    0.0000 </r>
       <r>   41.2041    0.0000 </r>
       <r>   48.3541    0.0000 </r>
       <r>   51.3944    0.0000 </r>
      </set>
      <set comment="kpoint 12">
       <r>    8.7554    1.0000 </r>
       <r>   10.7121    1.0000 </r>
       <r>   11.7053    1.0000 </r>
       <r>   12.3164    1.0000 </r>
       <r>   14.6720    0.0000 </r>
       <r>   17.2579    0.0000 </r>
       <r>   22.5191    0.0000 </r>
       <r>   33.5244    0.0000 </r>
       <r>   36.3897    0.0000 </r>
       <r>   40.6875    0.0000 </r>
       <r>   47.6157    0.0000 </r>
       <r>   51.3149    0.0000 </r>
      </set>
      <set comment="kpoint 13">
       <r>    8.5499    1.0000 </r>
       <r>   10.8343    1.0000 </r>
       <r>   11.3441    1.0000 </r>
       <r>   12.3851    1.0000 </r>
       <r>   14.1677    0.0000 </r>
       <r>   16.2959    0.0000 </r>
       <r>   24.8740    0.0000 </r>
       <r>   32.9338    0.0000 </r>
       <r>   37.7089    0.0000 </r>
       <r>   41.9677    0.0000 </r>
       <r>   46.8507    0.0000 </r>
       <r>   50.6750    0.0000 </r>
      </set>
      <set comment="kpoint 14">
       <r>    7.0531    1.0000 </r>
       <r>   10.6129    1.0000 </r>
       <r>   11.7293    1.0000 </r>
       <r>   12.6745    1.0000 </r>
       <r>   13.2095    0.9426 </r>
       <r>   14.8427    0.0000 </r>
       <r>   30.4894    0.0000 </r>
       <r>   33.1975    0.0000 </r>
       <r>   40.1703    0.0000 </r>
       <r>   43.8623    0.0000 </r>
       <r>   46.1106    0.0000 </r>
       <r>   50.0238    0.0000 </r>
      </set>
      <set comment="kpoint 15">
       <r>    5.2018    1.0000 </r>
       <r>   11.0129    1.0000 </r>
       <r>   12.1481    1.0000 </r>
       <r>   12.3317    1.0000 </r>
       <r>   13.1293    0.9999 </r>
       <r>   13.9176    0.0000 </r>
       <r>   34.2196    0.0000 </r>
       <r>   36.7442    0.0000 </r>
       <r>   41.4818    0.0000 </r>
       <r>   43.3559    0.0000 </r>
       <r>   47.8466    0.0000 </r>
       <r>   49.6358    0.0000 </r>
      </set>
      <set comment="kpoint 16">
       <r>    7.1869    1.0000 </r>
       <r>    9.9545    1.0000 </r>
       <r>   12.2526    1.0000 </r>
       <r>   13.3227    0.0522 </r>
       <r>   13.6724    0.0000 </r>
       <r>   14.3338    0.0000 </r>
       <r>   33.0418    0.0000 </r>
       <r>   34.7193    0.0000 </r>
       <r>   35.0631    0.0000 </r>
       <r>   37.9087    0.0000 </r>
       <r>   44.7160    0.0000 </r>
       <r>   53.7185    0.0000 </r>
      </set>
      <set comment="kpoint 17">
       <r>    8.2533    1.0000 </r>
       <r>    9.6287    1.0000 </r>
       <r>   12.0270    1.0000 </r>
       <r>   13.7256    0.0000 </r>
       <r>   14.4103    0.0000 </r>
       <r>   15.5713    0.0000 </r>
       <r>   29.4402    0.0000 </r>
       <r>   31.4673    0.0000 </r>
       <r>   32.8657    0.0000 </r>
       <r>   39.3348    0.0000 </r>
       <r>   45.4460    0.0000 </r>
       <r>   53.4652    0.0000 </r>
      </set>
      <set comment="kpoint 18">
       <r>    9.0923    1.0000 </r>
       <r>    9.7256    1.0000 </r>
       <r>   11.5850    1.0000 </r>
       <r>   13.3727    0.0012 </r>
       <r>   14.7396    0.0000 </r>
       <r>   18.7748    0.0000 </r>
       <r>   24.1142    0.0000 </r>
       <r>   29.3970    0.0000 </r>
       <r>   32.9430    0.0000 </r>
       <r>   39.8442    0.0000 </r>
       <r>   50.1221    0.0000 </r>
       <r>   52.4152    0.0000 </r>
      </set>
      <set comment="kpoint 19">
       <r>    9.6894    1.0000 </r>
       <r>    9.9840    1.0000 </r>
       <r>   10.9717    1.0000 </r>
       <r>   13.1132    1.0000 </r>
       <r>   14.2291    0.0000 </r>
       <r>   19.2155    0.0000 </r>
       <r>   24.0056    0.0000 </r>
       <r>   28.0374    0.0000 </r>
       <r>   34.8507    0.0000 </r>
       <r>   40.6635    0.0000 </r>
       <r>   49.9229    0.0000 </r>
       <r>   53.1788    0.0000 </r>
      </set>
      <set comment="kpoint 20">
       <r>    8.7926    1.0000 </r>
       <r>   10.5345    1.0000 </r>
       <r>   10.9829    1.0000 </r>
       <r>   12.8301    1.0000 </r>
       <r>   13.6804    0.0000 </r>
       <r>   16.5272    0.0000 </r>
       <r>   27.0839    0.0000 </r>
       <r>   30.1348    0.0000 </r>
       <r>   37.4736    0.0000 </r>
       <r>   42.6175    0.0000 </r>
       <r>   46.8766    0.0000 </r>
       <r>   52.2604    0.0000 </r>
      </set>
      <set comment="kpoint 21">
       <r>    7.2248    1.0000 </r>
       <r>   10.8227    1.0000 </r>
       <r>   11.7827    1.0000 </r>
       <r>   12.2577    1.0000 </r>
       <r>   13.7961    0.0000 </r>
       <r>   14.6679    0.0000 </r>
       <r>   28.1149    0.0000 </r>
       <r>   35.7205    0.0000 </r>
       <r>   39.7754    0.0000 </r>
       <r>   43.2520    0.0000 </r>
       <r>   46.8713    0.0000 </r>
       <r>   48.5943    0.0000 </r>
      </set>
      <set comment="kpoint 22">
       <r>    8.0808    1.0000 </r>
       <r>    9.1157    1.0000 </r>
       <r>   13.7544    0.0000 </r>
       <r>   14.3915    0.0000 </r>
       <r>   14.7987    0.0000 </r>
       <r>   15.6664    0.0000 </r>
       <r>   28.3431    0.0000 </r>
       <r>   30.4904    0.0000 </r>
       <r>   31.6387    0.0000 </r>
       <r>   37.2664    0.0000 </r>
       <r>   42.8120    0.0000 </r>
       <r>   53.8003    0.0000 </r>
      </set>
      <set comment="kpoint 23">
       <r>    8.3297    1.0000 </r>
       <r>    9.1355    1.0000 </r>
       <r>   13.1774    0.9935 </r>
       <r>   14.3602    0.0000 </r>
       <r>   14.9358    0.0000 </r>
       <r>   18.3465    0.0000 </r>
       <r>   26.2180    0.0000 </r>
       <r>   27.9786    0.0000 </r>
       <r>   30.5012    0.0000 </r>
       <r>   38.7802    0.0000 </r>
       <r>   44.6890    0.0000 </r>
       <r>   53.7971    0.0000 </r>
      </set>
      <set comment="kpoint 24">
       <r>    9.0630    1.0000 </r>
       <r>    9.6022    1.0000 </r>
       <r>   11.8078    1.0000 </r>
       <r>   13.6841    0.0000 </r>
       <r>   14.6803    0.0000 </r>
       <r>   20.8279    0.0000 </r>
       <r>   23.2614    0.0000 </r>
       <r>   27.0227    0.0000 </r>
       <r>   32.3687    0.0000 </r>
       <r>   39.7072    0.0000 </r>
       <r>   50.3037    0.0000 </r>
       <r>   53.3532    0.0000 </r>
      </set>
      <set comment="kpoint 25">
       <r>    9.2769    1.0000 </r>
       <r>   10.2215    1.0000 </r>
       <r>   11.3437    1.0000 </r>
       <r>   12.7286    1.0000 </r>
       <r>   14.4985    0.0000 </r>
       <r>   18.6577    0.0000 </r>
       <r>   22.6481    0.0000 </r>
       <r>   30.7579    0.0000 </r>
       <r>   35.2665    0.0000 </r>
       <r>   40.6091    0.0000 </r>
       <r>   48.8501    0.0000 </r>
       <r>   53.1824    0.0000 </r>
      </set>
      <set comment="kpoint 26">
       <r>    8.2755    1.0000 </r>
       <r>   11.2702    1.0000 </r>
       <r>   11.9077    1.0000 </r>
       <r>   12.0208    1.0000 </r>
       <r>   14.5853    0.0000 </r>
       <r>   15.8042    0.0000 </r>
       <r>   23.2662    0.0000 </r>
       <r>   35.1777    0.0000 </r>
       <r>   38.7137    0.0000 </r>
       <r>   41.2921    0.0000 </r>
       <r>   46.5624    0.0000 </r>
       <r>   48.6629    0.0000 </r>
      </set>
      <set comment="kpoint 27">
       <r>    8.0381    1.0000 </r>
       <r>    8.9288    1.0000 </r>
       <r>   14.3351    0.0000 </r>
       <r>   14.6441    0.0000 </r>
       <r>   14.9590    0.0000 </r>
       <r>   16.8745    0.0000 </r>
       <r>   26.2833    0.0000 </r>
       <r>   29.7198    0.0000 </r>
       <r>   30.8454    0.0000 </r>
       <r>   37.1898    0.0000 </r>
       <r>   42.5975    0.0000 </r>
       <r>   53.9111    0.0000 </r>
      </set>
      <set comment="kpoint 28">
       <r>    8.3890    1.0000 </r>
       <r>    9.3055    1.0000 </r>
       <r>   12.6735    1.0000 </r>
       <r>   14.1693    0.0000 </r>
       <r>   14.7443    0.0000 </r>
       <r>   16.9520    0.0000 </r>
       <r>   27.9997    0.0000 </r>
       <r>   29.0408    0.0000 </r>
       <r>   31.2276    0.0000 </r>
       <r>   38.9488    0.0000 </r>
       <r>   44.8950    0.0000 </r>
       <r>   53.7297    0.0000 </r>
      </set>
      <set comment="kpoint 29">
       <r>    8.8339    1.0000 </r>
       <r>   10.0754    1.0000 </r>
       <r>   11.3876    1.0000 </r>
       <r>   12.9392    1.0000 </r>
       <r>   14.6713    0.0000 </r>
       <r>   16.8096    0.0000 </r>
       <r>   25.2012    0.0000 </r>
       <r>   32.2643    0.0000 </r>
       <r>   34.2777    0.0000 </r>
       <r>   40.2442    0.0000 </r>
       <r>   49.4804    0.0000 </r>
       <r>   51.9780    0.0000 </r>
      </set>
      <set comment="kpoint 30">
       <r>    7.9252    1.0000 </r>
       <r>    9.4707    1.0000 </r>
       <r>   12.7958    1.0000 </r>
       <r>   13.9041    0.0000 </r>
       <r>   14.5139    0.0000 </r>
       <r>   14.5822    0.0000 </r>
       <r>   31.0187    0.0000 </r>
       <r>   32.0878    0.0000 </r>
       <r>   33.1025    0.0000 </r>
       <r>   37.4591    0.0000 </r>
       <r>   43.4161    0.0000 </r>
       <r>   53.7549    0.0000 </r>
      </set>
      <set comment="kpoint 31">
       <r>    7.5290    1.0000 </r>
       <r>   10.0656    1.0000 </r>
       <r>   11.7950    1.0000 </r>
       <r>   13.1934    0.9790 </r>
       <r>   13.8398    0.0000 </r>
       <r>   14.7524    0.0000 </r>
       <r>   30.9198    0.0000 </r>
       <r>   33.4088    0.0000 </r>
       <r>   35.8367    0.0000 </r>
       <r>   40.0480    0.0000 </r>
       <r>   46.5535    0.0000 </r>
       <r>   52.3723    0.0000 </r>
      </set>
      <set comment="kpoint 32">
       <r>    5.9770    1.0000 </r>
       <r>   10.5060    1.0000 </r>
       <r>   12.3311    1.0000 </r>
       <r>   12.7683    1.0000 </r>
       <r>   13.0609    1.0000 </r>
       <r>   14.0761    0.0000 </r>
       <r>   34.7912    0.0000 </r>
       <r>   36.9271    0.0000 </r>
       <r>   37.3454    0.0000 </r>
       <r>   39.1599    0.0000 </r>
       <r>   46.9823    0.0000 </r>
       <r>   53.0003    0.0000 </r>
      </set>
      <set comment="kpoint 33">
       <r>    4.7691    1.0000 </r>
       <r>   11.2586    1.0000 </r>
       <r>   12.0938    1.0000 </r>
       <r>   12.0938    1.0000 </r>
       <r>   13.5295    0.0000 </r>
       <r>   13.5295    0.0000 </r>
       <r>   33.9075    0.0000 </r>
       <r>   38.9213    0.0000 </r>
       <r>   43.2516    0.0000 </r>
       <r>   43.2516    0.0000 </r>
       <r>   48.3390    0.0000 </r>
       <r>   49.1622    0.0000 </r>
      </set>
      <set comment="kpoint 34">
       <r>    5.9998    1.0000 </r>
       <r>   10.8776    1.0000 </r>
       <r>   12.0097    1.0000 </r>
       <r>   12.4532    1.0000 </r>
       <r>   13.0596    1.0000 </r>
       <r>   14.2861    0.0000 </r>
       <r>   32.2616    0.0000 </r>
       <r>   34.8837    0.0000 </r>
       <r>   42.6469    0.0000 </r>
       <r>   44.7023    0.0000 </r>
       <r>   45.4519    0.0000 </r>
       <r>   48.5230    0.0000 </r>
      </set>
      <set comment="kpoint 35">
       <r>    7.9322    1.0000 </r>
       <r>   10.6257    1.0000 </r>
       <r>   11.4303    1.0000 </r>
       <r>   12.6314    1.0000 </r>
       <r>   13.3055    0.1274 </r>
       <r>   15.5821    0.0000 </r>
       <r>   28.6823    0.0000 </r>
       <r>   31.5265    0.0000 </r>
       <r>   40.6009    0.0000 </r>
       <r>   42.2837    0.0000 </r>
       <r>   46.7238    0.0000 </r>
       <r>   49.7612    0.0000 </r>
      </set>
      <set comment="kpoint 36">
       <r>    8.9133    1.0000 </r>
       <r>   10.6870    1.0000 </r>
       <r>   11.4033    1.0000 </r>
       <r>   12.4361    1.0000 </r>
       <r>   14.2682    0.0000 </r>
       <r>   17.3388    0.0000 </r>
       <r>   23.5423    0.0000 </r>
       <r>   31.7140    0.0000 </r>
       <r>   38.8770    0.0000 </r>
       <r>   38.9573    0.0000 </r>
       <r>   49.4727    0.0000 </r>
       <r>   49.9378    0.0000 </r>
      </set>
      <set comment="kpoint 37">
       <r>    8.8003    1.0000 </r>
       <r>   10.4100    1.0000 </r>
       <r>   11.5580    1.0000 </r>
       <r>   12.5302    1.0000 </r>
       <r>   14.7892    0.0000 </r>
       <r>   17.0376    0.0000 </r>
       <r>   23.4576    0.0000 </r>
       <r>   32.9756    0.0000 </r>
       <r>   36.6828    0.0000 </r>
       <r>   38.8553    0.0000 </r>
       <r>   50.6239    0.0000 </r>
       <r>   51.0884    0.0000 </r>
      </set>
      <set comment="kpoint 38">
       <r>    7.7706    1.0000 </r>
       <r>   10.2088    1.0000 </r>
       <r>   11.6597    1.0000 </r>
       <r>   12.7768    1.0000 </r>
       <r>   14.5723    0.0000 </r>
       <r>   14.6166    0.0000 </r>
       <r>   28.5730    0.0000 </r>
       <r>   34.9575    0.0000 </r>
       <r>   36.2137    0.0000 </r>
       <r>   39.6285    0.0000 </r>
       <r>   48.8082    0.0000 </r>
       <r>   51.8227    0.0000 </r>
      </set>
      <set comment="kpoint 39">
       <r>    6.6697    1.0000 </r>
       <r>   10.6447    1.0000 </r>
       <r>   11.9206    1.0000 </r>
       <r>   12.4223    1.0000 </r>
       <r>   13.7542    0.0000 </r>
       <r>   14.2415    0.0000 </r>
       <r>   30.1782    0.0000 </r>
       <r>   36.8981    0.0000 </r>
       <r>   38.4247    0.0000 </r>
       <r>   41.9543    0.0000 </r>
       <r>   48.7441    0.0000 </r>
       <r>   50.2553    0.0000 </r>
      </set>
      <set comment="kpoint 40">
       <r>    8.1262    1.0000 </r>
       <r>   10.2748    1.0000 </r>
       <r>   11.3399    1.0000 </r>
       <r>   13.0399    1.0000 </r>
       <r>   13.6968    0.0000 </r>
       <r>   15.5785    0.0000 </r>
       <r>   28.9019    0.0000 </r>
       <r>   31.6868    0.0000 </r>
       <r>   36.5317    0.0000 </r>
       <r>   42.9450    0.0000 </r>
       <r>   46.8078    0.0000 </r>
       <r>   51.1000    0.0000 </r>
      </set>
      <set comment="kpoint 41">
       <r>    9.3968    1.0000 </r>
       <r>   10.2669    1.0000 </r>
       <r>   10.7087    1.0000 </r>
       <r>   13.1785    0.9930 </r>
       <r>   14.1709    0.0000 </r>
       <r>   17.9002    0.0000 </r>
       <r>   25.6969    0.0000 </r>
       <r>   29.0340    0.0000 </r>
       <r>   33.7423    0.0000 </r>
       <r>   43.9669    0.0000 </r>
       <r>   46.3805    0.0000 </r>
       <r>   52.6812    0.0000 </r>
      </set>
      <set comment="kpoint 42">
       <r>    9.5684    1.0000 </r>
       <r>    9.8789    1.0000 </r>
       <r>   11.1065    1.0000 </r>
       <r>   13.1107    1.0000 </r>
       <r>   14.6212    0.0000 </r>
       <r>   19.7004    0.0000 </r>
       <r>   22.8407    0.0000 </r>
       <r>   29.9414    0.0000 </r>
       <r>   31.9556    0.0000 </r>
       <r>   42.6737    0.0000 </r>
       <r>   48.0344    0.0000 </r>
       <r>   53.0233    0.0000 </r>
      </set>
      <set comment="kpoint 43">
       <r>    8.8159    1.0000 </r>
       <r>    9.9341    1.0000 </r>
       <r>   11.2498    1.0000 </r>
       <r>   13.4871    0.0000 </r>
       <r>   14.2338    0.0000 </r>
       <r>   16.7126    0.0000 </r>
       <r>   27.5151    0.0000 </r>
       <r>   30.3324    0.0000 </r>
       <r>   32.9808    0.0000 </r>
       <r>   42.2193    0.0000 </r>
       <r>   47.2799    0.0000 </r>
       <r>   51.4244    0.0000 </r>
      </set>
      <set comment="kpoint 44">
       <r>    8.4863    1.0000 </r>
       <r>    9.7804    1.0000 </r>
       <r>   11.7602    1.0000 </r>
       <r>   13.2267    0.8623 </r>
       <r>   14.7935    0.0000 </r>
       <r>   15.9575    0.0000 </r>
       <r>   27.1578    0.0000 </r>
       <r>   32.0434    0.0000 </r>
       <r>   34.3842    0.0000 </r>
       <r>   38.6359    0.0000 </r>
       <r>   47.8615    0.0000 </r>
       <r>   53.4011    0.0000 </r>
      </set>
      <set comment="kpoint 45">
       <r>    8.9127    1.0000 </r>
       <r>    9.6756    1.0000 </r>
       <r>   11.6188    1.0000 </r>
       <r>   13.7974    0.0000 </r>
       <r>   14.6583    0.0000 </r>
       <r>   18.3841    0.0000 </r>
       <r>   26.3954    0.0000 </r>
       <r>   28.7421    0.0000 </r>
       <r>   30.3179    0.0000 </r>
       <r>   41.7530    0.0000 </r>
       <r>   47.6018    0.0000 </r>
       <r>   52.1733    0.0000 </r>
      </set>
      <set comment="kpoint 46">
       <r>    9.2413    1.0000 </r>
       <r>   10.1486    1.0000 </r>
       <r>   10.9827    1.0000 </r>
       <r>   13.4512    0.0000 </r>
       <r>   14.9232    0.0000 </r>
       <r>   21.9339    0.0000 </r>
       <r>   23.8880    0.0000 </r>
       <r>   26.7279    0.0000 </r>
       <r>   28.6539    0.0000 </r>
       <r>   44.8869    0.0000 </r>
       <r>   48.6618    0.0000 </r>
       <r>   51.3880    0.0000 </r>
      </set>
      <set comment="kpoint 47">
       <r>    9.4255    1.0000 </r>
       <r>   10.1537    1.0000 </r>
       <r>   10.7836    1.0000 </r>
       <r>   13.4030    0.0000 </r>
       <r>   14.6263    0.0000 </r>
       <r>   19.8214    0.0000 </r>
       <r>   24.5976    0.0000 </r>
       <r>   28.1287    0.0000 </r>
       <r>   30.4146    0.0000 </r>
       <r>   44.8690    0.0000 </r>
       <r>   46.8984    0.0000 </r>
       <r>   52.3273    0.0000 </r>
      </set>
      <set comment="kpoint 48">
[...]
       </set>
       <set comment="band 5">
        <r>  0.0002  0.0000  0.0006  0.0010  0.0025  0.0310  0.0001  0.9528  0.0060 </r>
       </set>
       <set comment="band 6">
        <r>  0.0241  0.0083  0.5695  0.0013  0.0003  0.3251  0.0313  0.0164  0.0024 </r>
       </set>
       <set comment="band 7">
        <r>  0.0021  0.1562  0.0136  0.3017  0.1689  0.0105  0.2511  0.0058  0.0244 </r>
       </set>
       <set comment="band 8">
        <r>  0.2578  0.0202  0.0324  0.1502  0.1169  0.0055  0.3580  0.0009  0.0010 </r>
       </set>
       <set comment="band 9">
        <r>  0.2908  0.1854  0.0054  0.1522  0.0547  0.0014  0.0005  0.0017  0.1205 </r>
       </set>
       <set comment="band 10">
        <r>  0.0218  0.0250  0.0005  0.0680  0.8066  0.0000  0.0121  0.0014  0.0051 </r>
       </set>
       <set comment="band 11">
        <r>  0.4178  0.2577  0.0057  0.0127  0.0706  0.0001  0.1666  0.0003  0.0103 </r>
       </set>
       <set comment="band 12">
        <r>  1.5712  0.0091  0.0246  0.0000  0.0007  0.3114  0.0132  0.0020  0.0279 </r>
       </set>
      </set>
      <set comment="kpoint 50">
       <set comment="band 1">
        <r>  0.0923  0.0117  0.0508  0.0117  0.0678  0.0065  0.6797  0.0065  0.0000 </r>
       </set>
       <set comment="band 2">
        <r>  0.0005  0.0333  0.0002  0.0333  0.8429  0.0081  0.0571  0.0081  0.0000 </r>
       </set>
       <set comment="band 3">
        <r>  0.0443  0.0000  0.2279  0.0000  0.0306  0.2994  0.0706  0.2994  0.0000 </r>
       </set>
       <set comment="band 4">
        <r>  0.0000  0.0073  0.0000  0.0073  0.0000  0.1609  0.0000  0.1609  0.6452 </r>
       </set>
       <set comment="band 5">
        <r>  0.0000  0.0000  0.0000  0.0000  0.0000  0.3314  0.0000  0.3314  0.3316 </r>
       </set>
       <set comment="band 6">
        <r>  0.0768  0.0200  0.3537  0.0200  0.0054  0.1874  0.1250  0.1874  0.0000 </r>
       </set>
       <set comment="band 7">
        <r>  0.0999  0.2173  0.0044  0.2173  0.1892  0.0428  0.0946  0.0428  0.0000 </r>
       </set>
       <set comment="band 8">
        <r>  0.2240  0.0004  0.1708  0.0004  0.0360  0.0042  0.4864  0.0042  0.0000 </r>
       </set>
       <set comment="band 9">
        <r>  0.0000  0.3086  0.0000  0.3086  0.0000  0.0276  0.0000  0.0276  0.1109 </r>
       </set>
       <set comment="band 10">
        <r>  0.1351  0.0009  0.0215  0.0009  0.7875  0.0002  0.0261  0.0002  0.0000 </r>
       </set>
       <set comment="band 11">
        <r>  0.3933  0.0990  0.0348  0.0990  0.2067  0.0066  0.1087  0.0066  0.0000 </r>
       </set>
       <set comment="band 12">
        <r>  5.7993  0.0086  0.0060  0.0085  0.0125  0.0007  0.0015  0.0007  0.0000 </r>
       </set>
      </set>
      <set comment="kpoint 51">
       <set comment="band 1">
        <r>  0.5388  0.0593  0.0593  0.0593  0.0737  0.0737  0.0000  0.0737  0.0000 </r>
       </set>
       <set comment="band 2">
        <r>  0.0349  0.0776  0.0776  0.0776  0.2278  0.2278  0.0000  0.2278  0.0000 </r>
       </set>
       <set comment="band 3">
        <r>  0.0000  0.0007  0.0007  0.0000  0.2732  0.0009  0.3297  0.2726  0.1102 </r>
       </set>
       <set comment="band 4">
        <r>  0.0000  0.0002  0.0002  0.0009  0.0913  0.3635  0.1102  0.0919  0.3297 </r>
       </set>
       <set comment="band 5">
        <r>  0.0000  0.0009  0.0016  0.0001  0.2679  0.0174  0.4969  0.1543  0.0467 </r>
       </set>
       <set comment="band 6">
        <r>  0.0000  0.0008  0.0002  0.0017  0.0252  0.2756  0.0467  0.1388  0.4969 </r>
       </set>
       <set comment="band 7">
        <r>  0.1816  0.0864  0.0864  0.0864  0.1717  0.1717  0.0000  0.1717  0.0000 </r>
       </set>
       <set comment="band 8">
        <r>  0.0079  0.0044  0.0044  0.0044  0.0267  0.0267  0.0000  0.0267  0.0000 </r>
       </set>
       <set comment="band 9">
        <r>  0.0000  0.0845  0.0456  0.2171  0.0664  0.3164  0.0284  0.1232  0.1160 </r>
       </set>
       <set comment="band 10">
        <r>  0.0000  0.1469  0.1859  0.0144  0.2709  0.0210  0.1160  0.2142  0.0284 </r>
       </set>
       <set comment="band 11">
        <r>  0.0000  0.0706  0.0009  0.0649  0.0001  0.0043  0.0074  0.0047  0.7382 </r>
       </set>
       <set comment="band 12">
        <r>  0.0000  0.0203  0.0901  0.0260  0.0060  0.0017  0.7382  0.0014  0.0074 </r>
       </set>
      </set>
      <set comment="kpoint 52">
       <set comment="band 1">
        <r>  0.3861  0.0923  0.0923  0.0023  0.0931  0.1783  0.0032  0.0931  0.0097 </r>
       </set>
       <set comment="band 2">
        <r>  0.0283  0.0825  0.0825  0.1053  0.2753  0.0123  0.0211  0.2753  0.0632 </r>
       </set>
       <set comment="band 3">
        <r>  0.0020  0.0021  0.0021  0.0047  0.0698  0.3465  0.1203  0.0698  0.3609 </r>
       </set>
       <set comment="band 4">
        <r>  0.0000  0.0008  0.0008  0.0000  0.1891  0.0000  0.4521  0.1891  0.1507 </r>
       </set>
       <set comment="band 5">
        <r>  0.0000  0.0014  0.0014  0.0000  0.3042  0.0000  0.2790  0.3042  0.0930 </r>
       </set>
       <set comment="band 6">
        <r>  0.0428  0.0353  0.0353  0.0091  0.0075  0.4426  0.1015  0.0075  0.3045 </r>
       </set>
       <set comment="band 7">
        <r>  0.2119  0.0460  0.0460  0.1699  0.1811  0.1191  0.0050  0.1811  0.0151 </r>
       </set>
       <set comment="band 8">
        <r>  0.0385  0.0185  0.0185  0.1643  0.1110  0.0820  0.0411  0.1110  0.1234 </r>
       </set>
       <set comment="band 9">
        <r>  0.0419  0.1083  0.1083  0.0908  0.0065  0.0068  0.0010  0.0065  0.0029 </r>
       </set>
       <set comment="band 10">
        <r>  0.0000  0.1585  0.1585  0.0000  0.0015  0.0000  0.4925  0.0015  0.1642 </r>
       </set>
       <set comment="band 11">
        <r>  0.0844  0.0105  0.0105  0.0249  0.0142  0.1470  0.0763  0.0142  0.2288 </r>
       </set>
       <set comment="band 12">
        <r>  0.0000  0.0765  0.0765  0.0000  0.3438  0.0000  0.2015  0.3438  0.0672 </r>
       </set>
      </set>
      <set comment="kpoint 53">
       <set comment="band 1">
        <r>  0.1839  0.1179  0.1179  0.0036  0.0365  0.4335  0.0077  0.0365  0.0232 </r>
       </set>
       <set comment="band 2">
        <r>  0.0004  0.0418  0.0418  0.0191  0.0313  0.1196  0.1626  0.0313  0.4879 </r>
       </set>
       <set comment="band 3">
        <r>  0.0049  0.0043  0.0043  0.1173  0.3517  0.1013  0.0113  0.3517  0.0338 </r>
       </set>
       <set comment="band 4">
        <r>  0.0000  0.0057  0.0057  0.0000  0.0433  0.0000  0.6584  0.0433  0.2195 </r>
       </set>
       <set comment="band 5">
        <r>  0.0000  0.0004  0.0004  0.0000  0.4488  0.0000  0.0641  0.4488  0.0214 </r>
       </set>
       <set comment="band 6">
        <r>  0.1290  0.1036  0.1036  0.0068  0.0003  0.3805  0.0620  0.0003  0.1860 </r>
       </set>
       <set comment="band 7">
        <r>  0.1073  0.0091  0.0091  0.3935  0.2120  0.0329  0.0080  0.2120  0.0241 </r>
       </set>
       <set comment="band 8">
        <r>  0.2212  0.0428  0.0428  0.1178  0.0443  0.0900  0.0653  0.0443  0.1959 </r>
       </set>
       <set comment="band 9">
        <r>  0.0000  0.2202  0.2202  0.0000  0.0010  0.0000  0.3829  0.0010  0.1276 </r>
       </set>
       <set comment="band 10">
        <r>  0.1104  0.0702  0.0702  0.0058  0.0001  0.1620  0.0209  0.0001  0.0627 </r>
       </set>
       <set comment="band 11">
        <r>  0.0356  0.0001  0.0001  0.0786  0.0488  0.0362  0.0087  0.0488  0.0262 </r>
       </set>
       <set comment="band 12">
        <r>  0.0000  0.0103  0.0103  0.0000  0.4232  0.0000  0.0423  0.4232  0.0141 </r>
       </set>
      </set>
      <set comment="kpoint 54">
       <set comment="band 1">
        <r>  0.0444  0.0020  0.0020  0.0068  0.0060  0.3500  0.1335  0.0060  0.4005 </r>
       </set>
       <set comment="band 2">
        <r>  0.0169  0.1040  0.1040  0.0001  0.0068  0.4517  0.0662  0.0068  0.1985 </r>
       </set>
       <set comment="band 3">
        <r>  0.0017  0.0017  0.0017  0.2001  0.3700  0.0291  0.0009  0.3700  0.0028 </r>
       </set>
       <set comment="band 4">
        <r>  0.0000  0.0080  0.0080  0.0000  0.0348  0.0000  0.6686  0.0348  0.2229 </r>
       </set>
       <set comment="band 5">
        <r>  0.0000  0.0002  0.0002  0.0000  0.4590  0.0000  0.0522  0.4590  0.0174 </r>
       </set>
       <set comment="band 6">
        <r>  0.0716  0.1767  0.1767  0.0870  0.0181  0.2123  0.0456  0.0181  0.1369 </r>
       </set>
       <set comment="band 7">
        <r>  0.1196  0.0123  0.0123  0.4257  0.1853  0.0557  0.0000  0.1853  0.0001 </r>
       </set>
       <set comment="band 8">
        <r>  0.3332  0.0152  0.0152  0.0647  0.0110  0.0527  0.0997  0.0110  0.2991 </r>
       </set>
       <set comment="band 9">
        <r>  0.0000  0.2768  0.2768  0.0000  0.0021  0.0000  0.2208  0.0021  0.0736 </r>
       </set>
       <set comment="band 10">
        <r>  0.1465  0.0279  0.0279  0.0037  0.0000  0.4695  0.0185  0.0000  0.0556 </r>
       </set>
       <set comment="band 11">
        <r>  4.2754  0.0288  0.0289  0.0012  0.0001  0.1053  0.0111  0.0001  0.0334 </r>
       </set>
       <set comment="band 12">
        <r>  0.5134  0.0310  0.0198  0.0287  0.1793  0.1159  0.0114  0.0942  0.0050 </r>
       </set>
      </set>
      <set comment="kpoint 55">
       <set comment="band 1">
        <r>  0.2896  0.0067  0.0965  0.0067  0.2126  0.1614  0.0312  0.1614  0.0000 </r>
       </set>
       <set comment="band 2">
        <r>  0.0145  0.0992  0.0671  0.0992  0.1269  0.0507  0.4222  0.0507  0.0000 </r>
       </set>
       <set comment="band 3">
        <r>  0.0231  0.0217  0.0531  0.0217  0.4897  0.0724  0.2263  0.0724  0.0000 </r>
       </set>
       <set comment="band 4">
        <r>  0.0000  0.0038  0.0000  0.0038  0.0000  0.2237  0.0000  0.2237  0.5294 </r>
       </set>
       <set comment="band 5">
        <r>  0.0000  0.0003  0.0000  0.0003  0.0000  0.2694  0.0000  0.2694  0.4537 </r>
       </set>
       <set comment="band 6">
        <r>  0.0405  0.0419  0.1001  0.0419  0.0958  0.1749  0.2999  0.1749  0.0000 </r>
       </set>
       <set comment="band 7">
        <r>  0.2844  0.0973  0.0114  0.0973  0.2057  0.1385  0.0104  0.1385  0.0000 </r>
       </set>
       <set comment="band 8">
        <r>  0.0014  0.0013  0.0675  0.0013  0.1157  0.0063  0.2901  0.0063  0.0000 </r>
       </set>
       <set comment="band 9">
        <r>  0.0000  0.2423  0.0000  0.2423  0.0000  0.1044  0.0000  0.1044  0.1848 </r>
       </set>
       <set comment="band 10">
        <r>  0.1061  0.0359  0.2585  0.0359  0.1544  0.0075  0.1112  0.0075  0.0000 </r>
       </set>
       <set comment="band 11">
        <r>  0.0409  0.0001  0.0150  0.0001  0.3746  0.0287  0.5292  0.0287  0.0000 </r>
       </set>
       <set comment="band 12">
        <r>  0.0000  0.0504  0.0000  0.0504  0.0000  0.0860  0.0000  0.0860  0.6118 </r>
       </set>
      </set>
      <set comment="kpoint 56">
       <set comment="band 1">
        <r>  0.1541  0.0188  0.0917  0.0115  0.2788  0.2467  0.0660  0.1027  0.0015 </r>
       </set>
       <set comment="band 2">
        <r>  0.0000  0.0914  0.0247  0.0554  0.0667  0.0425  0.5025  0.0223  0.1239 </r>
       </set>
       <set comment="band 3">
        <r>  0.0152  0.0147  0.0680  0.0586  0.4095  0.3424  0.0360  0.0045  0.0311 </r>
       </set>
       <set comment="band 4">
        <r>  0.0000  0.0021  0.0168  0.0030  0.0324  0.0088  0.1493  0.2400  0.5259 </r>
       </set>
       <set comment="band 5">
        <r>  0.0008  0.0005  0.0033  0.0024  0.0874  0.0631  0.0628  0.5539  0.2142 </r>
       </set>
       <set comment="band 6">
        <r>  0.0673  0.0835  0.1900  0.0573  0.0246  0.2927  0.1644  0.0096  0.0756 </r>
       </set>
       <set comment="band 7">
        <r>  0.2824  0.0384  0.0002  0.1973  0.2232  0.0909  0.0133  0.1257  0.0127 </r>
       </set>
       <set comment="band 8">
        <r>  0.0249  0.0886  0.0111  0.1672  0.1135  0.0760  0.2060  0.0192  0.1301 </r>
       </set>
       <set comment="band 9">
        <r>  0.1683  0.0000  0.2626  0.0866  0.0024  0.0161  0.2084  0.0357  0.0565 </r>
       </set>
       <set comment="band 10">
        <r>  0.0047  0.2480  0.0419  0.0342  0.1148  0.0043  0.0089  0.0037  0.0000 </r>
       </set>
       <set comment="band 11">
        <r>  0.0762  0.0203  0.0008  0.0056  0.3178  0.1773  0.0909  0.0481  0.2632 </r>
       </set>
       <set comment="band 12">
        <r>  5.6776  0.0080  0.0013  0.0022  0.0151  0.0068  0.0095  0.0064  0.0042 </r>
       </set>
      </set>
      <set comment="kpoint 57">
       <set comment="band 1">
        <r>  0.0024  0.0873  0.0164  0.0037  0.0003  0.0056  0.4633  0.0001  0.3410 </r>
       </set>
       <set comment="band 2">
        <r>  0.0412  0.0153  0.1055  0.0067  0.0354  0.7612  0.0026  0.0122  0.0035 </r>
       </set>
       <set comment="band 3">
        <r>  0.0010  0.0017  0.0065  0.1635  0.6918  0.0496  0.0033  0.0623  0.0005 </r>
       </set>
       <set comment="band 4">
        <r>  0.0094  0.0014  0.0101  0.0020  0.0004  0.0035  0.3887  0.0266  0.5319 </r>
       </set>
       <set comment="band 5">
        <r>  0.0009  0.0000  0.0000  0.0037  0.1098  0.0059  0.0107  0.8452  0.0140 </r>
       </set>
       <set comment="band 6">
        <r>  0.0606  0.1152  0.2715  0.0735  0.0293  0.2232  0.1154  0.0010  0.0637 </r>
       </set>
       <set comment="band 7">
        <r>  0.1133  0.0001  0.0303  0.4400  0.2706  0.0525  0.0000  0.0817  0.0031 </r>
       </set>
       <set comment="band 8">
        <r>  0.2490  0.0881  0.0026  0.0736  0.0262  0.0527  0.1492  0.0037  0.2579 </r>
       </set>
       <set comment="band 9">
        <r>  0.2048  0.0691  0.2625  0.0046  0.0003  0.0743  0.2236  0.0026  0.0178 </r>
       </set>
       <set comment="band 10">
        <r>  0.0352  0.1520  0.0355  0.0023  0.0005  0.3881  0.0069  0.0005  0.0732 </r>
       </set>
       <set comment="band 11">
        <r>  0.0110  0.0149  0.0003  0.0463  0.4987  0.0371  0.0106  0.0183  0.0209 </r>
       </set>
       <set comment="band 12">
        <r>  4.9539  0.0293  0.0081  0.0001  0.0024  0.0474  0.0000  0.0002  0.0489 </r>
       </set>
      </set>
      <set comment="kpoint 58">
       <set comment="band 1">
        <r>  0.0984  0.0020  0.0457  0.0020  0.5005  0.0749  0.1759  0.0749  0.0000 </r>
       </set>
       <set comment="band 2">
        <r>  0.0007  0.0932  0.0059  0.0932  0.1301  0.0160  0.5762  0.0160  0.0000 </r>
       </set>
       <set comment="band 3">
        <r>  0.0120  0.0124  0.1579  0.0124  0.2114  0.2702  0.0316  0.2702  0.0000 </r>
       </set>
       <set comment="band 4">
        <r>  0.0000  0.0069  0.0000  0.0069  0.0000  0.1355  0.0000  0.1355  0.6935 </r>
       </set>
       <set comment="band 5">
        <r>  0.0000  0.0002  0.0000  0.0002  0.0000  0.3581  0.0000  0.3581  0.2741 </r>
       </set>
       <set comment="band 6">
        <r>  0.0060  0.1110  0.2597  0.1110  0.0747  0.0919  0.2109  0.0919  0.0000 </r>
       </set>
       <set comment="band 7">
        <r>  0.3267  0.0727  0.0575  0.0727  0.2028  0.1177  0.0079  0.1177  0.0000 </r>
       </set>
       <set comment="band 8">
        <r>  0.1524  0.0109  0.2005  0.0109  0.0404  0.0301  0.4061  0.0301  0.0000 </r>
       </set>
       <set comment="band 9">
        <r>  0.0000  0.2716  0.0000  0.2716  0.0000  0.0191  0.0000  0.0191  0.2700 </r>
       </set>
       <set comment="band 10">
        <r>  0.1427  0.0313  0.0362  0.0313  0.4124  0.0003  0.0349  0.0003  0.0000 </r>
       </set>
       <set comment="band 11">
        <r>  0.0165  0.0413  0.0328  0.0412  0.3818  0.0070  0.0701  0.0070  0.0000 </r>
       </set>
       <set comment="band 12">
        <r>  0.0004  0.0267  0.0000  0.0271  0.0000  0.2247  0.0000  0.2238  0.2615 </r>
       </set>
      </set>
      <set comment="kpoint 59">
       <set comment="band 1">
        <r>  0.2748  0.0085  0.0085  0.0085  0.2273  0.2273  0.0000  0.2273  0.0000 </r>
       </set>
       <set comment="band 2">
        <r>  0.0000  0.0000  0.0001  0.0000  0.2344  0.1152  0.4793  0.0680  0.0900 </r>
       </set>
       <set comment="band 3">
        <r>  0.0000  0.0001  0.0000  0.0001  0.0440  0.1632  0.0900  0.2104  0.4793 </r>
       </set>
       <set comment="band 4">
        <r>  0.0354  0.2475  0.2475  0.2475  0.0355  0.0355  0.0000  0.0355  0.0000 </r>
       </set>
       <set comment="band 5">
        <r>  0.0000  0.0003  0.0000  0.0003  0.0269  0.2821  0.0291  0.2666  0.3862 </r>
       </set>
       <set comment="band 6">
        <r>  0.0000  0.0001  0.0004  0.0001  0.3569  0.1016  0.3862  0.1172  0.0291 </r>
       </set>
       <set comment="band 7">
        <r>  0.3865  0.0257  0.0257  0.0257  0.1829  0.1829  0.0000  0.1829  0.0000 </r>
       </set>
       <set comment="band 8">
        <r>  0.0007  0.0111  0.0111  0.0111  0.0035  0.0035  0.0000  0.0035  0.0000 </r>
       </set>
       <set comment="band 9">
        <r>  0.0000  0.0851  0.1478  0.2991  0.0288  0.0582  0.0108  0.0166  0.0151 </r>
       </set>
       <set comment="band 10">
        <r>  0.0000  0.2696  0.2069  0.0555  0.0403  0.0108  0.0151  0.0525  0.0108 </r>
       </set>
       <set comment="band 11">
        <r>  0.0000  0.0145  0.0060  0.0081  0.0747  0.1019  0.2934  0.1819  0.6451 </r>
       </set>
       <set comment="band 12">
        <r>  0.0000  0.0046  0.0131  0.0109  0.1643  0.1371  0.6451  0.0571  0.2934 </r>
       </set>
      </set>
      <set comment="kpoint 60">
       <set comment="band 1">
        <r>  0.2043  0.0121  0.0121  0.0146  0.2206  0.3016  0.0000  0.2206  0.0001 </r>
       </set>
       <set comment="band 2">
        <r>  0.0002  0.0565  0.0565  0.0211  0.0158  0.0792  0.1742  0.0158  0.5226 </r>
       </set>
       <set comment="band 3">
        <r>  0.0012  0.1107  0.1107  0.1446  0.1399  0.3057  0.0000  0.1399  0.0000 </r>
       </set>
       <set comment="band 4">
        <r>  0.0000  0.0021  0.0021  0.0000  0.1823  0.0000  0.4607  0.1823  0.1536 </r>
       </set>
       <set comment="band 5">
        <r>  0.0000  0.0003  0.0003  0.0000  0.3133  0.0000  0.2724  0.3133  0.0908 </r>
       </set>
       <set comment="band 6">
        <r>  0.0078  0.1112  0.1112  0.1093  0.0349  0.2491  0.0742  0.0349  0.2226 </r>
       </set>
       <set comment="band 7">
        <r>  0.4181  0.0001  0.0001  0.0504  0.1871  0.1691  0.0005  0.1871  0.0016 </r>
       </set>
       <set comment="band 8">
        <r>  0.0185  0.0025  0.0025  0.1414  0.0464  0.0690  0.0647  0.0464  0.1940 </r>
       </set>
       <set comment="band 9">
        <r>  0.0772  0.0882  0.0882  0.1714  0.0132  0.0316  0.0028  0.0132  0.0083 </r>
       </set>
       <set comment="band 10">
        <r>  0.0000  0.2285  0.2285  0.0000  0.0264  0.0000  0.2699  0.0264  0.0900 </r>
       </set>
       <set comment="band 11">
        <r>  0.0000  0.0547  0.0547  0.0000  0.2259  0.0000  0.3836  0.2259  0.1279 </r>
       </set>
       <set comment="band 12">
        <r>  0.0979  0.0006  0.0006  0.0009  0.0002  0.3704  0.1337  0.0002  0.4011 </r>
       </set>
      </set>
     </set>
    </set>
   </array>
  </projected>
 </calculation>
 <structure name="finalpos" >
  <crystal>
   <varray name="basis" >
    <v>       0.00000000       1.64901150       1.64901150 </v>
    <v>       1.64901150       0.00000000       1.64901150 </v>
    <v>       1.64901150       1.64901150       0.00000000 </v>
   </varray>
   <i name="volume">      8.96811258 </i>
   <varray name="rec_basis" >
    <v>      -0.30321195       0.30321195       0.30321195 </v>
    <v>       0.30321195      -0.30321195       0.30321195 </v>
    <v>       0.30321195       0.30321195      -0.30321195 </v>
   </varray>
  </crystal>
  <varray name="positions" >
   <v>       0.00000000       0.00000000       0.00000000 </v>
  </varray>
 </structure>
</modeling>
