Pt-hcc                                  
   1.00000000000000     
     2.863091    0.000000    0.000000
    -1.431546    2.479510    0.000000
     0.000000    0.000000    4.960238
   Pt
     2
Direct
  0.000000  0.000000  0.000000
  0.333333  0.666667  0.500000
 
   40   40   72
  308.36      307.95      305.95      300.32      288.60      268.93      240.97      206.29      168.10      130.37    
  96.710      69.516      49.502      35.875      26.856      20.693      16.576      13.949      12.364      11.524    
  11.262      11.524      12.364      13.948      16.577      20.691      26.858      35.876      49.499      69.517    
  96.709      130.37      168.10      206.29      240.97      268.93      288.60      300.32      305.95      307.95    
  307.95      307.95      306.74      302.88      294.08      278.15      254.00      222.28      185.48      147.27    
  111.52      81.262      57.993      41.584      30.676      23.319      18.303      15.032      12.990      11.817    
  11.283      11.283      11.817      12.990      15.032      18.303      23.321      30.672      41.586      57.992    
  81.262      111.52      147.27      185.48      222.28      254.00      278.16      294.08      302.88      306.74    
  305.95      306.75      305.95      302.88      295.76      282.48      261.57      232.96      198.37      160.93    
  124.43      92.201      66.373      47.466      34.613      26.037      20.140      16.198      13.676      12.152    
  11.340      11.088      11.340      12.152      13.675      16.200      20.137      26.039      34.612      47.466    
  66.373      92.201      124.43      160.93      198.37      232.96      261.57      282.48      295.76      302.88    
  300.32      302.90      302.90      300.32      294.08      282.48      264.03      238.27      206.24      170.48    
  134.39      101.37      73.903      53.064      38.472      28.703      21.992      17.403      14.402      12.518    
  11.431      10.933      10.934      11.430      12.519      14.401      17.404      21.991      28.702      38.474    
  53.062      73.905      101.37      134.39      170.47      206.24      238.27      264.04      282.48      294.08    
  288.60      294.11      295.80      294.11      288.60      278.16      261.57      238.27      208.88      175.36    
  140.66      107.96      79.876      57.857      41.965      31.155      23.743      18.584      15.133      12.904    
  11.548      10.819      10.592      10.819      11.548      12.904      15.133      18.583      23.746      31.153    
  41.967      57.856      79.877      107.96      140.66      175.36      208.88      238.27      261.57      278.16    
  268.93      278.18      282.53      282.53      278.18      268.93      254.00      232.96      206.24      175.36    
  142.80      111.40      83.710      61.364      44.766      33.221      25.273      19.665      15.825      13.290    
  11.682      10.742      10.308      10.308      10.741      11.683      13.289      15.826      19.663      25.275    
  33.220      44.766      61.364      83.710      111.40      142.79      175.36      206.24      232.96      254.00    
  240.97      254.02      261.62      264.09      261.61      254.02      240.97      222.28      198.37      170.47    
  140.66      111.40      85.032      63.217      46.581      34.724      26.467      20.565      16.434      13.646    
  11.823      10.694      10.079      9.8846      10.079      10.693      11.824      13.646      16.435      20.564    
  26.467      34.725      46.580      63.217      85.030      111.40      140.66      170.47      198.37      222.28    
  206.29      222.29      232.99      238.31      238.31      232.99      222.29      206.29      185.48      160.93    
  134.39      107.96      83.711      63.216      47.210      35.518      27.227      21.210      16.911      13.947    
  11.956      10.669      9.9000      9.5413      9.5408      9.9006      10.669      11.956      13.947      16.912    
  21.211      27.227      35.519      47.209      63.217      83.710      107.96      134.39      160.93      185.48    
  168.10      185.47      198.37      206.25      208.90      206.25      198.36      185.47      168.10      147.27    
  124.43      101.37      79.877      61.363      46.581      35.518      27.488      21.548      17.216      14.166    
  12.065      10.661      9.7665      9.2714      9.1116      9.2714      9.7665      10.661      12.065      14.166    
  17.216      21.549      27.487      35.519      46.580      61.364      79.877      101.37      124.43      147.27    
  130.37      147.24      160.90      170.44      175.33      175.33      170.44      160.90      147.24      130.37    
  111.52      92.202      73.904      57.855      44.767      34.723      27.228      21.547      17.321      14.280    
  12.137      10.660      9.6748      9.0709      8.7829      8.7829      9.0710      9.6749      10.660      12.136    
  14.281      17.320      21.549      27.227      34.725      44.766      57.856      73.905      92.201      111.52    
  96.709      111.48      124.36      134.31      140.57      142.70      140.57      134.31      124.36      111.48    
  96.710      81.263      66.372      53.063      41.967      33.219      26.468      21.210      17.217      14.280    
  12.162      10.661      9.6211      8.9385      8.5490      8.4230      8.5490      8.9385      9.6211      10.662    
  12.161      14.281      17.216      21.211      26.467      33.220      41.967      53.062      66.373      81.262    
  69.517      81.214      92.111      101.25      107.82      111.25      111.25      107.82      101.25      92.113    
  81.215      69.516      57.991      47.468      38.472      31.154      25.275      20.563      16.913      14.165    
  12.137      10.661      9.6038      8.8720      8.4094      8.1840      8.1844      8.4092      8.8723      9.6033    
  10.662      12.136      14.166      16.912      20.564      25.275      31.153      38.474      47.466      57.992    
  49.499      57.942      66.275      73.768      79.711      83.527      84.842      83.528      79.710      73.767    
  66.273      57.941      49.501      41.586      34.610      28.705      23.743      19.664      16.435      13.946    
  12.066      10.659      9.6215      8.8720      8.3627      8.0649      7.9671      8.0649      8.3628      8.8723    
  9.6211      10.660      12.065      13.947      16.435      19.663      23.746      28.702      34.612      41.586    
  35.876      41.540      47.372      52.924      57.682      61.165      63.006      63.005      61.165      57.682    
  52.926      47.374      41.540      35.872      30.674      26.040      21.989      18.585      15.825      13.646    
  11.956      10.660      9.6750      8.9383      8.4093      8.0651      7.8949      7.8950      8.0649      8.4092    
  8.9385      9.6749      10.661      11.956      13.646      15.826      18.583      21.991      26.039      30.672    
  26.858      30.634      34.532      38.350      41.804      44.573      46.368      46.991      46.369      44.574    
  41.804      38.348      34.530      30.636      26.860      23.318      20.139      17.405      15.131      13.290    
  11.823      10.669      9.7668      9.0709      8.5492      8.1843      7.9670      7.8949      7.9671      8.1844    
  8.5490      9.0710      9.7665      10.669      11.824      13.289      15.133      17.404      20.137      23.321    
  20.691      23.291      25.975      28.599      31.013      33.051      34.534      35.316      35.316      34.533    
  33.050      31.015      28.602      25.976      23.288      20.691      18.305      16.198      14.401      12.905    
  11.682      10.693      9.9004      9.2710      8.7830      8.4227      8.1843      8.0651      8.0649      8.1840    
  8.4230      8.7829      9.2714      9.9006      10.693      11.683      12.904      14.401      16.200      18.303    
  16.577      18.281      20.089      21.912      23.636      25.139      26.309      27.053      27.309      27.054    
  26.310      25.139      23.634      21.910      20.090      18.283      16.577      15.031      13.676      12.519    
  11.547      10.741      10.079      9.5410      9.1119      8.7830      8.5492      8.4093      8.3627      8.4094    
  8.5490      8.7829      9.1116      9.5408      10.079      10.741      11.548      12.519      13.675      15.032    
  13.948      15.016      16.164      17.346      18.501      19.558      20.438      21.070      21.400      21.400    
  21.069      20.438      19.559      18.503      17.346      16.163      15.015      13.949      12.990      12.151    
  11.430      10.820      10.308      9.8846      9.5410      9.2710      9.0709      8.9383      8.8720      8.8720    
  8.9385      9.0709      9.2714      9.5413      9.8846      10.308      10.819      11.430      12.152      12.990    
  12.364      12.978      13.650      14.359      15.074      15.750      16.344      16.809      17.105      17.208    
  17.106      16.809      16.344      15.749      15.072      14.359      13.651      12.979      12.364      11.817    
  11.341      10.933      10.591      10.308      10.079      9.9004      9.7668      9.6750      9.6215      9.6038    
  9.6211      9.6748      9.7665      9.9000      10.079      10.308      10.592      10.934      11.340      11.817    
  11.524      11.808      12.134      12.490      12.863      13.236      13.582      13.874      14.086      14.197    
  14.197      14.085      13.874      13.583      13.237      12.864      12.489      12.133      11.808      11.524    
  11.283      11.087      10.933      10.820      10.741      10.693      10.669      10.660      10.659      10.661    
  10.661      10.660      10.661      10.669      10.694      10.742      10.819      10.933      11.088      11.283    
  11.262      11.276      11.326      11.408      11.519      11.647      11.782      11.909      12.014      12.083    
  12.107      12.083      12.014      11.909      11.781      11.646      11.518      11.409      11.326      11.276    
  11.262      11.283      11.341      11.430      11.547      11.682      11.823      11.956      12.066      12.137    
  12.162      12.137      12.065      11.956      11.823      11.682      11.548      11.431      11.340      11.283    
  11.524      11.276      11.074      10.916      10.796      10.716      10.665      10.639      10.630      10.628    
  10.630      10.629      10.629      10.630      10.640      10.666      10.716      10.797      10.915      11.074    
  11.276      11.524      11.817      12.151      12.519      12.905      13.290      13.646      13.946      14.165    
  14.280      14.280      14.166      13.947      13.646      13.290      12.904      12.518      12.152      11.817    
  12.364      11.809      11.326      10.915      10.572      10.288      10.060      9.8829      9.7512      9.6613    
  9.6091      9.5921      9.6089      9.6612      9.7511      9.8827      10.060      10.288      10.571      10.915    
  11.326      11.808      12.364      12.990      13.676      14.401      15.131      15.825      16.435      16.913    
  17.217      17.321      17.216      16.911      16.434      15.825      15.133      14.402      13.676      12.990    
  13.949      12.978      12.133      11.409      10.796      10.287      9.8678      9.5287      9.2639      9.0682    
  8.9393      8.8751      8.8754      8.9394      9.0684      9.2638      9.5290      9.8679      10.288      10.797    
  11.409      12.133      12.979      13.949      15.031      16.198      17.405      18.585      19.664      20.563    
  21.210      21.547      21.548      21.210      20.565      19.665      18.584      17.403      16.198      15.032    
  16.576      15.016      13.651      12.488      11.519      10.716      10.060      9.5292      9.1076      8.7862    
  8.5586      8.4229      8.3773      8.4227      8.5585      8.7861      9.1076      9.5290      10.060      10.716    
  11.518      12.489      13.651      15.015      16.577      18.305      20.139      21.989      23.743      25.275    
  26.468      27.228      27.488      27.227      26.467      25.273      23.743      21.992      20.140      18.303    
  20.693      18.281      16.163      14.361      12.863      11.646      10.666      9.8824      9.2640      8.7859    
  8.4346      8.2024      8.0872      8.0870      8.2028      8.4346      8.7861      9.2638      9.8827      10.666    
  11.646      12.864      14.359      16.163      18.283      20.691      23.318      26.040      28.705      31.154    
  33.219      34.723      35.518      35.518      34.724      33.221      31.155      28.703      26.037      23.319    
  26.856      23.289      20.091      17.344      15.074      13.237      11.781      10.640      9.7511      9.0684    
  8.5587      8.2029      7.9914      7.9214      7.9914      8.2028      8.5585      9.0684      9.7511      10.640    
  11.781      13.237      15.072      17.346      20.090      23.288      26.860      30.674      34.610      38.472    
  41.967      44.767      46.581      47.210      46.581      44.766      41.965      38.472      34.613      30.676    
  35.875      30.637      25.973      21.912      18.502      15.749      13.583      11.908      10.630      9.6610    
  8.9394      8.4224      8.0873      7.9212      7.9214      8.0870      8.4227      8.9394      9.6612      10.630    
  11.909      13.583      15.749      18.503      21.910      25.976      30.636      35.872      41.586      47.468    
  53.063      57.855      61.363      63.216      63.217      61.364      57.857      53.064      47.466      41.584    
  49.502      41.538      34.533      28.600      23.634      19.560      16.343      13.875      12.013      10.629    
  9.6089      8.8756      8.3771      8.0873      7.9914      8.0872      8.3773      8.8754      9.6089      10.629    
  12.014      13.874      16.344      19.559      23.634      28.602      34.530      41.540      49.501      57.991    
  66.372      73.904      79.877      83.711      85.032      83.710      79.876      73.903      66.373      57.993    
  69.516      57.943      47.373      38.349      31.016      25.137      20.439      16.808      14.086      12.083    
  10.630      9.5916      8.8756      8.4224      8.2029      8.2024      8.4229      8.8751      9.5921      10.629    
  12.083      14.085      16.809      20.438      25.139      31.015      38.348      47.374      57.941      69.516    
  81.263      92.202      101.37      107.96      111.40      111.40      107.96      101.37      92.201      81.262    
  96.710      81.213      66.275      52.926      41.803      33.052      26.309      21.070      17.106      14.197    
  12.107      10.630      9.6089      8.9394      8.5587      8.4346      8.5586      8.9393      9.6091      10.630    
  12.107      14.197      17.106      21.069      26.310      33.050      41.804      52.926      66.273      81.215    
  96.710      111.52      124.43      134.39      140.66      142.80      140.66      134.39      124.43      111.52    
  130.37      111.48      92.112      73.766      57.684      44.573      34.534      27.053      21.400      17.208    
  14.197      12.083      10.629      9.6610      9.0684      8.7859      8.7862      9.0682      9.6613      10.628    
  12.083      14.197      17.208      21.400      27.054      34.533      44.574      57.682      73.767      92.113    
  111.48      130.37      147.27      160.93      170.47      175.36      175.36      170.48      160.93      147.27    
  168.10      147.24      124.36      101.25      79.710      61.166      46.369      35.316      27.309      21.400    
  17.106      14.086      12.013      10.630      9.7511      9.2640      9.1076      9.2639      9.7512      10.630    
  12.014      14.086      17.105      21.400      27.309      35.316      46.369      61.165      79.710      101.25    
  124.36      147.24      168.10      185.48      198.37      206.24      208.88      206.24      198.37      185.48    
  206.29      185.47      160.90      134.31      107.82      83.527      63.005      46.991      35.316      27.053    
  21.070      16.808      13.875      11.908      10.640      9.8824      9.5292      9.5287      9.8829      10.639    
  11.909      13.874      16.809      21.070      27.053      35.316      46.991      63.005      83.528      107.82    
  134.31      160.90      185.47      206.29      222.28      232.96      238.27      238.27      232.96      222.28    
  240.97      222.29      198.36      170.44      140.57      111.25      84.842      63.005      46.369      34.534    
  26.309      20.439      16.343      13.583      11.781      10.666      10.060      9.8678      10.060      10.665    
  11.782      13.582      16.344      20.438      26.309      34.534      46.368      63.006      84.842      111.25    
  140.57      170.44      198.36      222.29      240.97      254.00      261.57      264.03      261.57      254.00    
  268.93      254.02      232.99      206.25      175.33      142.70      111.25      83.527      61.166      44.573    
  33.052      25.137      19.560      15.749      13.237      11.646      10.716      10.287      10.288      10.716    
  11.647      13.236      15.750      19.558      25.139      33.051      44.573      61.165      83.527      111.25    
  142.70      175.33      206.25      232.99      254.02      268.93      278.16      282.48      282.48      278.15    
  288.60      278.18      261.61      238.31      208.89      175.33      140.57      107.82      79.710      57.684    
  41.803      31.016      23.634      18.502      15.074      12.863      11.519      10.796      10.572      10.796    
  11.519      12.863      15.074      18.501      23.636      31.013      41.804      57.682      79.711      107.82    
  140.57      175.33      208.90      238.31      261.61      278.18      288.60      294.08      295.76      294.08    
  300.32      294.11      282.53      264.09      238.31      206.25      170.44      134.31      101.25      73.766    
  52.926      38.349      28.600      21.912      17.344      14.361      12.488      11.409      10.915      10.916    
  11.408      12.490      14.359      17.346      21.912      28.599      38.350      52.924      73.768      101.25    
  134.31      170.44      206.25      238.31      264.09      282.53      294.11      300.32      302.88      302.88    
  305.95      302.90      295.80      282.53      261.61      232.99      198.36      160.90      124.36      92.112    
  66.275      47.373      34.533      25.973      20.091      16.163      13.651      12.133      11.326      11.074    
  11.326      12.134      13.650      16.164      20.089      25.975      34.532      47.372      66.275      92.111    
  124.36      160.90      198.37      232.99      261.62      282.53      295.80      302.90      305.95      306.74    
  307.95      306.75      302.90      294.11      278.18      254.02      222.29      185.47      147.24      111.48    
  81.213      57.943      41.538      30.637      23.289      18.281      15.016      12.978      11.809      11.276    
  11.276      11.808      12.978      15.016      18.281      23.291      30.634      41.540      57.942      81.214    
  111.48      147.24      185.47      222.29      254.02      278.18      294.11      302.90      306.75      307.95    
  308.16      307.66      305.41      299.41      287.28      267.26      239.07      204.34      166.27      128.80    
  95.481      68.633      48.914      35.502      26.609      20.521      16.453      13.857      12.290      11.458    
  11.199      11.458      12.290      13.856      16.455      20.518      26.611      35.503      48.913      68.634    
  95.480      128.80      166.27      204.34      239.07      267.26      287.28      299.41      305.41      307.66    
  307.66      307.66      306.28      302.10      292.92      276.62      252.18      220.33      183.57      145.56    
  110.13      80.219      57.274      41.120      30.378      23.113      18.159      14.926      12.908      11.747    
  11.219      11.219      11.747      12.907      14.927      18.158      23.115      30.374      41.123      57.273    
  80.220      110.13      145.56      183.57      220.33      252.18      276.62      292.92      302.10      306.28    
  305.41      306.28      305.41      302.10      294.66      281.03      259.81      231.03      196.42      159.14    
  122.91      91.021      65.530      46.908      34.256      25.797      19.971      16.078      13.585      12.078    
  11.274      11.024      11.274      12.078      13.584      16.080      19.969      25.800      34.255      46.907    
  65.530      91.020      122.91      159.14      196.42      231.03      259.81      281.03      294.66      302.10    
  299.41      302.12      302.12      299.41      292.92      281.03      262.30      236.36      204.28      168.63    
  132.78      100.08      72.955      52.416      38.055      28.429      21.800      17.267      14.302      12.439    
  11.363      10.870      10.871      11.362      12.440      14.301      17.268      21.799      28.428      38.057    
  52.414      72.957      100.08      132.78      168.63      204.28      236.36      262.30      281.02      292.92    
  287.28      292.95      294.70      292.95      287.28      276.62      259.81      236.36      206.92      173.49    
  139.00      106.60      78.847      57.136      41.491      30.847      23.529      18.433      15.023      12.820    
  11.478      10.756      10.531      10.756      11.478      12.820      15.023      18.432      23.532      30.844    
  41.493      57.135      78.848      106.60      139.00      173.49      206.92      236.36      259.81      276.62    
  267.26      276.65      281.08      281.08      276.65      267.26      252.18      231.03      204.28      173.49    
  141.12      110.00      82.631      60.590      44.246      32.882      25.039      19.500      15.706      13.200    
  11.610      10.679      10.249      10.250      10.678      11.611      13.200      15.708      19.498      25.042    
  32.881      44.247      60.590      82.631      110.00      141.12      173.49      204.28      231.03      252.18    
  239.07      252.21      259.87      262.37      259.87      252.21      239.07      220.33      196.42      168.63    
  139.00      110.00      83.935      62.415      46.032      34.362      26.218      20.388      16.308      13.552    
  11.749      10.631      10.022      9.8287      10.022      10.630      11.750      13.552      16.309      20.387    
  26.219      34.362      46.031      62.416      83.934      110.00      139.00      168.63      196.42      220.33    
  204.34      220.34      231.07      236.41      236.41      231.07      220.35      204.34      183.57      159.14    
  132.78      106.60      82.632      62.415      46.651      35.143      26.969      21.025      16.779      13.849    
  11.880      10.606      9.8440      9.4880      9.4877      9.8443      10.606      11.880      13.849      16.779    
  21.026      26.968      35.144      46.650      62.416      82.630      106.60      132.78      159.14      183.57    
  166.27      183.57      196.43      204.31      206.95      204.30      196.43      183.57      166.27      145.56    
  122.91      100.08      78.848      60.589      46.032      35.143      27.227      21.358      17.080      14.065    
  11.987      10.597      9.7113      9.2201      9.0617      9.2201      9.7114      10.597      11.988      14.065    
  17.079      21.359      27.226      35.144      46.031      60.590      78.848      100.08      122.91      145.56    
  128.80      145.54      159.11      168.61      173.48      173.48      168.61      159.11      145.54      128.80    
  110.13      91.022      72.955      57.134      44.248      34.361      26.970      21.358      17.184      14.178    
  12.059      10.596      9.6204      9.0211      8.7356      8.7352      9.0215      9.6202      10.596      12.058    
  14.179      17.182      21.359      26.968      34.363      44.246      57.135      72.956      91.020      110.13    
  95.480      110.10      122.85      132.71      138.93      141.05      138.93      132.71      122.85      110.10    
  95.481      80.220      65.529      52.416      41.492      32.880      26.220      21.024      17.080      14.178    
  12.083      10.598      9.5669      8.8898      8.5033      8.3782      8.5033      8.8899      9.5671      10.598    
  12.082      14.178      17.079      21.025      26.219      32.881      41.493      52.415      65.531      80.220    
  68.634      80.176      90.941      99.978      106.48      109.88      109.88      106.48      99.978      90.943    
  80.177      68.633      57.272      46.909      38.054      30.846      25.041      20.386      16.780      14.064    
  12.059      10.597      9.5499      8.8239      8.3648      8.1408      8.1413      8.3644      8.8241      9.5494    
  10.598      12.058      14.065      16.779      20.387      25.041      30.845      38.056      46.907      57.273    
  48.912      57.228      65.442      72.832      78.698      82.467      83.766      82.468      78.698      72.831    
  65.440      57.227      48.914      41.123      34.253      28.431      23.529      19.499      16.309      13.849    
  11.988      10.596      9.5673      8.8240      8.3184      8.0228      7.9255      8.0227      8.3186      8.8241    
  9.5670      10.596      11.988      13.849      16.309      19.498      23.531      28.428      34.256      41.123    
  35.503      41.080      46.822      52.289      56.977      60.410      62.224      62.224      60.410      56.977    
  52.291      46.824      41.080      35.500      30.377      25.800      21.797      18.434      15.707      13.552    
  11.880      10.597      9.6204      8.8897      8.3646      8.0229      7.8538      7.8539      8.0226      8.3646    
  8.8898      9.6205      10.597      11.881      13.552      15.708      18.432      21.799      25.800      30.374    
  26.611      30.339      34.183      37.944      41.345      44.071      45.838      46.451      45.839      44.071    
  41.344      37.941      34.181      30.342      26.612      23.112      19.971      17.269      15.022      13.200    
  11.749      10.606      9.7116      9.0212      8.5035      8.1412      7.9254      7.8539      7.9256      8.1412    
  8.5033      9.0212      9.7113      10.606      11.749      13.200      15.023      17.269      19.969      23.115    
  20.518      23.088      25.742      28.335      30.717      32.727      34.189      34.960      34.959      34.188    
  32.727      30.719      28.337      25.742      23.085      20.519      18.160      16.078      14.301      12.821    
  11.610      10.631      9.8442      9.2198      8.7355      8.3779      8.1411      8.0229      8.0226      8.1410    
  8.3781      8.7356      9.2202      9.8445      10.630      11.611      12.820      14.300      16.079      18.159    
  16.455      18.139      19.926      21.728      23.433      24.919      26.076      26.812      27.065      26.812    
  26.077      24.919      23.430      21.726      19.927      18.141      16.454      14.926      13.586      12.440    
  11.477      10.679      10.022      9.4879      9.0620      8.7355      8.5035      8.3646      8.3185      8.3647    
  8.5034      8.7353      9.0617      9.4875      10.022      10.678      11.478      12.440      13.585      14.926    
  13.856      14.913      16.048      17.218      18.360      19.405      20.275      20.900      21.227      21.226    
  20.899      20.275      19.406      18.362      17.218      16.047      14.912      13.857      12.908      12.077    
  11.363      10.757      10.249      9.8289      9.4879      9.2198      9.0212      8.8896      8.8239      8.8240    
  8.8898      9.0214      9.2202      9.4882      9.8289      10.249      10.756      11.362      12.078      12.908    
  12.290      12.899      13.564      14.265      14.973      15.642      16.230      16.690      16.983      17.084    
  16.984      16.690      16.229      15.641      14.971      14.266      13.564      12.899      12.289      11.747    
  11.275      10.871      10.530      10.249      10.022      9.8443      9.7116      9.6204      9.5674      9.5498    
  9.5670      9.6201      9.7112      9.8438      10.022      10.249      10.531      10.871      11.274      11.747    
  11.458      11.740      12.063      12.417      12.787      13.156      13.499      13.788      13.998      14.108    
  14.108      13.998      13.789      13.500      13.157      12.788      12.416      12.063      11.741      11.458    
  11.219      11.024      10.871      10.757      10.679      10.631      10.606      10.597      10.596      10.597    
  10.598      10.596      10.597      10.606      10.631      10.679      10.756      10.870      11.024      11.219    
  11.199      11.214      11.264      11.346      11.457      11.584      11.718      11.845      11.949      12.018    
  12.042      12.018      11.949      11.844      11.717      11.583      11.456      11.347      11.264      11.214    
  11.198      11.219      11.275      11.363      11.477      11.610      11.749      11.880      11.988      12.059    
  12.083      12.058      11.987      11.880      11.749      11.610      11.478      11.364      11.274      11.219    
  11.458      11.213      11.015      10.859      10.741      10.662      10.613      10.587      10.578      10.577    