   2   2   1   0
  0.1760652E+02  0.2863091E-09  0.2863091E-09  0.4960239E-09  0.5000000E-15
  1.000000000000000E-004
  CAR 
 Pt-hcc                                  
     32.65658079    -46.77561638  301      9.19724708      1.00000000
    -46.776  0.0000E+00  0.0000E+00
    -46.511  0.0000E+00  0.0000E+00
    -46.246  0.0000E+00  0.0000E+00
    -45.981  0.0000E+00  0.0000E+00
    -45.717  0.0000E+00  0.0000E+00
    -45.452  0.0000E+00  0.0000E+00
    -45.187  0.0000E+00  0.0000E+00
    -44.922  0.0000E+00  0.0000E+00
    -44.657  0.0000E+00  0.0000E+00
    -44.393  0.0000E+00  0.0000E+00
    -44.128  0.0000E+00  0.0000E+00
    -43.863  0.0000E+00  0.0000E+00
    -43.598  0.0000E+00  0.0000E+00
    -43.334  0.3449E-08  0.9132E-09
    -43.069  0.9745E-01  0.2580E-01
    -42.804  0.3186E+00  0.1102E+00
    -42.539  0.3714E-01  0.1200E+00
    -42.274  0.0000E+00  0.1200E+00
    -42.010  0.0000E+00  0.1200E+00
    -41.745  0.0000E+00  0.1200E+00
    -41.480  0.0000E+00  0.1200E+00
    -41.215  0.0000E+00  0.1200E+00
    -40.951  0.0000E+00  0.1200E+00
    -40.686  0.0000E+00  0.1200E+00
    -40.421  0.0000E+00  0.1200E+00
    -40.156  0.0000E+00  0.1200E+00
    -39.891  0.0000E+00  0.1200E+00
    -39.627  0.0000E+00  0.1200E+00
    -39.362  0.0000E+00  0.1200E+00
    -39.097  0.0000E+00  0.1200E+00
    -38.832  0.0000E+00  0.1200E+00
    -38.568  0.0000E+00  0.1200E+00
    -38.303  0.0000E+00  0.1200E+00
    -38.038  0.0000E+00  0.1200E+00
    -37.773  0.0000E+00  0.1200E+00
    -37.509  0.0000E+00  0.1200E+00
    -37.244  0.0000E+00  0.1200E+00
    -36.979  0.0000E+00  0.1200E+00
    -36.714  0.0000E+00  0.1200E+00
    -36.449  0.0000E+00  0.1200E+00
    -36.185  0.0000E+00  0.1200E+00
    -35.920  0.0000E+00  0.1200E+00
    -35.655  0.0000E+00  0.1200E+00
    -35.390  0.0000E+00  0.1200E+00
    -35.126  0.0000E+00  0.1200E+00
    -34.861  0.0000E+00  0.1200E+00
    -34.596  0.0000E+00  0.1200E+00
    -34.331  0.0000E+00  0.1200E+00
    -34.066  0.0000E+00  0.1200E+00
    -33.802  0.0000E+00  0.1200E+00
    -33.537  0.0000E+00  0.1200E+00
    -33.272  0.0000E+00  0.1200E+00
    -33.007  0.0000E+00  0.1200E+00
    -32.743  0.0000E+00  0.1200E+00
    -32.478  0.0000E+00  0.1200E+00
    -32.213  0.0000E+00  0.1200E+00
    -31.948  0.0000E+00  0.1200E+00
    -31.683  0.0000E+00  0.1200E+00
    -31.419  0.0000E+00  0.1200E+00
    -31.154  0.0000E+00  0.1200E+00
    -30.889  0.0000E+00  0.1200E+00
    -30.624  0.0000E+00  0.1200E+00
    -30.360  0.0000E+00  0.1200E+00
    -30.095  0.0000E+00  0.1200E+00
    -29.830  0.0000E+00  0.1200E+00
    -29.565  0.0000E+00  0.1200E+00
    -29.301  0.0000E+00  0.1200E+00
    -29.036  0.0000E+00  0.1200E+00
    -28.771  0.0000E+00  0.1200E+00
    -28.506  0.0000E+00  0.1200E+00
    -28.241  0.0000E+00  0.1200E+00
    -27.977  0.0000E+00  0.1200E+00
    -27.712  0.0000E+00  0.1200E+00
    -27.447  0.0000E+00  0.1200E+00
    -27.182  0.0000E+00  0.1200E+00
    -26.918  0.0000E+00  0.1200E+00
    -26.653  0.0000E+00  0.1200E+00
    -26.388  0.0000E+00  0.1200E+00
    -26.123  0.0000E+00  0.1200E+00
    -25.858  0.0000E+00  0.1200E+00
    -25.594  0.0000E+00  0.1200E+00
    -25.329  0.0000E+00  0.1200E+00
    -25.064  0.0000E+00  0.1200E+00
    -24.799  0.0000E+00  0.1200E+00
    -24.535  0.0000E+00  0.1200E+00
    -24.270  0.0000E+00  0.1200E+00
    -24.005  0.0000E+00  0.1200E+00
    -23.740  0.0000E+00  0.1200E+00
    -23.476  0.0000E+00  0.1200E+00
    -23.211  0.0000E+00  0.1200E+00
    -22.946  0.0000E+00  0.1200E+00
    -22.681  0.0000E+00  0.1200E+00
    -22.416  0.0000E+00  0.1200E+00
    -22.152  0.0000E+00  0.1200E+00
    -21.887  0.0000E+00  0.1200E+00
    -21.622  0.0000E+00  0.1200E+00
    -21.357  0.0000E+00  0.1200E+00
    -21.093  0.0000E+00  0.1200E+00
    -20.828  0.0000E+00  0.1200E+00
    -20.563  0.0000E+00  0.1200E+00
    -20.298  0.0000E+00  0.1200E+00
    -20.033  0.0000E+00  0.1200E+00
    -19.769  0.0000E+00  0.1200E+00
    -19.504  0.0000E+00  0.1200E+00
    -19.239  0.0000E+00  0.1200E+00
    -18.974  0.0000E+00  0.1200E+00
    -18.710  0.0000E+00  0.1200E+00
    -18.445  0.0000E+00  0.1200E+00
    -18.180  0.0000E+00  0.1200E+00
    -17.915  0.0000E+00  0.1200E+00
    -17.650  0.0000E+00  0.1200E+00
    -17.386  0.0000E+00  0.1200E+00
    -17.121  0.0000E+00  0.1200E+00
    -16.856  0.0000E+00  0.1200E+00
    -16.591  0.0000E+00  0.1200E+00
    -16.327  0.0000E+00  0.1200E+00
    -16.062  0.0000E+00  0.1200E+00
    -15.797  0.0000E+00  0.1200E+00
    -15.532  0.0000E+00  0.1200E+00
    -15.268  0.0000E+00  0.1200E+00
    -15.003  0.0000E+00  0.1200E+00
    -14.738  0.0000E+00  0.1200E+00
    -14.473  0.0000E+00  0.1200E+00
    -14.208  0.0000E+00  0.1200E+00
    -13.944  0.0000E+00  0.1200E+00
    -13.679  0.0000E+00  0.1200E+00
    -13.414  0.0000E+00  0.1200E+00
    -13.149  0.0000E+00  0.1200E+00
    -12.885  0.0000E+00  0.1200E+00
    -12.620  0.0000E+00  0.1200E+00
    -12.355  0.0000E+00  0.1200E+00
    -12.090  0.0000E+00  0.1200E+00
    -11.825  0.0000E+00  0.1200E+00
    -11.561  0.0000E+00  0.1200E+00
    -11.296  0.0000E+00  0.1200E+00
    -11.031  0.0000E+00  0.1200E+00
    -10.766  0.0000E+00  0.1200E+00
    -10.502  0.0000E+00  0.1200E+00
    -10.237  0.0000E+00  0.1200E+00
     -9.972  0.0000E+00  0.1200E+00
     -9.707  0.0000E+00  0.1200E+00
     -9.442  0.0000E+00  0.1200E+00
     -9.178  0.0000E+00  0.1200E+00
     -8.913  0.0000E+00  0.1200E+00
     -8.648  0.0000E+00  0.1200E+00
     -8.383  0.0000E+00  0.1200E+00
     -8.119  0.0000E+00  0.1200E+00
     -7.854  0.0000E+00  0.1200E+00
     -7.589  0.0000E+00  0.1200E+00
     -7.324  0.0000E+00  0.1200E+00
     -7.060  0.0000E+00  0.1200E+00
     -6.795  0.0000E+00  0.1200E+00
     -6.530  0.0000E+00  0.1200E+00
     -6.265  0.0000E+00  0.1200E+00
     -6.000  0.0000E+00  0.1200E+00
     -5.736  0.0000E+00  0.1200E+00
     -5.471  0.0000E+00  0.1200E+00
     -5.206  0.0000E+00  0.1200E+00
     -4.941  0.0000E+00  0.1200E+00
     -4.677  0.0000E+00  0.1200E+00
     -4.412  0.0000E+00  0.1200E+00
     -4.147  0.0000E+00  0.1200E+00
     -3.882  0.0000E+00  0.1200E+00
     -3.617  0.0000E+00  0.1200E+00
     -3.353  0.0000E+00  0.1200E+00
     -3.088  0.0000E+00  0.1200E+00
     -2.823  0.0000E+00  0.1200E+00
     -2.558  0.0000E+00  0.1200E+00
     -2.294  0.0000E+00  0.1200E+00
     -2.029  0.0000E+00  0.1200E+00
     -1.764  0.0000E+00  0.1200E+00
     -1.499  0.0000E+00  0.1200E+00
     -1.234  0.0000E+00  0.1200E+00
     -0.970  0.0000E+00  0.1200E+00
     -0.705  0.0000E+00  0.1200E+00
     -0.440  0.0000E+00  0.1200E+00
     -0.175  0.0000E+00  0.1200E+00
      0.089  0.0000E+00  0.1200E+00
      0.354  0.6405E-16  0.1200E+00
      0.619  0.6215E-04  0.1200E+00
      0.884  0.2747E-03  0.1201E+00
      1.148  0.1829E-02  0.1206E+00
      1.413  0.8267E-03  0.1208E+00
      1.678  0.1853E-02  0.1213E+00
      1.943  0.2608E-02  0.1220E+00
      2.208  0.1982E-02  0.1225E+00
      2.472  0.1521E-02  0.1229E+00
      2.737  0.5615E-02  0.1244E+00
      3.002  0.4069E-02  0.1255E+00
      3.267  0.5096E-02  0.1268E+00
      3.531  0.7710E-02  0.1289E+00
      3.796  0.2129E-01  0.1345E+00
      4.061  0.2507E-01  0.1411E+00
      4.326  0.2462E-01  0.1476E+00
      4.591  0.2268E-01  0.1537E+00
      4.855  0.2422E-01  0.1601E+00
      5.120  0.4148E-01  0.1711E+00
      5.385  0.3294E-01  0.1798E+00
      5.650  0.3911E-01  0.1901E+00
      5.914  0.3088E-01  0.1983E+00
      6.179  0.3385E-01  0.2073E+00
      6.444  0.4050E-01  0.2180E+00
      6.709  0.4544E-01  0.2300E+00
      6.974  0.3908E-01  0.2404E+00
      7.238  0.4429E-01  0.2521E+00
      7.503  0.3571E-01  0.2616E+00
      7.768  0.2452E-01  0.2680E+00
      8.033  0.2902E-01  0.2757E+00
      8.297  0.3583E-01  0.2852E+00
      8.562  0.2676E-01  0.2923E+00
      8.827  0.3267E-01  0.3009E+00
      9.092  0.4955E-01  0.3141E+00
      9.356  0.4419E-01  0.3258E+00
      9.621  0.2768E-01  0.3331E+00
      9.886  0.4898E-02  0.3344E+00
     10.151  0.6432E-02  0.3361E+00
     10.416  0.3370E-02  0.3370E+00
     10.680  0.7777E-03  0.3372E+00
     10.945  0.6996E-02  0.3390E+00
     11.210  0.1610E-01  0.3433E+00
     11.475  0.5604E-02  0.3448E+00
     11.739  0.2005E-02  0.3453E+00
     12.004  0.4042E-02  0.3464E+00
     12.269  0.8221E-02  0.3486E+00
     12.534  0.2655E-02  0.3493E+00
     12.799  0.5997E-02  0.3509E+00
     13.063  0.6056E-02  0.3525E+00
     13.328  0.9760E-02  0.3551E+00
     13.593  0.5063E-02  0.3564E+00
     13.858  0.5528E-02  0.3579E+00
     14.122  0.4422E-02  0.3590E+00
     14.387  0.3374E-02  0.3599E+00
     14.652  0.1177E-02  0.3602E+00
     14.917  0.7806E-02  0.3623E+00
     15.181  0.9915E-02  0.3649E+00
     15.446  0.8542E-02  0.3672E+00
     15.711  0.8833E-02  0.3695E+00
     15.976  0.6556E-02  0.3713E+00
     16.241  0.1037E-01  0.3740E+00
     16.505  0.6153E-02  0.3756E+00
     16.770  0.5730E-02  0.3772E+00
     17.035  0.6882E-02  0.3790E+00
     17.300  0.4506E-02  0.3802E+00
     17.564  0.1155E-01  0.3832E+00
     17.829  0.9667E-02  0.3858E+00
     18.094  0.5440E-02  0.3872E+00
     18.359  0.5549E-02  0.3887E+00
     18.624  0.5470E-02  0.3901E+00
     18.888  0.1019E-01  0.3928E+00
     19.153  0.7279E-02  0.3948E+00
     19.418  0.5957E-02  0.3963E+00
     19.683  0.5774E-02  0.3979E+00
     19.947  0.7333E-02  0.3998E+00
     20.212  0.4673E-02  0.4011E+00
     20.477  0.5825E-02  0.4026E+00
     20.742  0.1156E-01  0.4057E+00
     21.007  0.1177E-01  0.4088E+00
     21.271  0.1203E-01  0.4120E+00
     21.536  0.5048E-02  0.4133E+00
     21.801  0.6762E-02  0.4151E+00
     22.066  0.6229E-02  0.4167E+00
     22.330  0.4619E-02  0.4180E+00
     22.595  0.2304E-01  0.4241E+00
     22.860  0.1643E-01  0.4284E+00
     23.125  0.1300E-01  0.4319E+00
     23.389  0.1196E-01  0.4350E+00
     23.654  0.1459E-01  0.4389E+00
     23.919  0.5749E-02  0.4404E+00
     24.184  0.1947E-01  0.4456E+00
     24.449  0.1792E-01  0.4503E+00
     24.713  0.1418E-01  0.4541E+00
     24.978  0.1064E-01  0.4569E+00
     25.243  0.1258E-01  0.4602E+00
     25.508  0.1262E-01  0.4636E+00
     25.772  0.1154E-01  0.4666E+00
     26.037  0.1122E-01  0.4696E+00
     26.302  0.8487E-02  0.4718E+00
     26.567  0.2733E-02  0.4726E+00
     26.832  0.6429E-02  0.4743E+00
     27.096  0.7069E-02  0.4761E+00
     27.361  0.3304E-02  0.4770E+00
     27.626  0.4085E-02  0.4781E+00
     27.891  0.4544E-02  0.4793E+00
     28.155  0.1192E-02  0.4796E+00
     28.420  0.1598E-03  0.4796E+00
     28.685  0.6006E-03  0.4798E+00
     28.950  0.5616E-03  0.4800E+00
     29.215  0.1887E-03  0.4800E+00
     29.479  0.0000E+00  0.4800E+00
     29.744  0.0000E+00  0.4800E+00
     30.009  0.0000E+00  0.4800E+00
     30.274  0.0000E+00  0.4800E+00
     30.538  0.0000E+00  0.4800E+00
     30.803  0.0000E+00  0.4800E+00
     31.068  0.0000E+00  0.4800E+00
     31.333  0.0000E+00  0.4800E+00
     31.597  0.0000E+00  0.4800E+00
     31.862  0.0000E+00  0.4800E+00
     32.127  0.0000E+00  0.4800E+00
     32.392  0.0000E+00  0.4800E+00
     32.657  0.0000E+00  0.4800E+00
     32.65658079    -46.77561638  301      9.19724708      1.00000000
    -46.776  0.0000E+00  0.0000E+00  0.0000E+00  0.0000E+00  0.0000E+00  0.0000E+00  0.0000E+00  0.0000E+00  0.0000E+00
    -46.511  0.0000E+00  0.0000E+00  0.0000E+00  0.0000E+00  0.0000E+00  0.0000E+00  0.0000E+00  0.0000E+00  0.0000E+00
    -46.246  0.0000E+00  0.0000E+00  0.0000E+00  0.0000E+00  0.0000E+00  0.0000E+00  0.0000E+00  0.0000E+00  0.0000E+00
    -45.981  0.0000E+00  0.0000E+00  0.0000E+00  0.0000E+00  0.0000E+00  0.0000E+00  0.0000E+00  0.0000E+00  0.0000E+00
    -45.717  0.0000E+00  0.0000E+00  0.0000E+00  0.0000E+00  0.0000E+00  0.0000E+00  0.0000E+00  0.0000E+00  0.0000E+00
    -45.452  0.0000E+00  0.0000E+00  0.0000E+00  0.0000E+00  0.0000E+00  0.0000E+00  0.0000E+00  0.0000E+00  0.0000E+00
    -45.187  0.0000E+00  0.0000E+00  0.0000E+00  0.0000E+00  0.0000E+00  0.0000E+00  0.0000E+00  0.0000E+00  0.0000E+00
    -44.922  0.0000E+00  0.0000E+00  0.0000E+00  0.0000E+00  0.0000E+00  0.0000E+00  0.0000E+00  0.0000E+00  0.0000E+00
    -44.657  0.0000E+00  0.0000E+00  0.0000E+00  0.0000E+00  0.0000E+00  0.0000E+00  0.0000E+00  0.0000E+00  0.0000E+00
    -44.393  0.0000E+00  0.0000E+00  0.0000E+00  0.0000E+00  0.0000E+00  0.0000E+00  0.0000E+00  0.0000E+00  0.0000E+00
    -44.128  0.0000E+00  0.0000E+00  0.0000E+00  0.0000E+00  0.0000E+00  0.0000E+00  0.0000E+00  0.0000E+00  0.0000E+00
    -43.863  0.0000E+00  0.0000E+00  0.0000E+00  0.0000E+00  0.0000E+00  0.0000E+00  0.0000E+00  0.0000E+00  0.0000E+00
    -43.598  0.0000E+00  0.0000E+00  0.0000E+00  0.0000E+00  0.0000E+00  0.0000E+00  0.0000E+00  0.0000E+00  0.0000E+00
    -43.334  0.5106E-12  0.8374E-07  0.2498E-08  0.8374E-07  0.1764E-12  0.3122E-13  0.4482E-12  0.3122E-13  0.1764E-12
    -43.069  0.5147E-04  0.2366E+01  0.7797E-01  0.2366E+01  0.2088E-04  0.1595E-05  0.2758E-04  0.1595E-05  0.2088E-04
    -42.804  0.8388E-04  0.5101E+01  0.5596E+01  0.5101E+01  0.6026E-04  0.2305E-04  0.4371E-04  0.2305E-04  0.6026E-04
    -42.539  0.2945E-05  0.1634E-01  0.1811E+01  0.1634E-01  0.3015E-06  0.3226E-05  0.3043E-05  0.3226E-05  0.3015E-06
    -42.274  0.0000E+00  0.0000E+00  0.0000E+00  0.0000E+00  0.0000E+00  0.0000E+00  0.0000E+00  0.0000E+00  0.0000E+00
    -42.010  0.0000E+00  0.0000E+00  0.0000E+00  0.0000E+00  0.0000E+00  0.0000E+00  0.0000E+00  0.0000E+00  0.0000E+00
    -41.745  0.0000E+00  0.0000E+00  0.0000E+00  0.0000E+00  0.0000E+00  0.0000E+00  0.0000E+00  0.0000E+00  0.0000E+00
    -41.480  0.0000E+00  0.0000E+00  0.0000E+00  0.0000E+00  0.0000E+00  0.0000E+00  0.0000E+00  0.0000E+00  0.0000E+00
    -41.215  0.0000E+00  0.0000E+00  0.0000E+00  0.0000E+00  0.0000E+00  0.0000E+00  0.0000E+00  0.0000E+00  0.0000E+00
    -40.951  0.0000E+00  0.0000E+00  0.0000E+00  0.0000E+00  0.0000E+00  0.0000E+00  0.0000E+00  0.0000E+00  0.0000E+00
    -40.686  0.0000E+00  0.0000E+00  0.0000E+00  0.0000E+00  0.0000E+00  0.0000E+00  0.0000E+00  0.0000E+00  0.0000E+00
    -40.421  0.0000E+00  0.0000E+00  0.0000E+00  0.0000E+00  0.0000E+00  0.0000E+00  0.0000E+00  0.0000E+00  0.0000E+00
    -40.156  0.0000E+00  0.0000E+00  0.0000E+00  0.0000E+00  0.0000E+00  0.0000E+00  0.0000E+00  0.0000E+00  0.0000E+00
    -39.891  0.0000E+00  0.0000E+00  0.0000E+00  0.0000E+00  0.0000E+00  0.0000E+00  0.0000E+00  0.0000E+00  0.0000E+00
    -39.627  0.0000E+00  0.0000E+00  0.0000E+00  0.0000E+00  0.0000E+00  0.0000E+00  0.0000E+00  0.0000E+00  0.0000E+00
    -39.362  0.0000E+00  0.0000E+00  0.0000E+00  0.0000E+00  0.0000E+00  0.0000E+00  0.0000E+00  0.0000E+00  0.0000E+00
    -39.097  0.0000E+00  0.0000E+00  0.0000E+00  0.0000E+00  0.0000E+00  0.0000E+00  0.0000E+00  0.0000E+00  0.0000E+00
    -38.832  0.0000E+00  0.0000E+00  0.0000E+00  0.0000E+00  0.0000E+00  0.0000E+00  0.0000E+00  0.0000E+00  0.0000E+00
    -38.568  0.0000E+00  0.0000E+00  0.0000E+00  0.0000E+00  0.0000E+00  0.0000E+00  0.0000E+00  0.0000E+00  0.0000E+00
    -38.303  0.0000E+00  0.0000E+00  0.0000E+00  0.0000E+00  0.0000E+00  0.0000E+00  0.0000E+00  0.0000E+00  0.0000E+00
    -38.038  0.0000E+00  0.0000E+00  0.0000E+00  0.0000E+00  0.0000E+00  0.0000E+00  0.0000E+00  0.0000E+00  0.0000E+00
    -37.773  0.0000E+00  0.0000E+00  0.0000E+00  0.0000E+00  0.0000E+00  0.0000E+00  0.0000E+00  0.0000E+00  0.0000E+00
    -37.509  0.0000E+00  0.0000E+00  0.0000E+00  0.0000E+00  0.0000E+00  0.0000E+00  0.0000E+00  0.0000E+00  0.0000E+00
    -37.244  0.0000E+00  0.0000E+00  0.0000E+00  0.0000E+00  0.0000E+00  0.0000E+00  0.0000E+00  0.0000E+00  0.0000E+00
    -36.979  0.0000E+00  0.0000E+00  0.0000E+00  0.0000E+00  0.0000E+00  0.0000E+00  0.0000E+00  0.0000E+00  0.0000E+00
    -36.714  0.0000E+00  0.0000E+00  0.0000E+00  0.0000E+00  0.0000E+00  0.0000E+00  0.0000E+00  0.0000E+00  0.0000E+00
    -36.449  0.0000E+00  0.0000E+00  0.0000E+00  0.0000E+00  0.0000E+00  0.0000E+00  0.0000E+00  0.0000E+00  0.0000E+00
    -36.185  0.0000E+00  0.0000E+00  0.0000E+00  0.0000E+00  0.0000E+00  0.0000E+00  0.0000E+00  0.0000E+00  0.0000E+00
    -35.920  0.0000E+00  0.0000E+00  0.0000E+00  0.0000E+00  0.0000E+00  0.0000E+00  0.0000E+00  0.0000E+00  0.0000E+00
    -35.655  0.0000E+00  0.0000E+00  0.0000E+00  0.0000E+00  0.0000E+00  0.0000E+00  0.0000E+00  0.0000E+00  0.0000E+00
    -35.390  0.0000E+00  0.0000E+00  0.0000E+00  0.0000E+00  0.0000E+00  0.0000E+00  0.0000E+00  0.0000E+00  0.0000E+00
    -35.126  0.0000E+00  0.0000E+00  0.0000E+00  0.0000E+00  0.0000E+00  0.0000E+00  0.0000E+00  0.0000E+00  0.0000E+00
    -34.861  0.0000E+00  0.0000E+00  0.0000E+00  0.0000E+00  0.0000E+00  0.0000E+00  0.0000E+00  0.0000E+00  0.0000E+00
    -34.596  0.0000E+00  0.0000E+00  0.0000E+00  0.0000E+00  0.0000E+00  0.0000E+00  0.0000E+00  0.0000E+00  0.0000E+00
    -34.331  0.0000E+00  0.0000E+00  0.0000E+00  0.0000E+00  0.0000E+00  0.0000E+00  0.0000E+00  0.0000E+00  0.0000E+00
    -34.066  0.0000E+00  0.0000E+00  0.0000E+00  0.0000E+00  0.0000E+00  0.0000E+00  0.0000E+00  0.0000E+00  0.0000E+00
    -33.802  0.0000E+00  0.0000E+00  0.0000E+00  0.0000E+00  0.0000E+00  0.0000E+00  0.0000E+00  0.0000E+00  0.0000E+00
    -33.537  0.0000E+00  0.0000E+00  0.0000E+00  0.0000E+00  0.0000E+00  0.0000E+00  0.0000E+00  0.0000E+00  0.0000E+00
    -33.272  0.0000E+00  0.0000E+00  0.0000E+00  0.0000E+00  0.0000E+00  0.0000E+00  0.0000E+00  0.0000E+00  0.0000E+00
    -33.007  0.0000E+00  0.0000E+00  0.0000E+00  0.0000E+00  0.0000E+00  0.0000E+00  0.0000E+00  0.0000E+00  0.0000E+00
    -32.743  0.0000E+00  0.0000E+00  0.0000E+00  0.0000E+00  0.0000E+00  0.0000E+00  0.0000E+00  0.0000E+00  0.0000E+00
    -32.478  0.0000E+00  0.0000E+00  0.0000E+00  0.0000E+00  0.0000E+00  0.0000E+00  0.0000E+00  0.0000E+00  0.0000E+00
    -32.213  0.0000E+00  0.0000E+00  0.0000E+00  0.0000E+00  0.0000E+00  0.0000E+00  0.0000E+00  0.0000E+00  0.0000E+00
    -31.948  0.0000E+00  0.0000E+00  0.0000E+00  0.0000E+00  0.0000E+00  0.0000E+00  0.0000E+00  0.0000E+00  0.0000E+00
    -31.683  0.0000E+00  0.0000E+00  0.0000E+00  0.0000E+00  0.0000E+00  0.0000E+00  0.0000E+00  0.0000E+00  0.0000E+00
    -31.419  0.0000E+00  0.0000E+00  0.0000E+00  0.0000E+00  0.0000E+00  0.0000E+00  0.0000E+00  0.0000E+00  0.0000E+00
    -31.154  0.0000E+00  0.0000E+00  0.0000E+00  0.0000E+00  0.0000E+00  0.0000E+00  0.0000E+00  0.0000E+00  0.0000E+00
    -30.889  0.0000E+00  0.0000E+00  0.0000E+00  0.0000E+00  0.0000E+00  0.0000E+00  0.0000E+00  0.0000E+00  0.0000E+00
    -30.624  0.0000E+00  0.0000E+00  0.0000E+00  0.0000E+00  0.0000E+00  0.0000E+00  0.0000E+00  0.0000E+00  0.0000E+00
    -30.360  0.0000E+00  0.0000E+00  0.0000E+00  0.0000E+00  0.0000E+00  0.0000E+00  0.0000E+00  0.0000E+00  0.0000E+00
    -30.095  0.0000E+00  0.0000E+00  0.0000E+00  0.0000E+00  0.0000E+00  0.0000E+00  0.0000E+00  0.0000E+00  0.0000E+00
    -29.830  0.0000E+00  0.0000E+00  0.0000E+00  0.0000E+00  0.0000E+00  0.0000E+00  0.0000E+00  0.0000E+00  0.0000E+00
    -29.565  0.0000E+00  0.0000E+00  0.0000E+00  0.0000E+00  0.0000E+00  0.0000E+00  0.0000E+00  0.0000E+00  0.0000E+00
    -29.301  0.0000E+00  0.0000E+00  0.0000E+00  0.0000E+00  0.0000E+00  0.0000E+00  0.0000E+00  0.0000E+00  0.0000E+00
    -29.036  0.0000E+00  0.0000E+00  0.0000E+00  0.0000E+00  0.0000E+00  0.0000E+00  0.0000E+00  0.0000E+00  0.0000E+00
    -28.771  0.0000E+00  0.0000E+00  0.0000E+00  0.0000E+00  0.0000E+00  0.0000E+00  0.0000E+00  0.0000E+00  0.0000E+00
    -28.506  0.0000E+00  0.0000E+00  0.0000E+00  0.0000E+00  0.0000E+00  0.0000E+00  0.0000E+00  0.0000E+00  0.0000E+00
    -28.241  0.0000E+00  0.0000E+00  0.0000E+00  0.0000E+00  0.0000E+00  0.0000E+00  0.0000E+00  0.0000E+00  0.0000E+00
    -27.977  0.0000E+00  0.0000E+00  0.0000E+00  0.0000E+00  0.0000E+00  0.0000E+00  0.0000E+00  0.0000E+00  0.0000E+00
    -27.712  0.0000E+00  0.0000E+00  0.0000E+00  0.0000E+00  0.0000E+00  0.0000E+00  0.0000E+00  0.0000E+00  0.0000E+00
    -27.447  0.0000E+00  0.0000E+00  0.0000E+00  0.0000E+00  0.0000E+00  0.0000E+00  0.0000E+00  0.0000E+00  0.0000E+00
    -27.182  0.0000E+00  0.0000E+00  0.0000E+00  0.0000E+00  0.0000E+00  0.0000E+00  0.0000E+00  0.0000E+00  0.0000E+00
    -26.918  0.0000E+00  0.0000E+00  0.0000E+00  0.0000E+00  0.0000E+00  0.0000E+00  0.0000E+00  0.0000E+00  0.0000E+00
    -26.653  0.0000E+00  0.0000E+00  0.0000E+00  0.0000E+00  0.0000E+00  0.0000E+00  0.0000E+00  0.0000E+00  0.0000E+00
    -26.388  0.0000E+00  0.0000E+00  0.0000E+00  0.0000E+00  0.0000E+00  0.0000E+00  0.0000E+00  0.0000E+00  0.0000E+00
    -26.123  0.0000E+00  0.0000E+00  0.0000E+00  0.0000E+00  0.0000E+00  0.0000E+00  0.0000E+00  0.0000E+00  0.0000E+00
    -25.858  0.0000E+00  0.0000E+00  0.0000E+00  0.0000E+00  0.0000E+00  0.0000E+00  0.0000E+00  0.0000E+00  0.0000E+00
    -25.594  0.0000E+00  0.0000E+00  0.0000E+00  0.0000E+00  0.0000E+00  0.0000E+00  0.0000E+00  0.0000E+00  0.0000E+00
    -25.329  0.0000E+00  0.0000E+00  0.0000E+00  0.0000E+00  0.0000E+00  0.0000E+00  0.0000E+00  0.0000E+00  0.0000E+00
    -25.064  0.0000E+00  0.0000E+00  0.0000E+00  0.0000E+00  0.0000E+00  0.0000E+00  0.0000E+00  0.0000E+00  0.0000E+00
    -24.799  0.0000E+00  0.0000E+00  0.0000E+00  0.0000E+00  0.0000E+00  0.0000E+00  0.0000E+00  0.0000E+00  0.0000E+00
    -24.535  0.0000E+00  0.0000E+00  0.0000E+00  0.0000E+00  0.0000E+00  0.0000E+00  0.0000E+00  0.0000E+00  0.0000E+00
    -24.270  0.0000E+00  0.0000E+00  0.0000E+00  0.0000E+00  0.0000E+00  0.0000E+00  0.0000E+00  0.0000E+00  0.0000E+00
    -24.005  0.0000E+00  0.0000E+00  0.0000E+00  0.0000E+00  0.0000E+00  0.0000E+00  0.0000E+00  0.0000E+00  0.0000E+00
    -23.740  0.0000E+00  0.0000E+00  0.0000E+00  0.0000E+00  0.0000E+00  0.0000E+00  0.0000E+00  0.0000E+00  0.0000E+00
    -23.476  0.0000E+00  0.0000E+00  0.0000E+00  0.0000E+00  0.0000E+00  0.0000E+00  0.0000E+00  0.0000E+00  0.0000E+00
    -23.211  0.0000E+00  0.0000E+00  0.0000E+00  0.0000E+00  0.0000E+00  0.0000E+00  0.0000E+00  0.0000E+00  0.0000E+00
    -22.946  0.0000E+00  0.0000E+00  0.0000E+00  0.0000E+00  0.0000E+00  0.0000E+00  0.0000E+00  0.0000E+00  0.0000E+00
    -22.681  0.0000E+00  0.0000E+00  0.0000E+00  0.0000E+00  0.0000E+00  0.0000E+00  0.0000E+00  0.0000E+00  0.0000E+00
    -22.416  0.0000E+00  0.0000E+00  0.0000E+00  0.0000E+00  0.0000E+00  0.0000E+00  0.0000E+00  0.0000E+00  0.0000E+00
    -22.152  0.0000E+00  0.0000E+00  0.0000E+00  0.0000E+00  0.0000E+00  0.0000E+00  0.0000E+00  0.0000E+00  0.0000E+00
    -21.887  0.0000E+00  0.0000E+00  0.0000E+00  0.0000E+00  0.0000E+00  0.0000E+00  0.0000E+00  0.0000E+00  0.0000E+00
    -21.622  0.0000E+00  0.0000E+00  0.0000E+00  0.0000E+00  0.0000E+00  0.0000E+00  0.0000E+00  0.0000E+00  0.0000E+00
    -21.357  0.0000E+00  0.0000E+00  0.0000E+00  0.0000E+00  0.0000E+00  0.0000E+00  0.0000E+00  0.0000E+00  0.0000E+00
    -21.093  0.0000E+00  0.0000E+00  0.0000E+00  0.0000E+00  0.0000E+00  0.0000E+00  0.0000E+00  0.0000E+00  0.0000E+00
    -20.828  0.0000E+00  0.0000E+00  0.0000E+00  0.0000E+00  0.0000E+00  0.0000E+00  0.0000E+00  0.0000E+00  0.0000E+00
    -20.563  0.0000E+00  0.0000E+00  0.0000E+00  0.0000E+00  0.0000E+00  0.0000E+00  0.0000E+00  0.0000E+00  0.0000E+00
    -20.298  0.0000E+00  0.0000E+00  0.0000E+00  0.0000E+00  0.0000E+00  0.0000E+00  0.0000E+00  0.0000E+00  0.0000E+00
    -20.033  0.0000E+00  0.0000E+00  0.0000E+00  0.0000E+00  0.0000E+00  0.0000E+00  0.0000E+00  0.0000E+00  0.0000E+00
    -19.769  0.0000E+00  0.0000E+00  0.0000E+00  0.0000E+00  0.0000E+00  0.0000E+00  0.0000E+00  0.0000E+00  0.0000E+00
    -19.504  0.0000E+00  0.0000E+00  0.0000E+00  0.0000E+00  0.0000E+00  0.0000E+00  0.0000E+00  0.0000E+00  0.0000E+00
    -19.239  0.0000E+00  0.0000E+00  0.0000E+00  0.0000E+00  0.0000E+00  0.0000E+00  0.0000E+00  0.0000E+00  0.0000E+00
    -18.974  0.0000E+00  0.0000E+00  0.0000E+00  0.0000E+00  0.0000E+00  0.0000E+00  0.0000E+00  0.0000E+00  0.0000E+00
    -18.710  0.0000E+00  0.0000E+00  0.0000E+00  0.0000E+00  0.0000E+00  0.0000E+00  0.0000E+00  0.0000E+00  0.0000E+00
    -18.445  0.0000E+00  0.0000E+00  0.0000E+00  0.0000E+00  0.0000E+00  0.0000E+00  0.0000E+00  0.0000E+00  0.0000E+00
    -18.180  0.0000E+00  0.0000E+00  0.0000E+00  0.0000E+00  0.0000E+00  0.0000E+00  0.0000E+00  0.0000E+00  0.0000E+00
    -17.915  0.0000E+00  0.0000E+00  0.0000E+00  0.0000E+00  0.0000E+00  0.0000E+00  0.0000E+00  0.0000E+00  0.0000E+00
    -17.650  0.0000E+00  0.0000E+00  0.0000E+00  0.0000E+00  0.0000E+00  0.0000E+00  0.0000E+00  0.0000E+00  0.0000E+00
    -17.386  0.0000E+00  0.0000E+00  0.0000E+00  0.0000E+00  0.0000E+00  0.0000E+00  0.0000E+00  0.0000E+00  0.0000E+00
    -17.121  0.0000E+00  0.0000E+00  0.0000E+00  0.0000E+00  0.0000E+00  0.0000E+00  0.0000E+00  0.0000E+00  0.0000E+00
    -16.856  0.0000E+00  0.0000E+00  0.0000E+00  0.0000E+00  0.0000E+00  0.0000E+00  0.0000E+00  0.0000E+00  0.0000E+00
    -16.591  0.0000E+00  0.0000E+00  0.0000E+00  0.0000E+00  0.0000E+00  0.0000E+00  0.0000E+00  0.0000E+00  0.0000E+00
    -16.327  0.0000E+00  0.0000E+00  0.0000E+00  0.0000E+00  0.0000E+00  0.0000E+00  0.0000E+00  0.0000E+00  0.0000E+00
    -16.062  0.0000E+00  0.0000E+00  0.0000E+00  0.0000E+00  0.0000E+00  0.0000E+00  0.0000E+00  0.0000E+00  0.0000E+00
    -15.797  0.0000E+00  0.0000E+00  0.0000E+00  0.0000E+00  0.0000E+00  0.0000E+00  0.0000E+00  0.0000E+00  0.0000E+00
    -15.532  0.0000E+00  0.0000E+00  0.0000E+00  0.0000E+00  0.0000E+00  0.0000E+00  0.0000E+00  0.0000E+00  0.0000E+00
    -15.268  0.0000E+00  0.0000E+00  0.0000E+00  0.0000E+00  0.0000E+00  0.0000E+00  0.0000E+00  0.0000E+00  0.0000E+00
    -15.003  0.0000E+00  0.0000E+00  0.0000E+00  0.0000E+00  0.0000E+00  0.0000E+00  0.0000E+00  0.0000E+00  0.0000E+00
    -14.738  0.0000E+00  0.0000E+00  0.0000E+00  0.0000E+00  0.0000E+00  0.0000E+00  0.0000E+00  0.0000E+00  0.0000E+00
    -14.473  0.0000E+00  0.0000E+00  0.0000E+00  0.0000E+00  0.0000E+00  0.0000E+00  0.0000E+00  0.0000E+00  0.0000E+00
    -14.208  0.0000E+00  0.0000E+00  0.0000E+00  0.0000E+00  0.0000E+00  0.0000E+00  0.0000E+00  0.0000E+00  0.0000E+00
    -13.944  0.0000E+00  0.0000E+00  0.0000E+00  0.0000E+00  0.0000E+00  0.0000E+00  0.0000E+00  0.0000E+00  0.0000E+00
    -13.679  0.0000E+00  0.0000E+00  0.0000E+00  0.0000E+00  0.0000E+00  0.0000E+00  0.0000E+00  0.0000E+00  0.0000E+00
    -13.414  0.0000E+00  0.0000E+00  0.0000E+00  0.0000E+00  0.0000E+00  0.0000E+00  0.0000E+00  0.0000E+00  0.0000E+00
    -13.149  0.0000E+00  0.0000E+00  0.0000E+00  0.0000E+00  0.0000E+00  0.0000E+00  0.0000E+00  0.0000E+00  0.0000E+00
    -12.885  0.0000E+00  0.0000E+00  0.0000E+00  0.0000E+00  0.0000E+00  0.0000E+00  0.0000E+00  0.0000E+00  0.0000E+00
    -12.620  0.0000E+00  0.0000E+00  0.0000E+00  0.0000E+00  0.0000E+00  0.0000E+00  0.0000E+00  0.0000E+00  0.0000E+00
    -12.355  0.0000E+00  0.0000E+00  0.0000E+00  0.0000E+00  0.0000E+00  0.0000E+00  0.0000E+00  0.0000E+00  0.0000E+00
    -12.090  0.0000E+00  0.0000E+00  0.0000E+00  0.0000E+00  0.0000E+00  0.0000E+00  0.0000E+00  0.0000E+00  0.0000E+00
    -11.825  0.0000E+00  0.0000E+00  0.0000E+00  0.0000E+00  0.0000E+00  0.0000E+00  0.0000E+00  0.0000E+00  0.0000E+00
    -11.561  0.0000E+00  0.0000E+00  0.0000E+00  0.0000E+00  0.0000E+00  0.0000E+00  0.0000E+00  0.0000E+00  0.0000E+00
    -11.296  0.0000E+00  0.0000E+00  0.0000E+00  0.0000E+00  0.0000E+00  0.0000E+00  0.0000E+00  0.0000E+00  0.0000E+00
    -11.031  0.0000E+00  0.0000E+00  0.0000E+00  0.0000E+00  0.0000E+00  0.0000E+00  0.0000E+00  0.0000E+00  0.0000E+00
    -10.766  0.0000E+00  0.0000E+00  0.0000E+00  0.0000E+00  0.0000E+00  0.0000E+00  0.0000E+00  0.0000E+00  0.0000E+00
    -10.502  0.0000E+00  0.0000E+00  0.0000E+00  0.0000E+00  0.0000E+00  0.0000E+00  0.0000E+00  0.0000E+00  0.0000E+00
    -10.237  0.0000E+00  0.0000E+00  0.0000E+00  0.0000E+00  0.0000E+00  0.0000E+00  0.0000E+00  0.0000E+00  0.0000E+00
     -9.972  0.0000E+00  0.0000E+00  0.0000E+00  0.0000E+00  0.0000E+00  0.0000E+00  0.0000E+00  0.0000E+00  0.0000E+00
     -9.707  0.0000E+00  0.0000E+00  0.0000E+00  0.0000E+00  0.0000E+00  0.0000E+00  0.0000E+00  0.0000E+00  0.0000E+00
     -9.442  0.0000E+00  0.0000E+00  0.0000E+00  0.0000E+00  0.0000E+00  0.0000E+00  0.0000E+00  0.0000E+00  0.0000E+00
     -9.178  0.0000E+00  0.0000E+00  0.0000E+00  0.0000E+00  0.0000E+00  0.0000E+00  0.0000E+00  0.0000E+00  0.0000E+00
     -8.913  0.0000E+00  0.0000E+00  0.0000E+00  0.0000E+00  0.0000E+00  0.0000E+00  0.0000E+00  0.0000E+00  0.0000E+00
     -8.648  0.0000E+00  0.0000E+00  0.0000E+00  0.0000E+00  0.0000E+00  0.0000E+00  0.0000E+00  0.0000E+00  0.0000E+00
     -8.383  0.0000E+00  0.0000E+00  0.0000E+00  0.0000E+00  0.0000E+00  0.0000E+00  0.0000E+00  0.0000E+00  0.0000E+00
     -8.119  0.0000E+00  0.0000E+00  0.0000E+00  0.0000E+00  0.0000E+00  0.0000E+00  0.0000E+00  0.0000E+00  0.0000E+00
     -7.854  0.0000E+00  0.0000E+00  0.0000E+00  0.0000E+00  0.0000E+00  0.0000E+00  0.0000E+00  0.0000E+00  0.0000E+00
     -7.589  0.0000E+00  0.0000E+00  0.0000E+00  0.0000E+00  0.0000E+00  0.0000E+00  0.0000E+00  0.0000E+00  0.0000E+00
     -7.324  0.0000E+00  0.0000E+00  0.0000E+00  0.0000E+00  0.0000E+00  0.0000E+00  0.0000E+00  0.0000E+00  0.0000E+00
     -7.060  0.0000E+00  0.0000E+00  0.0000E+00  0.0000E+00  0.0000E+00  0.0000E+00  0.0000E+00  0.0000E+00  0.0000E+00
     -6.795  0.0000E+00  0.0000E+00  0.0000E+00  0.0000E+00  0.0000E+00  0.0000E+00  0.0000E+00  0.0000E+00  0.0000E+00
     -6.530  0.0000E+00  0.0000E+00  0.0000E+00  0.0000E+00  0.0000E+00  0.0000E+00  0.0000E+00  0.0000E+00  0.0000E+00
     -6.265  0.0000E+00  0.0000E+00  0.0000E+00  0.0000E+00  0.0000E+00  0.0000E+00  0.0000E+00  0.0000E+00  0.0000E+00
     -6.000  0.0000E+00  0.0000E+00  0.0000E+00  0.0000E+00  0.0000E+00  0.0000E+00  0.0000E+00  0.0000E+00  0.0000E+00
     -5.736  0.0000E+00  0.0000E+00  0.0000E+00  0.0000E+00  0.0000E+00  0.0000E+00  0.0000E+00  0.0000E+00  0.0000E+00
     -5.471  0.0000E+00  0.0000E+00  0.0000E+00  0.0000E+00  0.0000E+00  0.0000E+00  0.0000E+00  0.0000E+00  0.0000E+00