    2    2  100    2
  0.1135338E+02  0.2533140E-09  0.2533140E-09  0.4086074E-09  0.5000000E-15
  1.000000000000000E-004
  CAR 
 Co-hcc                                  
     18     95     24
 
  0.0000000E+00  0.0000000E+00  0.0000000E+00  0.8680556E-03
      1          0.979209        0.976195   1.000000   1.000000
      2          4.686155        5.676488   1.000000   1.000000
      3          7.056243        8.752936   1.000000   1.000000
      4          7.066248        8.771760   1.000000   1.000000
      5          7.066248        8.771761   1.000000   1.000000
      6          7.356129        9.115855   1.000000   1.000000
      7          7.356129        9.115855   1.000000   1.000000
      8          7.669525        9.490479   1.000000   0.997191
      9          7.669525        9.490479   1.000000   0.997191
     10          8.701296        9.532109   1.000000   0.944281
     11          8.701296       10.640641   1.000000   0.000000
     12          9.605595       10.640642   0.313228   0.000000
     13         15.601801       16.641545   0.000000   0.000000
     14         31.181013       30.892647   0.000000   0.000000
     15         33.275579       33.634832   0.000000   0.000000
     16         33.275581       33.634834   0.000000   0.000000
     17         34.158604       33.999854   0.000000   0.000000
     18         34.646086       34.410113   0.000000   0.000000
     19         34.679405       34.979794   0.000000   0.000000
     20         34.679408       34.979796   0.000000   0.000000
     21         39.405938       39.331088   0.000000   0.000000
     22         39.405939       39.331090   0.000000   0.000000
     23         40.049652       40.290325   0.000000   0.000000
     24         40.757773       40.416360   0.000000   0.000000
 
  0.8333333E-01  0.0000000E+00  0.0000000E+00  0.5208333E-02
      1          1.213672        1.211477   1.000000   1.000000
      2          4.823135        5.834690   1.000000   1.000000
      3          6.851200        8.508311   1.000000   1.000000
      4          7.171318        8.876411   1.000000   1.000000
      5          7.237152        8.888335   1.000000   1.000000
      6          7.315209        8.963401   1.000000   1.000000
      7          7.449030        9.058302   1.000000   1.000000
      8          7.536927        9.218937   1.000000   1.000000
      9          7.604307        9.413399   1.000000   1.000000
     10          8.030426        9.438260   1.000000   0.999989
     11          8.729019       10.673971   1.000000   0.000000
     12         10.574620       11.499112   0.000000   0.000000
     13         15.647939       16.663520   0.000000   0.000000
     14         29.151847       29.272769   0.000000   0.000000
     15         31.252102       31.503709   0.000000   0.000000
     16         31.460897       31.585968   0.000000   0.000000
     17         34.655046       34.428790   0.000000   0.000000
     18         34.950644       34.882501   0.000000   0.000000
     19         36.326261       36.198785   0.000000   0.000000
     20         36.943524       37.246463   0.000000   0.000000
     21         37.699870       37.943226   0.000000   0.000000
     22         38.842946       38.851997   0.000000   0.000000
     23         39.620087       39.891513   0.000000   0.000000
     24         39.753782       40.063585   0.000000   0.000000
 
  0.1666667E+00  0.1387779E-16  0.0000000E+00  0.5208333E-02
      1          1.893007        1.897602   1.000000   1.000000
      2          5.161423        6.241773   1.000000   1.000000
      3          6.600272        8.061752   1.000000   1.000000
      4          6.904263        8.178780   1.000000   1.000000
      5          7.158527        8.850280   1.000000   1.000000
      6          7.443123        9.218877   1.000000   1.000000
      7          7.467521        9.224244   1.000000   1.000000
      8          7.519676        9.272202   1.000000   1.000000
      9          7.655688        9.289478   1.000000   1.000000
     10          7.708559        9.507489   1.000000   0.988935
     11          8.788299       10.744378   1.000000   0.000000
     12         12.086992       12.924057   0.000000   0.000000
     13         15.807886       16.747981   0.000000   0.000000
     14         25.343474       25.680326   0.000000   0.000000
     15         28.942027       29.252624   0.000000   0.000000
     16         30.554566       30.634150   0.000000   0.000000
     17         32.443378       32.450457   0.000000   0.000000
     18         34.756620       34.515818   0.000000   0.000000
     19         35.209303       35.418484   0.000000   0.000000
     20         37.315975       37.556037   0.000000   0.000000
     21         37.979186       38.083146   0.000000   0.000000
     22         38.467734       38.743859   0.000000   0.000000
     23         39.013582       39.320239   0.000000   0.000000
     24         40.318805       40.843941   0.000000   0.000000
 
  0.2500000E+00  0.4163336E-16  0.0000000E+00  0.5208333E-02
      1          2.924468        2.965288   1.000000   1.000000
      2          5.432039        6.645015   1.000000   1.000000
      3          6.229936        7.419140   1.000000   1.000000
      4          6.452368        7.886540   1.000000   1.000000
      5          7.076508        8.707313   1.000000   1.000000
      6          7.249003        8.998115   1.000000   1.000000
      7          7.468562        9.089550   1.000000   1.000000
      8          7.895901        9.683053   1.000000   0.003708
      9          7.916207        9.702894   1.000000   0.000600
     10          8.081138        9.923667   1.000000   0.000000
     11          8.844744       10.810407   1.000000   0.000000
     12         13.813736       14.563673   0.000000   0.000000
     13         16.117138       16.924562   0.000000   0.000000
     14         21.696361       22.169042   0.000000   0.000000
     15         26.942511       27.213785   0.000000   0.000000
     16         29.132394       29.265965   0.000000   0.000000
     17         29.341619       29.554178   0.000000   0.000000
     18         32.793093       33.277079   0.000000   0.000000
     19         33.719868       33.538793   0.000000   0.000000
     20         36.973194       37.381553   0.000000   0.000000
     21         37.284956       37.458875   0.000000   0.000000
     22         38.050576       38.116151   0.000000   0.000000
     23         39.086562       39.278602   0.000000   0.000000
     24         41.963317       42.224783   0.000000   0.000000
 
  0.3333333E+00  0.0000000E+00  0.0000000E+00  0.5208333E-02
      1          4.056284        4.253850   1.000000   1.000000
      2          5.370666        6.687880   1.000000   1.000000
      3          5.737209        6.969200   1.000000   1.000000
      4          6.566248        7.773023   1.000000   1.000000
      5          7.073814        8.795114   1.000000   1.000000
      6          7.193538        8.796573   1.000000   1.000000
      7          7.306679        8.892294   1.000000   1.000000
      8          8.350443       10.226246   1.000000   0.000000
      9          8.484537       10.290584   1.000000   0.000000
     10          8.556201       10.377185   1.000000   0.000000
     11          8.883729       10.855377   1.000000   0.000000
     12         15.708542       16.360229   0.000000   0.000000
     13         16.245776       16.887224   0.000000   0.000000
     14         18.864060       19.480232   0.000000   0.000000
     15         25.362246       25.579658   0.000000   0.000000
     16         26.105446       26.371511   0.000000   0.000000
     17         27.040665       27.418762   0.000000   0.000000
     18         31.386197       31.836819   0.000000   0.000000
     19         32.603412       32.435018   0.000000   0.000000
     20         35.250515       35.621520   0.000000   0.000000
     21         36.808479       37.032529   0.000000   0.000000
     22         38.756007       38.917498   0.000000   0.000000
     23         40.839016       41.008665   0.000000   0.000000
     24         43.095210       43.332239   0.000000   0.000000
 
  0.4166667E+00  0.8326673E-16  0.0000000E+00  0.5208333E-02
      1          4.802298        5.416955   1.000000   1.000000
      2          5.196449        6.493456   1.000000   1.000000
      3          5.442366        6.705902   1.000000   1.000000
      4          6.922092        7.793249   1.000000   1.000000
      5          6.954096        8.656865   1.000000   1.000000
      6          7.192921        8.749329   1.000000   1.000000
      7          7.382320        9.006103   1.000000   1.000000
      8          8.688859       10.619914   1.000000   0.000000
      9          8.817670       10.759643   1.000000   0.000000
     10          8.904734       10.879317   1.000000   0.000000
     11          9.626082       11.174543   0.143167   0.000000
     12         14.411383       15.188097   0.000000   0.000000
     13         17.678456       18.209527   0.000000   0.000000
     14         18.814806       19.326432   0.000000   0.000000
     15         23.467303       23.878038   0.000000   0.000000
     16         24.327471       24.492084   0.000000   0.000000
     17         24.422342       24.909139   0.000000   0.000000
     18         30.927860       31.375085   0.000000   0.000000
     19         31.853785       31.676673   0.000000   0.000000
     20         34.138616       34.472068   0.000000   0.000000
     21         36.534575       36.789199   0.000000   0.000000
     22         39.190358       39.427748   0.000000   0.000000
     23         43.188800       43.364322   0.000000   0.000000
     24         43.714182       43.913795   0.000000   0.000000
 
  0.5000000E+00  0.8326673E-16  0.0000000E+00  0.2604167E-02
      1          5.055185        5.952091   1.000000   1.000000
      2          5.061672        6.321941   1.000000   1.000000
      3          5.344357        6.619397   1.000000   1.000000
      4          6.911878        7.864421   1.000000   1.000000
      5          7.151928        8.608217   1.000000   1.000000
      6          7.161612        8.697255   1.000000   1.000000
      7          7.452833        9.089396   1.000000   1.000000
      8          8.811096       10.761065   1.000000   0.000000
      9          8.911140       10.886560   1.000000   0.000000
     10          8.951873       10.918097   1.000000   0.000000
     11         10.779512       12.043762   0.000000   0.000000
     12         12.682925       13.700556   0.000000   0.000000
     13         18.970726       19.380007   0.000000   0.000000
     14         19.561304       19.943493   0.000000   0.000000
     15         21.954644       22.495861   0.000000   0.000000
     16         22.999219       23.573041   0.000000   0.000000
     17         23.963798       24.105235   0.000000   0.000000
     18         30.814521       31.266467   0.000000   0.000000
     19         31.594606       31.412439   0.000000   0.000000
     20         33.753315       34.071501   0.000000   0.000000
     21         36.446079       36.710932   0.000000   0.000000
     22         39.351759       39.618665   0.000000   0.000000
     23         43.875570       44.018517   0.000000   0.000000
     24         45.793293       45.716529   0.000000   0.000000
 
  0.8333333E-01  0.8333333E-01  0.0000000E+00  0.5208333E-02
      1          1.671373        1.672637   1.000000   1.000000
      2          5.066204        6.121334   1.000000   1.000000
      3          6.652982        8.260190   1.000000   1.000000
      4          7.131999        8.274706   1.000000   1.000000
      5          7.219280        8.928108   1.000000   1.000000
      6          7.382796        9.125878   1.000000   1.000000
      7          7.385702        9.126970   1.000000   1.000000
      8          7.419607        9.188397   1.000000   1.000000
      9          7.654145        9.426669   1.000000   0.999998
     10          7.765739        9.442320   1.000000   0.999982
     11          8.763768       10.715067   1.000000   0.000000
     12         11.659925       12.521307   0.000000   0.000000
     13         15.752740       16.718586   0.000000   0.000000
     14         27.101584       27.326973   0.000000   0.000000
     15         27.698504       28.044546   0.000000   0.000000
     16         32.955305       33.000205   0.000000   0.000000
     17         33.980899       33.863175   0.000000   0.000000
     18         34.156286       34.048294   0.000000   0.000000
     19         34.196891       34.241754   0.000000   0.000000
     20         37.155486       37.323577   0.000000   0.000000
     21         37.804327       38.266051   0.000000   0.000000
     22         38.333598       38.833799   0.000000   0.000000
     23         40.693158       40.802369   0.000000   0.000000
     24         41.103674       41.235720   0.000000   0.000000
 
  0.1666667E+00  0.8333333E-01  0.0000000E+00  0.1041667E-01
      1          2.534770        2.553705   1.000000   1.000000
      2          5.412131        6.559495   1.000000   1.000000
      3          6.404528        7.645705   1.000000   1.000000
      4          6.479564        7.921262   1.000000   1.000000
      5          7.111427        8.767181   1.000000   1.000000
      6          7.215398        8.935408   1.000000   1.000000
      7          7.616693        9.295682   1.000000   1.000000
      8          7.617769        9.386834   1.000000   1.000000
      9          7.776262        9.558721   1.000000   0.799279
     10          8.038440        9.852863   1.000000   0.000000
     11          8.806792       10.765560   1.000000   0.000000
     12         13.188384       13.974096   0.000000   0.000000
     13         16.006599       16.869139   0.000000   0.000000
     14         23.564733       23.958972   0.000000   0.000000
     15         25.721524       26.054377   0.000000   0.000000
     16         30.825046       30.859142   0.000000   0.000000
     17         31.711858       31.871407   0.000000   0.000000
     18         32.829390       32.837691   0.000000   0.000000
     19         34.217501       34.414233   0.000000   0.000000
     20         35.367058       35.820252   0.000000   0.000000
     21         37.460706       37.482311   0.000000   0.000000
     22         38.988724       39.430092   0.000000   0.000000
     23         40.658591       40.827171   0.000000   0.000000
     24         41.108822       41.312229   0.000000   0.000000
 
  0.2500000E+00  0.8333333E-01  0.0000000E+00  0.1041667E-01
      1          3.651891        3.749163   1.000000   1.000000
      2          5.525573        6.809959   1.000000   1.000000
      3          5.939594        7.155065   1.000000   1.000000
      4          6.346355        7.694345   1.000000   1.000000
      5          7.043240        8.723458   1.000000   1.000000
      6          7.125830        8.734195   1.000000   1.000000
      7          7.437171        9.085876   1.000000   1.000000
      8          7.988077        9.786485   1.000000   0.000000
      9          8.237851       10.082017   1.000000   0.000000
     10          8.563920       10.382679   1.000000   0.000000
     11          8.843143       10.807821   1.000000   0.000000
     12         14.963169       15.662541   0.000000   0.000000
     13         16.398872       17.104798   0.000000   0.000000
     14         20.166052       20.697631   0.000000   0.000000
     15         24.232916       24.553227   0.000000   0.000000
     16         27.693091       27.878124   0.000000   0.000000
     17         28.978035       29.307059   0.000000   0.000000
     18         31.599395       31.608694   0.000000   0.000000
     19         33.421511       33.765015   0.000000   0.000000
     20         33.854841       34.220351   0.000000   0.000000
     21         38.119711       38.118290   0.000000   0.000000
     22         40.500744       40.693042   0.000000   0.000000
     23         40.741876       40.951625   0.000000   0.000000
     24         41.770588       42.040865   0.000000   0.000000
 
  0.3333333E+00  0.8333333E-01  0.0000000E+00  0.1041667E-01
      1          4.638331        5.019092   1.000000   1.000000
      2          5.364593        6.685455   1.000000   1.000000
      3          5.573498        6.831532   1.000000   1.000000
      4          6.574532        7.662291   1.000000   1.000000
      5          6.930852        8.592136   1.000000   1.000000
      6          7.261237        8.865108   1.000000   1.000000
      7          7.305545        8.921563   1.000000   1.000000
      8          8.450028       10.301041   1.000000   0.000000
      9          8.630856       10.534024   1.000000   0.000000
     10          8.865861       10.833864   1.000000   0.000000
     11          9.326999       11.028094   1.000000   0.000000
     12         15.743998       16.395034   0.000000   0.000000
     13         16.902899       17.499742   0.000000   0.000000
     14         18.566981       19.151904   0.000000   0.000000
     15         23.087412       23.375696   0.000000   0.000000
     16         24.850552       25.179229   0.000000   0.000000
     17         26.023620       26.444106   0.000000   0.000000
     18         30.716764       30.706889   0.000000   0.000000
     19         32.786646       33.123777   0.000000   0.000000
     20         32.839036       33.214364   0.000000   0.000000
     21         38.129759       38.194387   0.000000   0.000000
     22         40.841685       41.052180   0.000000   0.000000
     23         42.339311       42.527243   0.000000   0.000000
     24         43.451031       43.677114   0.000000   0.000000
 
  0.4166667E+00  0.8333333E-01  0.0000000E+00  0.1041667E-01
      1          5.077250        5.914362   1.000000   1.000000
      2          5.212529        6.476814   1.000000   1.000000
      3          5.390410        6.672822   1.000000   1.000000
      4          6.885142        7.731503   1.000000   1.000000
      5          6.929304        8.557301   1.000000   1.000000
      6          7.145327        8.701174   1.000000   1.000000
      7          7.449533        9.090176   1.000000   1.000000
      8          8.776937       10.706974   1.000000   0.000000
      9          8.842752       10.781240   1.000000   0.000000
     10          8.875974       10.845299   1.000000   0.000000
     11         10.592242       11.930288   0.000000   0.000000
     12         13.444140       14.357087   0.000000   0.000000
     13         18.770342       19.234981   0.000000   0.000000
     14         19.452506       19.876422   0.000000   0.000000
     15         22.330252       22.631507   0.000000   0.000000
     16         22.536966       23.018745   0.000000   0.000000
     17         23.794267       24.260282   0.000000   0.000000
     18         30.259593       30.236140   0.000000   0.000000
     19         32.218657       32.547650   0.000000   0.000000
     20         32.550735       32.930291   0.000000   0.000000
     21         38.000630       38.102028   0.000000   0.000000
     22         41.039191       41.291142   0.000000   0.000000
     23         43.906280       44.062497   0.000000   0.000000
     24         44.744281       44.902302   0.000000   0.000000
 
  0.1666667E+00  0.1666667E+00  0.0000000E+00  0.5208333E-02
      1          3.508571        3.574445   1.000000   1.000000
      2          5.691265        6.920457   1.000000   1.000000
      3          6.046346        7.251996   1.000000   1.000000
      4          6.135470        7.576854   1.000000   1.000000
      5          6.979762        8.651312   1.000000   1.000000
      6          7.122496        8.739446   1.000000   1.000000
      7          7.521667        9.189702   1.000000   1.000000
      8          7.771771        9.565926   1.000000   0.737379
      9          8.227964       10.059419   1.000000   0.000000
     10          8.583585       10.394685   1.000000   0.000000
     11          8.808432       10.767149   1.000000   0.000000
     12         14.710612       15.430558   0.000000   0.000000
     13         16.422627       17.159676   0.000000   0.000000
     14         21.899232       22.320982   0.000000   0.000000
     15         22.268622       22.697370   0.000000   0.000000
     16         29.276242       29.269132   0.000000   0.000000
     17         29.925281       30.179879   0.000000   0.000000
     18         30.945239       31.271732   0.000000   0.000000
     19         31.662038       31.970186   0.000000   0.000000
     20         36.266078       36.522099   0.000000   0.000000
     21         38.512078       38.454677   0.000000   0.000000
     22         38.682368       39.112134   0.000000   0.000000
     23         42.239472       42.458278   0.000000   0.000000
     24         43.469185       43.624259   0.000000   0.000000
 
  0.2500000E+00  0.1666667E+00  0.0000000E+00  0.1041667E-01
      1          4.576303        4.802349   1.000000   1.000000
      2          5.679018        6.962333   1.000000   1.000000
      3          5.704700        6.995098   1.000000   1.000000
      4          6.116762        7.397363   1.000000   1.000000
      5          6.837779        8.468156   1.000000   1.000000
      6          7.257966        8.869048   1.000000   1.000000
      7          7.346082        8.977205   1.000000   1.000000
      8          8.055079        9.880265   1.000000   0.000000
      9          8.633155       10.525270   1.000000   0.000000
     10          8.806312       10.764561   1.000000   0.000000
     11          9.342480       11.066794   1.000000   0.000000
     12         16.511889       17.151797   0.000000   0.000000
     13         16.844471       17.435169   0.000000   0.000000
     14         19.079840       19.634066   0.000000   0.000000
     15         20.928153       21.343080   0.000000   0.000000
     16         26.592877       26.816732   0.000000   0.000000
     17         27.942746       28.333419   0.000000   0.000000
     18         28.631818       28.797790   0.000000   0.000000
     19         30.378357       30.732209   0.000000   0.000000
     20         36.404977       36.687385   0.000000   0.000000
     21         39.853343       39.765886   0.000000   0.000000
     22         41.045672       41.366805   0.000000   0.000000
     23         42.859132       43.043521   0.000000   0.000000
     24         43.411317       43.574339   0.000000   0.000000
 
  0.3333333E+00  0.1666667E+00  0.0000000E+00  0.1041667E-01
      1          5.245813        5.891985   1.000000   1.000000
      2          5.493505        6.792337   1.000000   1.000000
      3          5.493893        6.792832   1.000000   1.000000
      4          6.418103        7.441738   1.000000   1.000000
      5          6.798591        8.414247   1.000000   1.000000
      6          7.156435        8.739395   1.000000   1.000000
      7          7.445016        9.089013   1.000000   1.000000
      8          8.428946       10.296156   1.000000   0.000000
      9          8.803848       10.761447   1.000000   0.000000
     10          8.833660       10.765020   1.000000   0.000000
     11         10.490838       11.933522   0.000000   0.000000
     12         15.082759       15.804442   0.000000   0.000000
     13         18.475010       19.014935   0.000000   0.000000
     14         19.056531       19.545340   0.000000   0.000000
     15         20.191644       20.579014   0.000000   0.000000
     16         23.944530       24.325902   0.000000   0.000000
     17         25.100600       25.545900   0.000000   0.000000
     18         28.010265       28.150687   0.000000   0.000000
     19         29.643374       29.996472   0.000000   0.000000
     20         36.064337       36.368431   0.000000   0.000000
     21         40.625199       40.550629   0.000000   0.000000
     22         43.191152       43.352840   0.000000   0.000000
     23         44.359527       44.609643   0.000000   0.000000
     24         44.447050       44.612487   0.000000   0.000000
 
  0.4166667E+00  0.1666667E+00  0.0000000E+00  0.5208333E-02
      1          5.405567        6.350521   1.000000   1.000000
      2          5.406646        6.666710   1.000000   1.000000
      3          5.422524        6.737640   1.000000   1.000000
      4          6.629685        7.499522   1.000000   1.000000
      5          6.813461        8.447895   1.000000   1.000000
      6          7.058238        8.598517   1.000000   1.000000
      7          7.524452        9.186931   1.000000   1.000000
      8          8.680801       10.586609   1.000000   0.000000
      9          8.802627       10.747992   1.000000   0.000000
     10          8.813766       10.759878   1.000000   0.000000
     11         11.768054       12.832672   0.000000   0.000000
     12         13.227329       14.232184   0.000000   0.000000
     13         19.578799       19.977572   0.000000   0.000000
     14         19.874011       20.305870   0.000000   0.000000
     15         20.241054       20.617470   0.000000   0.000000
     16         22.316295       22.821255   0.000000   0.000000
     17         23.616344       24.115014   0.000000   0.000000
     18         27.804677       27.939872   0.000000   0.000000
     19         29.384555       29.733640   0.000000   0.000000
     20         35.931360       36.240956   0.000000   0.000000
     21         40.761492       40.707937   0.000000   0.000000
     22         44.010163       44.204164   0.000000   0.000000
     23         44.084369       44.245241   0.000000   0.000000
     24         46.047166       46.161296   0.000000   0.000000
 
  0.2500000E+00  0.2500000E+00  0.0000000E+00  0.5208333E-02
      1          5.369381        5.893913   1.000000   1.000000
      2          5.552590        6.861875   1.000000   1.000000
      3          5.862216        7.119547   1.000000   1.000000
      4          5.921241        7.131167   1.000000   1.000000
      5          6.740661        8.330686   1.000000   1.000000
      6          7.170264        8.762670   1.000000   1.000000
      7          7.450674        9.092753   1.000000   1.000000
      8          8.219919       10.073397   1.000000   0.000000
      9          8.766662       10.718607   1.000000   0.000000
     10          8.839502       10.769297   1.000000   0.000000
     11         10.488570       11.965483   0.000000   0.000000
     12         16.840047       17.374544   0.000000   0.000000
     13         17.538942       18.121278   0.000000   0.000000
     14         18.357978       18.926910   0.000000   0.000000
     15         19.586635       20.058693   0.000000   0.000000
     16         25.692191       26.068878   0.000000   0.000000
     17         25.967169       26.129451   0.000000   0.000000
     18         26.729194       27.146712   0.000000   0.000000
     19         27.574628       27.943728   0.000000   0.000000
     20         39.409736       39.603932   0.000000   0.000000
     21         41.089426       41.466966   0.000000   0.000000
     22         41.805236       41.696611   0.000000   0.000000
     23         44.085443       44.280486   0.000000   0.000000
     24         45.997337       45.991906   0.000000   0.000000
 
  0.3333333E+00  0.2500000E+00  0.0000000E+00  0.1041667E-01
      1          5.480530        6.599767   1.000000   1.000000
      2          5.642865        6.827496   1.000000   1.000000
      3          5.739867        6.965125   1.000000   1.000000
      4          6.216536        7.214895   1.000000   1.000000
      5          6.758967        8.333607   1.000000   1.000000
      6          6.988025        8.540484   1.000000   1.000000
      7          7.605319        9.279145   1.000000   1.000000
      8          8.471994       10.355538   1.000000   0.000000
      9          8.743239       10.691438   1.000000   0.000000
     10          8.789196       10.717057   1.000000   0.000000
     11         12.125411       13.214863   0.000000   0.000000
     12         14.615554       15.392338   0.000000   0.000000
     13         16.911279       17.463643   0.000000   0.000000
     14         20.335684       20.815851   0.000000   0.000000
     15         20.676203       21.072241   0.000000   0.000000
     16         23.314741       23.736256   0.000000   0.000000
     17         24.570361       25.020298   0.000000   0.000000
     18         25.511799       25.756672   0.000000   0.000000
     19         26.805191       27.186023   0.000000   0.000000
     20         39.795685       40.037314   0.000000   0.000000
     21         43.378223       43.248056   0.000000   0.000000
     22         43.589081       43.803939   0.000000   0.000000
     23         45.402869       45.848478   0.000000   0.000000
     24         46.350712       46.430637   0.000000   0.000000
 
  0.3333333E+00  0.3333333E+00  0.0000000E+00  0.1736111E-02
      1          5.485630        6.856319   1.000000   1.000000
      2          5.826826        6.942562   1.000000   1.000000
      3          5.826826        6.942563   1.000000   1.000000
      4          6.109010        7.157509   1.000000   1.000000
      5          6.831102        8.377914   1.000000   1.000000
      6          6.831102        8.377914   1.000000   1.000000
      7          7.695734        9.380185   1.000000   1.000000
      8          8.605487       10.509738   1.000000   0.000000
      9          8.605488       10.509739   1.000000   0.000000
     10          8.719024       10.663554   1.000000   0.000000
     11         13.872100       14.660187   0.000000   0.000000
     12         14.595399       15.371918   0.000000   0.000000
     13         14.595400       15.371920   0.000000   0.000000
     14         21.554971       21.920427   0.000000   0.000000
     15         22.264142       22.699260   0.000000   0.000000