<?xml version="1.0" encoding="ISO-8859-1"?>
<modeling>
 <generator>
  <i name="program" type="string">vasp </i>
  <i name="version" type="string">6.3.2  </i>
  <i name="subversion" type="string">27Jun22 (build Aug 12 2022 00:53:59) complex                          parallel </i>
  <i name="platform" type="string">tv2STD </i>
  <i name="date" type="string">2024 12 02 </i>
  <i name="time" type="string">17:33:15 </i>
 </generator>
 <incar>
  <i type="string" name="SYSTEM">Co-hcc</i>
  <i type="int" name="ISTART">     0</i>
  <i type="string" name="PREC">Accurate      normal | accurate</i>
  <i type="string" name="ALGO">Normal     Normal, Fast, Very_Fast</i>
  <i type="logical" name="ADDGRID"> F  </i>
  <i type="int" name="ISPIN">     2</i>
  <i type="int" name="ICHARG">     2</i>
  <i type="int" name="INIWAV">     1</i>
  <i type="int" name="NELM">   100</i>
  <i type="int" name="IBRION">     2</i>
  <i name="EDIFF">      0.00000100</i>
  <i name="EDIFFG">     -0.02000000</i>
  <i type="int" name="NSW">   100</i>
  <i type="int" name="ISIF">     2</i>
  <i type="int" name="ISYM">     1</i>
  <i name="ENCUT">    425.00000000</i>
  <v name="MAGMOM">      3.00000000      3.00000000</v>
  <i type="logical" name="LREAL"> F  </i>
  <i type="int" name="ISMEAR">     0</i>
  <i name="SIGMA">      0.05000000</i>
  <i type="int" name="NWRITE">     2</i>
  <i type="logical" name="LWAVE"> F  </i>
  <i type="logical" name="LCHARG"> F  </i>
  <i type="int" name="LORBIT">    11</i>
 </incar>
 <primitive_cell>
  <structure name="primitive_cell" >
   <crystal>
    <varray name="basis" >
     <v>       1.26656993      -2.19376346       0.00000000 </v>
     <v>       1.26656993       2.19376346       0.00000000 </v>
     <v>       0.00000000       0.00000000       4.08607438 </v>
    </varray>
    <i name="volume">     22.70676335 </i>
    <varray name="rec_basis" >
     <v>       0.39476699      -0.22791883       0.00000000 </v>
     <v>       0.39476699       0.22791883       0.00000000 </v>
     <v>       0.00000000       0.00000000       0.24473368 </v>
    </varray>
   </crystal>
   <varray name="positions" >
    <v>       0.33333333       0.66666667       0.25000000 </v>
    <v>       0.66666667       0.33333333       0.75000000 </v>
   </varray>
  </structure>
  <varray name="primitive_index" >
   <v type="int" >        1 </v>
   <v type="int" >        2 </v>
  </varray>
 </primitive_cell>
 <kpoints>
  <generation param="Gamma">
   <v type="int" name="divisions">      12       12        8 </v>
   <v name="usershift">      0.00000000       0.00000000       0.00000000 </v>
   <v name="genvec1">      0.08333333      -0.00000000       0.00000000 </v>
   <v name="genvec2">     -0.00000000       0.08333333       0.00000000 </v>
   <v name="genvec3">      0.00000000       0.00000000       0.12500000 </v>
   <v name="shift">      0.00000000       0.00000000       0.00000000 </v>
  </generation>
  <varray name="kpointlist" >
   <v>       0.00000000       0.00000000       0.00000000 </v>
   <v>       0.08333333       0.00000000       0.00000000 </v>
   <v>       0.16666667       0.00000000       0.00000000 </v>
   <v>       0.25000000       0.00000000       0.00000000 </v>
   <v>       0.33333333       0.00000000       0.00000000 </v>
   <v>       0.41666667       0.00000000       0.00000000 </v>
   <v>       0.50000000       0.00000000       0.00000000 </v>
   <v>       0.08333333       0.08333333       0.00000000 </v>
   <v>       0.16666667       0.08333333       0.00000000 </v>
   <v>       0.25000000       0.08333333       0.00000000 </v>
   <v>       0.33333333       0.08333333       0.00000000 </v>
   <v>       0.41666667       0.08333333       0.00000000 </v>
   <v>       0.16666667       0.16666667       0.00000000 </v>
   <v>       0.25000000       0.16666667       0.00000000 </v>
   <v>       0.33333333       0.16666667       0.00000000 </v>
   <v>       0.41666667       0.16666667       0.00000000 </v>
   <v>       0.25000000       0.25000000       0.00000000 </v>
   <v>       0.33333333       0.25000000       0.00000000 </v>
   <v>       0.33333333       0.33333333       0.00000000 </v>
   <v>       0.00000000       0.00000000       0.12500000 </v>
   <v>       0.08333333       0.00000000       0.12500000 </v>
   <v>       0.16666667       0.00000000       0.12500000 </v>
   <v>       0.25000000       0.00000000       0.12500000 </v>
   <v>       0.33333333       0.00000000       0.12500000 </v>
   <v>       0.41666667       0.00000000       0.12500000 </v>
   <v>       0.50000000       0.00000000       0.12500000 </v>
   <v>       0.08333333       0.08333333       0.12500000 </v>
   <v>       0.16666667       0.08333333       0.12500000 </v>
   <v>       0.25000000       0.08333333       0.12500000 </v>
   <v>       0.33333333       0.08333333       0.12500000 </v>
   <v>       0.41666667       0.08333333       0.12500000 </v>
   <v>       0.16666667       0.16666667       0.12500000 </v>
   <v>       0.25000000       0.16666667       0.12500000 </v>
   <v>       0.33333333       0.16666667       0.12500000 </v>
   <v>       0.41666667       0.16666667       0.12500000 </v>
   <v>       0.25000000       0.25000000       0.12500000 </v>
   <v>       0.33333333       0.25000000       0.12500000 </v>
   <v>       0.33333333       0.33333333       0.12500000 </v>
   <v>       0.00000000       0.00000000       0.25000000 </v>
   <v>       0.08333333       0.00000000       0.25000000 </v>
   <v>       0.16666667       0.00000000       0.25000000 </v>
   <v>       0.25000000       0.00000000       0.25000000 </v>
   <v>       0.33333333       0.00000000       0.25000000 </v>
   <v>       0.41666667       0.00000000       0.25000000 </v>
   <v>       0.50000000       0.00000000       0.25000000 </v>
   <v>       0.08333333       0.08333333       0.25000000 </v>
   <v>       0.16666667       0.08333333       0.25000000 </v>
   <v>       0.25000000       0.08333333       0.25000000 </v>
   <v>       0.33333333       0.08333333       0.25000000 </v>
   <v>       0.41666667       0.08333333       0.25000000 </v>
   <v>       0.16666667       0.16666667       0.25000000 </v>
   <v>       0.25000000       0.16666667       0.25000000 </v>
   <v>       0.33333333       0.16666667       0.25000000 </v>
   <v>       0.41666667       0.16666667       0.25000000 </v>
   <v>       0.25000000       0.25000000       0.25000000 </v>
   <v>       0.33333333       0.25000000       0.25000000 </v>
   <v>       0.33333333       0.33333333       0.25000000 </v>
   <v>       0.00000000       0.00000000       0.37500000 </v>
   <v>       0.08333333       0.00000000       0.37500000 </v>
   <v>       0.16666667       0.00000000       0.37500000 </v>
   <v>       0.25000000       0.00000000       0.37500000 </v>
   <v>       0.33333333       0.00000000       0.37500000 </v>
   <v>       0.41666667       0.00000000       0.37500000 </v>
   <v>       0.50000000       0.00000000       0.37500000 </v>
   <v>       0.08333333       0.08333333       0.37500000 </v>
   <v>       0.16666667       0.08333333       0.37500000 </v>
   <v>       0.25000000       0.08333333       0.37500000 </v>
   <v>       0.33333333       0.08333333       0.37500000 </v>
   <v>       0.41666667       0.08333333       0.37500000 </v>
   <v>       0.16666667       0.16666667       0.37500000 </v>
   <v>       0.25000000       0.16666667       0.37500000 </v>
   <v>       0.33333333       0.16666667       0.37500000 </v>
   <v>       0.41666667       0.16666667       0.37500000 </v>
   <v>       0.25000000       0.25000000       0.37500000 </v>
   <v>       0.33333333       0.25000000       0.37500000 </v>
   <v>       0.33333333       0.33333333       0.37500000 </v>
   <v>       0.00000000       0.00000000       0.50000000 </v>
   <v>       0.08333333       0.00000000       0.50000000 </v>
   <v>       0.16666667       0.00000000       0.50000000 </v>
   <v>       0.25000000       0.00000000       0.50000000 </v>
   <v>       0.33333333       0.00000000       0.50000000 </v>
   <v>       0.41666667       0.00000000       0.50000000 </v>
   <v>       0.50000000       0.00000000       0.50000000 </v>
   <v>       0.08333333       0.08333333       0.50000000 </v>
   <v>       0.16666667       0.08333333       0.50000000 </v>
   <v>       0.25000000       0.08333333       0.50000000 </v>
   <v>       0.33333333       0.08333333       0.50000000 </v>
   <v>       0.41666667       0.08333333       0.50000000 </v>
   <v>       0.16666667       0.16666667       0.50000000 </v>
   <v>       0.25000000       0.16666667       0.50000000 </v>
   <v>       0.33333333       0.16666667       0.50000000 </v>
   <v>       0.41666667       0.16666667       0.50000000 </v>
   <v>       0.25000000       0.25000000       0.50000000 </v>
   <v>       0.33333333       0.25000000       0.50000000 </v>
   <v>       0.33333333       0.33333333       0.50000000 </v>
  </varray>
  <varray name="weights" >
   <v>       0.00086806 </v>
   <v>       0.00520833 </v>
   <v>       0.00520833 </v>
   <v>       0.00520833 </v>
   <v>       0.00520833 </v>
   <v>       0.00520833 </v>
   <v>       0.00260417 </v>
   <v>       0.00520833 </v>
   <v>       0.01041667 </v>
   <v>       0.01041667 </v>
   <v>       0.01041667 </v>
   <v>       0.01041667 </v>
   <v>       0.00520833 </v>
   <v>       0.01041667 </v>
   <v>       0.01041667 </v>
   <v>       0.00520833 </v>
   <v>       0.00520833 </v>
   <v>       0.01041667 </v>
   <v>       0.00173611 </v>
   <v>       0.00173611 </v>
   <v>       0.01041667 </v>
   <v>       0.01041667 </v>
   <v>       0.01041667 </v>
   <v>       0.01041667 </v>
   <v>       0.01041667 </v>
   <v>       0.00520833 </v>
   <v>       0.01041667 </v>
   <v>       0.02083333 </v>
   <v>       0.02083333 </v>
   <v>       0.02083333 </v>
   <v>       0.02083333 </v>
   <v>       0.01041667 </v>
   <v>       0.02083333 </v>
   <v>       0.02083333 </v>
   <v>       0.01041667 </v>
   <v>       0.01041667 </v>
   <v>       0.02083333 </v>
   <v>       0.00347222 </v>
   <v>       0.00173611 </v>
   <v>       0.01041667 </v>
   <v>       0.01041667 </v>
   <v>       0.01041667 </v>
   <v>       0.01041667 </v>
   <v>       0.01041667 </v>
   <v>       0.00520833 </v>
   <v>       0.01041667 </v>
   <v>       0.02083333 </v>
   <v>       0.02083333 </v>
   <v>       0.02083333 </v>
   <v>       0.02083333 </v>
   <v>       0.01041667 </v>
   <v>       0.02083333 </v>
   <v>       0.02083333 </v>
   <v>       0.01041667 </v>
   <v>       0.01041667 </v>
   <v>       0.02083333 </v>
   <v>       0.00347222 </v>
   <v>       0.00173611 </v>
   <v>       0.01041667 </v>
   <v>       0.01041667 </v>
   <v>       0.01041667 </v>
   <v>       0.01041667 </v>
   <v>       0.01041667 </v>
   <v>       0.00520833 </v>
   <v>       0.01041667 </v>
   <v>       0.02083333 </v>
   <v>       0.02083333 </v>
   <v>       0.02083333 </v>
   <v>       0.02083333 </v>
   <v>       0.01041667 </v>
   <v>       0.02083333 </v>
   <v>       0.02083333 </v>
   <v>       0.01041667 </v>
   <v>       0.01041667 </v>
   <v>       0.02083333 </v>
   <v>       0.00347222 </v>
   <v>       0.00086806 </v>
   <v>       0.00520833 </v>
   <v>       0.00520833 </v>
   <v>       0.00520833 </v>
   <v>       0.00520833 </v>
   <v>       0.00520833 </v>
   <v>       0.00260417 </v>
   <v>       0.00520833 </v>
   <v>       0.01041667 </v>
   <v>       0.01041667 </v>
   <v>       0.01041667 </v>
   <v>       0.01041667 </v>
   <v>       0.00520833 </v>
   <v>       0.01041667 </v>
   <v>       0.01041667 </v>
   <v>       0.00520833 </v>
   <v>       0.00520833 </v>
   <v>       0.01041667 </v>
   <v>       0.00173611 </v>
  </varray>
 </kpoints>
 <parameters>
  <separator name="general" >
   <i type="string" name="SYSTEM">Co-hcc</i>
   <i type="logical" name="LCOMPAT"> F  </i>
  </separator>
  <separator name="electronic" >
   <i type="string" name="PREC">accura</i>
   <i name="ENMAX">    425.00000000</i>
   <i name="ENAUG">    477.81800000</i>
   <i name="EDIFF">      0.00000100</i>
   <i type="int" name="IALGO">    38</i>
   <i type="int" name="IWAVPR">    11</i>
   <i type="int" name="NBANDS">    24</i>
   <i type="int" name="NBANDSLOW">    -1</i>
   <i type="int" name="NBANDSHIGH">    -1</i>
   <i name="NELECT">     18.00000000</i>
   <i type="int" name="TURBO">     0</i>
   <i type="int" name="IRESTART">     0</i>
   <i type="int" name="NREBOOT">     0</i>
   <i type="int" name="NMIN">     0</i>
   <i name="EREF">      0.00000000</i>
   <separator name="electronic smearing" >
    <i type="int" name="ISMEAR">     0</i>
    <i name="SIGMA">      0.05000000</i>
    <i name="KSPACING">      0.50000000</i>
    <i type="logical" name="KGAMMA"> T  </i>
    <i type="logical" name="KBLOWUP"> T  </i>
   </separator>
   <separator name="electronic projectors" >
    <i type="logical" name="LREAL"> F  </i>
    <v name="ROPT">      0.00000000</v>
    <i type="int" name="LMAXPAW">  -100</i>
    <i type="int" name="LMAXMIX">     2</i>
    <i type="logical" name="NLSPLINE"> F  </i>
   </separator>
   <separator name="electronic startup" >
    <i type="int" name="ISTART">     0</i>
    <i type="int" name="ICHARG">     2</i>
    <i type="int" name="INIWAV">     1</i>
   </separator>
   <separator name="electronic spin" >
    <i type="int" name="ISPIN">     2</i>
    <i type="logical" name="LNONCOLLINEAR"> F  </i>
    <v name="MAGMOM">      3.00000000      3.00000000</v>
    <i name="NUPDOWN">     -1.00000000</i>
    <i type="logical" name="LSORBIT"> F  </i>
    <v name="SAXIS">      0.00000000      0.00000000      1.00000000</v>
    <i type="logical" name="LSPIRAL"> F  </i>
    <v name="QSPIRAL">      0.00000000      0.00000000      0.00000000</v>
    <i type="logical" name="LZEROZ"> F  </i>
   </separator>
   <separator name="electronic exchange-correlation" >
    <i type="logical" name="LASPH"> F  </i>
    <i type="logical" name="LMETAGGA"> F  </i>
   </separator>
   <separator name="electronic convergence" >
    <i type="int" name="NELM">   100</i>
    <i type="int" name="NELMDL">    -5</i>
    <i type="int" name="NELMIN">     2</i>
    <i name="ENINI">    425.00000000</i>
    <separator name="electronic convergence detail" >
     <i type="logical" name="LDIAG"> T  </i>
     <i type="logical" name="LSUBROT"> F  </i>
     <i name="WEIMIN">      0.00100000</i>
     <i name="EBREAK">      0.00000001</i>
     <i name="DEPER">      0.30000000</i>
     <i type="int" name="NRMM">     4</i>
     <i name="TIME">      0.40000000</i>
    </separator>
   </separator>
   <separator name="electronic mixer" >
    <i name="AMIX">      0.40000000</i>
    <i name="BMIX">      1.00000000</i>
    <i name="AMIN">      0.10000000</i>
    <i name="AMIX_MAG">      1.60000000</i>
    <i name="BMIX_MAG">      1.00000000</i>
    <separator name="electronic mixer details" >
     <i type="int" name="IMIX">     4</i>
     <i type="logical" name="MIXFIRST"> F  </i>
     <i type="int" name="MAXMIX">   -45</i>
     <i name="WC">    100.00000000</i>
     <i type="int" name="INIMIX">     1</i>
     <i type="int" name="MIXPRE">     1</i>
     <i type="int" name="MREMOVE">     5</i>
    </separator>
   </separator>
   <separator name="electronic dipolcorrection" >
    <i type="logical" name="LDIPOL"> F  </i>
    <i type="logical" name="LMONO"> F  </i>
    <i type="int" name="IDIPOL">     0</i>
    <i name="EPSILON">      1.00000000</i>
    <v name="DIPOL">   -100.00000000   -100.00000000   -100.00000000</v>
    <i name="EFIELD">      0.00000000</i>
   </separator>
  </separator>
  <separator name="grids" >
   <i type="int" name="NGX">    18</i>
   <i type="int" name="NGY">    18</i>
   <i type="int" name="NGZ">    28</i>
   <i type="int" name="NGXF">    36</i>
   <i type="int" name="NGYF">    36</i>
   <i type="int" name="NGZF">    56</i>
   <i type="logical" name="ADDGRID"> F  </i>
  </separator>
  <separator name="ionic" >
   <i type="int" name="NSW">   100</i>
   <i type="int" name="IBRION">     2</i>
   <i type="int" name="MDALGO">     0</i>
   <i type="int" name="ISIF">     2</i>
   <i name="PSTRESS">      0.00000000</i>
   <i name="EDIFFG">     -0.02000000</i>
   <i type="int" name="NFREE">     1</i>
   <i name="POTIM">      0.50000000</i>
   <i name="SMASS">     -3.00000000</i>
   <i name="SCALEE">      1.00000000</i>
  </separator>
  <separator name="ionic md" >
   <i name="TEBEG">      0.00010000</i>
   <i name="TEEND">      0.00010000</i>
   <i type="int" name="NBLOCK">     1</i>
   <i type="int" name="KBLOCK">   100</i>
   <i type="int" name="NPACO">   256</i>
   <i name="APACO">     10.00000000</i>
  </separator>
  <separator name="symmetry" >
   <i type="int" name="ISYM">     1</i>
   <i name="SYMPREC">      0.00001000</i>
  </separator>
  <separator name="dos" >
   <i type="int" name="LORBIT">    11</i>
   <v name="RWIGS">     -1.00000000</v>
   <i type="int" name="NEDOS">   301</i>
   <i name="EMIN">     10.00000000</i>
   <i name="EMAX">    -10.00000000</i>
   <i name="EFERMI">      0.00000000</i>
  </separator>
  <separator name="writing" >
   <i type="int" name="NWRITE">     2</i>
   <i type="logical" name="LWAVE"> F  </i>
   <i type="logical" name="LDOWNSAMPLE"> F  </i>
   <i type="logical" name="LCHARG"> F  </i>
   <i type="logical" name="LPARD"> F  </i>
   <i type="logical" name="LVTOT"> F  </i>
   <i type="logical" name="LVHAR"> F  </i>
   <i type="logical" name="LELF"> F  </i>
   <i type="logical" name="LOPTICS"> F  </i>
   <v name="STM">      0.00000000      0.00000000      0.00000000      0.00000000      0.00000000      0.00000000      0.00000000</v>
  </separator>
  <separator name="performance" >
   <i type="int" name="NPAR">    24</i>
   <i type="int" name="NSIM">     4</i>
   <i type="int" name="NBLK">    -1</i>
   <i type="logical" name="LPLANE"> T  </i>
   <i type="logical" name="LSCALAPACK"> T  </i>
   <i type="logical" name="LSCAAWARE"> T  </i>
   <i type="logical" name="LSCALU"> F  </i>
   <i type="logical" name="LASYNC"> F  </i>
   <i type="logical" name="LORBITALREAL"> F  </i>
  </separator>
  <separator name="miscellaneous" >
   <i type="int" name="IDIOT">     3</i>
   <i type="int" name="PHON_NSTRUCT">    -1</i>
   <i type="logical" name="LMUSIC"> F  </i>
   <v name="POMASS">     58.93300000</v>
   <v name="DARWINR">      0.00000000</v>
   <v name="DARWINV">      1.00000000</v>
   <i type="logical" name="LCORR"> T  </i>
  </separator>
  <i type="logical" name="GGA_COMPAT"> T  </i>
  <i type="logical" name="LBERRY"> F  </i>
  <i type="int" name="ICORELEVEL">     0</i>
  <i type="logical" name="LDAU"> F  </i>
  <i type="int" name="I_CONSTRAINED_M">     0</i>
  <separator name="electronic exchange-correlation" >
   <i type="string" name="GGA">--</i>
   <i type="int" name="VOSKOWN">     0</i>
   <i type="logical" name="LHFCALC"> F  </i>
   <i type="string" name="PRECFOCK"></i>
   <i type="logical" name="LSYMGRAD"> F  </i>
   <i type="logical" name="LHFONE"> F  </i>
   <i type="logical" name="LRHFCALC"> F  </i>
   <i type="logical" name="LTHOMAS"> F  </i>
   <i type="logical" name="LMODELHF"> F  </i>
   <i type="logical" name="LFOCKACE"> F  </i>
   <i name="ENCUT4O">     -1.00000000</i>
   <i type="int" name="EXXOEP">     0</i>
   <i type="int" name="FOURORBIT">     0</i>
   <i name="AEXX">      0.00000000</i>
   <i name="HFALPHA">      0.00000000</i>
   <i name="MCALPHA">      0.00000000</i>
   <i name="ALDAX">      1.00000000</i>
   <i name="AGGAX">      1.00000000</i>
   <i name="ALDAC">      1.00000000</i>
   <i name="AGGAC">      1.00000000</i>
   <i type="int" name="NKREDX">     1</i>
   <i type="int" name="NKREDY">     1</i>
   <i type="int" name="NKREDZ">     1</i>
   <i type="logical" name="SHIFTRED"> F  </i>
   <i type="logical" name="ODDONLY"> F  </i>
   <i type="logical" name="EVENONLY"> F  </i>
   <i type="int" name="LMAXFOCK">     0</i>
   <i type="int" name="NMAXFOCKAE">     0</i>
   <i type="logical" name="LFOCKAEDFT"> F  </i>
   <i name="HFSCREEN">      0.00000000</i>
   <i name="HFSCREENC">      0.00000000</i>
   <i type="int" name="NBANDSGWLOW">     0</i>
  </separator>
  <separator name="vdW DFT" >
   <i type="logical" name="LUSE_VDW"> F  </i>
   <i name="Zab_VDW">     -0.84910000</i>
   <i name="PARAM1">      0.12340000</i>
   <i name="PARAM2">      1.00000000</i>
   <i name="PARAM3">      0.00000000</i>
  </separator>
  <separator name="model GW" >
   <i type="int" name="MODEL_GW">     0</i>
   <i name="MODEL_EPS0">      6.81202900</i>
   <i name="MODEL_ALPHA">      1.00000000</i>
  </separator>
  <separator name="linear response parameters" >
   <i type="logical" name="LEPSILON"> F  </i>
   <i type="logical" name="LRPA"> F  </i>
   <i type="logical" name="LNABLA"> F  </i>
   <i type="logical" name="LVEL"> F  </i>
   <i name="CSHIFT">      0.10000000</i>
   <i name="OMEGAMAX">     -1.00000000</i>
   <i name="DEG_THRESHOLD">      0.00200000</i>
   <i name="RTIME">     -0.10000000</i>
   <i name="WPLASMAI">      0.00000000</i>
   <v name="DFIELD">      0.00000000      0.00000000      0.00000000</v>
   <v name="WPLASMA">      0.00000000      0.00000000      0.00000000      0.00000000      0.00000000      0.00000000      0.00000000      0.00000000      0.00000000</v>
  </separator>
  <separator name="orbital magnetization" >
   <i type="logical" name="NUCIND"> F  </i>
   <v name="MAGPOS">      0.00000000      0.00000000      0.00000000</v>
   <i type="logical" name="LNICSALL"> T  </i>
   <i type="logical" name="ORBITALMAG"> F  </i>
   <i type="logical" name="LMAGBLOCH"> F  </i>
   <i type="logical" name="LCHIMAG"> F  </i>
   <i type="logical" name="LGAUGE"> T  </i>
   <i type="int" name="MAGATOM">     0</i>
   <v name="MAGDIPOL">      0.00000000      0.00000000      0.00000000</v>
   <v name="AVECCONST">      0.00000000      0.00000000      0.00000000</v>
  </separator>
  <separator name="response functions" >
   <i type="logical" name="LFINITE_TEMPERATURE"> F  </i>
   <i type="logical" name="LADDER"> F  </i>
   <i type="logical" name="LRPAFORCE"> F  </i>
   <i type="logical" name="LFXC"> F  </i>
   <i type="logical" name="LHARTREE"> T  </i>
   <i type="int" name="IBSE">     0</i>
   <v type="int" name="KPOINT">    -1     0     0     0</v>
   <i type="logical" name="LTCTC"> F  </i>
   <i type="logical" name="LTCTE"> F  </i>
   <i type="logical" name="LTETE"> F  </i>
   <i type="logical" name="LTRIPLET"> F  </i>
   <i type="logical" name="LFXCEPS"> F  </i>
   <i type="logical" name="LFXHEG"> F  </i>
   <i type="int" name="NATURALO">     2</i>
   <i type="logical" name="LHOLEGF"> F  </i>
   <i type="logical" name="L2ORDER"> F  </i>
   <i type="logical" name="LDMP1"> F  </i>
   <i type="logical" name="LMP2LT"> F  </i>
   <i type="logical" name="LSMP2LT"> F  </i>
   <i type="logical" name="LGWLF"> F  </i>
   <i name="ENCUTGW">     -2.00000000</i>
   <i name="ENCUTGWSOFT">     -2.00000000</i>
   <i name="ENCUTLF">     -1.00000000</i>
   <i type="logical" name="LESF_SPLINES"> F  </i>
   <i type="int" name="LMAXMP2">    -1</i>
   <i name="SCISSOR">      0.00000000</i>
   <i type="int" name="NOMEGA">     0</i>
   <i type="int" name="NOMEGAR">     0</i>
   <i type="int" name="NBANDSGW">    -1</i>
   <i type="int" name="NBANDSO">    -1</i>
   <i type="int" name="NBANDSV">    -1</i>
   <i type="int" name="NELMGW">     1</i>
   <i type="int" name="NELMHF">     1</i>
   <i type="int" name="DIM">     3</i>
   <i type="int" name="IESPILON">     4</i>
   <i type="int" name="ANTIRES">     0</i>
   <i name="OMEGAMAX">    -30.00000000</i>
   <i name="OMEGAMIN">    -30.00000000</i>
   <i name="OMEGATL">   -200.00000000</i>
   <i type="int" name="OMEGAGRID">     0</i>
   <i name="CSHIFT">     -0.10000000</i>
   <i type="logical" name="LSELFENERGY"> F  </i>
   <i type="logical" name="LSPECTRAL"> F  </i>
   <i type="logical" name="LSPECTRALGW"> F  </i>
   <i type="logical" name="LSINGLES"> F  </i>
   <i type="logical" name="LFERMIGW"> F  </i>
   <i type="logical" name="ODDONLYGW"> F  </i>
   <i type="logical" name="EVENONLYGW"> F  </i>
   <i type="int" name="NKREDLFX">     1</i>
   <i type="int" name="NKREDLFY">     1</i>
   <i type="int" name="NKREDLFZ">     1</i>
   <i type="int" name="MAXMEM">  2800</i>
   <i type="int" name="TELESCOPE">     0</i>
   <i type="int" name="NTAUPAR">    -1</i>
   <i type="int" name="NOMEGAPAR">    -1</i>
   <i name="DAMP_NEWTON">      0.80000001</i>
   <i name="LAMBDA">      1.00000000</i>
  </separator>
  <separator name="External order field" >
   <i name="OFIELD_KAPPA">      0.00000000</i>
   <v name="OFIELD_K">      0.00000000      0.00000000      0.00000000</v>
   <i name="OFIELD_Q6_NEAR">      0.00000000</i>
   <i name="OFIELD_Q6_FAR">      0.00000000</i>
   <i name="OFIELD_A">      0.00000000</i>
  </separator>
  <separator name="optional k-points parameters" >
   <i type="int" name="KPOINTS_OPT_MODE">     1</i>
   <i type="logical" name="LKPOINTS_OPT"> F  </i>
  </separator>
 </parameters>
 <atominfo>
  <atoms>       2 </atoms>
  <types>       1 </types>
  <array name="atoms" >
   <dimension dim="1">ion</dimension>
   <field type="string">element</field>
   <field type="int">atomtype</field>
   <set>
    <rc><c>Co</c><c>   1</c></rc>
    <rc><c>Co</c><c>   1</c></rc>
   </set>
  </array>
  <array name="atomtypes" >
   <dimension dim="1">type</dimension>
   <field type="int">atomspertype</field>
   <field type="string">element</field>
   <field>mass</field>
   <field>valence</field>
   <field type="string">pseudopotential</field>
   <set>
    <rc><c>   2</c><c>Co</c><c>     58.93300000</c><c>      9.00000000</c><c>  PAW_PBE Co 02Aug2007                  </c></rc>
   </set>
  </array>
 </atominfo>
 <structure name="initialpos" >
  <crystal>
   <varray name="basis" >
    <v>       1.26656993      -2.19376346       0.00000000 </v>
    <v>       1.26656993       2.19376346       0.00000000 </v>
    <v>       0.00000000       0.00000000       4.08607438 </v>
   </varray>
   <i name="volume">     22.70676335 </i>
   <varray name="rec_basis" >
    <v>       0.39476699      -0.22791883       0.00000000 </v>
    <v>       0.39476699       0.22791883       0.00000000 </v>
    <v>       0.00000000       0.00000000       0.24473368 </v>
   </varray>
  </crystal>
  <varray name="positions" >
   <v>       0.33333333       0.66666667       0.25000000 </v>
   <v>       0.66666667       0.33333333       0.75000000 </v>
  </varray>
 </structure>
 <calculation>
  <scstep>
   <time name="dav">    0.75    0.76</time>
   <time name="total">    0.76    0.77</time>
   <energy>
    <i name="alphaZ">     74.61687119 </i>
    <i name="ewald">  -1498.79969051 </i>
    <i name="hartreedc">   -309.72479158 </i>
    <i name="XCdc">     35.34099348 </i>
    <i name="pawpsdc">   1439.98163886 </i>
    <i name="pawaedc">  -1545.88690193 </i>
    <i name="eentropy">     -0.00354582 </i>
    <i name="bandstr">    181.54524504 </i>
    <i name="atom">   1626.72322989 </i>
    <i name="e_fr_energy">      3.79304863 </i>
    <i name="e_wo_entrp">      3.79659445 </i>
    <i name="e_0_energy">      3.79482154 </i>
   </energy>
  </scstep>
  <scstep>
   <time name="dav">    0.98    0.99</time>
   <time name="total">    0.98    0.99</time>
   <energy>
    <i name="e_fr_energy">    -15.56610137 </i>
    <i name="e_wo_entrp">    -15.56434907 </i>
    <i name="e_0_energy">    -15.56522522 </i>
   </energy>
  </scstep>
  <scstep>
   <time name="dav">    1.21    1.22</time>
   <time name="total">    1.21    1.22</time>
   <energy>
    <i name="e_fr_energy">    -15.69606873 </i>
    <i name="e_wo_entrp">    -15.69423133 </i>
    <i name="e_0_energy">    -15.69515003 </i>
   </energy>
  </scstep>
  <scstep>
   <time name="dav">    1.32    1.33</time>
   <time name="total">    1.32    1.33</time>
   <energy>
    <i name="e_fr_energy">    -15.69664583 </i>
    <i name="e_wo_entrp">    -15.69480558 </i>
    <i name="e_0_energy">    -15.69572570 </i>
   </energy>
  </scstep>
  <scstep>
   <time name="dav">    1.39    1.39</time>
   <time name="total">    1.42    1.43</time>
   <energy>
    <i name="e_fr_energy">    -15.69664659 </i>
    <i name="e_wo_entrp">    -15.69480627 </i>
    <i name="e_0_energy">    -15.69572643 </i>
   </energy>
  </scstep>
  <scstep>
   <time name="dav">    1.61    1.62</time>
   <time name="total">    1.66    1.67</time>
   <energy>
    <i name="e_fr_energy">    -14.52723750 </i>
    <i name="e_wo_entrp">    -14.52544582 </i>
    <i name="e_0_energy">    -14.52634166 </i>
   </energy>
  </scstep>
  <scstep>
   <time name="dav">    1.66    1.67</time>
   <time name="total">    1.70    1.71</time>
   <energy>
    <i name="e_fr_energy">    -14.07315333 </i>
    <i name="e_wo_entrp">    -14.07045774 </i>
    <i name="e_0_energy">    -14.07180554 </i>
   </energy>
  </scstep>
  <scstep>
   <time name="dav">    1.56    1.57</time>
   <time name="total">    1.60    1.61</time>
   <energy>
    <i name="e_fr_energy">    -14.05229684 </i>
    <i name="e_wo_entrp">    -14.04965125 </i>
    <i name="e_0_energy">    -14.05097404 </i>
   </energy>
  </scstep>
  <scstep>
   <time name="dav">    2.01    2.02</time>
   <time name="total">    2.05    2.07</time>
   <energy>
    <i name="e_fr_energy">    -14.03875577 </i>
    <i name="e_wo_entrp">    -14.03610887 </i>
    <i name="e_0_energy">    -14.03743232 </i>
   </energy>
  </scstep>
  <scstep>
   <time name="dav">    2.00    2.02</time>
   <time name="total">    2.05    2.06</time>
   <energy>
    <i name="e_fr_energy">    -14.03777389 </i>
    <i name="e_wo_entrp">    -14.03512677 </i>
    <i name="e_0_energy">    -14.03645033 </i>
   </energy>
  </scstep>
  <scstep>
   <time name="dav">    1.60    1.61</time>
   <time name="total">    1.64    1.65</time>
   <energy>
    <i name="e_fr_energy">    -14.03778556 </i>
    <i name="e_wo_entrp">    -14.03512657 </i>
    <i name="e_0_energy">    -14.03645607 </i>
   </energy>
  </scstep>
  <scstep>
   <time name="dav">    1.30    1.31</time>
   <time name="total">    1.34    1.35</time>
   <energy>
    <i name="e_fr_energy">    -14.03778073 </i>
    <i name="e_wo_entrp">    -14.03512460 </i>
    <i name="e_0_energy">    -14.03645266 </i>
   </energy>
  </scstep>
  <scstep>
   <time name="dav">    1.77    1.78</time>
   <time name="total">    1.78    1.79</time>
   <energy>
    <i name="alphaZ">     74.61687119 </i>
    <i name="ewald">  -1498.79969051 </i>
    <i name="hartreedc">   -274.28533705 </i>
    <i name="XCdc">     32.63924131 </i>
    <i name="pawpsdc">   1759.25072406 </i>
    <i name="pawaedc">  -1864.92617142 </i>
    <i name="eentropy">     -0.00265562 </i>
    <i name="bandstr">    130.74600712 </i>
    <i name="atom">   1626.72322989 </i>
    <i name="e_fr_energy">    -14.03778104 </i>
    <i name="e_wo_entrp">    -14.03512542 </i>
    <i name="e_0_energy">    -14.03645323 </i>
   </energy>
  </scstep>
  <structure>
   <crystal>
    <varray name="basis" >
     <v>       1.26656993      -2.19376346       0.00000000 </v>
     <v>       1.26656993       2.19376346       0.00000000 </v>
     <v>       0.00000000       0.00000000       4.08607438 </v>
    </varray>
    <i name="volume">     22.70676335 </i>
    <varray name="rec_basis" >
     <v>       0.39476699      -0.22791883       0.00000000 </v>
     <v>       0.39476699       0.22791883       0.00000000 </v>
     <v>       0.00000000       0.00000000       0.24473368 </v>
    </varray>
   </crystal>
   <varray name="positions" >
    <v>       0.33333333       0.66666667       0.25000000 </v>
    <v>       0.66666667       0.33333333       0.75000000 </v>
   </varray>
  </structure>
  <varray name="forces" >
   <v>       0.00000000       0.00000000      -0.00000000 </v>
   <v>      -0.00000000      -0.00000000       0.00000000 </v>
  </varray>
  <varray name="stress" >
   <v>     -88.80448465       0.00000000      -0.00000000 </v>
   <v>      -0.00000000     -88.80448465       0.00000000 </v>
   <v>      -0.00000000       0.00000000     -90.67508320 </v>
  </varray>
  <energy>
   <i name="e_fr_energy">    -14.03778104 </i>
   <i name="e_wo_entrp">    -14.03512542 </i>
   <i name="e_0_energy">    -14.03645323 </i>
  </energy>
  <time name="totalsc">   19.81   19.93</time>
  <eigenvalues>
   <array>
    <dimension dim="1">band</dimension>
    <dimension dim="2">kpoint</dimension>
    <dimension dim="3">spin</dimension>
    <field>eigene</field>
    <field>occ</field>
    <set>
     <set comment="spin 1">
      <set comment="kpoint 1">
       <r>    0.9792    1.0000 </r>
       <r>    4.6862    1.0000 </r>
       <r>    7.0562    1.0000 </r>
       <r>    7.0662    1.0000 </r>
       <r>    7.0662    1.0000 </r>
       <r>    7.3561    1.0000 </r>
       <r>    7.3561    1.0000 </r>
       <r>    7.6695    1.0000 </r>
       <r>    7.6695    1.0000 </r>
       <r>    8.7013    1.0000 </r>
       <r>    8.7013    1.0000 </r>
       <r>    9.6056    0.3132 </r>
       <r>   15.6018    0.0000 </r>
       <r>   31.1810    0.0000 </r>
       <r>   33.2756    0.0000 </r>
       <r>   33.2756    0.0000 </r>
       <r>   34.1586    0.0000 </r>
       <r>   34.6461    0.0000 </r>
       <r>   34.6794    0.0000 </r>
       <r>   34.6794    0.0000 </r>
       <r>   39.4059    0.0000 </r>
       <r>   39.4059    0.0000 </r>
       <r>   40.0497    0.0000 </r>
       <r>   40.7578    0.0000 </r>
      </set>
      <set comment="kpoint 2">
       <r>    1.2137    1.0000 </r>
       <r>    4.8231    1.0000 </r>
       <r>    6.8512    1.0000 </r>
       <r>    7.1713    1.0000 </r>
       <r>    7.2372    1.0000 </r>
       <r>    7.3152    1.0000 </r>
       <r>    7.4490    1.0000 </r>
       <r>    7.5369    1.0000 </r>
       <r>    7.6043    1.0000 </r>
       <r>    8.0304    1.0000 </r>
       <r>    8.7290    1.0000 </r>
       <r>   10.5746    0.0000 </r>
       <r>   15.6479    0.0000 </r>
       <r>   29.1518    0.0000 </r>
       <r>   31.2521    0.0000 </r>
       <r>   31.4609    0.0000 </r>
       <r>   34.6550    0.0000 </r>
       <r>   34.9506    0.0000 </r>
       <r>   36.3263    0.0000 </r>
       <r>   36.9435    0.0000 </r>
       <r>   37.6999    0.0000 </r>
       <r>   38.8429    0.0000 </r>
       <r>   39.6201    0.0000 </r>
       <r>   39.7538    0.0000 </r>
      </set>
      <set comment="kpoint 3">
       <r>    1.8930    1.0000 </r>
       <r>    5.1614    1.0000 </r>
       <r>    6.6003    1.0000 </r>
       <r>    6.9043    1.0000 </r>
       <r>    7.1585    1.0000 </r>
       <r>    7.4431    1.0000 </r>
       <r>    7.4675    1.0000 </r>
       <r>    7.5197    1.0000 </r>
       <r>    7.6557    1.0000 </r>
       <r>    7.7086    1.0000 </r>
       <r>    8.7883    1.0000 </r>
       <r>   12.0870    0.0000 </r>
       <r>   15.8079    0.0000 </r>
       <r>   25.3435    0.0000 </r>
       <r>   28.9420    0.0000 </r>
       <r>   30.5546    0.0000 </r>
       <r>   32.4434    0.0000 </r>
       <r>   34.7566    0.0000 </r>
       <r>   35.2093    0.0000 </r>
       <r>   37.3160    0.0000 </r>
       <r>   37.9792    0.0000 </r>
       <r>   38.4677    0.0000 </r>
       <r>   39.0136    0.0000 </r>
       <r>   40.3188    0.0000 </r>
      </set>
      <set comment="kpoint 4">
       <r>    2.9245    1.0000 </r>
       <r>    5.4320    1.0000 </r>
       <r>    6.2299    1.0000 </r>
       <r>    6.4524    1.0000 </r>
       <r>    7.0765    1.0000 </r>
       <r>    7.2490    1.0000 </r>
       <r>    7.4686    1.0000 </r>
       <r>    7.8959    1.0000 </r>
       <r>    7.9162    1.0000 </r>
       <r>    8.0811    1.0000 </r>
       <r>    8.8447    1.0000 </r>
       <r>   13.8137    0.0000 </r>
       <r>   16.1171    0.0000 </r>
       <r>   21.6964    0.0000 </r>
       <r>   26.9425    0.0000 </r>
       <r>   29.1324    0.0000 </r>
       <r>   29.3416    0.0000 </r>
       <r>   32.7931    0.0000 </r>
       <r>   33.7199    0.0000 </r>
       <r>   36.9732    0.0000 </r>
       <r>   37.2850    0.0000 </r>
       <r>   38.0506    0.0000 </r>
       <r>   39.0866    0.0000 </r>
       <r>   41.9633    0.0000 </r>
      </set>
      <set comment="kpoint 5">
       <r>    4.0563    1.0000 </r>
       <r>    5.3707    1.0000 </r>
       <r>    5.7372    1.0000 </r>
       <r>    6.5662    1.0000 </r>
       <r>    7.0738    1.0000 </r>
       <r>    7.1935    1.0000 </r>
       <r>    7.3067    1.0000 </r>
       <r>    8.3504    1.0000 </r>
       <r>    8.4845    1.0000 </r>
       <r>    8.5562    1.0000 </r>
       <r>    8.8837    1.0000 </r>
       <r>   15.7085    0.0000 </r>
       <r>   16.2458    0.0000 </r>
       <r>   18.8641    0.0000 </r>
       <r>   25.3622    0.0000 </r>
       <r>   26.1054    0.0000 </r>
       <r>   27.0407    0.0000 </r>
       <r>   31.3862    0.0000 </r>
       <r>   32.6034    0.0000 </r>
       <r>   35.2505    0.0000 </r>
       <r>   36.8085    0.0000 </r>
       <r>   38.7560    0.0000 </r>
       <r>   40.8390    0.0000 </r>
       <r>   43.0952    0.0000 </r>
      </set>
      <set comment="kpoint 6">
       <r>    4.8023    1.0000 </r>
       <r>    5.1964    1.0000 </r>
       <r>    5.4424    1.0000 </r>
       <r>    6.9221    1.0000 </r>
       <r>    6.9541    1.0000 </r>
       <r>    7.1929    1.0000 </r>
       <r>    7.3823    1.0000 </r>
       <r>    8.6889    1.0000 </r>
       <r>    8.8177    1.0000 </r>
       <r>    8.9047    1.0000 </r>
       <r>    9.6261    0.1432 </r>
       <r>   14.4114    0.0000 </r>
       <r>   17.6785    0.0000 </r>
       <r>   18.8148    0.0000 </r>
       <r>   23.4673    0.0000 </r>
       <r>   24.3275    0.0000 </r>
       <r>   24.4223    0.0000 </r>
       <r>   30.9279    0.0000 </r>
       <r>   31.8538    0.0000 </r>
       <r>   34.1386    0.0000 </r>
       <r>   36.5346    0.0000 </r>
       <r>   39.1904    0.0000 </r>
       <r>   43.1888    0.0000 </r>
       <r>   43.7142    0.0000 </r>
      </set>
      <set comment="kpoint 7">
       <r>    5.0552    1.0000 </r>
       <r>    5.0617    1.0000 </r>
       <r>    5.3444    1.0000 </r>
       <r>    6.9119    1.0000 </r>
       <r>    7.1519    1.0000 </r>
       <r>    7.1616    1.0000 </r>
       <r>    7.4528    1.0000 </r>
       <r>    8.8111    1.0000 </r>
       <r>    8.9111    1.0000 </r>
       <r>    8.9519    1.0000 </r>
       <r>   10.7795    0.0000 </r>
       <r>   12.6829    0.0000 </r>
       <r>   18.9707    0.0000 </r>
       <r>   19.5613    0.0000 </r>
       <r>   21.9546    0.0000 </r>
       <r>   22.9992    0.0000 </r>
       <r>   23.9638    0.0000 </r>
       <r>   30.8145    0.0000 </r>
       <r>   31.5946    0.0000 </r>
       <r>   33.7533    0.0000 </r>
       <r>   36.4461    0.0000 </r>
       <r>   39.3518    0.0000 </r>
       <r>   43.8756    0.0000 </r>
       <r>   45.7933    0.0000 </r>
      </set>
      <set comment="kpoint 8">
       <r>    1.6714    1.0000 </r>
       <r>    5.0662    1.0000 </r>
       <r>    6.6530    1.0000 </r>
       <r>    7.1320    1.0000 </r>
       <r>    7.2193    1.0000 </r>
       <r>    7.3828    1.0000 </r>
       <r>    7.3857    1.0000 </r>
       <r>    7.4196    1.0000 </r>
       <r>    7.6541    1.0000 </r>
       <r>    7.7657    1.0000 </r>
       <r>    8.7638    1.0000 </r>
       <r>   11.6599    0.0000 </r>
       <r>   15.7527    0.0000 </r>
       <r>   27.1016    0.0000 </r>
       <r>   27.6985    0.0000 </r>
       <r>   32.9553    0.0000 </r>
       <r>   33.9809    0.0000 </r>
       <r>   34.1563    0.0000 </r>
       <r>   34.1969    0.0000 </r>
       <r>   37.1555    0.0000 </r>
       <r>   37.8043    0.0000 </r>
       <r>   38.3336    0.0000 </r>
       <r>   40.6932    0.0000 </r>
       <r>   41.1037    0.0000 </r>
      </set>
      <set comment="kpoint 9">
       <r>    2.5348    1.0000 </r>
       <r>    5.4121    1.0000 </r>
       <r>    6.4045    1.0000 </r>
       <r>    6.4796    1.0000 </r>
       <r>    7.1114    1.0000 </r>
       <r>    7.2154    1.0000 </r>
       <r>    7.6167    1.0000 </r>
       <r>    7.6178    1.0000 </r>
       <r>    7.7763    1.0000 </r>
       <r>    8.0384    1.0000 </r>
       <r>    8.8068    1.0000 </r>
       <r>   13.1884    0.0000 </r>
       <r>   16.0066    0.0000 </r>
       <r>   23.5647    0.0000 </r>
       <r>   25.7215    0.0000 </r>
       <r>   30.8250    0.0000 </r>
       <r>   31.7119    0.0000 </r>
       <r>   32.8294    0.0000 </r>
       <r>   34.2175    0.0000 </r>
       <r>   35.3671    0.0000 </r>
       <r>   37.4607    0.0000 </r>
       <r>   38.9887    0.0000 </r>
       <r>   40.6586    0.0000 </r>
       <r>   41.1088    0.0000 </r>
      </set>
      <set comment="kpoint 10">
       <r>    3.6519    1.0000 </r>
       <r>    5.5256    1.0000 </r>
       <r>    5.9396    1.0000 </r>
       <r>    6.3464    1.0000 </r>
       <r>    7.0432    1.0000 </r>
       <r>    7.1258    1.0000 </r>
       <r>    7.4372    1.0000 </r>
       <r>    7.9881    1.0000 </r>
       <r>    8.2379    1.0000 </r>
       <r>    8.5639    1.0000 </r>
       <r>    8.8431    1.0000 </r>
       <r>   14.9632    0.0000 </r>
       <r>   16.3989    0.0000 </r>
       <r>   20.1661    0.0000 </r>
       <r>   24.2329    0.0000 </r>
       <r>   27.6931    0.0000 </r>
       <r>   28.9780    0.0000 </r>
       <r>   31.5994    0.0000 </r>
       <r>   33.4215    0.0000 </r>
       <r>   33.8548    0.0000 </r>
       <r>   38.1197    0.0000 </r>
       <r>   40.5007    0.0000 </r>
       <r>   40.7419    0.0000 </r>
       <r>   41.7706    0.0000 </r>
      </set>
      <set comment="kpoint 11">
       <r>    4.6383    1.0000 </r>
       <r>    5.3646    1.0000 </r>
       <r>    5.5735    1.0000 </r>
       <r>    6.5745    1.0000 </r>
       <r>    6.9309    1.0000 </r>
       <r>    7.2612    1.0000 </r>
       <r>    7.3055    1.0000 </r>
       <r>    8.4500    1.0000 </r>
       <r>    8.6309    1.0000 </r>
       <r>    8.8659    1.0000 </r>
       <r>    9.3270    1.0000 </r>
       <r>   15.7440    0.0000 </r>
       <r>   16.9029    0.0000 </r>
       <r>   18.5670    0.0000 </r>
       <r>   23.0874    0.0000 </r>
       <r>   24.8506    0.0000 </r>
       <r>   26.0236    0.0000 </r>
       <r>   30.7168    0.0000 </r>
       <r>   32.7866    0.0000 </r>
       <r>   32.8390    0.0000 </r>
       <r>   38.1298    0.0000 </r>
       <r>   40.8417    0.0000 </r>
       <r>   42.3393    0.0000 </r>
       <r>   43.4510    0.0000 </r>
      </set>
      <set comment="kpoint 12">
       <r>    5.0772    1.0000 </r>
       <r>    5.2125    1.0000 </r>
       <r>    5.3904    1.0000 </r>
       <r>    6.8851    1.0000 </r>
       <r>    6.9293    1.0000 </r>
       <r>    7.1453    1.0000 </r>
       <r>    7.4495    1.0000 </r>
       <r>    8.7769    1.0000 </r>
       <r>    8.8428    1.0000 </r>
       <r>    8.8760    1.0000 </r>
       <r>   10.5922    0.0000 </r>
       <r>   13.4441    0.0000 </r>
       <r>   18.7703    0.0000 </r>
       <r>   19.4525    0.0000 </r>
       <r>   22.3303    0.0000 </r>
       <r>   22.5370    0.0000 </r>
       <r>   23.7943    0.0000 </r>
       <r>   30.2596    0.0000 </r>
       <r>   32.2187    0.0000 </r>
       <r>   32.5507    0.0000 </r>
       <r>   38.0006    0.0000 </r>
       <r>   41.0392    0.0000 </r>
       <r>   43.9063    0.0000 </r>
       <r>   44.7443    0.0000 </r>
      </set>
      <set comment="kpoint 13">
       <r>    3.5086    1.0000 </r>
       <r>    5.6913    1.0000 </r>
       <r>    6.0463    1.0000 </r>
       <r>    6.1355    1.0000 </r>
       <r>    6.9798    1.0000 </r>
       <r>    7.1225    1.0000 </r>
       <r>    7.5217    1.0000 </r>
       <r>    7.7718    1.0000 </r>
       <r>    8.2280    1.0000 </r>
       <r>    8.5836    1.0000 </r>
       <r>    8.8084    1.0000 </r>
       <r>   14.7106    0.0000 </r>
       <r>   16.4226    0.0000 </r>
       <r>   21.8992    0.0000 </r>
       <r>   22.2686    0.0000 </r>
       <r>   29.2762    0.0000 </r>
       <r>   29.9253    0.0000 </r>
       <r>   30.9452    0.0000 </r>
       <r>   31.6620    0.0000 </r>
       <r>   36.2661    0.0000 </r>
       <r>   38.5121    0.0000 </r>
       <r>   38.6824    0.0000 </r>
       <r>   42.2395    0.0000 </r>
       <r>   43.4692    0.0000 </r>
      </set>
      <set comment="kpoint 14">
       <r>    4.5763    1.0000 </r>
       <r>    5.6790    1.0000 </r>
       <r>    5.7047    1.0000 </r>
       <r>    6.1168    1.0000 </r>
       <r>    6.8378    1.0000 </r>
       <r>    7.2580    1.0000 </r>
       <r>    7.3461    1.0000 </r>
       <r>    8.0551    1.0000 </r>
       <r>    8.6332    1.0000 </r>
       <r>    8.8063    1.0000 </r>
       <r>    9.3425    1.0000 </r>
       <r>   16.5119    0.0000 </r>
       <r>   16.8445    0.0000 </r>
       <r>   19.0798    0.0000 </r>
       <r>   20.9282    0.0000 </r>
       <r>   26.5929    0.0000 </r>
       <r>   27.9427    0.0000 </r>
       <r>   28.6318    0.0000 </r>
       <r>   30.3784    0.0000 </r>
       <r>   36.4050    0.0000 </r>
       <r>   39.8533    0.0000 </r>
       <r>   41.0457    0.0000 </r>
       <r>   42.8591    0.0000 </r>
       <r>   43.4113    0.0000 </r>
      </set>
      <set comment="kpoint 15">
       <r>    5.2458    1.0000 </r>
       <r>    5.4935    1.0000 </r>
       <r>    5.4939    1.0000 </r>
       <r>    6.4181    1.0000 </r>
       <r>    6.7986    1.0000 </r>
       <r>    7.1564    1.0000 </r>
       <r>    7.4450    1.0000 </r>
       <r>    8.4289    1.0000 </r>
       <r>    8.8038    1.0000 </r>
       <r>    8.8337    1.0000 </r>
       <r>   10.4908    0.0000 </r>
       <r>   15.0828    0.0000 </r>
       <r>   18.4750    0.0000 </r>
       <r>   19.0565    0.0000 </r>
       <r>   20.1916    0.0000 </r>
       <r>   23.9445    0.0000 </r>
       <r>   25.1006    0.0000 </r>
       <r>   28.0103    0.0000 </r>
       <r>   29.6434    0.0000 </r>
       <r>   36.0643    0.0000 </r>
       <r>   40.6252    0.0000 </r>
       <r>   43.1912    0.0000 </r>
       <r>   44.3595    0.0000 </r>
       <r>   44.4471    0.0000 </r>
      </set>
      <set comment="kpoint 16">
       <r>    5.4056    1.0000 </r>
       <r>    5.4066    1.0000 </r>
       <r>    5.4225    1.0000 </r>
       <r>    6.6297    1.0000 </r>
       <r>    6.8135    1.0000 </r>
       <r>    7.0582    1.0000 </r>
       <r>    7.5245    1.0000 </r>
       <r>    8.6808    1.0000 </r>
       <r>    8.8026    1.0000 </r>
       <r>    8.8138    1.0000 </r>
       <r>   11.7681    0.0000 </r>
       <r>   13.2273    0.0000 </r>
       <r>   19.5788    0.0000 </r>
       <r>   19.8740    0.0000 </r>
       <r>   20.2411    0.0000 </r>
       <r>   22.3163    0.0000 </r>
       <r>   23.6163    0.0000 </r>
       <r>   27.8047    0.0000 </r>
       <r>   29.3846    0.0000 </r>
       <r>   35.9314    0.0000 </r>
       <r>   40.7615    0.0000 </r>
       <r>   44.0102    0.0000 </r>
       <r>   44.0844    0.0000 </r>
       <r>   46.0472    0.0000 </r>
      </set>
      <set comment="kpoint 17">
       <r>    5.3694    1.0000 </r>
       <r>    5.5526    1.0000 </r>
       <r>    5.8622    1.0000 </r>
       <r>    5.9212    1.0000 </r>
       <r>    6.7407    1.0000 </r>
       <r>    7.1703    1.0000 </r>
       <r>    7.4507    1.0000 </r>
       <r>    8.2199    1.0000 </r>
       <r>    8.7667    1.0000 </r>
       <r>    8.8395    1.0000 </r>
       <r>   10.4886    0.0000 </r>
       <r>   16.8400    0.0000 </r>
       <r>   17.5389    0.0000 </r>
       <r>   18.3580    0.0000 </r>
       <r>   19.5866    0.0000 </r>
       <r>   25.6922    0.0000 </r>
       <r>   25.9672    0.0000 </r>
       <r>   26.7292    0.0000 </r>
       <r>   27.5746    0.0000 </r>
       <r>   39.4097    0.0000 </r>
       <r>   41.0894    0.0000 </r>
       <r>   41.8052    0.0000 </r>
       <r>   44.0854    0.0000 </r>
       <r>   45.9973    0.0000 </r>
      </set>
      <set comment="kpoint 18">
       <r>    5.4805    1.0000 </r>
       <r>    5.6429    1.0000 </r>
       <r>    5.7399    1.0000 </r>
       <r>    6.2165    1.0000 </r>
       <r>    6.7590    1.0000 </r>
       <r>    6.9880    1.0000 </r>
       <r>    7.6053    1.0000 </r>
       <r>    8.4720    1.0000 </r>
       <r>    8.7432    1.0000 </r>
       <r>    8.7892    1.0000 </r>
       <r>   12.1254    0.0000 </r>
       <r>   14.6156    0.0000 </r>
       <r>   16.9113    0.0000 </r>
       <r>   20.3357    0.0000 </r>
       <r>   20.6762    0.0000 </r>
       <r>   23.3147    0.0000 </r>
       <r>   24.5704    0.0000 </r>
       <r>   25.5118    0.0000 </r>
       <r>   26.8052    0.0000 </r>
       <r>   39.7957    0.0000 </r>
       <r>   43.3782    0.0000 </r>
       <r>   43.5891    0.0000 </r>
       <r>   45.4029    0.0000 </r>
       <r>   46.3507    0.0000 </r>
      </set>
      <set comment="kpoint 19">
       <r>    5.4856    1.0000 </r>
       <r>    5.8268    1.0000 </r>
       <r>    5.8268    1.0000 </r>
       <r>    6.1090    1.0000 </r>
       <r>    6.8311    1.0000 </r>
       <r>    6.8311    1.0000 </r>
       <r>    7.6957    1.0000 </r>
       <r>    8.6055    1.0000 </r>
       <r>    8.6055    1.0000 </r>
       <r>    8.7190    1.0000 </r>
       <r>   13.8721    0.0000 </r>
       <r>   14.5954    0.0000 </r>
       <r>   14.5954    0.0000 </r>
       <r>   21.5550    0.0000 </r>
       <r>   22.2641    0.0000 </r>
       <r>   22.2641    0.0000 </r>
       <r>   24.2119    0.0000 </r>
       <r>   24.8877    0.0000 </r>
       <r>   24.8877    0.0000 </r>
       <r>   42.4178    0.0000 </r>
       <r>   44.3321    0.0000 </r>
       <r>   44.3321    0.0000 </r>
       <r>   46.3166    0.0000 </r>
       <r>   46.3166    0.0000 </r>
      </set>
      <set comment="kpoint 20">
       <r>    1.1321    1.0000 </r>
       <r>    4.6543    1.0000 </r>
       <r>    7.0189    1.0000 </r>
       <r>    7.0260    1.0000 </r>
       <r>    7.0260    1.0000 </r>
       <r>    7.3159    1.0000 </r>
       <r>    7.3159    1.0000 </r>
       <r>    7.7618    1.0000 </r>
       <r>    7.7618    1.0000 </r>
       <r>    8.6935    1.0000 </r>
       <r>    8.6935    1.0000 </r>
       <r>    8.9809    1.0000 </r>
       <r>   16.5344    0.0000 </r>
       <r>   31.1383    0.0000 </r>
       <r>   33.2822    0.0000 </r>
       <r>   33.4175    0.0000 </r>
       <r>   33.4175    0.0000 </r>
       <r>   33.8587    0.0000 </r>
       <r>   34.7325    0.0000 </r>
       <r>   34.7325    0.0000 </r>
       <r>   38.9855    0.0000 </r>
       <r>   38.9855    0.0000 </r>
       <r>   40.4617    0.0000 </r>
       <r>   41.0675    0.0000 </r>
      </set>
      <set comment="kpoint 21">
       <r>    1.3643    1.0000 </r>
       <r>    4.7996    1.0000 </r>
       <r>    6.8483    1.0000 </r>
       <r>    7.1194    1.0000 </r>
       <r>    7.1348    1.0000 </r>
       <r>    7.2198    1.0000 </r>
       <r>    7.4042    1.0000 </r>
       <r>    7.6630    1.0000 </r>
       <r>    7.7151    1.0000 </r>
       <r>    7.9474    1.0000 </r>
       <r>    8.7173    1.0000 </r>
       <r>   10.0165    0.0000 </r>
       <r>   16.6299    0.0000 </r>
       <r>   29.2432    0.0000 </r>
       <r>   31.4020    0.0000 </r>
       <r>   31.4543    0.0000 </r>
       <r>   33.3131    0.0000 </r>
       <r>   34.2930    0.0000 </r>
       <r>   36.1125    0.0000 </r>
       <r>   36.8860    0.0000 </r>
       <r>   38.1341    0.0000 </r>
       <r>   38.3731    0.0000 </r>
       <r>   38.8548    0.0000 </r>
       <r>   40.6515    0.0000 </r>
      </set>
      <set comment="kpoint 22">
       <r>    2.0353    1.0000 </r>
       <r>    5.1626    1.0000 </r>
       <r>    6.6153    1.0000 </r>
       <r>    6.7517    1.0000 </r>
       <r>    7.1066    1.0000 </r>
       <r>    7.3163    1.0000 </r>
       <r>    7.4481    1.0000 </r>
       <r>    7.6050    1.0000 </r>
       <r>    7.7163    1.0000 </r>
       <r>    7.7959    1.0000 </r>
       <r>    8.7677    1.0000 </r>
       <r>   11.3109    0.0000 </r>
       <r>   16.9481    0.0000 </r>
       <r>   25.4723    0.0000 </r>
       <r>   29.1174    0.0000 </r>
       <r>   30.2983    0.0000 </r>
       <r>   31.9555    0.0000 </r>
       <r>   33.5634    0.0000 </r>
       <r>   35.6154    0.0000 </r>
       <r>   36.5174    0.0000 </r>
       <r>   37.3254    0.0000 </r>
       <r>   38.2691    0.0000 </r>
       <r>   39.6412    0.0000 </r>
       <r>   41.4365    0.0000 </r>
      </set>
      <set comment="kpoint 23">
       <r>    3.0441    1.0000 </r>
       <r>    5.4617    1.0000 </r>
       <r>    6.1501    1.0000 </r>
       <r>    6.4801    1.0000 </r>
       <r>    6.9871    1.0000 </r>
       <r>    7.2683    1.0000 </r>
       <r>    7.4805    1.0000 </r>
       <r>    7.9277    1.0000 </r>
       <r>    7.9766    1.0000 </r>
       <r>    8.0497    1.0000 </r>
       <r>    8.8156    1.0000 </r>
       <r>   12.6731    0.0000 </r>
       <r>   17.5463    0.0000 </r>
       <r>   21.8370    0.0000 </r>
       <r>   27.1407    0.0000 </r>
       <r>   27.7996    0.0000 </r>
       <r>   30.2316    0.0000 </r>
       <r>   33.0566    0.0000 </r>
       <r>   33.4516    0.0000 </r>
       <r>   35.0815    0.0000 </r>
       <r>   36.8670    0.0000 </r>
       <r>   39.0756    0.0000 </r>
       <r>   39.1998    0.0000 </r>
       <r>   43.7434    0.0000 </r>
      </set>
      <set comment="kpoint 24">
       <r>    4.1139    1.0000 </r>
       <r>    5.3966    1.0000 </r>
       <r>    5.7569    1.0000 </r>
       <r>    6.4680    1.0000 </r>
       <r>    7.1224    1.0000 </r>
       <r>    7.1335    1.0000 </r>
       <r>    7.5265    1.0000 </r>
       <r>    8.3665    1.0000 </r>
       <r>    8.4329    1.0000 </r>
       <r>    8.5174    1.0000 </r>
       <r>    8.8527    1.0000 </r>
       <r>   13.9860    0.0000 </r>
       <r>   17.8684    0.0000 </r>
       <r>   19.2898    0.0000 </r>
       <r>   24.8417    0.0000 </r>
       <r>   25.5797    0.0000 </r>
       <r>   28.3470    0.0000 </r>
       <r>   31.5626    0.0000 </r>
       <r>   32.3336    0.0000 </r>
       <r>   33.7940    0.0000 </r>
       <r>   37.7851    0.0000 </r>
       <r>   38.3574    0.0000 </r>
       <r>   40.0933    0.0000 </r>
       <r>   45.1745    0.0000 </r>
      </set>
      <set comment="kpoint 25">
       <r>    4.7355    1.0000 </r>
       <r>    5.1929    1.0000 </r>
       <r>    5.6336    1.0000 </r>
       <r>    6.4808    1.0000 </r>
       <r>    7.0137    1.0000 </r>
       <r>    7.3781    1.0000 </r>
       <r>    7.7446    1.0000 </r>
       <r>    8.6816    1.0000 </r>
       <r>    8.7478    1.0000 </r>
       <r>    8.8966    1.0000 </r>
       <r>    9.5475    0.8760 </r>
       <r>   14.0140    0.0000 </r>
       <r>   17.0057    0.0000 </r>
       <r>   19.7230    0.0000 </r>
       <r>   22.7015    0.0000 </r>
       <r>   24.5586    0.0000 </r>
       <r>   25.8276    0.0000 </r>
       <r>   30.9987    0.0000 </r>
       <r>   31.6747    0.0000 </r>
       <r>   32.8973    0.0000 </r>
       <r>   37.8845    0.0000 </r>
       <r>   38.9705    0.0000 </r>
       <r>   40.8016    0.0000 </r>
       <r>   44.9220    0.0000 </r>
      </set>
      <set comment="kpoint 26">
       <r>    4.8693    1.0000 </r>
       <r>    5.0916    1.0000 </r>
       <r>    5.6289    1.0000 </r>
       <r>    6.5014    1.0000 </r>
       <r>    6.9744    1.0000 </r>
       <r>    7.4542    1.0000 </r>
       <r>    7.9082    1.0000 </r>
       <r>    8.7653    1.0000 </r>
       <r>    8.8694    1.0000 </r>
       <r>    8.9478    1.0000 </r>
       <r>   10.6859    0.0000 </r>
       <r>   12.6042    0.0000 </r>
       <r>   18.3614    0.0000 </r>
       <r>   18.6939    0.0000 </r>
       <r>   23.1019    0.0000 </r>
       <r>   23.9240    0.0000 </r>
       <r>   24.2001    0.0000 </r>
       <r>   30.8674    0.0000 </r>
       <r>   31.4415    0.0000 </r>
       <r>   32.5758    0.0000 </r>
       <r>   37.7349    0.0000 </r>
       <r>   39.5812    0.0000 </r>
       <r>   41.1012    0.0000 </r>
       <r>   44.2168    0.0000 </r>
      </set>
      <set comment="kpoint 27">
       <r>    1.8168    1.0000 </r>
       <r>    5.0595    1.0000 </r>
       <r>    6.6652    1.0000 </r>
       <r>    6.9200    1.0000 </r>
       <r>    7.1728    1.0000 </r>
       <r>    7.2678    1.0000 </r>
       <r>    7.3963    1.0000 </r>
       <r>    7.5389    1.0000 </r>
       <r>    7.7203    1.0000 </r>
       <r>    7.8138    1.0000 </r>
       <r>    8.7475    1.0000 </r>
       <r>   10.9570    0.0000 </r>
       <r>   16.8385    0.0000 </r>
       <r>   27.2138    0.0000 </r>
       <r>   27.8396    0.0000 </r>
       <r>   32.5179    0.0000 </r>
       <r>   32.6592    0.0000 </r>
       <r>   33.6714    0.0000 </r>
       <r>   35.1882    0.0000 </r>
       <r>   35.5282    0.0000 </r>
       <r>   38.4631    0.0000 </r>
       <r>   38.8300    0.0000 </r>
       <r>   40.4405    0.0000 </r>
       <r>   40.6335    0.0000 </r>
      </set>
      <set comment="kpoint 28">
       <r>    2.6658    1.0000 </r>
       <r>    5.4371    1.0000 </r>
       <r>    6.3565    1.0000 </r>
       <r>    6.4348    1.0000 </r>
       <r>    7.0488    1.0000 </r>
       <r>    7.2331    1.0000 </r>
       <r>    7.4839    1.0000 </r>
       <r>    7.6935    1.0000 </r>
       <r>    7.9030    1.0000 </r>
       <r>    8.0225    1.0000 </r>
       <r>    8.7872    1.0000 </r>
       <r>   12.1989    0.0000 </r>
       <r>   17.3153    0.0000 </r>
       <r>   23.7024    0.0000 </r>
       <r>   25.8698    0.0000 </r>
       <r>   29.6601    0.0000 </r>
       <r>   31.7699    0.0000 </r>
       <r>   32.6334    0.0000 </r>
       <r>   34.7880    0.0000 </r>
       <r>   35.5069    0.0000 </r>
       <r>   36.4256    0.0000 </r>
       <r>   38.3335    0.0000 </r>
       <r>   40.9662    0.0000 </r>
       <r>   42.1017    0.0000 </r>
      </set>
      <set comment="kpoint 29">
       <r>    3.7450    1.0000 </r>
       <r>    5.5673    1.0000 </r>
       <r>    5.8874    1.0000 </r>
       <r>    6.3701    1.0000 </r>
       <r>    6.9620    1.0000 </r>
       <r>    7.2125    1.0000 </r>
       <r>    7.4284    1.0000 </r>
       <r>    7.9967    1.0000 </r>
       <r>    8.2879    1.0000 </r>
       <r>    8.4881    1.0000 </r>
       <r>    8.8486    1.0000 </r>
       <r>   13.5379    0.0000 </r>
       <r>   18.0495    0.0000 </r>
       <r>   20.3284    0.0000 </r>
       <r>   24.3906    0.0000 </r>
       <r>   26.5087    0.0000 </r>
       <r>   30.2164    0.0000 </r>
       <r>   30.7035    0.0000 </r>
       <r>   33.5955    0.0000 </r>
       <r>   34.7010    0.0000 </r>
       <r>   36.5128    0.0000 </r>
       <r>   39.1270    0.0000 </r>
       <r>   41.7622    0.0000 </r>
       <r>   43.0758    0.0000 </r>
      </set>
      <set comment="kpoint 30">
       <r>    4.6347    1.0000 </r>
       <r>    5.3842    1.0000 </r>
       <r>    5.6634    1.0000 </r>
       <r>    6.4025    1.0000 </r>
       <r>    6.9918    1.0000 </r>
       <r>    7.2986    1.0000 </r>
       <r>    7.4789    1.0000 </r>
       <r>    8.4236    1.0000 </r>
       <r>    8.6636    1.0000 </r>
       <r>    8.7651    1.0000 </r>
       <r>    9.3293    1.0000 </r>
       <r>   14.5849    0.0000 </r>
       <r>   17.2358    0.0000 </r>
       <r>   19.6078    0.0000 </r>
       <r>   23.1473    0.0000 </r>
       <r>   23.8697    0.0000 </r>
       <r>   27.4251    0.0000 </r>
       <r>   29.8368    0.0000 </r>
       <r>   32.9077    0.0000 </r>
       <r>   33.5806    0.0000 </r>
       <r>   37.2317    0.0000 </r>
       <r>   39.7961    0.0000 </r>
       <r>   42.1632    0.0000 </r>
       <r>   45.2833    0.0000 </r>
      </set>
      <set comment="kpoint 31">
       <r>    4.9357    1.0000 </r>
       <r>    5.2146    1.0000 </r>
       <r>    5.6632    1.0000 </r>
       <r>    6.4537    1.0000 </r>
       <r>    6.9200    1.0000 </r>
       <r>    7.4715    1.0000 </r>
       <r>    7.6564    1.0000 </r>
       <r>    8.7260    1.0000 </r>
       <r>    8.8234    1.0000 </r>
       <r>    8.8592    1.0000 </r>
       <r>   10.5656    0.0000 </r>
       <r>   13.3281    0.0000 </r>
       <r>   17.7740    0.0000 </r>
       <r>   19.5576    0.0000 </r>
       <r>   22.4409    0.0000 </r>
       <r>   23.0279    0.0000 </r>
       <r>   24.9272    0.0000 </r>
       <r>   29.3822    0.0000 </r>
       <r>   32.6196    0.0000 </r>
       <r>   32.9661    0.0000 </r>
       <r>   37.5132    0.0000 </r>
       <r>   40.8397    0.0000 </r>
       <r>   41.9874    0.0000 </r>
       <r>   44.6936    0.0000 </r>
      </set>
      <set comment="kpoint 32">
       <r>    3.6134    1.0000 </r>
       <r>    5.7422    1.0000 </r>
       <r>    5.9746    1.0000 </r>
       <r>    6.1623    1.0000 </r>
       <r>    6.9708    1.0000 </r>
       <r>    7.1293    1.0000 </r>
       <r>    7.4465    1.0000 </r>
       <r>    7.8116    1.0000 </r>
       <r>    8.2965    1.0000 </r>
       <r>    8.4865    1.0000 </r>
       <r>    8.8459    1.0000 </r>
       <r>   13.3811    0.0000 </r>
       <r>   18.0146    0.0000 </r>
       <r>   22.0406    0.0000 </r>
       <r>   22.4310    0.0000 </r>
       <r>   28.1629    0.0000 </r>
       <r>   28.7943    0.0000 </r>
       <r>   32.2705    0.0000 </r>
       <r>   32.7894    0.0000 </r>
       <r>   36.0304    0.0000 </r>
       <r>   36.9604    0.0000 </r>
       <r>   38.6673    0.0000 </r>
       <r>   42.6423    0.0000 </r>
       <r>   42.7113    0.0000 </r>
      </set>
      <set comment="kpoint 33">
       <r>    4.6218    1.0000 </r>
       <r>    5.6600    1.0000 </r>
       <r>    5.7440    1.0000 </r>
       <r>    6.1567    1.0000 </r>
       <r>    6.8785    1.0000 </r>
       <r>    7.2682    1.0000 </r>
       <r>    7.2951    1.0000 </r>
       <r>    8.0689    1.0000 </r>
       <r>    8.6827    1.0000 </r>
       <r>    8.6833    1.0000 </r>
       <r>    9.3963    1.0000 </r>
       <r>   14.7023    0.0000 </r>
       <r>   18.4888    0.0000 </r>
       <r>   19.5724    0.0000 </r>
       <r>   21.0988    0.0000 </r>
       <r>   25.3898    0.0000 </r>
       <r>   27.4961    0.0000 </r>
       <r>   29.3718    0.0000 </r>
       <r>   31.6706    0.0000 </r>
       <r>   36.4049    0.0000 </r>
       <r>   37.9808    0.0000 </r>
       <r>   40.7400    0.0000 </r>
       <r>   42.5257    0.0000 </r>
       <r>   44.6190    0.0000 </r>
      </set>
      <set comment="kpoint 34">
       <r>    5.1412    1.0000 </r>
       <r>    5.5310    1.0000 </r>
       <r>    5.6667    1.0000 </r>
       <r>    6.2799    1.0000 </r>
       <r>    6.8525    1.0000 </r>
       <r>    7.2368    1.0000 </r>
       <r>    7.4776    1.0000 </r>
       <r>    8.4222    1.0000 </r>
       <r>    8.6939    1.0000 </r>
       <r>    8.8692    1.0000 </r>
       <r>   10.5401    0.0000 </r>
       <r>   14.8296    0.0000 </r>
       <r>   17.4245    0.0000 </r>
       <r>   20.1198    0.0000 </r>
       <r>   20.4812    0.0000 </r>
       <r>   23.1787    0.0000 </r>
       <r>   26.4659    0.0000 </r>
       <r>   26.9324    0.0000 </r>
       <r>   30.9969    0.0000 </r>
       <r>   36.1190    0.0000 </r>
       <r>   39.1215    0.0000 </r>
       <r>   41.4796    0.0000 </r>
       <r>   44.8780    0.0000 </r>
       <r>   45.2006    0.0000 </r>
      </set>
      <set comment="kpoint 35">
       <r>    5.1813    1.0000 </r>
       <r>    5.4481    1.0000 </r>
       <r>    5.7540    1.0000 </r>
       <r>    6.3527    1.0000 </r>
       <r>    6.7931    1.0000 </r>
       <r>    7.3048    1.0000 </r>
       <r>    7.5608    1.0000 </r>
       <r>    8.6787    1.0000 </r>
       <r>    8.6790    1.0000 </r>
       <r>    8.8478    1.0000 </r>
       <r>   11.8321    0.0000 </r>
       <r>   13.2130    0.0000 </r>
       <r>   18.9069    0.0000 </r>
       <r>   19.2579    0.0000 </r>
       <r>   20.0427    0.0000 </r>
       <r>   23.5283    0.0000 </r>
       <r>   24.6052    0.0000 </r>
       <r>   26.6635    0.0000 </r>
       <r>   30.7594    0.0000 </r>
       <r>   35.9926    0.0000 </r>
       <r>   39.6699    0.0000 </r>
       <r>   41.5230    0.0000 </r>
       <r>   44.5266    0.0000 </r>
       <r>   45.5264    0.0000 </r>
      </set>
      <set comment="kpoint 36">
       <r>    5.3746    1.0000 </r>
       <r>    5.5213    1.0000 </r>
       <r>    5.9185    1.0000 </r>
       <r>    5.9654    1.0000 </r>
       <r>    6.8352    1.0000 </r>
       <r>    7.0910    1.0000 </r>
       <r>    7.4453    1.0000 </r>
       <r>    8.2375    1.0000 </r>
       <r>    8.6511    1.0000 </r>
       <r>    8.8763    1.0000 </r>
       <r>   10.5604    0.0000 </r>
       <r>   15.8873    0.0000 </r>
       <r>   17.6963    0.0000 </r>
       <r>   18.3633    0.0000 </r>
       <r>   20.7375    0.0000 </r>
       <r>   24.5389    0.0000 </r>
       <r>   24.7187    0.0000 </r>
       <r>   28.3861    0.0000 </r>
       <r>   28.9072    0.0000 </r>
       <r>   38.8927    0.0000 </r>
       <r>   40.2473    0.0000 </r>
       <r>   41.0955    0.0000 </r>
       <r>   43.9506    0.0000 </r>
       <r>   44.6821    0.0000 </r>
      </set>
      <set comment="kpoint 37">
       <r>    5.4375    1.0000 </r>
       <r>    5.7231    1.0000 </r>
       <r>    5.8128    1.0000 </r>
       <r>    6.1471    1.0000 </r>
       <r>    6.7890    1.0000 </r>
       <r>    6.9859    1.0000 </r>
       <r>    7.6070    1.0000 </r>
       <r>    8.4839    1.0000 </r>
       <r>    8.6219    1.0000 </r>
       <r>    8.8151    1.0000 </r>
       <r>   12.2328    0.0000 </r>
       <r>   14.6464    0.0000 </r>
       <r>   16.9561    0.0000 </r>
       <r>   19.1239    0.0000 </r>
       <r>   20.9468    0.0000 </r>
       <r>   23.1563    0.0000 </r>
       <r>   24.5567    0.0000 </r>
       <r>   26.0556    0.0000 </r>
       <r>   28.2740    0.0000 </r>
       <r>   39.6698    0.0000 </r>
       <r>   41.3567    0.0000 </r>
       <r>   42.7629    0.0000 </r>
       <r>   44.2903    0.0000 </r>
       <r>   45.6734    0.0000 </r>
      </set>
      <set comment="kpoint 38">
       <r>    5.5370    1.0000 </r>
       <r>    5.8389    1.0000 </r>
       <r>    5.8389    1.0000 </r>
       <r>    6.1205    1.0000 </r>
       <r>    6.8181    1.0000 </r>
       <r>    6.8181    1.0000 </r>
       <r>    7.6800    1.0000 </r>
       <r>    8.5913    1.0000 </r>
       <r>    8.6276    1.0000 </r>
       <r>    8.6276    1.0000 </r>
       <r>   14.0927    0.0000 </r>
       <r>   14.6457    0.0000 </r>
       <r>   14.6457    0.0000 </r>
       <r>   20.6431    0.0000 </r>
       <r>   21.3212    0.0000 </r>
       <r>   21.3212    0.0000 </r>
       <r>   25.3463    0.0000 </r>
       <r>   26.1175    0.0000 </r>
       <r>   26.1175    0.0000 </r>
       <r>   41.5178    0.0000 </r>
       <r>   43.2592    0.0000 </r>
       <r>   43.2592    0.0000 </r>
       <r>   44.7035    0.0000 </r>
       <r>   45.0025    0.0000 </r>
      </set>
      <set comment="kpoint 39">
       <r>    1.5805    1.0000 </r>
       <r>    4.4868    1.0000 </r>
       <r>    6.9202    1.0000 </r>
       <r>    6.9672    1.0000 </r>
       <r>    6.9672    1.0000 </r>
       <r>    7.2150    1.0000 </r>
       <r>    7.2150    1.0000 </r>
       <r>    7.8505    1.0000 </r>
       <r>    7.9680    1.0000 </r>
       <r>    7.9680    1.0000 </r>
       <r>    8.6564    1.0000 </r>
       <r>    8.6564    1.0000 </r>
       <r>   18.6518    0.0000 </r>
       <r>   30.1689    0.0000 </r>
       <r>   31.5005    0.0000 </r>
       <r>   33.1799    0.0000 </r>
       <r>   33.8285    0.0000 </r>
       <r>   33.8286    0.0000 </r>
       <r>   34.8788    0.0000 </r>
       <r>   34.8788    0.0000 </r>
       <r>   38.1745    0.0000 </r>
       <r>   38.1745    0.0000 </r>
       <r>   39.5017    0.0000 </r>
       <r>   39.5017    0.0000 </r>
      </set>
      <set comment="kpoint 40">
       <r>    1.8061    1.0000 </r>
       <r>    4.6537    1.0000 </r>
       <r>    6.8565    1.0000 </r>
       <r>    6.9441    1.0000 </r>
       <r>    6.9905    1.0000 </r>
       <r>    7.0516    1.0000 </r>
       <r>    7.3018    1.0000 </r>
       <r>    7.5513    1.0000 </r>
       <r>    7.9379    1.0000 </r>
       <r>    7.9788    1.0000 </r>
       <r>    8.6703    1.0000 </r>
       <r>    9.2250    1.0000 </r>
       <r>   18.7928    0.0000 </r>
       <r>   29.4909    0.0000 </r>
       <r>   30.4369    0.0000 </r>
       <r>   31.6323    0.0000 </r>
       <r>   31.8480    0.0000 </r>
       <r>   33.3322    0.0000 </r>
       <r>   35.2193    0.0000 </r>
       <r>   36.0810    0.0000 </r>
       <r>   37.7815    0.0000 </r>
       <r>   38.8533    0.0000 </r>
       <r>   39.0978    0.0000 </r>
       <r>   41.0895    0.0000 </r>
      </set>
      <set comment="kpoint 41">
       <r>    2.4513    1.0000 </r>
       <r>    5.0828    1.0000 </r>
       <r>    6.4480    1.0000 </r>
       <r>    6.6695    1.0000 </r>
       <r>    6.9120    1.0000 </r>
       <r>    7.2446    1.0000 </r>
       <r>    7.3609    1.0000 </r>
       <r>    7.5416    1.0000 </r>
       <r>    7.9146    1.0000 </r>
       <r>    8.0357    1.0000 </r>
       <r>    8.6990    1.0000 </r>
       <r>   10.1449    0.0000 </r>
       <r>   19.2272    0.0000 </r>
       <r>   25.8546    0.0000 </r>
       <r>   29.3548    0.0000 </r>
       <r>   29.6376    0.0000 </r>
       <r>   31.1111    0.0000 </r>
       <r>   31.6908    0.0000 </r>
       <r>   34.3614    0.0000 </r>
       <r>   34.6986    0.0000 </r>
       <r>   38.6192    0.0000 </r>
       <r>   39.8625    0.0000 </r>
       <r>   40.0711    0.0000 </r>
       <r>   42.3676    0.0000 </r>
      </set>
      <set comment="kpoint 42">
       <r>    3.3891    1.0000 </r>
       <r>    5.4591    1.0000 </r>
       <r>    5.9861    1.0000 </r>
       <r>    6.5425    1.0000 </r>
       <r>    6.8424    1.0000 </r>
       <r>    7.3292    1.0000 </r>
       <r>    7.4213    1.0000 </r>
       <r>    7.8948    1.0000 </r>
       <r>    8.0848    1.0000 </r>
       <r>    8.1742    1.0000 </r>
       <r>    8.7295    1.0000 </r>
       <r>   11.1513    0.0000 </r>
       <r>   19.9283    0.0000 </r>
       <r>   22.2595    0.0000 </r>
       <r>   26.3426    0.0000 </r>
       <r>   27.7240    0.0000 </r>
       <r>   30.6972    0.0000 </r>
       <r>   31.5052    0.0000 </r>
       <r>   33.1657    0.0000 </r>
       <r>   33.4739    0.0000 </r>
       <r>   36.2426    0.0000 </r>
       <r>   40.5939    0.0000 </r>
       <r>   41.0715    0.0000 </r>
       <r>   44.6655    0.0000 </r>
      </set>
      <set comment="kpoint 43">
       <r>    4.2783    1.0000 </r>
       <r>    5.3811    1.0000 </r>
       <r>    5.7955    1.0000 </r>
       <r>    6.3827    1.0000 </r>
       <r>    7.1303    1.0000 </r>
       <r>    7.2633    1.0000 </r>
       <r>    7.8616    1.0000 </r>
       <r>    8.2712    1.0000 </r>
       <r>    8.4198    1.0000 </r>
       <r>    8.4619    1.0000 </r>
       <r>    8.7769    1.0000 </r>
       <r>   12.2243    0.0000 </r>
       <r>   18.8316    0.0000 </r>
       <r>   20.8956    0.0000 </r>
       <r>   23.6021    0.0000 </r>
       <r>   26.2144    0.0000 </r>
       <r>   29.6099    0.0000 </r>
       <r>   31.4359    0.0000 </r>
       <r>   31.8932    0.0000 </r>
       <r>   32.2044    0.0000 </r>
       <r>   35.5281    0.0000 </r>
       <r>   40.5248    0.0000 </r>
       <r>   41.2989    0.0000 </r>
       <r>   44.4175    0.0000 </r>
      </set>
      <set comment="kpoint 44">
       <r>    4.6688    1.0000 </r>
       <r>    5.2034    1.0000 </r>
       <r>    5.8556    1.0000 </r>
       <r>    6.1780    1.0000 </r>
       <r>    7.1869    1.0000 </r>
       <r>    7.4439    1.0000 </r>
       <r>    8.4695    1.0000 </r>
       <r>    8.4855    1.0000 </r>
       <r>    8.7319    1.0000 </r>
       <r>    8.8743    1.0000 </r>
       <r>    9.3327    1.0000 </r>
       <r>   12.9258    0.0000 </r>
       <r>   16.7738    0.0000 </r>
       <r>   19.5799    0.0000 </r>
       <r>   23.6163    0.0000 </r>
       <r>   25.2294    0.0000 </r>
       <r>   27.6864    0.0000 </r>
       <r>   31.0418    0.0000 </r>
       <r>   31.1260    0.0000 </r>
       <r>   31.3230    0.0000 </r>
       <r>   36.6233    0.0000 </r>
       <r>   40.0684    0.0000 </r>
       <r>   40.5795    0.0000 </r>
       <r>   43.0794    0.0000 </r>
      </set>
      <set comment="kpoint 45">
       <r>    4.7225    1.0000 </r>
       <r>    5.1347    1.0000 </r>
       <r>    5.9840    1.0000 </r>
       <r>    6.0292    1.0000 </r>
       <r>    7.1570    1.0000 </r>
       <r>    7.5446    1.0000 </r>
       <r>    8.5335    1.0000 </r>
       <r>    8.6366    1.0000 </r>
       <r>    8.8622    1.0000 </r>
       <r>    8.9361    1.0000 </r>
       <r>   10.4682    0.0000 </r>
       <r>   12.3404    0.0000 </r>
       <r>   17.3828    0.0000 </r>
       <r>   17.5187    0.0000 </r>
       <r>   24.8844    0.0000 </r>
       <r>   25.1352    0.0000 </r>
       <r>   25.7968    0.0000 </r>
       <r>   30.7408    0.0000 </r>
       <r>   31.0287    0.0000 </r>
       <r>   31.0635    0.0000 </r>
       <r>   37.8873    0.0000 </r>
       <r>   39.1785    0.0000 </r>
       <r>   39.9108    0.0000 </r>
       <r>   42.9364    0.0000 </r>
      </set>
      <set comment="kpoint 46">
       <r>    2.2427    1.0000 </r>
       <r>    4.9581    1.0000 </r>
       <r>    6.5949    1.0000 </r>
       <r>    6.7093    1.0000 </r>
       <r>    6.9348    1.0000 </r>
       <r>    7.2074    1.0000 </r>
       <r>    7.3620    1.0000 </r>
       <r>    7.4639    1.0000 </r>
       <r>    7.9646    1.0000 </r>
       <r>    7.9765    1.0000 </r>
       <r>    8.6896    1.0000 </r>
       <r>    9.8910    0.0000 </r>
       <r>   19.0825    0.0000 </r>
       <r>   27.5453    0.0000 </r>
       <r>   28.2478    0.0000 </r>
       <r>   30.5533    0.0000 </r>
       <r>   31.3027    0.0000 </r>
       <r>   32.8877    0.0000 </r>
       <r>   34.0419    0.0000 </r>
       <r>   35.5456    0.0000 </r>
       <r>   38.8344    0.0000 </r>
       <r>   39.1901    0.0000 </r>
       <r>   40.5205    0.0000 </r>
       <r>   41.4254    0.0000 </r>
      </set>
      <set comment="kpoint 47">
       <r>    3.0468    1.0000 </r>
       <r>    5.4219    1.0000 </r>
       <r>    6.1179    1.0000 </r>
       <r>    6.4998    1.0000 </r>
       <r>    6.8817    1.0000 </r>
       <r>    7.2463    1.0000 </r>
       <r>    7.3572    1.0000 </r>
       <r>    7.7404    1.0000 </r>
       <r>    8.0648    1.0000 </r>
       <r>    8.1177    1.0000 </r>
       <r>    8.7242    1.0000 </r>
       <r>   10.8021    0.0000 </r>
       <r>   19.6773    0.0000 </r>
       <r>   24.1085    0.0000 </r>
       <r>   26.2857    0.0000 </r>
       <r>   28.2294    0.0000 </r>
       <r>   30.2406    0.0000 </r>
       <r>   32.2376    0.0000 </r>
       <r>   33.3647    0.0000 </r>
       <r>   36.3011    0.0000 </r>
       <r>   37.1656    0.0000 </r>
       <r>   38.2114    0.0000 </r>
       <r>   41.6659    0.0000 </r>
       <r>   42.4892    0.0000 </r>
      </set>
      <set comment="kpoint 48">
       <r>    4.0085    1.0000 </r>
       <r>    5.5717    1.0000 </r>
       <r>    5.8202    1.0000 </r>
       <r>    6.4436    1.0000 </r>
       <r>    6.8625    1.0000 </r>
       <r>    7.3197    1.0000 </r>
       <r>    7.4042    1.0000 </r>
       <r>    8.0410    1.0000 </r>
       <r>    8.3538    1.0000 </r>
       <r>    8.4191    1.0000 </r>
       <r>    8.8345    1.0000 </r>
       <r>   11.8530    0.0000 </r>
       <r>   20.1867    0.0000 </r>
       <r>   21.0048    0.0000 </r>
       <r>   24.6222    0.0000 </r>
       <r>   25.3255    0.0000 </r>
       <r>   29.2582    0.0000 </r>
       <r>   31.4736    0.0000 </r>
       <r>   33.0456    0.0000 </r>
       <r>   35.0928    0.0000 </r>
       <r>   35.6172    0.0000 </r>
       <r>   38.6547    0.0000 </r>
       <r>   43.2782    0.0000 </r>
       <r>   43.9447    0.0000 </r>
      </set>
      <set comment="kpoint 49">
       <r>    4.6634    1.0000 </r>
       <r>    5.3829    1.0000 </r>
       <r>    5.7855    1.0000 </r>
       <r>    6.3034    1.0000 </r>
       <r>    7.0309    1.0000 </r>
       <r>    7.3930    1.0000 </r>
       <r>    7.8364    1.0000 </r>
       <r>    8.3295    1.0000 </r>
       <r>    8.5654    1.0000 </r>
       <r>    8.7622    1.0000 </r>
       <r>    9.3372    1.0000 </r>
       <r>   12.9375    0.0000 </r>
       <r>   17.6597    0.0000 </r>
       <r>   20.7488    0.0000 </r>
       <r>   23.1094    0.0000 </r>
       <r>   24.0579    0.0000 </r>
       <r>   28.4395    0.0000 </r>
       <r>   29.2688    0.0000 </r>
       <r>   33.0246    0.0000 </r>
       <r>   34.0994    0.0000 </r>
       <r>   35.6058    0.0000 </r>
       <r>   38.7605    0.0000 </r>
       <r>   43.1085    0.0000 </r>
       <r>   44.3138    0.0000 </r>
      </set>
      <set comment="kpoint 50">
       <r>    4.8107    1.0000 </r>
       <r>    5.2592    1.0000 </r>
       <r>    5.9462    1.0000 </r>
       <r>    6.1241    1.0000 </r>
       <r>    6.9819    1.0000 </r>
       <r>    7.6081    1.0000 </r>
       <r>    8.1625    1.0000 </r>
       <r>    8.4785    1.0000 </r>
       <r>    8.7866    1.0000 </r>
       <r>    8.9183    1.0000 </r>
       <r>   10.5487    0.0000 </r>
       <r>   12.9172    0.0000 </r>
       <r>   16.8638    0.0000 </r>
       <r>   18.5922    0.0000 </r>
       <r>   23.2436    0.0000 </r>
       <r>   24.6315    0.0000 </r>
       <r>   26.9084    0.0000 </r>
       <r>   27.9926    0.0000 </r>
       <r>   32.7993    0.0000 </r>
       <r>   33.5302    0.0000 </r>
       <r>   36.8099    0.0000 </r>
       <r>   38.2740    0.0000 </r>
       <r>   41.5637    0.0000 </r>
       <r>   44.3491    0.0000 </r>
      </set>
      <set comment="kpoint 51">
       <r>    3.9126    1.0000 </r>
       <r>    5.7454    1.0000 </r>
       <r>    5.8881    1.0000 </r>
       <r>    6.2454    1.0000 </r>
       <r>    6.8966    1.0000 </r>
       <r>    7.1120    1.0000 </r>
       <r>    7.3465    1.0000 </r>
       <r>    7.9407    1.0000 </r>
       <r>    8.3397    1.0000 </r>
       <r>    8.4343    1.0000 </r>
       <r>    8.8783    1.0000 </r>
       <r>   11.7425    0.0000 </r>
       <r>   20.4267    0.0000 </r>
       <r>   22.4522    0.0000 </r>
       <r>   22.9114    0.0000 </r>
       <r>   26.7263    0.0000 </r>
       <r>   27.2382    0.0000 </r>
       <r>   32.4900    0.0000 </r>
       <r>   34.3120    0.0000 </r>
       <r>   35.3330    0.0000 </r>
       <r>   36.9705    0.0000 </r>
       <r>   38.5724    0.0000 </r>
       <r>   41.4523    0.0000 </r>
       <r>   42.0907    0.0000 </r>
      </set>
      <set comment="kpoint 52">
       <r>    4.7496    1.0000 </r>
       <r>    5.5637    1.0000 </r>
       <r>    5.8713    1.0000 </r>
       <r>    6.2981    1.0000 </r>
       <r>    6.8815    1.0000 </r>
       <r>    7.1728    1.0000 </r>
       <r>    7.3482    1.0000 </r>
       <r>    8.1351    1.0000 </r>
       <r>    8.4599    1.0000 </r>
       <r>    8.7908    1.0000 </r>
       <r>    9.5023    0.9925 </r>
       <r>   12.9399    0.0000 </r>
       <r>   19.2816    0.0000 </r>
       <r>   21.2734    0.0000 </r>
       <r>   21.6611    0.0000 </r>
       <r>   24.1325    0.0000 </r>
       <r>   25.9992    0.0000 </r>
       <r>   31.2040    0.0000 </r>
       <r>   33.3423    0.0000 </r>
       <r>   35.2271    0.0000 </r>
       <r>   37.0787    0.0000 </r>
       <r>   39.8044    0.0000 </r>
       <r>   42.0201    0.0000 </r>
       <r>   43.5211    0.0000 </r>
      </set>
      <set comment="kpoint 53">
       <r>    5.0638    1.0000 </r>
       <r>    5.5829    1.0000 </r>
       <r>    5.8091    1.0000 </r>
       <r>    6.2863    1.0000 </r>
       <r>    6.7923    1.0000 </r>
       <r>    7.3747    1.0000 </r>
[...]
       </set>
       <set comment="band 12">
        <r>  0.0088  0.0730  0.0034  0.2124  0.0992  0.0013  0.0136  0.0015  0.2320 </r>
        <r>  0.0003  0.0029  0.0862  0.0084  0.0039  0.0336  0.0005  0.0374  0.0092 </r>
       </set>
       <set comment="band 13">
        <r>  0.2100  0.0273  0.0090  0.0181  0.1052  0.0182  0.0099  0.0538  0.0370 </r>
        <r>  0.1101  0.0143  0.0172  0.0095  0.0551  0.0348  0.0052  0.1026  0.0194 </r>
       </set>
       <set comment="band 14">
        <r>  0.1101  0.0143  0.0172  0.0095  0.0551  0.0348  0.0052  0.1026  0.0194 </r>
        <r>  0.2100  0.0273  0.0090  0.0181  0.1052  0.0182  0.0099  0.0538  0.0370 </r>
       </set>
       <set comment="band 15">
        <r>  0.0397  0.0560  0.0158  0.0187  0.0187  0.0805  0.0091  0.0312  0.0062 </r>
        <r>  0.1164  0.1641  0.0054  0.0548  0.0548  0.0275  0.0266  0.0107  0.0183 </r>
       </set>
       <set comment="band 16">
        <r>  0.1164  0.1641  0.0054  0.0548  0.0548  0.0275  0.0266  0.0107  0.0183 </r>
        <r>  0.0397  0.0560  0.0158  0.0187  0.0187  0.0805  0.0091  0.0312  0.0062 </r>
       </set>
       <set comment="band 17">
        <r>  0.0007  0.0060  0.2165  0.0177  0.0018  0.0255  0.0014  0.0494  0.0026 </r>
        <r>  0.0029  0.0245  0.0532  0.0720  0.0073  0.0063  0.0056  0.0121  0.0106 </r>
       </set>
       <set comment="band 18">
        <r>  0.0029  0.0245  0.0532  0.0720  0.0073  0.0063  0.0056  0.0121  0.0106 </r>
        <r>  0.0007  0.0060  0.2165  0.0177  0.0018  0.0255  0.0014  0.0494  0.0026 </r>
       </set>
       <set comment="band 19">
        <r>  0.0038  0.0001  0.0330  0.0001  0.0091  0.0818  0.0193  0.2037  0.0030 </r>
        <r>  0.0471  0.0007  0.0026  0.0016  0.1132  0.0066  0.2405  0.0164  0.0378 </r>
       </set>
       <set comment="band 20">
        <r>  0.0471  0.0007  0.0026  0.0016  0.1132  0.0066  0.2405  0.0164  0.0378 </r>
        <r>  0.0038  0.0001  0.0330  0.0001  0.0091  0.0818  0.0193  0.2037  0.0030 </r>
       </set>
       <set comment="band 21">
        <r>  0.0090  0.0655  0.1057  0.0221  0.0061  0.0060  0.0186  0.0054  0.0022 </r>
        <r>  0.0135  0.0985  0.0703  0.0332  0.0091  0.0040  0.0280  0.0036  0.0034 </r>
       </set>
       <set comment="band 22">
        <r>  0.0135  0.0985  0.0703  0.0332  0.0091  0.0040  0.0280  0.0036  0.0034 </r>
        <r>  0.0090  0.0655  0.1057  0.0221  0.0061  0.0060  0.0186  0.0054  0.0022 </r>
       </set>
       <set comment="band 23">
        <r>  0.0143  0.0004  0.0006  0.0002  0.0106  0.2391  0.0046  0.0925  0.0035 </r>
        <r>  0.1825  0.0055  0.0000  0.0020  0.1351  0.0188  0.0582  0.0073  0.0451 </r>
       </set>
       <set comment="band 24">
        <r>  0.1825  0.0055  0.0000  0.0020  0.1351  0.0188  0.0582  0.0073  0.0451 </r>
        <r>  0.0143  0.0004  0.0006  0.0002  0.0106  0.2391  0.0046  0.0925  0.0035 </r>
       </set>
      </set>
      <set comment="kpoint 93">
       <set comment="band 1">
        <r>  0.0184  0.0015  0.0197  0.0104  0.0063  0.0004  0.0080  0.3806  0.0111 </r>
        <r>  0.0946  0.0075  0.0038  0.0534  0.0322  0.0001  0.0412  0.0742  0.0567 </r>
       </set>
       <set comment="band 2">
        <r>  0.0946  0.0075  0.0038  0.0534  0.0322  0.0001  0.0412  0.0742  0.0567 </r>
        <r>  0.0184  0.0015  0.0197  0.0104  0.0063  0.0004  0.0080  0.3806  0.0111 </r>
       </set>
       <set comment="band 3">
        <r>  0.0124  0.0315  0.0134  0.0074  0.3711  0.0294  0.0025  0.0000  0.0231 </r>
        <r>  0.0096  0.0242  0.0175  0.0057  0.2858  0.0381  0.0019  0.0001  0.0178 </r>
       </set>
       <set comment="band 4">
        <r>  0.0096  0.0242  0.0175  0.0057  0.2858  0.0381  0.0019  0.0001  0.0178 </r>
        <r>  0.0124  0.0315  0.0134  0.0074  0.3711  0.0294  0.0025  0.0000  0.0231 </r>
       </set>
       <set comment="band 5">
        <r>  0.0011  0.0001  0.0004  0.0851  0.0008  0.0107  0.3359  0.0012  0.1564 </r>
        <r>  0.0000  0.0000  0.0080  0.0037  0.0000  0.2457  0.0147  0.0275  0.0068 </r>
       </set>
       <set comment="band 6">
        <r>  0.0000  0.0000  0.0080  0.0037  0.0000  0.2457  0.0147  0.0275  0.0068 </r>
        <r>  0.0011  0.0001  0.0004  0.0851  0.0008  0.0107  0.3359  0.0012  0.1564 </r>
       </set>
       <set comment="band 7">
        <r>  0.0057  0.0000  0.0000  0.0007  0.0813  0.1744  0.0267  0.0321  0.1284 </r>
        <r>  0.0031  0.0000  0.0000  0.0004  0.0443  0.3203  0.0145  0.0590  0.0699 </r>
       </set>
       <set comment="band 8">
        <r>  0.0031  0.0000  0.0000  0.0004  0.0443  0.3203  0.0145  0.0590  0.0699 </r>
        <r>  0.0057  0.0000  0.0000  0.0007  0.0813  0.1744  0.0267  0.0321  0.1284 </r>
       </set>
       <set comment="band 9">
        <r>  0.0000  0.0000  0.0019  0.0011  0.0035  0.0569  0.1887  0.1329  0.0612 </r>
        <r>  0.0000  0.0000  0.0011  0.0018  0.0059  0.0338  0.3177  0.0789  0.1030 </r>
       </set>
       <set comment="band 10">
        <r>  0.0000  0.0000  0.0011  0.0018  0.0059  0.0338  0.3177  0.0789  0.1030 </r>
        <r>  0.0000  0.0000  0.0019  0.0011  0.0035  0.0569  0.1887  0.1329  0.0612 </r>
       </set>
       <set comment="band 11">
        <r>  0.0156  0.0006  0.0558  0.0340  0.0040  0.0053  0.0002  0.1193  0.0746 </r>
        <r>  0.0627  0.0026  0.0138  0.1372  0.0160  0.0013  0.0009  0.0296  0.3008 </r>
       </set>
       <set comment="band 12">
        <r>  0.0627  0.0026  0.0138  0.1372  0.0160  0.0013  0.0009  0.0296  0.3008 </r>
        <r>  0.0156  0.0006  0.0558  0.0340  0.0040  0.0053  0.0002  0.1193  0.0746 </r>
       </set>
       <set comment="band 13">
        <r>  0.0000  0.0022  0.0637  0.0000  0.0023  0.0369  0.0000  0.0664  0.0000 </r>
        <r>  0.0009  0.2994  0.0005  0.0065  0.3033  0.0003  0.0017  0.0005  0.0013 </r>
       </set>
       <set comment="band 14">
        <r>  0.0009  0.2994  0.0005  0.0065  0.3033  0.0003  0.0017  0.0005  0.0013 </r>
        <r>  0.0000  0.0022  0.0637  0.0000  0.0023  0.0369  0.0000  0.0664  0.0000 </r>
       </set>
       <set comment="band 15">
        <r>  0.3044  0.0005  0.0008  0.1353  0.0004  0.0210  0.0478  0.0140  0.0000 </r>
        <r>  0.0657  0.0001  0.0036  0.0292  0.0001  0.0971  0.0103  0.0646  0.0000 </r>
       </set>
       <set comment="band 16">
        <r>  0.0657  0.0001  0.0036  0.0292  0.0001  0.0971  0.0103  0.0646  0.0000 </r>
        <r>  0.3044  0.0005  0.0008  0.1353  0.0004  0.0210  0.0478  0.0140  0.0000 </r>
       </set>
       <set comment="band 17">
        <r>  0.0019  0.0000  0.2516  0.0030  0.0001  0.0241  0.0038  0.0857  0.0010 </r>
        <r>  0.0429  0.0002  0.0113  0.0675  0.0026  0.0011  0.0836  0.0038  0.0220 </r>
       </set>
       <set comment="band 18">
        <r>  0.0429  0.0002  0.0113  0.0675  0.0026  0.0011  0.0836  0.0038  0.0220 </r>
        <r>  0.0019  0.0000  0.2516  0.0030  0.0001  0.0241  0.0038  0.0857  0.0010 </r>
       </set>
       <set comment="band 19">
        <r>  0.0021  0.0199  0.0645  0.0039  0.0309  0.0821  0.0136  0.0720  0.0031 </r>
        <r>  0.0050  0.0474  0.0271  0.0094  0.0737  0.0344  0.0325  0.0302  0.0073 </r>
       </set>
       <set comment="band 20">
        <r>  0.0050  0.0474  0.0271  0.0094  0.0737  0.0344  0.0325  0.0302  0.0073 </r>
        <r>  0.0021  0.0199  0.0645  0.0039  0.0309  0.0821  0.0136  0.0720  0.0031 </r>
       </set>
       <set comment="band 21">
        <r>  0.0168  0.0041  0.0368  0.0268  0.0156  0.0043  0.1305  0.0889  0.0182 </r>
        <r>  0.0163  0.0040  0.0381  0.0259  0.0151  0.0045  0.1263  0.0918  0.0176 </r>
       </set>
       <set comment="band 22">
        <r>  0.0163  0.0040  0.0381  0.0259  0.0151  0.0045  0.1263  0.0918  0.0176 </r>
        <r>  0.0168  0.0041  0.0368  0.0268  0.0156  0.0043  0.1305  0.0889  0.0182 </r>
       </set>
       <set comment="band 23">
        <r>  0.0001  0.0150  0.0507  0.0001  0.0115  0.0257  0.0000  0.0132  0.0000 </r>
        <r>  0.0010  0.2488  0.0031  0.0011  0.1904  0.0015  0.0000  0.0008  0.0000 </r>
       </set>
       <set comment="band 24">
        <r>  0.0010  0.2488  0.0031  0.0011  0.1904  0.0015  0.0000  0.0008  0.0000 </r>
        <r>  0.0001  0.0150  0.0507  0.0001  0.0115  0.0257  0.0000  0.0132  0.0000 </r>
       </set>
      </set>
      <set comment="kpoint 94">
       <set comment="band 1">
        <r>  0.0530  0.0191  0.0006  0.0294  0.0918  0.0063  0.0616  0.0685  0.0540 </r>
        <r>  0.0097  0.0035  0.0031  0.0054  0.0169  0.0343  0.0113  0.3728  0.0099 </r>
       </set>
       <set comment="band 2">
        <r>  0.0097  0.0035  0.0031  0.0054  0.0169  0.0343  0.0113  0.3728  0.0099 </r>
        <r>  0.0530  0.0191  0.0006  0.0294  0.0918  0.0063  0.0616  0.0685  0.0540 </r>
       </set>
       <set comment="band 3">
        <r>  0.0036  0.0111  0.0057  0.0004  0.0789  0.1834  0.0403  0.0555  0.0040 </r>
        <r>  0.0115  0.0356  0.0018  0.0013  0.2517  0.0575  0.1287  0.0174  0.0128 </r>
       </set>
       <set comment="band 4">
        <r>  0.0115  0.0356  0.0018  0.0013  0.2517  0.0575  0.1287  0.0174  0.0128 </r>
        <r>  0.0036  0.0111  0.0057  0.0004  0.0789  0.1834  0.0403  0.0555  0.0040 </r>
       </set>
       <set comment="band 5">
        <r>  0.0021  0.0064  0.0259  0.0332  0.0552  0.1216  0.0185  0.0035  0.0853 </r>
        <r>  0.0047  0.0145  0.0115  0.0749  0.1248  0.0538  0.0419  0.0016  0.1927 </r>
       </set>
       <set comment="band 6">
        <r>  0.0047  0.0145  0.0115  0.0749  0.1248  0.0538  0.0419  0.0016  0.1927 </r>
        <r>  0.0021  0.0064  0.0259  0.0332  0.0552  0.1216  0.0185  0.0035  0.0853 </r>
       </set>
       <set comment="band 7">
        <r>  0.0021  0.0016  0.0004  0.0070  0.1158  0.0976  0.0152  0.0399  0.2096 </r>
        <r>  0.0009  0.0007  0.0009  0.0030  0.0501  0.2256  0.0066  0.0921  0.0907 </r>
       </set>
       <set comment="band 8">
        <r>  0.0009  0.0007  0.0009  0.0030  0.0501  0.2256  0.0066  0.0921  0.0907 </r>
        <r>  0.0021  0.0016  0.0004  0.0070  0.1158  0.0976  0.0152  0.0399  0.2096 </r>
       </set>
       <set comment="band 9">
        <r>  0.0002  0.0000  0.0009  0.0002  0.0012  0.0927  0.0761  0.1613  0.0060 </r>
        <r>  0.0011  0.0001  0.0001  0.0013  0.0090  0.0127  0.5575  0.0220  0.0438 </r>
       </set>
       <set comment="band 10">
        <r>  0.0011  0.0001  0.0001  0.0013  0.0090  0.0127  0.5575  0.0220  0.0438 </r>
        <r>  0.0002  0.0000  0.0009  0.0002  0.0012  0.0927  0.0761  0.1613  0.0060 </r>
       </set>
       <set comment="band 11">
        <r>  0.0031  0.0023  0.0923  0.0218  0.0036  0.0087  0.0001  0.0599  0.0272 </r>
        <r>  0.0323  0.0241  0.0089  0.2250  0.0369  0.0008  0.0015  0.0058  0.2810 </r>
       </set>
       <set comment="band 12">
        <r>  0.0323  0.0241  0.0089  0.2250  0.0369  0.0008  0.0015  0.0058  0.2810 </r>
        <r>  0.0031  0.0023  0.0923  0.0218  0.0036  0.0087  0.0001  0.0599  0.0272 </r>
       </set>
       <set comment="band 13">
        <r>  0.0019  0.0027  0.0367  0.0002  0.0031  0.0536  0.0001  0.1057  0.0002 </r>
        <r>  0.1401  0.2037  0.0005  0.0161  0.2280  0.0007  0.0076  0.0014  0.0143 </r>
       </set>
       <set comment="band 14">
        <r>  0.1401  0.2037  0.0005  0.0161  0.2280  0.0007  0.0076  0.0014  0.0143 </r>
        <r>  0.0019  0.0027  0.0367  0.0002  0.0031  0.0536  0.0001  0.1057  0.0002 </r>
       </set>
       <set comment="band 15">
        <r>  0.1052  0.0282  0.0095  0.0215  0.0140  0.0856  0.0123  0.0463  0.0020 </r>
        <r>  0.2329  0.0625  0.0043  0.0476  0.0311  0.0387  0.0273  0.0209  0.0045 </r>
       </set>
       <set comment="band 16">
        <r>  0.2329  0.0625  0.0043  0.0476  0.0311  0.0387  0.0273  0.0209  0.0045 </r>
        <r>  0.1052  0.0282  0.0095  0.0215  0.0140  0.0856  0.0123  0.0463  0.0020 </r>
       </set>
       <set comment="band 17">
        <r>  0.0009  0.0006  0.2465  0.0079  0.0004  0.0350  0.0020  0.0782  0.0026 </r>
        <r>  0.0108  0.0073  0.0217  0.0896  0.0041  0.0031  0.0229  0.0069  0.0299 </r>
       </set>
       <set comment="band 18">
        <r>  0.0108  0.0073  0.0217  0.0896  0.0041  0.0031  0.0229  0.0069  0.0299 </r>
        <r>  0.0009  0.0006  0.2465  0.0079  0.0004  0.0350  0.0020  0.0782  0.0026 </r>
       </set>
       <set comment="band 19">
        <r>  0.0181  0.0632  0.0143  0.0017  0.0784  0.0110  0.0532  0.0170  0.0070 </r>
        <r>  0.0021  0.0075  0.1212  0.0002  0.0093  0.0930  0.0063  0.1439  0.0008 </r>
       </set>
       <set comment="band 20">
        <r>  0.0021  0.0075  0.1212  0.0002  0.0093  0.0930  0.0063  0.1439  0.0008 </r>
        <r>  0.0181  0.0632  0.0143  0.0017  0.0784  0.0110  0.0532  0.0170  0.0070 </r>
       </set>
       <set comment="band 21">
        <r>  0.0008  0.0005  0.0427  0.0004  0.0000  0.0638  0.0046  0.0820  0.0001 </r>
        <r>  0.0522  0.0354  0.0006  0.0291  0.0018  0.0010  0.3047  0.0012  0.0061 </r>
       </set>
       <set comment="band 22">
        <r>  0.0522  0.0354  0.0006  0.0291  0.0018  0.0010  0.3047  0.0012  0.0061 </r>
        <r>  0.0008  0.0005  0.0427  0.0004  0.0000  0.0638  0.0046  0.0820  0.0001 </r>
       </set>
       <set comment="band 23">
        <r>  0.0067  0.0091  0.0294  0.0006  0.0147  0.1050  0.0002  0.0440  0.0024 </r>
        <r>  0.1013  0.1375  0.0019  0.0084  0.2215  0.0069  0.0032  0.0029  0.0364 </r>
       </set>
       <set comment="band 24">
        <r>  0.1013  0.1375  0.0019  0.0084  0.2215  0.0069  0.0032  0.0029  0.0364 </r>
        <r>  0.0067  0.0091  0.0294  0.0006  0.0147  0.1050  0.0002  0.0440  0.0024 </r>
       </set>
      </set>
      <set comment="kpoint 95">
       <set comment="band 1">
        <r>  0.0000  0.0297  0.0000  0.0297  0.0745  0.1037  0.0000  0.1037  0.0745 </r>
        <r>  0.0000  0.0295  0.0000  0.0295  0.0739  0.1045  0.0000  0.1045  0.0739 </r>
       </set>
       <set comment="band 2">
        <r>  0.0000  0.0295  0.0000  0.0295  0.0739  0.1045  0.0000  0.1045  0.0739 </r>
        <r>  0.0000  0.0297  0.0000  0.0297  0.0745  0.1037  0.0000  0.1037  0.0745 </r>
       </set>
       <set comment="band 3">
        <r>  0.0354  0.0000  0.0000  0.0000  0.0000  0.1362  0.1403  0.1362  0.0000 </r>
        <r>  0.0311  0.0000  0.0000  0.0000  0.0000  0.1550  0.1233  0.1550  0.0000 </r>
       </set>
       <set comment="band 4">
        <r>  0.0311  0.0000  0.0000  0.0000  0.0000  0.1550  0.1233  0.1550  0.0000 </r>
        <r>  0.0354  0.0000  0.0000  0.0000  0.0000  0.1362  0.1403  0.1362  0.0000 </r>
       </set>
       <set comment="band 5">
        <r>  0.0000  0.0089  0.0383  0.0089  0.0495  0.0000  0.0000  0.0000  0.0495 </r>
        <r>  0.0000  0.0552  0.0062  0.0552  0.3054  0.0000  0.0000  0.0000  0.3054 </r>
       </set>
       <set comment="band 6">
        <r>  0.0000  0.0552  0.0062  0.0552  0.3054  0.0000  0.0000  0.0000  0.3054 </r>
        <r>  0.0000  0.0089  0.0383  0.0089  0.0495  0.0000  0.0000  0.0000  0.0495 </r>
       </set>
       <set comment="band 7">
        <r>  0.0000  0.0020  0.0000  0.0020  0.1500  0.0920  0.0000  0.0920  0.1500 </r>
        <r>  0.0000  0.0014  0.0000  0.0014  0.1080  0.1278  0.0000  0.1278  0.1080 </r>
       </set>
       <set comment="band 8">
        <r>  0.0000  0.0014  0.0000  0.0014  0.1080  0.1278  0.0000  0.1278  0.1080 </r>
        <r>  0.0000  0.0020  0.0000  0.0020  0.1500  0.0920  0.0000  0.0920  0.1500 </r>
       </set>
       <set comment="band 9">
        <r>  0.0005  0.0000  0.0000  0.0000  0.0000  0.1243  0.0890  0.1243  0.0000 </r>
        <r>  0.0031  0.0000  0.0000  0.0000  0.0000  0.0182  0.6076  0.0182  0.0000 </r>
       </set>
       <set comment="band 10">
        <r>  0.0031  0.0000  0.0000  0.0000  0.0000  0.0182  0.6076  0.0182  0.0000 </r>
        <r>  0.0005  0.0000  0.0000  0.0000  0.0000  0.1243  0.0890  0.1243  0.0000 </r>
       </set>
       <set comment="band 11">
        <r>  0.0000  0.0232  0.1358  0.0232  0.0265  0.0000  0.0000  0.0000  0.0265 </r>
        <r>  0.0000  0.1330  0.0237  0.1330  0.1518  0.0000  0.0000  0.0000  0.1518 </r>
       </set>
       <set comment="band 12">
        <r>  0.0000  0.1330  0.0237  0.1330  0.1518  0.0000  0.0000  0.0000  0.1518 </r>
        <r>  0.0000  0.0232  0.1358  0.0232  0.0265  0.0000  0.0000  0.0000  0.0265 </r>
       </set>
       <set comment="band 13">
        <r>  0.0000  0.0780  0.0000  0.0780  0.0602  0.0483  0.0000  0.0483  0.0602 </r>
        <r>  0.0000  0.0942  0.0000  0.0942  0.0726  0.0400  0.0000  0.0400  0.0726 </r>
       </set>
       <set comment="band 14">
        <r>  0.0000  0.0942  0.0000  0.0942  0.0726  0.0400  0.0000  0.0400  0.0726 </r>
        <r>  0.0000  0.0780  0.0000  0.0780  0.0602  0.0483  0.0000  0.0483  0.0602 </r>
       </set>
       <set comment="band 15">
        <r>  0.5002  0.0000  0.0000  0.0000  0.0000  0.0092  0.0406  0.0092  0.0000 </r>
        <r>  0.0404  0.0000  0.0000  0.0000  0.0000  0.1139  0.0033  0.1139  0.0000 </r>
       </set>
       <set comment="band 16">
        <r>  0.0404  0.0000  0.0000  0.0000  0.0000  0.1139  0.0033  0.1139  0.0000 </r>
        <r>  0.5002  0.0000  0.0000  0.0000  0.0000  0.0092  0.0406  0.0092  0.0000 </r>
       </set>
       <set comment="band 17">
        <r>  0.0000  0.0153  0.3228  0.0153  0.0104  0.0000  0.0000  0.0000  0.0104 </r>
        <r>  0.0000  0.0407  0.1213  0.0407  0.0276  0.0000  0.0000  0.0000  0.0276 </r>
       </set>
       <set comment="band 18">
        <r>  0.0000  0.0407  0.1213  0.0407  0.0276  0.0000  0.0000  0.0000  0.0276 </r>
        <r>  0.0000  0.0153  0.3228  0.0153  0.0104  0.0000  0.0000  0.0000  0.0104 </r>
       </set>
       <set comment="band 19">
        <r>  0.0000  0.0316  0.0000  0.0316  0.0123  0.0806  0.0000  0.0806  0.0123 </r>
        <r>  0.0000  0.0242  0.0000  0.0242  0.0094  0.1053  0.0000  0.1053  0.0094 </r>
       </set>
       <set comment="band 20">
        <r>  0.0000  0.0242  0.0000  0.0242  0.0094  0.1053  0.0000  0.1053  0.0094 </r>
        <r>  0.0000  0.0316  0.0000  0.0316  0.0123  0.0806  0.0000  0.0806  0.0123 </r>
       </set>
       <set comment="band 21">
        <r>  0.0055  0.0000  0.0000  0.0000  0.0000  0.0953  0.0214  0.0953  0.0000 </r>
        <r>  0.0985  0.0000  0.0000  0.0000  0.0000  0.0053  0.3845  0.0053  0.0000 </r>
       </set>
       <set comment="band 22">
        <r>  0.0985  0.0000  0.0000  0.0000  0.0000  0.0053  0.3845  0.0053  0.0000 </r>
        <r>  0.0055  0.0000  0.0000  0.0000  0.0000  0.0953  0.0214  0.0953  0.0000 </r>
       </set>
       <set comment="band 23">
        <r>  0.0000  0.0387  0.0000  0.0388  0.0931  0.0342  0.0000  0.0342  0.0934 </r>
        <r>  0.0000  0.0418  0.0000  0.0419  0.1007  0.0317  0.0000  0.0317  0.1008 </r>
       </set>
       <set comment="band 24">
        <r>  0.0000  0.0419  0.0000  0.0418  0.1008  0.0317  0.0000  0.0317  0.1007 </r>
        <r>  0.0000  0.0388  0.0000  0.0387  0.0934  0.0342  0.0000  0.0342  0.0931 </r>
       </set>
      </set>
     </set>
    </set>
   </array>
  </projected>
 </calculation>
 <structure name="finalpos" >
  <crystal>
   <varray name="basis" >
    <v>       1.26656993      -2.19376346       0.00000000 </v>
    <v>       1.26656993       2.19376346       0.00000000 </v>
    <v>       0.00000000       0.00000000       4.08607438 </v>
   </varray>
   <i name="volume">     22.70676335 </i>
   <varray name="rec_basis" >
    <v>       0.39476699      -0.22791883       0.00000000 </v>
    <v>       0.39476699       0.22791883       0.00000000 </v>
    <v>       0.00000000       0.00000000       0.24473368 </v>
   </varray>
  </crystal>
  <varray name="positions" >
   <v>       0.33333333       0.66666667       0.25000000 </v>
   <v>       0.66666667       0.33333333       0.75000000 </v>
  </varray>
 </structure>
</modeling>
