Pt-fcc                                  
   1.00000000000000     
     0.000000    1.967793    1.967793
     1.967793    0.000000    1.967793
     1.967793    1.967793    0.000000
   Pt
     1
Direct
  0.000000  0.000000  0.000000
 
   40   40   40
 0.13336592805E+03 0.13325354507E+03 0.13260101524E+03 0.13057928070E+03 0.12615930101E+03
 0.11851906361E+03 0.10740368395E+03 0.93307440514E+02 0.77406538525E+02 0.61264554128E+02
 0.46420273987E+02 0.34008593577E+02 0.24539863213E+02 0.17887489797E+02 0.13449271548E+02
 0.10430255362E+02 0.83722885711E+01 0.70385496744E+01 0.62286788800E+01 0.57987995384E+01
 0.56646797067E+01 0.57987995384E+01 0.62286788800E+01 0.70385496744E+01 0.83722885711E+01
 0.10430255362E+02 0.13449271548E+02 0.17887489797E+02 0.24539863213E+02 0.34008593577E+02
 0.46420273987E+02 0.61264554128E+02 0.77406538525E+02 0.93307440514E+02 0.10740368395E+03
 0.11851906361E+03 0.12615930101E+03 0.13057928070E+03 0.13260101524E+03 0.13325354507E+03
 0.13325354507E+03 0.13286905662E+03 0.13151675295E+03 0.12825063067E+03 0.12213123950E+03
 0.11261851684E+03 0.99848304716E+02 0.84687947915E+02 0.68545904811E+02 0.53004772783E+02
 0.39414082798E+02 0.28586299082E+02 0.20685131967E+02 0.15310722461E+02 0.11716687622E+02
 0.92362313363E+01 0.75863371022E+01 0.65473050841E+01 0.59477941497E+01 0.56754208235E+01
 0.56754214511E+01 0.59477957211E+01 0.65473068022E+01 0.75863380684E+01 0.92362309763E+01
 0.11716685994E+02 0.15310720257E+02 0.20685130221E+02 0.28586298647E+02 0.39414083852E+02
 0.53004774524E+02 0.68545905578E+02 0.84687945643E+02 0.99848297710E+02 0.11261850449E+03
 0.12213122273E+03 0.12825061199E+03 0.13151673578E+03 0.13286904453E+03 0.13325354071E+03
 0.13260101524E+03 0.13151675295E+03 0.12888480713E+03 0.12381344695E+03 0.11562502042E+03
 0.10418123173E+03 0.90037800143E+02 0.74365661577E+02 0.58664158605E+02 0.44372515351E+02
 0.32521085798E+02 0.23536965259E+02 0.17246128298E+02 0.13035838393E+02 0.10145452567E+02
 0.81747911376E+01 0.68968132759E+01 0.61197850011E+01 0.57067665815E+01 0.55777940013E+01
 0.57067686830E+01 0.61197881522E+01 0.68968158625E+01 0.81747917510E+01 0.10145450697E+02
 0.13035834736E+02 0.17246124499E+02 0.23536963164E+02 0.32521086491E+02 0.44372518416E+02
 0.58664161894E+02 0.74365661739E+02 0.90037793695E+02 0.10418121644E+03 0.11562499639E+03
 0.12381341704E+03 0.12888477650E+03 0.13151672779E+03 0.13260100104E+03 0.13286904453E+03
 0.13057928070E+03 0.12825063067E+03 0.12381344695E+03 0.11660114378E+03 0.10632399130E+03
 0.93284562076E+02 0.78395924185E+02 0.62989202960E+02 0.48479496163E+02 0.36013326567E+02
 0.26220680307E+02 0.19142416602E+02 0.14328853641E+02 0.11054236238E+02 0.87790075678E+01
 0.72649092181E+01 0.63092032890E+01 0.57561116554E+01 0.55041983079E+01 0.55041996939E+01
 0.57561151282E+01 0.63092071061E+01 0.72649113922E+01 0.87790068152E+01 0.11054232642E+02
 0.14328848712E+02 0.19142412656E+02 0.26220679403E+02 0.36013329390E+02 0.48479501374E+02
 0.62989207309E+02 0.78395923474E+02 0.93284552636E+02 0.10632397153E+03 0.11660111509E+03
 0.12381341384E+03 0.12825059968E+03 0.13057925864E+03 0.13151672779E+03 0.13151673578E+03
 0.12615930101E+03 0.12213123950E+03 0.11562502042E+03 0.10632399130E+03 0.94370266142E+02
 0.80450694980E+02 0.65693195929E+02 0.51406103847E+02 0.38755643488E+02 0.28497629618E+02
 0.20849768211E+02 0.15527982549E+02 0.11907834838E+02 0.93663940153E+01 0.76340303197E+01
 0.65074049759E+01 0.58192177897E+01 0.54517101268E+01 0.53366131363E+01 0.54517127130E+01
 0.58192216977E+01 0.65074082528E+01 0.76340312255E+01 0.93663918655E+01 0.11907830405E+02
 0.15527977819E+02 0.20849765561E+02 0.28497630728E+02 0.38755648418E+02 0.51406110694E+02
 0.65693201262E+02 0.80450694952E+02 0.94370257943E+02 0.10632397435E+03 0.11562499692E+03
 0.12213121411E+03 0.12615927953E+03 0.12825059968E+03 0.12888477650E+03 0.12825061199E+03
 0.11851906361E+03 0.11261851684E+03 0.10418123173E+03 0.93284562076E+02 0.80450694980E+02
 0.66612083911E+02 0.52926240485E+02 0.40504319342E+02 0.30151876777E+02 0.22210660293E+02
 0.16543778863E+02 0.12648701574E+02 0.98996431201E+01 0.79825115482E+01 0.67030146651E+01
 0.58904131490E+01 0.54167498273E+01 0.51997671041E+01 0.51997682292E+01 0.54167526794E+01
 0.58904163750E+01 0.67030166957E+01 0.79825112971E+01 0.98996405318E+01 0.12648697721E+02
 0.16543775590E+02 0.22210659465E+02 0.30151879495E+02 0.40504325357E+02 0.52926248151E+02
 0.66612090654E+02 0.80450698174E+02 0.93284560049E+02 0.10418122441E+03 0.11261850594E+03
 0.11851905216E+03 0.12213121411E+03 0.12381341384E+03 0.12381341704E+03 0.12213122273E+03
 0.10740368395E+03 0.99848304716E+02 0.90037800143E+02 0.78395924185E+02 0.65693195929E+02
 0.52926240485E+02 0.41104788359E+02 0.31021936713E+02 0.23088723577E+02 0.17284356093E+02
 0.13225362204E+02 0.10340906050E+02 0.82866944938E+01 0.68828055159E+01 0.59629503820E+01
 0.53954913252E+01 0.50896267723E+01 0.49932909058E+01 0.50896280914E+01 0.53954934060E+01
 0.59629523322E+01 0.68828064799E+01 0.82866940116E+01 0.10340904288E+02 0.13225359938E+02
 0.17284354487E+02 0.23088723781E+02 0.31021939486E+02 0.41104793785E+02 0.52926247952E+02
 0.65693204337E+02 0.78395932252E+02 0.90037806847E+02 0.99848309524E+02 0.10740368688E+03
 0.11261850594E+03 0.11562499692E+03 0.11660111509E+03 0.11562499639E+03 0.11261850449E+03
 0.93307440514E+02 0.84687947915E+02 0.74365661577E+02 0.62989202960E+02 0.51406103847E+02
 0.40504319342E+02 0.31021936713E+02 0.23392173585E+02 0.17675334825E+02 0.13593243463E+02
 0.10656448602E+02 0.85237004741E+01 0.70330732897E+01 0.60295679511E+01 0.53841552350E+01
 0.50029165072E+01 0.48264854235E+01 0.48264856155E+01 0.50029170450E+01 0.53841560236E+01
 0.60295688114E+01 0.70330739943E+01 0.85237007769E+01 0.10656448352E+02 0.13593242686E+02
 0.17675333849E+02 0.23392173032E+02 0.31021937466E+02 0.40504322337E+02 0.51406109807E+02
 0.62989212173E+02 0.74365673628E+02 0.84687961676E+02 0.93307454294E+02 0.99848309524E+02
 0.10418122441E+03 0.10632397435E+03 0.10632397153E+03 0.10418121644E+03 0.99848297710E+02
 0.77406538525E+02 0.68545904811E+02 0.58664158605E+02 0.48479496163E+02 0.38755643488E+02
 0.30151876777E+02 0.23088723577E+02 0.17675334825E+02 0.13719831641E+02 0.10820985549E+02
 0.86744130154E+01 0.71413325565E+01 0.60832500658E+01 0.53792496672E+01 0.49372900743E+01
 0.46953683005E+01 0.46184743780E+01 0.46953677640E+01 0.49372893703E+01 0.53792493358E+01
 0.60832505048E+01 0.71413337637E+01 0.86744144917E+01 0.10820986482E+02 0.13719831246E+02
 0.17675332814E+02 0.23088720441E+02 0.30151873829E+02 0.38755642591E+02 0.48479499083E+02
 0.58664166433E+02 0.68545917370E+02 0.77406554198E+02 0.84687961676E+02 0.90037806847E+02
 0.93284560049E+02 0.94370257943E+02 0.93284552636E+02 0.90037793695E+02 0.84687945643E+02
 0.61264554128E+02 0.53004772783E+02 0.44372515351E+02 0.36013326567E+02 0.28497629618E+02
 0.22210660293E+02 0.17284356093E+02 0.13593243463E+02 0.10820985549E+02 0.87261339025E+01
 0.71980465373E+01 0.61181018597E+01 0.53778135806E+01 0.48912408596E+01 0.45977362820E+01
 0.44598079847E+01 0.44598073136E+01 0.45977346321E+01 0.48912391089E+01 0.53778127271E+01
 0.61181024728E+01 0.71980484461E+01 0.87261361194E+01 0.10820986660E+02 0.13593242168E+02
 0.17284351869E+02 0.22210653757E+02 0.28497622472E+02 0.36013321201E+02 0.44372513941E+02
 0.53004776569E+02 0.61264562848E+02 0.68545917370E+02 0.74365673628E+02 0.78395932252E+02
 0.80450698174E+02 0.80450694952E+02 0.78395923474E+02 0.74365661739E+02 0.68545905578E+02
 0.46420273987E+02 0.39414082798E+02 0.32521085798E+02 0.26220680307E+02 0.20849768211E+02
 0.16543778863E+02 0.13225362204E+02 0.10656448602E+02 0.86744130154E+01 0.71980465373E+01
 0.61301815162E+01 0.53776735415E+01 0.48638980780E+01 0.45327167831E+01 0.43474237427E+01
 0.42877916356E+01 0.43474221142E+01 0.45327142903E+01 0.48638959045E+01 0.53776727465E+01
 0.61301825054E+01 0.71980488067E+01 0.86744152410E+01 0.10656449111E+02 0.13225359626E+02
 0.16543772684E+02 0.20849759157E+02 0.26220670056E+02 0.32521076633E+02 0.39414076729E+02
 0.46420272088E+02 0.53004776569E+02 0.58664166433E+02 0.62989212173E+02 0.65693204337E+02
 0.66612090654E+02 0.65693201262E+02 0.62989207309E+02 0.58664161894E+02 0.53004774524E+02
 0.34008593577E+02 0.28586299082E+02 0.23536965259E+02 0.19142416602E+02 0.15527982549E+02
 0.12648701574E+02 0.10340906050E+02 0.85237004741E+01 0.71413325565E+01 0.61181018597E+01
 0.53776735415E+01 0.48548271675E+01 0.45001695418E+01 0.42801377612E+01 0.41747038444E+01
 0.41747029932E+01 0.42801355562E+01 0.45001669234E+01 0.48548252374E+01 0.53776731298E+01
 0.61181031000E+01 0.71413347955E+01 0.85237024167E+01 0.10340906191E+02 0.12648698749E+02
 0.15527976271E+02 0.19142407387E+02 0.23536954331E+02 0.28586288067E+02 0.34008584027E+02
 0.39414076729E+02 0.44372513941E+02 0.48479499083E+02 0.51406109807E+02 0.52926247952E+02
 0.52926248151E+02 0.51406110694E+02 0.48479501374E+02 0.44372518416E+02 0.39414083852E+02
 0.24539863213E+02 0.20685131967E+02 0.17246128298E+02 0.14328853641E+02 0.11907834838E+02
 0.98996431201E+01 0.82866944938E+01 0.70330732897E+01 0.60832500658E+01 0.53778135806E+01
 0.48638980780E+01 0.45001695418E+01 0.42577078446E+01 0.41184956756E+01 0.40730594779E+01
 0.41184944549E+01 0.42577058631E+01 0.45001675489E+01 0.48638968533E+01 0.53778136359E+01
 0.60832514595E+01 0.70330755306E+01 0.82866967132E+01 0.98996441985E+01 0.11907833864E+02
 0.14328849958E+02 0.17246121854E+02 0.20685123234E+02 0.24539853009E+02 0.28586288067E+02
 0.32521076633E+02 0.36013321201E+02 0.38755642591E+02 0.40504322337E+02 0.41104793785E+02
 0.40504325357E+02 0.38755648418E+02 0.36013329390E+02 0.32521086491E+02 0.28586298647E+02
 0.17887489797E+02 0.15310722461E+02 0.13035838393E+02 0.11054236238E+02 0.93663940153E+01
 0.79825115482E+01 0.68828055159E+01 0.60295679511E+01 0.53792496672E+01 0.48912408596E+01
 0.45327167831E+01 0.42801377612E+01 0.41184956756E+01 0.40394606387E+01 0.40394603577E+01
 0.41184949063E+01 0.42801367395E+01 0.45327158559E+01 0.48912404440E+01 0.53792501345E+01
 0.60295695541E+01 0.68828082201E+01 0.79825150511E+01 0.93663976171E+01 0.11054239063E+02
 0.13035839500E+02 0.15310720997E+02 0.17887485470E+02 0.20685123234E+02 0.23536954331E+02
 0.26220670056E+02 0.28497622472E+02 0.30151873829E+02 0.31021937466E+02 0.31021939486E+02
 0.30151879495E+02 0.28497630728E+02 0.26220679403E+02 0.23536963164E+02 0.20685130221E+02
 0.13449271548E+02 0.11716687622E+02 0.10145452567E+02 0.87790075678E+01 0.76340303197E+01
 0.67030146651E+01 0.59629503820E+01 0.53841552350E+01 0.49372900743E+01 0.45977362820E+01
 0.43474237427E+01 0.41747038444E+01 0.40730594779E+01 0.40394603577E+01 0.40730596959E+01
 0.41747041380E+01 0.43474239350E+01 0.45977363242E+01 0.49372901806E+01 0.53841558867E+01
 0.59629522225E+01 0.67030182049E+01 0.76340357225E+01 0.87790144119E+01 0.10145459813E+02
 0.11716693961E+02 0.13449275576E+02 0.15310720997E+02 0.17246121854E+02 0.19142407387E+02
 0.20849759157E+02 0.22210653757E+02 0.23088720441E+02 0.23392173032E+02 0.23088723781E+02
 0.22210659465E+02 0.20849765561E+02 0.19142412656E+02 0.17246124499E+02 0.15310720257E+02
 0.10430255362E+02 0.92362313363E+01 0.81747911376E+01 0.72649092181E+01 0.65074049759E+01
 0.58904131490E+01 0.53954913252E+01 0.50029165072E+01 0.46953683005E+01 0.44598079847E+01
 0.42877916356E+01 0.41747029932E+01 0.41184944549E+01 0.41184949063E+01 0.41747041380E+01
 0.42877929596E+01 0.44598089335E+01 0.46953686082E+01 0.50029164143E+01 0.53954915787E+01
 0.58904148050E+01 0.65074089642E+01 0.72649159632E+01 0.81748003049E+01 0.92362417434E+01
 0.10430265354E+02 0.11716693961E+02 0.13035839500E+02 0.14328849958E+02 0.15527976271E+02
 0.16543772684E+02 0.17284351869E+02 0.17675332814E+02 0.17675333849E+02 0.17284354487E+02
 0.16543775590E+02 0.15527977819E+02 0.14328848712E+02 0.13035834736E+02 0.11716685994E+02
 0.83722885711E+01 0.75863371022E+01 0.68968132759E+01 0.63092032890E+01 0.58192177897E+01
 0.54167498273E+01 0.50896267723E+01 0.48264854235E+01 0.46184743780E+01 0.44598073136E+01
 0.43474221142E+01 0.42801355562E+01 0.42577058631E+01 0.42801367395E+01 0.43474239350E+01
 0.44598089335E+01 0.46184750601E+01 0.48264848991E+01 0.50896254665E+01 0.54167487503E+01
 0.58192182658E+01 0.63092064400E+01 0.68968195913E+01 0.75863462414E+01 0.83722993655E+01
 0.92362417434E+01 0.10145459813E+02 0.11054239063E+02 0.11907833864E+02 0.12648698749E+02
 0.13225359626E+02 0.13593242168E+02 0.13719831246E+02 0.13593242686E+02 0.13225359938E+02
 0.12648697721E+02 0.11907830405E+02 0.11054232642E+02 0.10145450697E+02 0.92362309763E+01
 0.70385496744E+01 0.65473050841E+01 0.61197850011E+01 0.57561116554E+01 0.54517101268E+01
 0.51997671041E+01 0.49932909058E+01 0.48264856155E+01 0.46953677640E+01 0.45977346321E+01
 0.45327142903E+01 0.45001669234E+01 0.45001675489E+01 0.45327158559E+01 0.45977363242E+01
 0.46953686082E+01 0.48264848991E+01 0.49932885053E+01 0.51997636281E+01 0.54517067342E+01
 0.57561097164E+01 0.61197856458E+01 0.65473087744E+01 0.70385560989E+01 0.75863462414E+01
 0.81748003049E+01 0.87790144119E+01 0.93663976171E+01 0.98996441985E+01 0.10340906191E+02
 0.10656449111E+02 0.10820986660E+02 0.10820986482E+02 0.10656448352E+02 0.10340904288E+02
 0.98996405318E+01 0.93663918655E+01 0.87790068152E+01 0.81747917510E+01 0.75863380684E+01
 0.62286788800E+01 0.59477941497E+01 0.57067665815E+01 0.55041983079E+01 0.53366131363E+01
 0.51997682292E+01 0.50896280914E+01 0.50029170450E+01 0.49372893703E+01 0.48912391089E+01
 0.48638959045E+01 0.48548252374E+01 0.48638968533E+01 0.48912404440E+01 0.49372901806E+01
 0.50029164143E+01 0.50896254665E+01 0.51997636281E+01 0.53366072301E+01 0.55041922071E+01
 0.57067615217E+01 0.59477911550E+01 0.62286784438E+01 0.65473087744E+01 0.68968195913E+01
 0.72649159632E+01 0.76340357225E+01 0.79825150511E+01 0.82866967132E+01 0.85237024167E+01
 0.86744152410E+01 0.87261361194E+01 0.86744144917E+01 0.85237007769E+01 0.82866940116E+01
 0.79825112971E+01 0.76340312255E+01 0.72649113922E+01 0.68968158625E+01 0.65473068022E+01
 0.57987995384E+01 0.56754208235E+01 0.55777940013E+01 0.55041996939E+01 0.54517127130E+01
 0.54167526794E+01 0.53954934060E+01 0.53841560236E+01 0.53792493358E+01 0.53778127271E+01
 0.53776727465E+01 0.53776731298E+01 0.53778136359E+01 0.53792501345E+01 0.53841558867E+01
 0.53954915787E+01 0.54167487503E+01 0.54517067342E+01 0.55041922071E+01 0.55777859027E+01
 0.56754131056E+01 0.57987930960E+01 0.59477911550E+01 0.61197856458E+01 0.63092064400E+01
 0.65074089642E+01 0.67030182049E+01 0.68828082201E+01 0.70330755306E+01 0.71413347955E+01
 0.71980488067E+01 0.71980484461E+01 0.71413337637E+01 0.70330739943E+01 0.68828064799E+01
 0.67030166957E+01 0.65074082528E+01 0.63092071061E+01 0.61197881522E+01 0.59477957211E+01
 0.56646797067E+01 0.56754214511E+01 0.57067686830E+01 0.57561151282E+01 0.58192216977E+01
 0.58904163750E+01 0.59629523322E+01 0.60295688114E+01 0.60832505048E+01 0.61181024728E+01
 0.61301825054E+01 0.61181031000E+01 0.60832514595E+01 0.60295695541E+01 0.59629522225E+01
 0.58904148050E+01 0.58192182658E+01 0.57561097164E+01 0.57067615217E+01 0.56754131056E+01
 0.56646709474E+01 0.56754131056E+01 0.57067615217E+01 0.57561097164E+01 0.58192182658E+01
 0.58904148050E+01 0.59629522225E+01 0.60295695541E+01 0.60832514595E+01 0.61181031000E+01
 0.61301825054E+01 0.61181024728E+01 0.60832505048E+01 0.60295688114E+01 0.59629523322E+01
 0.58904163750E+01 0.58192216977E+01 0.57561151282E+01 0.57067686830E+01 0.56754214511E+01
 0.57987995384E+01 0.59477957211E+01 0.61197881522E+01 0.63092071061E+01 0.65074082528E+01
 0.67030166957E+01 0.68828064799E+01 0.70330739943E+01 0.71413337637E+01 0.71980484461E+01
 0.71980488067E+01 0.71413347955E+01 0.70330755306E+01 0.68828082201E+01 0.67030182049E+01
 0.65074089642E+01 0.63092064400E+01 0.61197856458E+01 0.59477911550E+01 0.57987930960E+01
 0.56754131056E+01 0.55777859027E+01 0.55041922071E+01 0.54517067342E+01 0.54167487503E+01
 0.53954915787E+01 0.53841558867E+01 0.53792501345E+01 0.53778136359E+01 0.53776731298E+01
 0.53776727465E+01 0.53778127271E+01 0.53792493358E+01 0.53841560236E+01 0.53954934060E+01
 0.54167526794E+01 0.54517127130E+01 0.55041996939E+01 0.55777940013E+01 0.56754208235E+01
 0.62286788800E+01 0.65473068022E+01 0.68968158625E+01 0.72649113922E+01 0.76340312255E+01
 0.79825112971E+01 0.82866940116E+01 0.85237007769E+01 0.86744144917E+01 0.87261361194E+01
 0.86744152410E+01 0.85237024167E+01 0.82866967132E+01 0.79825150511E+01 0.76340357225E+01
 0.72649159632E+01 0.68968195913E+01 0.65473087744E+01 0.62286784438E+01 0.59477911550E+01
 0.57067615217E+01 0.55041922071E+01 0.53366072301E+01 0.51997636281E+01 0.50896254665E+01
 0.50029164143E+01 0.49372901806E+01 0.48912404440E+01 0.48638968533E+01 0.48548252374E+01
 0.48638959045E+01 0.48912391089E+01 0.49372893703E+01 0.50029170450E+01 0.50896280914E+01
 0.51997682292E+01 0.53366131363E+01 0.55041983079E+01 0.57067665815E+01 0.59477941497E+01
 0.70385496744E+01 0.75863380684E+01 0.81747917510E+01 0.87790068152E+01 0.93663918655E+01
 0.98996405318E+01 0.10340904288E+02 0.10656448352E+02 0.10820986482E+02 0.10820986660E+02
 0.10656449111E+02 0.10340906191E+02 0.98996441985E+01 0.93663976171E+01 0.87790144119E+01
 0.81748003049E+01 0.75863462414E+01 0.70385560989E+01 0.65473087744E+01 0.61197856458E+01
 0.57561097164E+01 0.54517067342E+01 0.51997636281E+01 0.49932885053E+01 0.48264848991E+01
 0.46953686082E+01 0.45977363242E+01 0.45327158559E+01 0.45001675489E+01 0.45001669234E+01
 0.45327142903E+01 0.45977346321E+01 0.46953677640E+01 0.48264856155E+01 0.49932909058E+01
 0.51997671041E+01 0.54517101268E+01 0.57561116554E+01 0.61197850011E+01 0.65473050841E+01
 0.83722885711E+01 0.92362309763E+01 0.10145450697E+02 0.11054232642E+02 0.11907830405E+02
 0.12648697721E+02 0.13225359938E+02 0.13593242686E+02 0.13719831246E+02 0.13593242168E+02
 0.13225359626E+02 0.12648698749E+02 0.11907833864E+02 0.11054239063E+02 0.10145459813E+02
 0.92362417434E+01 0.83722993655E+01 0.75863462414E+01 0.68968195913E+01 0.63092064400E+01
 0.58192182658E+01 0.54167487503E+01 0.50896254665E+01 0.48264848991E+01 0.46184750601E+01
 0.44598089335E+01 0.43474239350E+01 0.42801367395E+01 0.42577058631E+01 0.42801355562E+01
 0.43474221142E+01 0.44598073136E+01 0.46184743780E+01 0.48264854235E+01 0.50896267723E+01
 0.54167498273E+01 0.58192177897E+01 0.63092032890E+01 0.68968132759E+01 0.75863371022E+01
 0.10430255362E+02 0.11716685994E+02 0.13035834736E+02 0.14328848712E+02 0.15527977819E+02
 0.16543775590E+02 0.17284354487E+02 0.17675333849E+02 0.17675332814E+02 0.17284351869E+02
 0.16543772684E+02 0.15527976271E+02 0.14328849958E+02 0.13035839500E+02 0.11716693961E+02
 0.10430265354E+02 0.92362417434E+01 0.81748003049E+01 0.72649159632E+01 0.65074089642E+01
 0.58904148050E+01 0.53954915787E+01 0.50029164143E+01 0.46953686082E+01 0.44598089335E+01
 0.42877929596E+01 0.41747041380E+01 0.41184949063E+01 0.41184944549E+01 0.41747029932E+01
 0.42877916356E+01 0.44598079847E+01 0.46953683005E+01 0.50029165072E+01 0.53954913252E+01
 0.58904131490E+01 0.65074049759E+01 0.72649092181E+01 0.81747911376E+01 0.92362313363E+01
 0.13449271548E+02 0.15310720257E+02 0.17246124499E+02 0.19142412656E+02 0.20849765561E+02
 0.22210659465E+02 0.23088723781E+02 0.23392173032E+02 0.23088720441E+02 0.22210653757E+02
 0.20849759157E+02 0.19142407387E+02 0.17246121854E+02 0.15310720997E+02 0.13449275576E+02
 0.11716693961E+02 0.10145459813E+02 0.87790144119E+01 0.76340357225E+01 0.67030182049E+01
 0.59629522225E+01 0.53841558867E+01 0.49372901806E+01 0.45977363242E+01 0.43474239350E+01
 0.41747041380E+01 0.40730596959E+01 0.40394603577E+01 0.40730594779E+01 0.41747038444E+01
 0.43474237427E+01 0.45977362820E+01 0.49372900743E+01 0.53841552350E+01 0.59629503820E+01
 0.67030146651E+01 0.76340303197E+01 0.87790075678E+01 0.10145452567E+02 0.11716687622E+02
 0.17887489797E+02 0.20685130221E+02 0.23536963164E+02 0.26220679403E+02 0.28497630728E+02
 0.30151879495E+02 0.31021939486E+02 0.31021937466E+02 0.30151873829E+02 0.28497622472E+02
 0.26220670056E+02 0.23536954331E+02 0.20685123234E+02 0.17887485470E+02 0.15310720997E+02
 0.13035839500E+02 0.11054239063E+02 0.93663976171E+01 0.79825150511E+01 0.68828082201E+01
 0.60295695541E+01 0.53792501345E+01 0.48912404440E+01 0.45327158559E+01 0.42801367395E+01
 0.41184949063E+01 0.40394603577E+01 0.40394606387E+01 0.41184956756E+01 0.42801377612E+01
 0.45327167831E+01 0.48912408596E+01 0.53792496672E+01 0.60295679511E+01 0.68828055159E+01
 0.79825115482E+01 0.93663940153E+01 0.11054236238E+02 0.13035838393E+02 0.15310722461E+02
 0.24539863213E+02 0.28586298647E+02 0.32521086491E+02 0.36013329390E+02 0.38755648418E+02
 0.40504325357E+02 0.41104793785E+02 0.40504322337E+02 0.38755642591E+02 0.36013321201E+02
 0.32521076633E+02 0.28586288067E+02 0.24539853009E+02 0.20685123234E+02 0.17246121854E+02
 0.14328849958E+02 0.11907833864E+02 0.98996441985E+01 0.82866967132E+01 0.70330755306E+01
 0.60832514595E+01 0.53778136359E+01 0.48638968533E+01 0.45001675489E+01 0.42577058631E+01
 0.41184944549E+01 0.40730594779E+01 0.41184956756E+01 0.42577078446E+01 0.45001695418E+01
 0.48638980780E+01 0.53778135806E+01 0.60832500658E+01 0.70330732897E+01 0.82866944938E+01
 0.98996431201E+01 0.11907834838E+02 0.14328853641E+02 0.17246128298E+02 0.20685131967E+02
 0.34008593577E+02 0.39414083852E+02 0.44372518416E+02 0.48479501374E+02 0.51406110694E+02
 0.52926248151E+02 0.52926247952E+02 0.51406109807E+02 0.48479499083E+02 0.44372513941E+02
 0.39414076729E+02 0.34008584027E+02 0.28586288067E+02 0.23536954331E+02 0.19142407387E+02
 0.15527976271E+02 0.12648698749E+02 0.10340906191E+02 0.85237024167E+01 0.71413347955E+01
 0.61181031000E+01 0.53776731298E+01 0.48548252374E+01 0.45001669234E+01 0.42801355562E+01
 0.41747029932E+01 0.41747038444E+01 0.42801377612E+01 0.45001695418E+01 0.48548271675E+01
 0.53776735415E+01 0.61181018597E+01 0.71413325565E+01 0.85237004741E+01 0.10340906050E+02
 0.12648701574E+02 0.15527982549E+02 0.19142416602E+02 0.23536965259E+02 0.28586299082E+02
 0.46420273987E+02 0.53004774524E+02 0.58664161894E+02 0.62989207309E+02 0.65693201262E+02
 0.66612090654E+02 0.65693204337E+02 0.62989212173E+02 0.58664166433E+02 0.53004776569E+02
 0.46420272088E+02 0.39414076729E+02 0.32521076633E+02 0.26220670056E+02 0.20849759157E+02
 0.16543772684E+02 0.13225359626E+02 0.10656449111E+02 0.86744152410E+01 0.71980488067E+01
 0.61301825054E+01 0.53776727465E+01 0.48638959045E+01 0.45327142903E+01 0.43474221142E+01
 0.42877916356E+01 0.43474237427E+01 0.45327167831E+01 0.48638980780E+01 0.53776735415E+01
 0.61301815162E+01 0.71980465373E+01 0.86744130154E+01 0.10656448602E+02 0.13225362204E+02
 0.16543778863E+02 0.20849768211E+02 0.26220680307E+02 0.32521085798E+02 0.39414082798E+02
 0.61264554128E+02 0.68545905578E+02 0.74365661739E+02 0.78395923474E+02 0.80450694952E+02
 0.80450698174E+02 0.78395932252E+02 0.74365673628E+02 0.68545917370E+02 0.61264562848E+02
 0.53004776569E+02 0.44372513941E+02 0.36013321201E+02 0.28497622472E+02 0.22210653757E+02
 0.17284351869E+02 0.13593242168E+02 0.10820986660E+02 0.87261361194E+01 0.71980484461E+01
 0.61181024728E+01 0.53778127271E+01 0.48912391089E+01 0.45977346321E+01 0.44598073136E+01
 0.44598079847E+01 0.45977362820E+01 0.48912408596E+01 0.53778135806E+01 0.61181018597E+01
 0.71980465373E+01 0.87261339025E+01 0.10820985549E+02 0.13593243463E+02 0.17284356093E+02
 0.22210660293E+02 0.28497629618E+02 0.36013326567E+02 0.44372515351E+02 0.53004772783E+02
 0.77406538525E+02 0.84687945643E+02 0.90037793695E+02 0.93284552636E+02 0.94370257943E+02
 0.93284560049E+02 0.90037806847E+02 0.84687961676E+02 0.77406554198E+02 0.68545917370E+02
 0.58664166433E+02 0.48479499083E+02 0.38755642591E+02 0.30151873829E+02 0.23088720441E+02
 0.17675332814E+02 0.13719831246E+02 0.10820986482E+02 0.86744144917E+01 0.71413337637E+01
 0.60832505048E+01 0.53792493358E+01 0.49372893703E+01 0.46953677640E+01 0.46184743780E+01
 0.46953683005E+01 0.49372900743E+01 0.53792496672E+01 0.60832500658E+01 0.71413325565E+01
 0.86744130154E+01 0.10820985549E+02 0.13719831641E+02 0.17675334825E+02 0.23088723577E+02
 0.30151876777E+02 0.38755643488E+02 0.48479496163E+02 0.58664158605E+02 0.68545904811E+02
 0.93307440514E+02 0.99848297710E+02 0.10418121644E+03 0.10632397153E+03 0.10632397435E+03
 0.10418122441E+03 0.99848309524E+02 0.93307454294E+02 0.84687961676E+02 0.74365673628E+02
 0.62989212173E+02 0.51406109807E+02 0.40504322337E+02 0.31021937466E+02 0.23392173032E+02
 0.17675333849E+02 0.13593242686E+02 0.10656448352E+02 0.85237007769E+01 0.70330739943E+01
 0.60295688114E+01 0.53841560236E+01 0.50029170450E+01 0.48264856155E+01 0.48264854235E+01
 0.50029165072E+01 0.53841552350E+01 0.60295679511E+01 0.70330732897E+01 0.85237004741E+01
 0.10656448602E+02 0.13593243463E+02 0.17675334825E+02 0.23392173585E+02 0.31021936713E+02
 0.40504319342E+02 0.51406103847E+02 0.62989202960E+02 0.74365661577E+02 0.84687947915E+02
 0.10740368395E+03 0.11261850449E+03 0.11562499639E+03 0.11660111509E+03 0.11562499692E+03
 0.11261850594E+03 0.10740368688E+03 0.99848309524E+02 0.90037806847E+02 0.78395932252E+02
 0.65693204337E+02 0.52926247952E+02 0.41104793785E+02 0.31021939486E+02 0.23088723781E+02
 0.17284354487E+02 0.13225359938E+02 0.10340904288E+02 0.82866940116E+01 0.68828064799E+01
 0.59629523322E+01 0.53954934060E+01 0.50896280914E+01 0.49932909058E+01 0.50896267723E+01
 0.53954913252E+01 0.59629503820E+01 0.68828055159E+01 0.82866944938E+01 0.10340906050E+02
 0.13225362204E+02 0.17284356093E+02 0.23088723577E+02 0.31021936713E+02 0.41104788359E+02
 0.52926240485E+02 0.65693195929E+02 0.78395924185E+02 0.90037800143E+02 0.99848304716E+02
 0.11851906361E+03 0.12213122273E+03 0.12381341704E+03 0.12381341384E+03 0.12213121411E+03
 0.11851905216E+03 0.11261850594E+03 0.10418122441E+03 0.93284560049E+02 0.80450698174E+02
 0.66612090654E+02 0.52926248151E+02 0.40504325357E+02 0.30151879495E+02 0.22210659465E+02
 0.16543775590E+02 0.12648697721E+02 0.98996405318E+01 0.79825112971E+01 0.67030166957E+01
 0.58904163750E+01 0.54167526794E+01 0.51997682292E+01 0.51997671041E+01 0.54167498273E+01
 0.58904131490E+01 0.67030146651E+01 0.79825115482E+01 0.98996431201E+01 0.12648701574E+02
 0.16543778863E+02 0.22210660293E+02 0.30151876777E+02 0.40504319342E+02 0.52926240485E+02
 0.66612083911E+02 0.80450694980E+02 0.93284562076E+02 0.10418123173E+03 0.11261851684E+03
 0.12615930101E+03 0.12825061199E+03 0.12888477650E+03 0.12825059968E+03 0.12615927953E+03
 0.12213121411E+03 0.11562499692E+03 0.10632397435E+03 0.94370257943E+02 0.80450694952E+02
 0.65693201262E+02 0.51406110694E+02 0.38755648418E+02 0.28497630728E+02 0.20849765561E+02
 0.15527977819E+02 0.11907830405E+02 0.93663918655E+01 0.76340312255E+01 0.65074082528E+01
 0.58192216977E+01 0.54517127130E+01 0.53366131363E+01 0.54517101268E+01 0.58192177897E+01
 0.65074049759E+01 0.76340303197E+01 0.93663940153E+01 0.11907834838E+02 0.15527982549E+02
 0.20849768211E+02 0.28497629618E+02 0.38755643488E+02 0.51406103847E+02 0.65693195929E+02
 0.80450694980E+02 0.94370266142E+02 0.10632399130E+03 0.11562502042E+03 0.12213123950E+03
 0.13057928070E+03 0.13151673578E+03 0.13151672779E+03 0.13057925864E+03 0.12825059968E+03
 0.12381341384E+03 0.11660111509E+03 0.10632397153E+03 0.93284552636E+02 0.78395923474E+02
 0.62989207309E+02 0.48479501374E+02 0.36013329390E+02 0.26220679403E+02 0.19142412656E+02
 0.14328848712E+02 0.11054232642E+02 0.87790068152E+01 0.72649113922E+01 0.63092071061E+01
 0.57561151282E+01 0.55041996939E+01 0.55041983079E+01 0.57561116554E+01 0.63092032890E+01
 0.72649092181E+01 0.87790075678E+01 0.11054236238E+02 0.14328853641E+02 0.19142416602E+02
 0.26220680307E+02 0.36013326567E+02 0.48479496163E+02 0.62989202960E+02 0.78395924185E+02
 0.93284562076E+02 0.10632399130E+03 0.11660114378E+03 0.12381344695E+03 0.12825063067E+03
 0.13260101524E+03 0.13286904453E+03 0.13260100104E+03 0.13151672779E+03 0.12888477650E+03
 0.12381341704E+03 0.11562499639E+03 0.10418121644E+03 0.90037793695E+02 0.74365661739E+02
 0.58664161894E+02 0.44372518416E+02 0.32521086491E+02 0.23536963164E+02 0.17246124499E+02
 0.13035834736E+02 0.10145450697E+02 0.81747917510E+01 0.68968158625E+01 0.61197881522E+01
 0.57067686830E+01 0.55777940013E+01 0.57067665815E+01 0.61197850011E+01 0.68968132759E+01
 0.81747911376E+01 0.10145452567E+02 0.13035838393E+02 0.17246128298E+02 0.23536965259E+02
 0.32521085798E+02 0.44372515351E+02 0.58664158605E+02 0.74365661577E+02 0.90037800143E+02
 0.10418123173E+03 0.11562502042E+03 0.12381344695E+03 0.12888480713E+03 0.13151675295E+03
 0.13325354507E+03 0.13325354071E+03 0.13286904453E+03 0.13151673578E+03 0.12825061199E+03
 0.12213122273E+03 0.11261850449E+03 0.99848297710E+02 0.84687945643E+02 0.68545905578E+02
 0.53004774524E+02 0.39414083852E+02 0.28586298647E+02 0.20685130221E+02 0.15310720257E+02
 0.11716685994E+02 0.92362309763E+01 0.75863380684E+01 0.65473068022E+01 0.59477957211E+01
 0.56754214511E+01 0.56754208235E+01 0.59477941497E+01 0.65473050841E+01 0.75863371022E+01
 0.92362313363E+01 0.11716687622E+02 0.15310722461E+02 0.20685131967E+02 0.28586299082E+02
 0.39414082798E+02 0.53004772783E+02 0.68545904811E+02 0.84687947915E+02 0.99848304716E+02
 0.11261851684E+03 0.12213123950E+03 0.12825063067E+03 0.13151675295E+03 0.13286905662E+03
 0.13325354507E+03 0.13286905662E+03 0.13151675295E+03 0.12825063067E+03 0.12213123950E+03
 0.11261851684E+03 0.99848304716E+02 0.84687947915E+02 0.68545904811E+02 0.53004772783E+02
 0.39414082798E+02 0.28586299082E+02 0.20685131967E+02 0.15310722461E+02 0.11716687622E+02
 0.92362313363E+01 0.75863371022E+01 0.65473050841E+01 0.59477941497E+01 0.56754208235E+01
 0.56754214511E+01 0.59477957211E+01 0.65473068022E+01 0.75863380684E+01 0.92362309763E+01
 0.11716685994E+02 0.15310720257E+02 0.20685130221E+02 0.28586298647E+02 0.39414083852E+02