 vasp.6.3.2 27Jun22 (build Aug 12 2022 00:53:59) complex                        
  
 executed on               tv2STD date 2024.11.30  17:14:22
 running   24 mpi-ranks, with    1 threads/rank
 distrk:  each k-point on   24 cores,    1 groups
 distr:  one band on NCORE=   1 cores,   24 groups


--------------------------------------------------------------------------------------------------------


 INCAR:
   SYSTEM = Pt-fcc
   NWRITE = 2    write-flag
   ISTART = 0    job   : 0-new, 1-cont, 2-samecut
   ICHARG = 2    charge: 0-wave, 1-file, 2-atom, >10-const
   INIWAV = 1    electr: 0-lowe 1-rand  2-diag
   ENCUT = 425.0     energy cutoff in eV
   PREC = accurate      normal | accurate
   ADDGRID = .FALSE.  (use fine grid)
   NELM = 100     number of ELM steps
   EDIFF = 1E-06    energy stopping-criterion for ELM
   LREAL = .FALSE.      real-space projection (.FALSE., .TRUE., On, Auto)
   ALGO = Normal     Normal, Fast, Very_Fast
   LWAVE = .TRUE.
   LCHARG = .TRUE.
   NSW = 100       max number of geometry steps
   IBRION = 2     ionic relax: 0-MD, 1-quasi-Newton, 2-CG, 3-Damped MD
   EDIFFG = -0.02  force (eV/A) stopping-criterion for geometry steps
   ISIF = 2     (1:force\=y stress\=trace only ions\=y shape\=n volume\=n)
   ISYM = 1     (1-use symmetry, 0-no symmetry)
   ISMEAR = 0     (-1-Fermi, 1-Methfessel/Paxton)
   SIGMA = 0.05   broadening in eV
   LORBIT = 11

 POTCAR:    PAW_PBE Pt_pv 12Dec2005               
 POTCAR:    PAW_PBE Pt_pv 12Dec2005               
   SHA256 =  e5abf7e8cd8db70d0153315afc5ad66b6e3eeee29cc2d5b91b16730957c1d208 Pt_pv/POTCAR          
   COPYR  = (c) Copyright 12Dec2005 Georg Kresse                                                    
   COPYR  = This file is part of the software VASP. Any use, copying, and all other rights are regul
   COPYR  = If you do not have a valid VASP license, you may not use, copy or distribute this file. 
   VRHFIN =Pt: 5ps1d9                                                                               
   LEXCH  = PE                                                                                      
   EATOM  =  2428.2504 eV,  178.4714 Ry                                                             
                                                                                                    
   TITEL  = PAW_PBE Pt_pv 12Dec2005                                                                 
   LULTRA =        F    use ultrasoft PP ?                                                          
   IUNSCR =        1    unscreen: 0-lin 1-nonlin 2-no                                               
   RPACOR =    2.000    partial core radius                                                         
   POMASS =  195.080; ZVAL   =   16.000    mass and valenz                                          
   RCORE  =    2.200    outmost cutoff radius                                                       
   RWIGS  =    2.200; RWIGS  =    1.164    wigner-seitz radius (au A)                               
   ENMAX  =  294.607; ENMIN  =  220.955 eV                                                          
   ICORE  =        3    local potential                                                             
   LCOR   =        T    correct aug charges                                                         
   LPAW   =        T    paw PP                                                                      
   EAUG   =  527.014                                                                                
   DEXC   =    0.000                                                                                
   RMAX   =    2.247    core radius for proj-oper                                                   
   RAUG   =    1.300    factor for augmentation sphere                                              
   RDEP   =    2.279    radius for radial grids                                                     
   RDEPT  =    1.878    core radius for aug-charge                                                  
                                                                                                    
   Atomic configuration                                                                             
   16 entries                                                                                       
     n  l   j            E        occ.                                                              
     1  0  0.50    -78401.1885   2.0000                                                             
     2  0  0.50    -13770.7750   2.0000                                                             
     2  1  1.50    -11931.0468   6.0000                                                             
     3  0  0.50     -3234.7234   2.0000                                                             
     3  1  1.50     -2699.2216   6.0000                                                             
     3  2  2.50     -2119.5714  10.0000                                                             
     4  0  0.50      -695.1528   2.0000                                                             
     4  1  1.50      -519.6034   6.0000                                                             
     4  2  2.50      -306.6786  10.0000                                                             
     4  3  3.50       -70.1041  14.0000                                                             
     5  0  0.50      -101.7747   2.0000                                                             
     5  1  1.50       -55.9873   6.0000                                                             
     6  1  1.50        -6.8029   0.0000                                                             
     5  2  2.50        -6.1423   9.0000                                                             
     6  0  0.50        -5.6573   1.0000                                                             
     5  3  2.50        -1.3606   0.0000                                                             
   Description                                                                                      
     l       E           TYP  RCUT    TYP  RCUT                                                     
     1    -55.9873477     23  2.000                                                                 
     1     27.2116520     23  2.000                                                                 
     2     -6.1423404     23  2.200                                                                 
     2     -4.6754623     23  2.200                                                                 
     0     -5.6573207     23  2.200                                                                 
     0     47.6203910     23  2.200                                                                 
     3      6.8029130     23  2.200                                                                 
  local pseudopotential read in
  partial core-charges read in
  partial kinetic energy density read in
  atomic valenz-charges read in
  non local Contribution for L=           1  read in
    real space projection operators read in
  non local Contribution for L=           1  read in
    real space projection operators read in
  non local Contribution for L=           2  read in
    real space projection operators read in
  non local Contribution for L=           2  read in
    real space projection operators read in
  non local Contribution for L=           0  read in
    real space projection operators read in
  non local Contribution for L=           0  read in
    real space projection operators read in
    PAW grid and wavefunctions read in
 
   number of l-projection  operators is LMAX  =           6
   number of lm-projection operators is LMMAX =          18
 
  PAW_PBE Pt_pv 12Dec2005               :
 energy of atom  1       EATOM=-2428.2504
 kinetic energy error for atom=    0.0554 (will be added to EATOM!!)
 
 
 POSCAR: Pt
  positions in cartesian coordinates
  No initial velocities read in
 exchange correlation table for  LEXCH =        8
   RHO(1)=    0.500       N(1)  =     2000
   RHO(2)=  100.500       N(2)  =     4000
 


--------------------------------------------------------------------------------------------------------


 ion  position               nearest neighbor table
   1  0.000  0.000  0.000-
 
  LATTYP: Found a face centered cubic cell.
 ALAT       =     3.9355867570
  
  Lattice vectors:
  
 A1 = (   0.0000000000,   1.9677933785,   1.9677933785)
 A2 = (   1.9677933785,   0.0000000000,   1.9677933785)
 A3 = (   1.9677933785,   1.9677933785,   0.0000000000)


Analysis of symmetry for initial positions (statically):
=====================================================================
 Subroutine PRICEL returns:
 Original cell was already a primitive cell.
 

 Routine SETGRP: Setting up the symmetry group for a 
 face centered cubic supercell.


 Subroutine GETGRP returns: Found 48 space group operations
 (whereof 48 operations were pure point group operations)
 out of a pool of 48 trial point group operations.


The static configuration has the point symmetry O_h .


Analysis of symmetry for dynamics (positions and initial velocities):
=====================================================================
 Subroutine PRICEL returns:
 Original cell was already a primitive cell.
 

 Routine SETGRP: Setting up the symmetry group for a 
 face centered cubic supercell.


 Subroutine GETGRP returns: Found 48 space group operations
 (whereof 48 operations were pure point group operations)
 out of a pool of 48 trial point group operations.


The dynamic configuration has the point symmetry O_h .


 Subroutine INISYM returns: Found 48 space group operations
 (whereof 48 operations are pure point group operations),
 and found     1 'primitive' translations


----------------------------------------------------------------------------------------

                                     Primitive cell                                     

  volume of cell :      15.2394

  direct lattice vectors                    reciprocal lattice vectors
     0.000000000  1.967793378  1.967793378    -0.254091718  0.254091718  0.254091718
     1.967793378  0.000000000  1.967793378     0.254091718 -0.254091718  0.254091718
     1.967793378  1.967793378  0.000000000     0.254091718  0.254091718 -0.254091718

  length of vectors
     2.782880084  2.782880084  2.782880084     0.440099765  0.440099765  0.440099765

  position of ions in fractional coordinates (direct lattice)
     0.000000000  0.000000000  0.000000000

  ion indices of the primitive-cell ions
   primitive index   ion index
                 1           1

----------------------------------------------------------------------------------------

 
 
 KPOINTS: Automatic mesh                          

Automatic generation of k-mesh.
 Grid dimensions read from file:
 generate k-points for:   10   10   10

 Generating k-lattice:

  Cartesian coordinates                     Fractional coordinates (reciprocal lattice)
    -0.025409172  0.025409172  0.025409172     0.100000000  0.000000000  0.000000000
     0.025409172 -0.025409172  0.025409172     0.000000000  0.100000000  0.000000000
     0.025409172  0.025409172 -0.025409172     0.000000000  0.000000000  0.100000000

  Length of vectors
     0.044009977  0.044009977  0.044009977

  Shift w.r.t. Gamma in fractional coordinates (k-lattice)
     0.500000000  0.500000000  0.500000000

 
 Subroutine IBZKPT returns following result:
 ===========================================
 
 Found    110 irreducible k-points:
 
 Following reciprocal coordinates:
            Coordinates               Weight
  0.050000  0.050000  0.050000      8.000000
  0.150000  0.050000  0.050000     24.000000
  0.250000  0.050000  0.050000     24.000000
  0.350000  0.050000  0.050000     24.000000
  0.450000  0.050000  0.050000     24.000000
 -0.450000  0.050000  0.050000     24.000000
 -0.350000  0.050000  0.050000     24.000000
 -0.250000  0.050000  0.050000     24.000000
 -0.150000  0.050000  0.050000     24.000000
 -0.050000  0.050000  0.050000     24.000000
  0.150000  0.150000  0.050000     24.000000
  0.250000  0.150000  0.050000     48.000000
  0.350000  0.150000  0.050000     48.000000
  0.450000  0.150000  0.050000     48.000000
 -0.450000  0.150000  0.050000     48.000000
 -0.350000  0.150000  0.050000     48.000000
 -0.250000  0.150000  0.050000     48.000000
 -0.150000  0.150000  0.050000     48.000000
 -0.050000  0.150000  0.050000     48.000000
  0.250000  0.250000  0.050000     24.000000
  0.350000  0.250000  0.050000     48.000000
  0.450000  0.250000  0.050000     48.000000
 -0.450000  0.250000  0.050000     48.000000
 -0.350000  0.250000  0.050000     48.000000
 -0.250000  0.250000  0.050000     48.000000
 -0.150000  0.250000  0.050000     48.000000
 -0.050000  0.250000  0.050000     48.000000
  0.350000  0.350000  0.050000     24.000000
  0.450000  0.350000  0.050000     48.000000
 -0.450000  0.350000  0.050000     48.000000
 -0.350000  0.350000  0.050000     48.000000
 -0.250000  0.350000  0.050000     48.000000
 -0.150000  0.350000  0.050000     48.000000
 -0.050000  0.350000  0.050000     48.000000
  0.450000  0.450000  0.050000     24.000000
 -0.450000  0.450000  0.050000     48.000000
 -0.350000  0.450000  0.050000     48.000000
 -0.250000  0.450000  0.050000     48.000000
 -0.150000  0.450000  0.050000     48.000000
 -0.050000  0.450000  0.050000     48.000000
 -0.450000 -0.450000  0.050000     24.000000
 -0.350000 -0.450000  0.050000     48.000000
 -0.250000 -0.450000  0.050000     48.000000
 -0.150000 -0.450000  0.050000     48.000000
 -0.350000 -0.350000  0.050000     24.000000
 -0.250000 -0.350000  0.050000     48.000000
 -0.150000 -0.350000  0.050000     48.000000
 -0.250000 -0.250000  0.050000     24.000000
 -0.150000 -0.250000  0.050000     48.000000
 -0.150000 -0.150000  0.050000     24.000000
  0.150000  0.150000  0.150000      8.000000
  0.250000  0.150000  0.150000     24.000000
  0.350000  0.150000  0.150000     24.000000
  0.450000  0.150000  0.150000     24.000000
 -0.450000  0.150000  0.150000     24.000000
 -0.350000  0.150000  0.150000     24.000000
 -0.250000  0.150000  0.150000     24.000000
 -0.150000  0.150000  0.150000     24.000000
  0.250000  0.250000  0.150000     24.000000
  0.350000  0.250000  0.150000     48.000000
  0.450000  0.250000  0.150000     48.000000
 -0.450000  0.250000  0.150000     48.000000
 -0.350000  0.250000  0.150000     48.000000
 -0.250000  0.250000  0.150000     48.000000
 -0.150000  0.250000  0.150000     48.000000
  0.350000  0.350000  0.150000     24.000000
  0.450000  0.350000  0.150000     48.000000
 -0.450000  0.350000  0.150000     48.000000
 -0.350000  0.350000  0.150000     48.000000
 -0.250000  0.350000  0.150000     48.000000
 -0.150000  0.350000  0.150000     48.000000
  0.450000  0.450000  0.150000     24.000000
 -0.450000  0.450000  0.150000     48.000000
 -0.350000  0.450000  0.150000     48.000000
 -0.250000  0.450000  0.150000     48.000000
 -0.150000  0.450000  0.150000     48.000000
 -0.450000 -0.450000  0.150000     24.000000
 -0.350000 -0.450000  0.150000     48.000000
 -0.250000 -0.450000  0.150000     48.000000
 -0.350000 -0.350000  0.150000     24.000000
 -0.250000 -0.350000  0.150000     48.000000
 -0.250000 -0.250000  0.150000     24.000000
  0.250000  0.250000  0.250000      8.000000
  0.350000  0.250000  0.250000     24.000000
  0.450000  0.250000  0.250000     24.000000
 -0.450000  0.250000  0.250000     24.000000
 -0.350000  0.250000  0.250000     24.000000
 -0.250000  0.250000  0.250000     24.000000
  0.350000  0.350000  0.250000     24.000000
  0.450000  0.350000  0.250000     48.000000
 -0.450000  0.350000  0.250000     48.000000
 -0.350000  0.350000  0.250000     48.000000
 -0.250000  0.350000  0.250000     48.000000
  0.450000  0.450000  0.250000     24.000000
 -0.450000  0.450000  0.250000     48.000000
 -0.350000  0.450000  0.250000     48.000000
 -0.250000  0.450000  0.250000     48.000000
 -0.450000 -0.450000  0.250000     24.000000
 -0.350000 -0.450000  0.250000     48.000000
 -0.350000 -0.350000  0.250000     24.000000
  0.350000  0.350000  0.350000      8.000000
  0.450000  0.350000  0.350000     24.000000
 -0.450000  0.350000  0.350000     24.000000
 -0.350000  0.350000  0.350000     24.000000
  0.450000  0.450000  0.350000     24.000000
 -0.450000  0.450000  0.350000     48.000000
 -0.350000  0.450000  0.350000     48.000000
 -0.450000 -0.450000  0.350000     24.000000
  0.450000  0.450000  0.450000      8.000000
 -0.450000  0.450000  0.450000     24.000000
 
 Following cartesian coordinates:
            Coordinates               Weight
  0.012705  0.012705  0.012705      8.000000
 -0.012705  0.038114  0.038114     24.000000
 -0.038114  0.063523  0.063523     24.000000
 -0.063523  0.088932  0.088932     24.000000
 -0.088932  0.114341  0.114341     24.000000
  0.139750 -0.114341 -0.114341     24.000000
  0.114341 -0.088932 -0.088932     24.000000
  0.088932 -0.063523 -0.063523     24.000000
  0.063523 -0.038114 -0.038114     24.000000
  0.038114 -0.012705 -0.012705     24.000000
  0.012705  0.012705  0.063523     24.000000
 -0.012705  0.038114  0.088932     48.000000
 -0.038114  0.063523  0.114341     48.000000
 -0.063523  0.088932  0.139750     48.000000
  0.165160 -0.139750 -0.088932     48.000000
  0.139750 -0.114341 -0.063523     48.000000
  0.114341 -0.088932 -0.038114     48.000000
  0.088932 -0.063523 -0.012705     48.000000
  0.063523 -0.038114  0.012705     48.000000
  0.012705  0.012705  0.114341     24.000000
 -0.012705  0.038114  0.139750     48.000000
 -0.038114  0.063523  0.165160     48.000000
  0.190569 -0.165160 -0.063523     48.000000
  0.165160 -0.139750 -0.038114     48.000000
  0.139750 -0.114341 -0.012705     48.000000
  0.114341 -0.088932  0.012705     48.000000
  0.088932 -0.063523  0.038114     48.000000
  0.012705  0.012705  0.165160     24.000000
 -0.012705  0.038114  0.190569     48.000000
  0.215978 -0.190569 -0.038114     48.000000
  0.190569 -0.165160 -0.012705     48.000000
  0.165160 -0.139750  0.012705     48.000000
  0.139750 -0.114341  0.038114     48.000000
  0.114341 -0.088932  0.063523     48.000000
  0.012705  0.012705  0.215978     24.000000
  0.241387 -0.215978 -0.012705     48.000000
  0.215978 -0.190569  0.012705     48.000000
  0.190569 -0.165160  0.038114     48.000000
  0.165160 -0.139750  0.063523     48.000000
  0.139750 -0.114341  0.088932     48.000000
  0.012705  0.012705 -0.241387     24.000000
 -0.012705  0.038114 -0.215978     48.000000
 -0.038114  0.063523 -0.190569     48.000000
 -0.063523  0.088932 -0.165160     48.000000
  0.012705  0.012705 -0.190569     24.000000
 -0.012705  0.038114 -0.165160     48.000000
 -0.038114  0.063523 -0.139750     48.000000
  0.012705  0.012705 -0.139750     24.000000
 -0.012705  0.038114 -0.114341     48.000000
  0.012705  0.012705 -0.088932     24.000000
  0.038114  0.038114  0.038114      8.000000
  0.012705  0.063523  0.063523     24.000000
 -0.012705  0.088932  0.088932     24.000000
 -0.038114  0.114341  0.114341     24.000000
  0.190569 -0.114341 -0.114341     24.000000
  0.165160 -0.088932 -0.088932     24.000000
  0.139750 -0.063523 -0.063523     24.000000
  0.114341 -0.038114 -0.038114     24.000000
  0.038114  0.038114  0.088932     24.000000
  0.012705  0.063523  0.114341     48.000000
 -0.012705  0.088932  0.139750     48.000000
  0.215978 -0.139750 -0.088932     48.000000
  0.190569 -0.114341 -0.063523     48.000000
  0.165160 -0.088932 -0.038114     48.000000
  0.139750 -0.063523 -0.012705     48.000000
  0.038114  0.038114  0.139750     24.000000
  0.012705  0.063523  0.165160     48.000000
  0.241387 -0.165160 -0.063523     48.000000
  0.215978 -0.139750 -0.038114     48.000000
  0.190569 -0.114341 -0.012705     48.000000
  0.165160 -0.088932  0.012705     48.000000
  0.038114  0.038114  0.190569     24.000000
  0.266796 -0.190569 -0.038114     48.000000
  0.241387 -0.165160 -0.012705     48.000000
  0.215978 -0.139750  0.012705     48.000000
  0.190569 -0.114341  0.038114     48.000000
  0.038114  0.038114 -0.266796     24.000000
  0.012705  0.063523 -0.241387     48.000000
 -0.012705  0.088932 -0.215978     48.000000
  0.038114  0.038114 -0.215978     24.000000
  0.012705  0.063523 -0.190569     48.000000
  0.038114  0.038114 -0.165160     24.000000
  0.063523  0.063523  0.063523      8.000000
  0.038114  0.088932  0.088932     24.000000
  0.012705  0.114341  0.114341     24.000000
  0.241387 -0.114341 -0.114341     24.000000
  0.215978 -0.088932 -0.088932     24.000000
  0.190569 -0.063523 -0.063523     24.000000
  0.063523  0.063523  0.114341     24.000000
  0.038114  0.088932  0.139750     48.000000
  0.266796 -0.139750 -0.088932     48.000000
  0.241387 -0.114341 -0.063523     48.000000
  0.215978 -0.088932 -0.038114     48.000000
  0.063523  0.063523  0.165160     24.000000
  0.292205 -0.165160 -0.063523     48.000000
  0.266796 -0.139750 -0.038114     48.000000
  0.241387 -0.114341 -0.012705     48.000000
  0.063523  0.063523 -0.292205     24.000000
  0.038114  0.088932 -0.266796     48.000000
  0.063523  0.063523 -0.241387     24.000000
  0.088932  0.088932  0.088932      8.000000
  0.063523  0.114341  0.114341     24.000000
  0.292205 -0.114341 -0.114341     24.000000
  0.266796 -0.088932 -0.088932     24.000000
  0.088932  0.088932  0.139750     24.000000
  0.317615 -0.139750 -0.088932     48.000000
  0.292205 -0.114341 -0.063523     48.000000
  0.088932  0.088932 -0.317615     24.000000
  0.114341  0.114341  0.114341      8.000000
  0.343024 -0.114341 -0.114341     24.000000
 


--------------------------------------------------------------------------------------------------------




 Dimension of arrays:
   k-points           NKPTS =    110   k-points in BZ     NKDIM =    110   number of bands    NBANDS=     24
   number of dos      NEDOS =    301   number of ions     NIONS =      1
   non local maximal  LDIM  =      6   non local SUM 2l+1 LMDIM =     18
   total plane-waves  NPLWV =   8000
   max r-space proj   IRMAX =      1   max aug-charges    IRDMAX=  18071
   dimension x,y,z NGX =    20 NGY =   20 NGZ =   20
   dimension x,y,z NGXF=    40 NGYF=   40 NGZF=   40
   support grid    NGXF=    40 NGYF=   40 NGZF=   40
   ions per type =               1
   NGX,Y,Z   is equivalent  to a cutoff of  11.95, 11.95, 11.95 a.u.
   NGXF,Y,Z  is equivalent  to a cutoff of  23.90, 23.90, 23.90 a.u.

 SYSTEM =  Pt-fcc                                  
 POSCAR =  Pt                                      

 Startparameter for this run:
   NWRITE =      2    write-flag & timer
   PREC   = accura    normal or accurate (medium, high low for compatibility)
   ISTART =      0    job   : 0-new  1-cont  2-samecut
   ICHARG =      2    charge: 1-file 2-atom 10-const
   ISPIN  =      1    spin polarized calculation?
   LNONCOLLINEAR =      F non collinear calculations
   LSORBIT =      F    spin-orbit coupling
   INIWAV =      1    electr: 0-lowe 1-rand  2-diag
   LASPH  =      F    aspherical Exc in radial PAW
 Electronic Relaxation 1
   ENCUT  =  425.0 eV  31.24 Ry    5.59 a.u.   4.68  4.68  4.68*2*pi/ulx,y,z
   ENINI  =  425.0     initial cutoff
   ENAUG  =  527.0 eV  augmentation charge cutoff
   NELM   =    100;   NELMIN=  2; NELMDL= -5     # of ELM steps 
   EDIFF  = 0.1E-05   stopping-criterion for ELM
   LREAL  =      F    real-space projection
   NLSPLINE    = F    spline interpolate recip. space projectors
   LCOMPAT=      F    compatible to vasp.4.4
   GGA_COMPAT  = T    GGA compatible to vasp.4.4-vasp.4.6
   LMAXPAW     = -100 max onsite density
   LMAXMIX     =    2 max onsite mixed and CHGCAR
   VOSKOWN=      0    Vosko Wilk Nusair interpolation
   ROPT   =    0.00000
 Ionic relaxation
   EDIFFG = -.2E-01   stopping-criterion for IOM
   NSW    =    100    number of steps for IOM
   NBLOCK =      1;   KBLOCK =    100    inner block; outer block 
   IBRION =      2    ionic relax: 0-MD 1-quasi-New 2-CG
   NFREE  =      1    steps in history (QN), initial steepest desc. (CG)
   ISIF   =      2    stress and relaxation
   IWAVPR =     11    prediction:  0-non 1-charg 2-wave 3-comb
   ISYM   =      1    0-nonsym 1-usesym 2-fastsym
   LCORR  =      T    Harris-Foulkes like correction to forces

   POTIM  = 0.5000    time-step for ionic-motion
   TEIN   =    0.0    initial temperature
   TEBEG  =    0.0;   TEEND  =   0.0 temperature during run
   SMASS  =  -3.00    Nose mass-parameter (am)
   estimated Nose-frequenzy (Omega)   =  0.10E-29 period in steps = 0.13E+47 mass=  -0.177E-27a.u.
   SCALEE = 1.0000    scale energy and forces
   NPACO  =    256;   APACO  = 10.0  distance and # of slots for P.C.
   PSTRESS=    0.0 pullay stress

  Mass of Ions in am
   POMASS = 195.08
  Ionic Valenz
   ZVAL   =  16.00
  Atomic Wigner-Seitz radii
   RWIGS  =  -1.00
  virtual crystal weights 
   VCA    =   1.00
   NELECT =      16.0000    total number of electrons
   NUPDOWN=      -1.0000    fix difference up-down

 DOS related values:
   EMIN   =  10.00;   EMAX   =-10.00  energy-range for DOS
   EFERMI =   0.00
   ISMEAR =     0;   SIGMA  =   0.05  broadening in eV -4-tet -1-fermi 0-gaus

 Electronic relaxation 2 (details)
   IALGO  =     38    algorithm
   LDIAG  =      T    sub-space diagonalisation (order eigenvalues)
   LSUBROT=      F    optimize rotation matrix (better conditioning)
   TURBO    =      0    0=normal 1=particle mesh
   IRESTART =      0    0=no restart 2=restart with 2 vectors
   NREBOOT  =      0    no. of reboots
   NMIN     =      0    reboot dimension
   EREF     =   0.00    reference energy to select bands
   IMIX   =      4    mixing-type and parameters
     AMIX     =   0.40;   BMIX     =  1.00
     AMIX_MAG =   1.60;   BMIX_MAG =  1.00
     AMIN     =   0.10
     WC   =   100.;   INIMIX=   1;  MIXPRE=   1;  MAXMIX= -45

 Intra band minimization:
   WEIMIN = 0.0010     energy-eigenvalue tresh-hold
   EBREAK =  0.10E-07  absolut break condition
   DEPER  =   0.30     relativ break condition  

   TIME   =   0.40     timestep for ELM

  volume/ion in A,a.u.               =      15.24       102.84
  Fermi-wavevector in a.u.,A,eV,Ry     =   1.663893  3.144301 37.668261  2.768539
  Thomas-Fermi vector in A             =   2.750531
 
 Write flags
   LWAVE        =      T    write WAVECAR
   LDOWNSAMPLE  =      F    k-point downsampling of WAVECAR
   LCHARG       =      T    write CHGCAR
   LVTOT        =      F    write LOCPOT, total local potential
   LVHAR        =      F    write LOCPOT, Hartree potential only
   LELF         =      F    write electronic localiz. function (ELF)
   LORBIT       =     11    0 simple, 1 ext, 2 COOP (PROOUT), +10 PAW based schemes


 Dipole corrections
   LMONO  =      F    monopole corrections only (constant potential shift)
   LDIPOL =      F    correct potential (dipole corrections)
   IDIPOL =      0    1-x, 2-y, 3-z, 4-all directions 
   EPSILON=  1.0000000 bulk dielectric constant

 Exchange correlation treatment:
   GGA     =    --    GGA type
   LEXCH   =     8    internal setting for exchange type
   LIBXC   =     F    Libxc                    
   VOSKOWN =     0    Vosko Wilk Nusair interpolation
   LHFCALC =     F    Hartree Fock is set to
   LHFONE  =     F    Hartree Fock one center treatment
   AEXX    =    0.0000 exact exchange contribution

 Linear response parameters
   LEPSILON=     F    determine dielectric tensor
   LRPA    =     F    only Hartree local field effects (RPA)
   LNABLA  =     F    use nabla operator in PAW spheres
   LVEL    =     F    velocity operator in full k-point grid
   CSHIFT  =0.1000    complex shift for real part using Kramers Kronig
   OMEGAMAX=  -1.0    maximum frequency
   DEG_THRESHOLD= 0.2000000E-02 threshold for treating states as degnerate
   RTIME   =   -0.100 relaxation time in fs
  (WPLASMAI=    0.000 imaginary part of plasma frequency in eV, 0.658/RTIME)
   DFIELD  = 0.0000000 0.0000000 0.0000000 field for delta impulse in time
 
  Optional k-point grid parameters
   LKPOINTS_OPT  =     F    use optional k-point grid
   KPOINTS_OPT_MODE=     1    mode for optional k-point grid
 
 Orbital magnetization related:
   ORBITALMAG=     F  switch on orbital magnetization
   LCHIMAG   =     F  perturbation theory with respect to B field
   DQ        =  0.001000  dq finite difference perturbation B field
   LLRAUG    =     F  two centre corrections for induced B field



--------------------------------------------------------------------------------------------------------


 conjugate gradient relaxation of ions
 charge density and potential will be updated during run
 non-spin polarized calculation
 Variant of blocked Davidson
 Davidson routine will perform the subspace rotation
 perform sub-space diagonalisation
    after iterative eigenvector-optimisation
 modified Broyden-mixing scheme, WC =      100.0
 initial mixing is a Kerker type mixing with AMIX =  0.4000 and BMIX =      1.0000
 Hartree-type preconditioning will be used
 using additional bands           16
 reciprocal scheme for non local part
 use partial core corrections
 calculate Harris-corrections to forces 
   (improved forces if not selfconsistent)
 use gradient corrections 
 use of overlap-Matrix (Vanderbilt PP)
 Gauss-broadening in eV      SIGMA  =   0.05


--------------------------------------------------------------------------------------------------------


  energy-cutoff  :      425.00
  volume of cell :       15.24
      direct lattice vectors                 reciprocal lattice vectors
     0.000000000  1.967793378  1.967793378    -0.254091718  0.254091718  0.254091718
     1.967793378  0.000000000  1.967793378     0.254091718 -0.254091718  0.254091718
     1.967793378  1.967793378  0.000000000     0.254091718  0.254091718 -0.254091718

  length of vectors
     2.782880084  2.782880084  2.782880084     0.440099765  0.440099765  0.440099765


 
 k-points in units of 2pi/SCALE and weight: Automatic mesh                          
   0.01270459  0.01270459  0.01270459       0.002
  -0.01270459  0.03811376  0.03811376       0.006
  -0.03811376  0.06352293  0.06352293       0.006
  -0.06352293  0.08893210  0.08893210       0.006
  -0.08893210  0.11434127  0.11434127       0.006
   0.13975044 -0.11434127 -0.11434127       0.006
   0.11434127 -0.08893210 -0.08893210       0.006
   0.08893210 -0.06352293 -0.06352293       0.006
   0.06352293 -0.03811376 -0.03811376       0.006
   0.03811376 -0.01270459 -0.01270459       0.006
   0.01270459  0.01270459  0.06352293       0.006
  -0.01270459  0.03811376  0.08893210       0.012
  -0.03811376  0.06352293  0.11434127       0.012
  -0.06352293  0.08893210  0.13975044       0.012
   0.16515962 -0.13975044 -0.08893210       0.012
   0.13975044 -0.11434127 -0.06352293       0.012
   0.11434127 -0.08893210 -0.03811376       0.012
   0.08893210 -0.06352293 -0.01270459       0.012
   0.06352293 -0.03811376  0.01270459       0.012
   0.01270459  0.01270459  0.11434127       0.006
  -0.01270459  0.03811376  0.13975044       0.012
  -0.03811376  0.06352293  0.16515962       0.012
   0.19056879 -0.16515962 -0.06352293       0.012
   0.16515962 -0.13975044 -0.03811376       0.012
   0.13975044 -0.11434127 -0.01270459       0.012
   0.11434127 -0.08893210  0.01270459       0.012
   0.08893210 -0.06352293  0.03811376       0.012
   0.01270459  0.01270459  0.16515962       0.006
  -0.01270459  0.03811376  0.19056879       0.012
   0.21597796 -0.19056879 -0.03811376       0.012
   0.19056879 -0.16515962 -0.01270459       0.012
   0.16515962 -0.13975044  0.01270459       0.012
   0.13975044 -0.11434127  0.03811376       0.012
   0.11434127 -0.08893210  0.06352293       0.012
   0.01270459  0.01270459  0.21597796       0.006
   0.24138713 -0.21597796 -0.01270459       0.012
   0.21597796 -0.19056879  0.01270459       0.012
   0.19056879 -0.16515962  0.03811376       0.012
   0.16515962 -0.13975044  0.06352293       0.012
   0.13975044 -0.11434127  0.08893210       0.012
   0.01270459  0.01270459 -0.24138713       0.006
  -0.01270459  0.03811376 -0.21597796       0.012
  -0.03811376  0.06352293 -0.19056879       0.012
  -0.06352293  0.08893210 -0.16515962       0.012
   0.01270459  0.01270459 -0.19056879       0.006
  -0.01270459  0.03811376 -0.16515962       0.012
  -0.03811376  0.06352293 -0.13975044       0.012
   0.01270459  0.01270459 -0.13975044       0.006
  -0.01270459  0.03811376 -0.11434127       0.012
   0.01270459  0.01270459 -0.08893210       0.006
   0.03811376  0.03811376  0.03811376       0.002
   0.01270459  0.06352293  0.06352293       0.006
  -0.01270459  0.08893210  0.08893210       0.006
  -0.03811376  0.11434127  0.11434127       0.006
   0.19056879 -0.11434127 -0.11434127       0.006
   0.16515962 -0.08893210 -0.08893210       0.006
   0.13975044 -0.06352293 -0.06352293       0.006
   0.11434127 -0.03811376 -0.03811376       0.006
   0.03811376  0.03811376  0.08893210       0.006
   0.01270459  0.06352293  0.11434127       0.012
  -0.01270459  0.08893210  0.13975044       0.012
   0.21597796 -0.13975044 -0.08893210       0.012
   0.19056879 -0.11434127 -0.06352293       0.012
   0.16515962 -0.08893210 -0.03811376       0.012
   0.13975044 -0.06352293 -0.01270459       0.012
   0.03811376  0.03811376  0.13975044       0.006
   0.01270459  0.06352293  0.16515962       0.012
   0.24138713 -0.16515962 -0.06352293       0.012
   0.21597796 -0.13975044 -0.03811376       0.012
   0.19056879 -0.11434127 -0.01270459       0.012
   0.16515962 -0.08893210  0.01270459       0.012
   0.03811376  0.03811376  0.19056879       0.006
   0.26679630 -0.19056879 -0.03811376       0.012
   0.24138713 -0.16515962 -0.01270459       0.012
   0.21597796 -0.13975044  0.01270459       0.012
   0.19056879 -0.11434127  0.03811376       0.012
   0.03811376  0.03811376 -0.26679630       0.006
   0.01270459  0.06352293 -0.24138713       0.012
  -0.01270459  0.08893210 -0.21597796       0.012
   0.03811376  0.03811376 -0.21597796       0.006
   0.01270459  0.06352293 -0.19056879       0.012
   0.03811376  0.03811376 -0.16515962       0.006
   0.06352293  0.06352293  0.06352293       0.002
   0.03811376  0.08893210  0.08893210       0.006
   0.01270459  0.11434127  0.11434127       0.006
   0.24138713 -0.11434127 -0.11434127       0.006
   0.21597796 -0.08893210 -0.08893210       0.006
   0.19056879 -0.06352293 -0.06352293       0.006
   0.06352293  0.06352293  0.11434127       0.006
   0.03811376  0.08893210  0.13975044       0.012
   0.26679630 -0.13975044 -0.08893210       0.012
   0.24138713 -0.11434127 -0.06352293       0.012
   0.21597796 -0.08893210 -0.03811376       0.012
   0.06352293  0.06352293  0.16515962       0.006
   0.29220548 -0.16515962 -0.06352293       0.012
   0.26679630 -0.13975044 -0.03811376       0.012
   0.24138713 -0.11434127 -0.01270459       0.012
   0.06352293  0.06352293 -0.29220548       0.006
   0.03811376  0.08893210 -0.26679630       0.012
   0.06352293  0.06352293 -0.24138713       0.006
   0.08893210  0.08893210  0.08893210       0.002
   0.06352293  0.11434127  0.11434127       0.006
   0.29220548 -0.11434127 -0.11434127       0.006
   0.26679630 -0.08893210 -0.08893210       0.006
   0.08893210  0.08893210  0.13975044       0.006
   0.31761465 -0.13975044 -0.08893210       0.012
   0.29220548 -0.11434127 -0.06352293       0.012
   0.08893210  0.08893210 -0.31761465       0.006
   0.11434127  0.11434127  0.11434127       0.002
   0.34302382 -0.11434127 -0.11434127       0.006
 
 k-points in reciprocal lattice and weights: Automatic mesh                          
   0.05000000  0.05000000  0.05000000       0.002
   0.15000000  0.05000000  0.05000000       0.006
   0.25000000  0.05000000  0.05000000       0.006
   0.35000000  0.05000000  0.05000000       0.006
   0.45000000  0.05000000  0.05000000       0.006
  -0.45000000  0.05000000  0.05000000       0.006
  -0.35000000  0.05000000  0.05000000       0.006
  -0.25000000  0.05000000  0.05000000       0.006
  -0.15000000  0.05000000  0.05000000       0.006
  -0.05000000  0.05000000  0.05000000       0.006
   0.15000000  0.15000000  0.05000000       0.006
   0.25000000  0.15000000  0.05000000       0.012
   0.35000000  0.15000000  0.05000000       0.012
   0.45000000  0.15000000  0.05000000       0.012
  -0.45000000  0.15000000  0.05000000       0.012
  -0.35000000  0.15000000  0.05000000       0.012
  -0.25000000  0.15000000  0.05000000       0.012
  -0.15000000  0.15000000  0.05000000       0.012
  -0.05000000  0.15000000  0.05000000       0.012
   0.25000000  0.25000000  0.05000000       0.006
   0.35000000  0.25000000  0.05000000       0.012
   0.45000000  0.25000000  0.05000000       0.012
  -0.45000000  0.25000000  0.05000000       0.012
  -0.35000000  0.25000000  0.05000000       0.012
  -0.25000000  0.25000000  0.05000000       0.012
  -0.15000000  0.25000000  0.05000000       0.012
  -0.05000000  0.25000000  0.05000000       0.012
   0.35000000  0.35000000  0.05000000       0.006
   0.45000000  0.35000000  0.05000000       0.012
  -0.45000000  0.35000000  0.05000000       0.012
  -0.35000000  0.35000000  0.05000000       0.012
  -0.25000000  0.35000000  0.05000000       0.012
  -0.15000000  0.35000000  0.05000000       0.012
  -0.05000000  0.35000000  0.05000000       0.012
   0.45000000  0.45000000  0.05000000       0.006
  -0.45000000  0.45000000  0.05000000       0.012
  -0.35000000  0.45000000  0.05000000       0.012
  -0.25000000  0.45000000  0.05000000       0.012
  -0.15000000  0.45000000  0.05000000       0.012
  -0.05000000  0.45000000  0.05000000       0.012
  -0.45000000 -0.45000000  0.05000000       0.006
  -0.35000000 -0.45000000  0.05000000       0.012
  -0.25000000 -0.45000000  0.05000000       0.012
  -0.15000000 -0.45000000  0.05000000       0.012
  -0.35000000 -0.35000000  0.05000000       0.006
  -0.25000000 -0.35000000  0.05000000       0.012
  -0.15000000 -0.35000000  0.05000000       0.012
  -0.25000000 -0.25000000  0.05000000       0.006
  -0.15000000 -0.25000000  0.05000000       0.012
  -0.15000000 -0.15000000  0.05000000       0.006
   0.15000000  0.15000000  0.15000000       0.002
   0.25000000  0.15000000  0.15000000       0.006
   0.35000000  0.15000000  0.15000000       0.006
   0.45000000  0.15000000  0.15000000       0.006
  -0.45000000  0.15000000  0.15000000       0.006
  -0.35000000  0.15000000  0.15000000       0.006
  -0.25000000  0.15000000  0.15000000       0.006
  -0.15000000  0.15000000  0.15000000       0.006
   0.25000000  0.25000000  0.15000000       0.006
   0.35000000  0.25000000  0.15000000       0.012
   0.45000000  0.25000000  0.15000000       0.012
  -0.45000000  0.25000000  0.15000000       0.012
  -0.35000000  0.25000000  0.15000000       0.012
  -0.25000000  0.25000000  0.15000000       0.012
  -0.15000000  0.25000000  0.15000000       0.012
   0.35000000  0.35000000  0.15000000       0.006
   0.45000000  0.35000000  0.15000000       0.012
  -0.45000000  0.35000000  0.15000000       0.012
  -0.35000000  0.35000000  0.15000000       0.012
  -0.25000000  0.35000000  0.15000000       0.012
  -0.15000000  0.35000000  0.15000000       0.012
   0.45000000  0.45000000  0.15000000       0.006
  -0.45000000  0.45000000  0.15000000       0.012
  -0.35000000  0.45000000  0.15000000       0.012
  -0.25000000  0.45000000  0.15000000       0.012
  -0.15000000  0.45000000  0.15000000       0.012
  -0.45000000 -0.45000000  0.15000000       0.006
  -0.35000000 -0.45000000  0.15000000       0.012
  -0.25000000 -0.45000000  0.15000000       0.012
  -0.35000000 -0.35000000  0.15000000       0.006
  -0.25000000 -0.35000000  0.15000000       0.012
  -0.25000000 -0.25000000  0.15000000       0.006
   0.25000000  0.25000000  0.25000000       0.002
   0.35000000  0.25000000  0.25000000       0.006
   0.45000000  0.25000000  0.25000000       0.006
  -0.45000000  0.25000000  0.25000000       0.006
  -0.35000000  0.25000000  0.25000000       0.006
  -0.25000000  0.25000000  0.25000000       0.006
   0.35000000  0.35000000  0.25000000       0.006
   0.45000000  0.35000000  0.25000000       0.012
  -0.45000000  0.35000000  0.25000000       0.012
  -0.35000000  0.35000000  0.25000000       0.012
  -0.25000000  0.35000000  0.25000000       0.012
   0.45000000  0.45000000  0.25000000       0.006
  -0.45000000  0.45000000  0.25000000       0.012
  -0.35000000  0.45000000  0.25000000       0.012
  -0.25000000  0.45000000  0.25000000       0.012
  -0.45000000 -0.45000000  0.25000000       0.006
  -0.35000000 -0.45000000  0.25000000       0.012
  -0.35000000 -0.35000000  0.25000000       0.006
   0.35000000  0.35000000  0.35000000       0.002
   0.45000000  0.35000000  0.35000000       0.006
  -0.45000000  0.35000000  0.35000000       0.006
  -0.35000000  0.35000000  0.35000000       0.006
   0.45000000  0.45000000  0.35000000       0.006
  -0.45000000  0.45000000  0.35000000       0.012
  -0.35000000  0.45000000  0.35000000       0.012
  -0.45000000 -0.45000000  0.35000000       0.006
   0.45000000  0.45000000  0.45000000       0.002
  -0.45000000  0.45000000  0.45000000       0.006
 
 position of ions in fractional coordinates (direct lattice) 
   0.00000000  0.00000000  0.00000000
 
 position of ions in cartesian coordinates  (Angst):
   0.00000000  0.00000000  0.00000000
 


--------------------------------------------------------------------------------------------------------


 k-point   1 :   0.0500 0.0500 0.0500  plane waves:     313
 k-point   2 :   0.1500 0.0500 0.0500  plane waves:     311
 k-point   3 :   0.2500 0.0500 0.0500  plane waves:     307
 k-point   4 :   0.3500 0.0500 0.0500  plane waves:     303
 k-point   5 :   0.4500 0.0500 0.0500  plane waves:     302
 k-point   6 :  -0.4500 0.0500 0.0500  plane waves:     301
 k-point   7 :  -0.3500 0.0500 0.0500  plane waves:     302
 k-point   8 :  -0.2500 0.0500 0.0500  plane waves:     303
 k-point   9 :  -0.1500 0.0500 0.0500  plane waves:     306
 k-point  10 :  -0.0500 0.0500 0.0500  plane waves:     307
 k-point  11 :   0.1500 0.1500 0.0500  plane waves:     305
 k-point  12 :   0.2500 0.1500 0.0500  plane waves:     304
 k-point  13 :   0.3500 0.1500 0.0500  plane waves:     302
 k-point  14 :   0.4500 0.1500 0.0500  plane waves:     304
 k-point  15 :  -0.4500 0.1500 0.0500  plane waves:     302
 k-point  16 :  -0.3500 0.1500 0.0500  plane waves:     303
 k-point  17 :  -0.2500 0.1500 0.0500  plane waves:     304
 k-point  18 :  -0.1500 0.1500 0.0500  plane waves:     305
 k-point  19 :  -0.0500 0.1500 0.0500  plane waves:     309
 k-point  20 :   0.2500 0.2500 0.0500  plane waves:     303
 k-point  21 :   0.3500 0.2500 0.0500  plane waves:     305
 k-point  22 :   0.4500 0.2500 0.0500  plane waves:     305
 k-point  23 :  -0.4500 0.2500 0.0500  plane waves:     302
 k-point  24 :  -0.3500 0.2500 0.0500  plane waves:     301
 k-point  25 :  -0.2500 0.2500 0.0500  plane waves:     305
 k-point  26 :  -0.1500 0.2500 0.0500  plane waves:     304
 k-point  27 :  -0.0500 0.2500 0.0500  plane waves:     304
 k-point  28 :   0.3500 0.3500 0.0500  plane waves:     309
 k-point  29 :   0.4500 0.3500 0.0500  plane waves:     309
 k-point  30 :  -0.4500 0.3500 0.0500  plane waves:     301
 k-point  31 :  -0.3500 0.3500 0.0500  plane waves:     298
 k-point  32 :  -0.2500 0.3500 0.0500  plane waves:     300
 k-point  33 :  -0.1500 0.3500 0.0500  plane waves:     303
 k-point  34 :  -0.0500 0.3500 0.0500  plane waves:     300
 k-point  35 :   0.4500 0.4500 0.0500  plane waves:     308
 k-point  36 :  -0.4500 0.4500 0.0500  plane waves:     305
 k-point  37 :  -0.3500 0.4500 0.0500  plane waves:     301
 k-point  38 :  -0.2500 0.4500 0.0500  plane waves:     299
 k-point  39 :  -0.1500 0.4500 0.0500  plane waves:     301
 k-point  40 :  -0.0500 0.4500 0.0500  plane waves:     303
 k-point  41 :  -0.4500-0.4500 0.0500  plane waves:     302
 k-point  42 :  -0.3500-0.4500 0.0500  plane waves:     309
 k-point  43 :  -0.2500-0.4500 0.0500  plane waves:     304
 k-point  44 :  -0.1500-0.4500 0.0500  plane waves:     304
 k-point  45 :  -0.3500-0.3500 0.0500  plane waves:     314
 k-point  46 :  -0.2500-0.3500 0.0500  plane waves:     309
 k-point  47 :  -0.1500-0.3500 0.0500  plane waves:     306
 k-point  48 :  -0.2500-0.2500 0.0500  plane waves:     307
 k-point  49 :  -0.1500-0.2500 0.0500  plane waves:     301
 k-point  50 :  -0.1500-0.1500 0.0500  plane waves:     303
 k-point  51 :   0.1500 0.1500 0.1500  plane waves:     310
 k-point  52 :   0.2500 0.1500 0.1500  plane waves:     308
 k-point  53 :   0.3500 0.1500 0.1500  plane waves:     305
 k-point  54 :   0.4500 0.1500 0.1500  plane waves:     302
 k-point  55 :  -0.4500 0.1500 0.1500  plane waves:     299
 k-point  56 :  -0.3500 0.1500 0.1500  plane waves:     304
 k-point  57 :  -0.2500 0.1500 0.1500  plane waves:     301
 k-point  58 :  -0.1500 0.1500 0.1500  plane waves:     304
 k-point  59 :   0.2500 0.2500 0.1500  plane waves:     304
 k-point  60 :   0.3500 0.2500 0.1500  plane waves:     304
 k-point  61 :   0.4500 0.2500 0.1500  plane waves:     306
 k-point  62 :  -0.4500 0.2500 0.1500  plane waves:     302
 k-point  63 :  -0.3500 0.2500 0.1500  plane waves:     303
 k-point  64 :  -0.2500 0.2500 0.1500  plane waves:     303
 k-point  65 :  -0.1500 0.2500 0.1500  plane waves:     306
 k-point  66 :   0.3500 0.3500 0.1500  plane waves:     303
 k-point  67 :   0.4500 0.3500 0.1500  plane waves:     307
 k-point  68 :  -0.4500 0.3500 0.1500  plane waves:     303
 k-point  69 :  -0.3500 0.3500 0.1500  plane waves:     301
 k-point  70 :  -0.2500 0.3500 0.1500  plane waves:     298
 k-point  71 :  -0.1500 0.3500 0.1500  plane waves:     305
 k-point  72 :   0.4500 0.4500 0.1500  plane waves:     307
 k-point  73 :  -0.4500 0.4500 0.1500  plane waves:     304
 k-point  74 :  -0.3500 0.4500 0.1500  plane waves:     300
 k-point  75 :  -0.2500 0.4500 0.1500  plane waves:     299
 k-point  76 :  -0.1500 0.4500 0.1500  plane waves:     302
 k-point  77 :  -0.4500-0.4500 0.1500  plane waves:     308
 k-point  78 :  -0.3500-0.4500 0.1500  plane waves:     299
 k-point  79 :  -0.2500-0.4500 0.1500  plane waves:     301
 k-point  80 :  -0.3500-0.3500 0.1500  plane waves:     303
 k-point  81 :  -0.2500-0.3500 0.1500  plane waves:     303
 k-point  82 :  -0.2500-0.2500 0.1500  plane waves:     309
 k-point  83 :   0.2500 0.2500 0.2500  plane waves:     305
 k-point  84 :   0.3500 0.2500 0.2500  plane waves:     302
 k-point  85 :   0.4500 0.2500 0.2500  plane waves:     302
 k-point  86 :  -0.4500 0.2500 0.2500  plane waves:     301
 k-point  87 :  -0.3500 0.2500 0.2500  plane waves:     299
 k-point  88 :  -0.2500 0.2500 0.2500  plane waves:     307
 k-point  89 :   0.3500 0.3500 0.2500  plane waves:     298
 k-point  90 :   0.4500 0.3500 0.2500  plane waves:     307
 k-point  91 :  -0.4500 0.3500 0.2500  plane waves:     301
 k-point  92 :  -0.3500 0.3500 0.2500  plane waves:     300
 k-point  93 :  -0.2500 0.3500 0.2500  plane waves:     298
 k-point  94 :   0.4500 0.4500 0.2500  plane waves:     307
 k-point  95 :  -0.4500 0.4500 0.2500  plane waves:     301
 k-point  96 :  -0.3500 0.4500 0.2500  plane waves:     301
 k-point  97 :  -0.2500 0.4500 0.2500  plane waves:     300
 k-point  98 :  -0.4500-0.4500 0.2500  plane waves:     302
 k-point  99 :  -0.3500-0.4500 0.2500  plane waves:     299
 k-point 100 :  -0.3500-0.3500 0.2500  plane waves:     302
 k-point 101 :   0.3500 0.3500 0.3500  plane waves:     305
 k-point 102 :   0.4500 0.3500 0.3500  plane waves:     301
 k-point 103 :  -0.4500 0.3500 0.3500  plane waves:     301
 k-point 104 :  -0.3500 0.3500 0.3500  plane waves:     295
 k-point 105 :   0.4500 0.4500 0.3500  plane waves:     301
 k-point 106 :  -0.4500 0.4500 0.3500  plane waves:     303
 k-point 107 :  -0.3500 0.4500 0.3500  plane waves:     300
 k-point 108 :  -0.4500-0.4500 0.3500  plane waves:     303
 k-point 109 :   0.4500 0.4500 0.4500  plane waves:     308
 k-point 110 :  -0.4500 0.4500 0.4500  plane waves:     300

 maximum and minimum number of plane-waves per node :       314      295

 maximum number of plane-waves:       314
 maximum index in each direction: 
   IXMAX=    5   IYMAX=    5   IZMAX=    4
   IXMIN=   -5   IYMIN=   -5   IZMIN=   -5


 serial   3D FFT for wavefunctions
 parallel 3D FFT for charge:
    minimum data exchange during FFTs selected (reduces bandwidth)


 total amount of memory used by VASP MPI-rank0    36607. kBytes
=======================================================================

   base      :      30000. kBytes
   nonl-proj :       5327. kBytes
   fftplans  :        147. kBytes
   grid      :        485. kBytes
   one-center:         15. kBytes
   wavefun   :        633. kBytes
 
     INWAV:  cpu time      0.0000: real time      0.0001
 Broyden mixing: mesh for mixing (old mesh)
   NGX =  9   NGY =  9   NGZ =  9
  (NGX  = 40   NGY  = 40   NGZ  = 40)
  gives a total of    729 points

 initial charge density was supplied:
 charge density of overlapping atoms calculated
 number of electron      16.0000000 magnetization 
 keeping initial charge density in first step


--------------------------------------------------------------------------------------------------------


 Maximum index for augmentation-charges          868 (set IRDMAX)


--------------------------------------------------------------------------------------------------------


 First call to EWALD:  gamma=   0.715
 Maximum number of real-space cells 3x 3x 3
 Maximum number of reciprocal cells 3x 3x 3

    FEWALD:  cpu time      0.0014: real time      0.0014


--------------------------------------- Iteration      1(   1)  ---------------------------------------


    POTLOK:  cpu time      0.0033: real time      0.0034
    SETDIJ:  cpu time      0.0023: real time      0.0023
     EDDAV:  cpu time      0.5076: real time      0.5102
       DOS:  cpu time      0.0009: real time      0.0009
    --------------------------------------------
      LOOP:  cpu time      0.5141: real time      0.5168

 eigenvalue-minimisations  :  5952
 total energy-change (2. order) : 0.1641802E+02  (-0.1167105E+04)
 number of electron      16.0000000 magnetization 
 augmentation part       16.0000000 magnetization 

 Free energy of the ion-electron system (eV)
  ---------------------------------------------------
  alpha Z        PSCENC =       157.44157776
  Ewald energy   TEWEN  =     -2147.25106874
  -Hartree energ DENC   =      -396.71552245
  -exchange      EXHF   =         0.00000000
  -V(xc)+E(xc)   XCENC  =        63.83393529
  PAW double counting   =      2065.75261637    -2030.83594803
  entropy T*S    EENTRO =        -0.00181246
  eigenvalues    EBANDS =      -124.00076904
  atomic energy  EATOM  =      2428.19501064
  Solvation  Ediel_sol  =         0.00000000
  ---------------------------------------------------
  free energy    TOTEN  =        16.41801934 eV

  energy without entropy =       16.41983180  energy(sigma->0) =       16.41892557


--------------------------------------------------------------------------------------------------------




--------------------------------------- Iteration      1(   2)  ---------------------------------------


     EDDAV:  cpu time      0.6909: real time      0.6950
       DOS:  cpu time      0.0005: real time      0.0005
    --------------------------------------------
      LOOP:  cpu time      0.6915: real time      0.6956

 eigenvalue-minimisations  :  7176
 total energy-change (2. order) :-0.2281508E+02  (-0.2259641E+02)
 number of electron      16.0000000 magnetization 
 augmentation part       16.0000000 magnetization 

 Free energy of the ion-electron system (eV)
  ---------------------------------------------------
  alpha Z        PSCENC =       157.44157776
  Ewald energy   TEWEN  =     -2147.25106874
  -Hartree energ DENC   =      -396.71552245
  -exchange      EXHF   =         0.00000000
  -V(xc)+E(xc)   XCENC  =        63.83393529
  PAW double counting   =      2065.75261637    -2030.83594803
  entropy T*S    EENTRO =        -0.00177526
  eigenvalues    EBANDS =      -146.81588545
  atomic energy  EATOM  =      2428.19501064
  Solvation  Ediel_sol  =         0.00000000
  ---------------------------------------------------
  free energy    TOTEN  =        -6.39705987 eV

  energy without entropy =       -6.39528461  energy(sigma->0) =       -6.39617224


--------------------------------------------------------------------------------------------------------




--------------------------------------- Iteration      1(   3)  ---------------------------------------


     EDDAV:  cpu time      0.6630: real time      0.6663
       DOS:  cpu time      0.0005: real time      0.0005
    --------------------------------------------
      LOOP:  cpu time      0.6635: real time      0.6668

 eigenvalue-minimisations  :  6744
 total energy-change (2. order) :-0.2936657E-01  (-0.2936280E-01)
 number of electron      16.0000000 magnetization 
 augmentation part       16.0000000 magnetization 

 Free energy of the ion-electron system (eV)
  ---------------------------------------------------
  alpha Z        PSCENC =       157.44157776
  Ewald energy   TEWEN  =     -2147.25106874
  -Hartree energ DENC   =      -396.71552245
  -exchange      EXHF   =         0.00000000
  -V(xc)+E(xc)   XCENC  =        63.83393529
  PAW double counting   =      2065.75261637    -2030.83594803
  entropy T*S    EENTRO =        -0.00173065
  eigenvalues    EBANDS =      -146.84529663
  atomic energy  EATOM  =      2428.19501064
  Solvation  Ediel_sol  =         0.00000000
  ---------------------------------------------------
  free energy    TOTEN  =        -6.42642643 eV

  energy without entropy =       -6.42469579  energy(sigma->0) =       -6.42556111


--------------------------------------------------------------------------------------------------------




--------------------------------------- Iteration      1(   4)  ---------------------------------------


     EDDAV:  cpu time      0.9500: real time      0.9545
       DOS:  cpu time      0.0005: real time      0.0005
    --------------------------------------------
      LOOP:  cpu time      0.9505: real time      0.9549

 eigenvalue-minimisations  :  8472
 total energy-change (2. order) :-0.2456495E-04  (-0.2456489E-04)
 number of electron      16.0000000 magnetization 
 augmentation part       16.0000000 magnetization 

 Free energy of the ion-electron system (eV)
  ---------------------------------------------------
  alpha Z        PSCENC =       157.44157776
  Ewald energy   TEWEN  =     -2147.25106874
  -Hartree energ DENC   =      -396.71552245
  -exchange      EXHF   =         0.00000000
  -V(xc)+E(xc)   XCENC  =        63.83393529
  PAW double counting   =      2065.75261637    -2030.83594803
  entropy T*S    EENTRO =        -0.00173064
  eigenvalues    EBANDS =      -146.84532120
  atomic energy  EATOM  =      2428.19501064
  Solvation  Ediel_sol  =         0.00000000
  ---------------------------------------------------
  free energy    TOTEN  =        -6.42645100 eV

  energy without entropy =       -6.42472036  energy(sigma->0) =       -6.42558568


--------------------------------------------------------------------------------------------------------




--------------------------------------- Iteration      1(   5)  ---------------------------------------


     EDDAV:  cpu time      0.6369: real time      0.6401
       DOS:  cpu time      0.0005: real time      0.0005
    CHARGE:  cpu time      0.0185: real time      0.0185
    MIXING:  cpu time      0.0003: real time      0.0003
    --------------------------------------------
      LOOP:  cpu time      0.6562: real time      0.6595

 eigenvalue-minimisations  :  6600
 total energy-change (2. order) : 0.4229150E-10  (-0.4178122E-09)
 number of electron      16.0000002 magnetization 
 augmentation part        3.9775099 magnetization 

 Broyden mixing:
  rms(total) = 0.15059E+01    rms(broyden)= 0.15057E+01
  rms(prec ) = 0.20594E+01
  weight for this iteration     100.00

 Free energy of the ion-electron system (eV)
  ---------------------------------------------------
  alpha Z        PSCENC =       157.44157776
  Ewald energy   TEWEN  =     -2147.25106874
  -Hartree energ DENC   =      -396.71552245
  -exchange      EXHF   =         0.00000000
  -V(xc)+E(xc)   XCENC  =        63.83393529
  PAW double counting   =      2065.75261637    -2030.83594803
  entropy T*S    EENTRO =        -0.00173064
  eigenvalues    EBANDS =      -146.84532120
  atomic energy  EATOM  =      2428.19501064
  Solvation  Ediel_sol  =         0.00000000
  ---------------------------------------------------
  free energy    TOTEN  =        -6.42645100 eV

  energy without entropy =       -6.42472036  energy(sigma->0) =       -6.42558568


--------------------------------------------------------------------------------------------------------




--------------------------------------- Iteration      1(   6)  ---------------------------------------


    POTLOK:  cpu time      0.0025: real time      0.0027
    SETDIJ:  cpu time      0.0021: real time      0.0021
     EDDAV:  cpu time      0.5143: real time      0.5168
       DOS:  cpu time      0.0005: real time      0.0005
    CHARGE:  cpu time      0.0177: real time      0.0178
    MIXING:  cpu time      0.0003: real time      0.0003
    --------------------------------------------
      LOOP:  cpu time      0.5374: real time      0.5401

 eigenvalue-minimisations  :  5928
 total energy-change (2. order) : 0.3331338E+00  (-0.1224565E+00)
 number of electron      16.0000002 magnetization 
 augmentation part        4.0896238 magnetization 

 Broyden mixing:
  rms(total) = 0.48699E+00    rms(broyden)= 0.48698E+00
  rms(prec ) = 0.59635E+00
  weight for this iteration     100.00

 eigenvalues of (default mixing * dielectric matrix)
  average eigenvalue GAMMA=   1.4542
  1.4542

 Free energy of the ion-electron system (eV)
  ---------------------------------------------------
  alpha Z        PSCENC =       157.44157776
  Ewald energy   TEWEN  =     -2147.25106874
  -Hartree energ DENC   =      -381.47643473
  -exchange      EXHF   =         0.00000000
  -V(xc)+E(xc)   XCENC  =        63.17651422
  PAW double counting   =      2238.46016352    -2205.61162927
  entropy T*S    EENTRO =        -0.00237507
  eigenvalues    EBANDS =      -159.02507549
  atomic energy  EATOM  =      2428.19501064
  Solvation  Ediel_sol  =         0.00000000
  ---------------------------------------------------
  free energy    TOTEN  =        -6.09331715 eV

  energy without entropy =       -6.09094208  energy(sigma->0) =       -6.09212962


--------------------------------------------------------------------------------------------------------




--------------------------------------- Iteration      1(   7)  ---------------------------------------


    POTLOK:  cpu time      0.0022: real time      0.0024
    SETDIJ:  cpu time      0.0019: real time      0.0019
     EDDAV:  cpu time      0.8088: real time      0.8125
       DOS:  cpu time      0.0005: real time      0.0005
    CHARGE:  cpu time      0.0176: real time      0.0176
    MIXING:  cpu time      0.0002: real time      0.0002
    --------------------------------------------
      LOOP:  cpu time      0.8312: real time      0.8351

 eigenvalue-minimisations  :  7896
 total energy-change (2. order) : 0.1880076E-01  (-0.7773604E-02)
 number of electron      16.0000002 magnetization 
 augmentation part        4.1164193 magnetization 

 Broyden mixing:
  rms(total) = 0.15083E+00    rms(broyden)= 0.15083E+00
  rms(prec ) = 0.18198E+00
  weight for this iteration     100.00

 eigenvalues of (default mixing * dielectric matrix)
  average eigenvalue GAMMA=   1.9602
  1.1986  2.7218

 Free energy of the ion-electron system (eV)
  ---------------------------------------------------
  alpha Z        PSCENC =       157.44157776
  Ewald energy   TEWEN  =     -2147.25106874
  -Hartree energ DENC   =      -377.45450733
  -exchange      EXHF   =         0.00000000
  -V(xc)+E(xc)   XCENC  =        62.99306583
  PAW double counting   =      2313.55140505    -2281.29716074
  entropy T*S    EENTRO =        -0.00241938
  eigenvalues    EBANDS =      -162.25041948
  atomic energy  EATOM  =      2428.19501064
  Solvation  Ediel_sol  =         0.00000000
  ---------------------------------------------------
  free energy    TOTEN  =        -6.07451639 eV

  energy without entropy =       -6.07209701  energy(sigma->0) =       -6.07330670


--------------------------------------------------------------------------------------------------------




--------------------------------------- Iteration      1(   8)  ---------------------------------------


    POTLOK:  cpu time      0.0022: real time      0.0024
    SETDIJ:  cpu time      0.0019: real time      0.0020
     EDDAV:  cpu time      0.5033: real time      0.5057
       DOS:  cpu time      0.0005: real time      0.0005
    CHARGE:  cpu time      0.0176: real time      0.0176
    MIXING:  cpu time      0.0003: real time      0.0003
    --------------------------------------------
      LOOP:  cpu time      0.5258: real time      0.5285

 eigenvalue-minimisations  :  5856
 total energy-change (2. order) : 0.1551755E-02  (-0.4180688E-03)
 number of electron      16.0000002 magnetization 
 augmentation part        4.1119964 magnetization 

 Broyden mixing:
  rms(total) = 0.14730E-01    rms(broyden)= 0.14722E-01
  rms(prec ) = 0.18748E-01
  weight for this iteration     100.00

 eigenvalues of (default mixing * dielectric matrix)
  average eigenvalue GAMMA=   1.5720
  1.0769  1.2029  2.4361

 Free energy of the ion-electron system (eV)
  ---------------------------------------------------
  alpha Z        PSCENC =       157.44157776
  Ewald energy   TEWEN  =     -2147.25106874
  -Hartree energ DENC   =      -377.39207225
  -exchange      EXHF   =         0.00000000
  -V(xc)+E(xc)   XCENC  =        62.97725333
  PAW double counting   =      2358.58843061    -2326.37970043
  entropy T*S    EENTRO =        -0.00244412
  eigenvalues    EBANDS =      -162.24995143
  atomic energy  EATOM  =      2428.19501064
  Solvation  Ediel_sol  =         0.00000000
  ---------------------------------------------------
  free energy    TOTEN  =        -6.07296463 eV

  energy without entropy =       -6.07052051  energy(sigma->0) =       -6.07174257


--------------------------------------------------------------------------------------------------------




--------------------------------------- Iteration      1(   9)  ---------------------------------------


    POTLOK:  cpu time      0.0022: real time      0.0024
    SETDIJ:  cpu time      0.0018: real time      0.0018
     EDDAV:  cpu time      0.7678: real time      0.7713
       DOS:  cpu time      0.0005: real time      0.0005
    CHARGE:  cpu time      0.0175: real time      0.0176
    MIXING:  cpu time      0.0003: real time      0.0003
    --------------------------------------------
      LOOP:  cpu time      0.7901: real time      0.7939

 eigenvalue-minimisations  :  7392
 total energy-change (2. order) : 0.7036827E-04  (-0.5733884E-05)
 number of electron      16.0000002 magnetization 
 augmentation part        4.1125276 magnetization 

 Broyden mixing:
  rms(total) = 0.16135E-02    rms(broyden)= 0.16119E-02
  rms(prec ) = 0.32062E-02
  weight for this iteration     100.00

 eigenvalues of (default mixing * dielectric matrix)
  average eigenvalue GAMMA=   1.8313
  1.0134  1.1935  2.7456  2.3726

 Free energy of the ion-electron system (eV)
  ---------------------------------------------------
  alpha Z        PSCENC =       157.44157776
  Ewald energy   TEWEN  =     -2147.25106874
  -Hartree energ DENC   =      -377.41183879
  -exchange      EXHF   =         0.00000000
  -V(xc)+E(xc)   XCENC  =        62.97929668
  PAW double counting   =      2355.39771236    -2323.16636213
  entropy T*S    EENTRO =        -0.00244035
  eigenvalues    EBANDS =      -162.25478170
  atomic energy  EATOM  =      2428.19501064
  Solvation  Ediel_sol  =         0.00000000
  ---------------------------------------------------
  free energy    TOTEN  =        -6.07289427 eV

  energy without entropy =       -6.07045391  energy(sigma->0) =       -6.07167409


--------------------------------------------------------------------------------------------------------




--------------------------------------- Iteration      1(  10)  ---------------------------------------


    POTLOK:  cpu time      0.0021: real time      0.0023
    SETDIJ:  cpu time      0.0018: real time      0.0018
     EDDAV:  cpu time      0.7544: real time      0.7579
       DOS:  cpu time      0.0005: real time      0.0005
    CHARGE:  cpu time      0.0180: real time      0.0181
    MIXING:  cpu time      0.0003: real time      0.0003
    --------------------------------------------
      LOOP:  cpu time      0.7772: real time      0.7809

 eigenvalue-minimisations  :  7440
 total energy-change (2. order) :-0.5497354E-05  (-0.5006115E-06)
 number of electron      16.0000002 magnetization 
 augmentation part        4.1125577 magnetization 

 Broyden mixing:
  rms(total) = 0.55502E-03    rms(broyden)= 0.55480E-03
  rms(prec ) = 0.57057E-03
  weight for this iteration     100.00

 eigenvalues of (default mixing * dielectric matrix)
  average eigenvalue GAMMA=   1.7366
  2.6797  2.3405  0.9868  1.4736  1.2025

 Free energy of the ion-electron system (eV)
  ---------------------------------------------------
  alpha Z        PSCENC =       157.44157776
  Ewald energy   TEWEN  =     -2147.25106874
  -Hartree energ DENC   =      -377.44260318
  -exchange      EXHF   =         0.00000000
  -V(xc)+E(xc)   XCENC  =        62.98048653
  PAW double counting   =      2357.10883140    -2324.85009252
  entropy T*S    EENTRO =        -0.00243920
  eigenvalues    EBANDS =      -162.25260245
  atomic energy  EATOM  =      2428.19501064
  Solvation  Ediel_sol  =         0.00000000
  ---------------------------------------------------
  free energy    TOTEN  =        -6.07289976 eV

  energy without entropy =       -6.07046057  energy(sigma->0) =       -6.07168016


--------------------------------------------------------------------------------------------------------




--------------------------------------- Iteration      1(  11)  ---------------------------------------


    POTLOK:  cpu time      0.0022: real time      0.0024
    SETDIJ:  cpu time      0.0019: real time      0.0019
     EDDAV:  cpu time      0.2941: real time      0.2956
       DOS:  cpu time      0.0005: real time      0.0005
    --------------------------------------------
      LOOP:  cpu time      0.2987: real time      0.3004

 eigenvalue-minimisations  :  3576
 total energy-change (2. order) : 0.6324990E-07  (-0.3643750E-09)
 number of electron      16.0000002 magnetization 
 augmentation part        4.1125577 magnetization 

 Free energy of the ion-electron system (eV)
  ---------------------------------------------------
  alpha Z        PSCENC =       157.44157776
  Ewald energy   TEWEN  =     -2147.25106874
  -Hartree energ DENC   =      -377.44182945
  -exchange      EXHF   =         0.00000000
  -V(xc)+E(xc)   XCENC  =        62.98045092
  PAW double counting   =      2356.94765885    -2324.68935288
  entropy T*S    EENTRO =        -0.00243920
  eigenvalues    EBANDS =      -162.25290761
  atomic energy  EATOM  =      2428.19501064
  Solvation  Ediel_sol  =         0.00000000
  ---------------------------------------------------
  free energy    TOTEN  =        -6.07289970 eV

  energy without entropy =       -6.07046050  energy(sigma->0) =       -6.07168010


--------------------------------------------------------------------------------------------------------




 average (electrostatic) potential at core
  the test charge radii are     0.9952
  (the norm of the test charge is              1.0000)
       1 -88.9090
 
 
 
 E-fermi :  11.8794     XC(G=0): -13.9368     alpha+bet :-17.2138

 Fermi energy:        11.8794418918

 k-point     1 :       0.0500    0.0500    0.0500
  band No.  band energies     occupation 
      1     -40.6548      2.00000
      2     -40.6453      2.00000
      3     -40.6453      2.00000
      4       1.8252      2.00000
      5       8.0789      2.00000
      6       8.1633      2.00000
      7       8.1633      2.00000
      8      10.2322      2.00000
      9      10.2322      2.00000
     10      26.6511      0.00000
     11      30.8510      0.00000
     12      31.5546      0.00000
     13      31.5546      0.00000
     14      37.3345      0.00000
     15      42.1995      0.00000
     16      42.9411      0.00000
     17      42.9411      0.00000
     18      46.1918      0.00000
     19      46.1918      0.00000
     20      47.1159      0.00000
     21      52.5626      0.00000
     22      52.9488      0.00000
     23      52.9488      0.00000
     24      60.1815      0.00000

 k-point     2 :       0.1500    0.0500    0.0500
  band No.  band energies     occupation 
      1     -40.7083      2.00000
      2     -40.6611      2.00000
      3     -40.6501      2.00000
      4       2.3436      2.00000
      5       7.8497      2.00000
      6       8.3429      2.00000
      7       8.3822      2.00000
      8      10.0090      2.00000
      9      10.2890      2.00000
     10      27.3944      0.00000
     11      29.1430      0.00000
     12      31.6718      0.00000
     13      32.6701      0.00000
     14      37.8943      0.00000
     15      40.3088      0.00000
     16      40.7498      0.00000
     17      42.0008      0.00000
     18      44.5277      0.00000
     19      47.6123      0.00000
     20      49.8665      0.00000
     21      51.7770      0.00000
     22      52.5598      0.00000
     23      54.1209      0.00000
     24      60.9749      0.00000

 k-point     3 :       0.2500    0.0500    0.0500
  band No.  band energies     occupation 
      1     -40.8277      2.00000
      2     -40.6819      2.00000
      3     -40.6656      2.00000
      4       3.4528      2.00000
      5       7.6294      2.00000
      6       8.5310      2.00000
      7       8.5698      2.00000
      8       9.9941      2.00000
      9      10.5526      2.00000
     10      26.2433      0.00000
     11      28.3469      0.00000
     12      32.7509      0.00000
     13      34.6847      0.00000
     14      34.7459      0.00000
     15      38.0334      0.00000
     16      38.0621      0.00000
     17      44.6458      0.00000
     18      44.9615      0.00000
     19      48.2379      0.00000
     20      50.2998      0.00000
     21      52.5613      0.00000
     22      52.9496      0.00000
     23      54.7735      0.00000
     24      61.2823      0.00000

 k-point     4 :       0.3500    0.0500    0.0500
  band No.  band energies     occupation 
      1     -40.9631      2.00000
      2     -40.7026      2.00000
      3     -40.6862      2.00000
      4       4.4416      2.00000
      5       8.1967      2.00000
      6       8.3808      2.00000
      7       8.4123      2.00000
      8      10.6510      2.00000
      9      11.2941      2.00000
     10      22.7568      0.00000
     11      27.5667      0.00000
     12      32.1235      0.00000
     13      34.3467      0.00000
     14      35.5708      0.00000
     15      37.3832      0.00000
     16      37.9798      0.00000
     17      45.3980      0.00000
     18      47.6024      0.00000
     19      49.7443      0.00000
     20      50.9830      0.00000
     21      52.5678      0.00000
     22      53.6516      0.00000
     23      55.4743      0.00000
     24      60.2660      0.00000

 k-point     5 :       0.4500    0.0500    0.0500
  band No.  band energies     occupation 
      1     -41.0635      2.00000
      2     -40.7157      2.00000
      3     -40.7034      2.00000
      4       4.6955      2.00000
      5       8.0890      2.00000
      6       8.1877      2.00000
      7       9.9611      2.00000
      8      11.4923      2.00000
      9      12.1720      0.00000
     10      19.1499      0.00000
     11      26.5032      0.00000
     12      30.6711      0.00000
     13      31.7039      0.00000
     14      38.4687      0.00000
     15      39.5068      0.00000
     16      40.1186      0.00000
     17      46.0619      0.00000
     18      47.4265      0.00000
     19      48.7648      0.00000
     20      52.5735      0.00000
     21      53.2517      0.00000
     22      56.0400      0.00000
     23      56.2428      0.00000
     24      57.3687      0.00000

 k-point     6 :      -0.4500    0.0500    0.0500
  band No.  band energies     occupation 
      1     -41.0910      2.00000
      2     -40.7160      2.00000
      3     -40.7118      2.00000
      4       4.7010      2.00000
      5       7.9993      2.00000
      6       8.1353      2.00000
      7      10.6816      2.00000
      8      11.9057      0.45770
      9      12.6122      0.00000
     10      17.6523      0.00000
     11      26.2186      0.00000
     12      30.5670      0.00000
     13      30.6162      0.00000
     14      39.7342      0.00000
     15      39.9519      0.00000
     16      41.4445      0.00000
     17      46.3262      0.00000
     18      47.2477      0.00000
     19      47.3950      0.00000
     20      52.5762      0.00000
     21      54.3565      0.00000
     22      54.9724      0.00000
     23      56.9315      0.00000
     24      57.7979      0.00000

 k-point     7 :      -0.3500    0.0500    0.0500
  band No.  band energies     occupation 
      1     -41.0367      2.00000
      2     -40.7073      2.00000
      3     -40.7039      2.00000
      4       4.6647      2.00000
      5       8.1293      2.00000
      6       8.2825      2.00000
      7       9.3081      2.00000
      8      11.5522      2.00000
      9      11.6141      2.00000
     10      20.2734      0.00000
     11      26.7868      0.00000
     12      31.2841      0.00000
     13      32.1236      0.00000
     14      38.2026      0.00000
     15      38.3748      0.00000
     16      39.2989      0.00000
     17      45.3128      0.00000
     18      48.4369      0.00000
     19      49.1212      0.00000
     20      52.5722      0.00000
     21      53.1215      0.00000
     22      54.3602      0.00000
     23      56.1853      0.00000
     24      58.0479      0.00000

 k-point     8 :      -0.2500    0.0500    0.0500
  band No.  band energies     occupation 
      1     -40.9195      2.00000
      2     -40.6917      2.00000
      3     -40.6838      2.00000
      4       4.1894      2.00000
      5       7.8562      2.00000
      6       8.4141      2.00000
      7       8.5149      2.00000
      8      10.5004      2.00000
      9      10.9095      2.00000
     10      23.9841      0.00000
     11      27.9958      0.00000
     12      32.8428      0.00000
     13      34.2326      0.00000
     14      35.8575      0.00000
     15      36.6821      0.00000
     16      37.3609      0.00000
     17      44.9201      0.00000
     18      48.0057      0.00000
     19      48.6169      0.00000
     20      50.9847      0.00000
     21      52.4094      0.00000
     22      52.5679      0.00000
     23      55.8070      0.00000
     24      61.2697      0.00000

 k-point     9 :      -0.1500    0.0500    0.0500
  band No.  band energies     occupation 
      1     -40.7832      2.00000
      2     -40.6708      2.00000
      3     -40.6632      2.00000
      4       3.0470      2.00000
      5       7.6440      2.00000
      6       8.5246      2.00000
      7       8.5467      2.00000
      8       9.9372      2.00000
      9      10.3988      2.00000
     10      27.2918      0.00000
     11      28.1736      0.00000
     12      32.5427      0.00000
     13      33.4925      0.00000
     14      36.0712      0.00000
     15      38.1297      0.00000
     16      39.5929      0.00000
     17      43.2047      0.00000
     18      44.7423      0.00000
     19      48.5539      0.00000
     20      50.2724      0.00000
     21      51.7726      0.00000
     22      52.5654      0.00000
     23      54.9322      0.00000
     24      61.2113      0.00000

 k-point    10 :      -0.0500    0.0500    0.0500
  band No.  band energies     occupation 
      1     -40.6789      2.00000
      2     -40.6530      2.00000
      3     -40.6504      2.00000
      4       2.0893      2.00000
      5       7.9233      2.00000
      6       8.2859      2.00000
      7       8.2936      2.00000
      8      10.0472      2.00000
      9      10.3089      2.00000
     10      27.0497      0.00000
     11      30.0869      0.00000
     12      31.5888      0.00000
     13      31.8450      0.00000
     14      38.5255      0.00000
     15      40.6837      0.00000
     16      40.9740      0.00000
     17      42.9981      0.00000
     18      44.2008      0.00000
     19      48.1666      0.00000
     20      48.6402      0.00000
     21      51.6592      0.00000
     22      52.5672      0.00000
     23      53.9846      0.00000
     24      60.8447      0.00000

 k-point    11 :       0.1500    0.1500    0.0500
  band No.  band energies     occupation 
      1     -40.7199      2.00000
      2     -40.6688      2.00000
      3     -40.6653      2.00000
      4       2.6001      2.00000
      5       7.6194      2.00000
      6       8.5438      2.00000
      7       8.5503      2.00000
      8       9.7226      2.00000
      9      10.4564      2.00000
     10      27.7992      0.00000
     11      29.3760      0.00000
     12      31.4917      0.00000
     13      31.8680      0.00000
     14      38.3637      0.00000
     15      39.2258      0.00000
     16      41.0603      0.00000
     17      41.3458      0.00000
     18      43.6269      0.00000
     19      49.3969      0.00000
     20      50.2717      0.00000
     21      50.5046      0.00000
     22      52.5660      0.00000
     23      54.7828      0.00000
     24      61.9626      0.00000

 k-point    12 :       0.2500    0.1500    0.0500
  band No.  band energies     occupation 
      1     -40.8033      2.00000
      2     -40.6988      2.00000
      3     -40.6777      2.00000
      4       3.5230      2.00000
      5       7.2678      2.00000
      6       8.6565      2.00000
      7       8.9125      2.00000
      8       9.6150      2.00000
      9      10.7393      2.00000
     10      27.5934      0.00000
     11      28.7978      0.00000
     12      31.0948      0.00000
     13      32.3881      0.00000
     14      36.0193      0.00000
     15      38.3552      0.00000
     16      39.3664      0.00000
     17      43.0268      0.00000
     18      44.7640      0.00000
     19      48.4074      0.00000
     20      49.7128      0.00000
     21      52.5659      0.00000
     22      53.1382      0.00000
     23      56.1590      0.00000
     24      61.7287      0.00000

 k-point    13 :       0.3500    0.1500    0.0500
  band No.  band energies     occupation 
      1     -40.9221      2.00000
      2     -40.7261      2.00000
      3     -40.6974      2.00000
      4       4.6560      2.00000
      5       7.3071      2.00000
      6       8.2350      2.00000
      7       8.9221      2.00000
      8      10.4590      2.00000
      9      11.4666      2.00000
     10      24.2479      0.00000
     11      28.4458      0.00000
     12      30.4167      0.00000
     13      32.5605      0.00000
     14      36.5973      0.00000
     15      37.4805      0.00000
     16      39.4533      0.00000
     17      42.3619      0.00000
     18      48.0313      0.00000
     19      49.5544      0.00000
     20      50.0633      0.00000
     21      52.5695      0.00000
     22      53.3698      0.00000
     23      57.7537      0.00000
     24      59.6482      0.00000

[...]
     13      33.0763      0.00000
     14      37.8100      0.00000
     15      38.7192      0.00000
     16      42.2079      0.00000
     17      45.9927      0.00000
     18      47.3276      0.00000
     19      50.3191      0.00000
     20      52.1395      0.00000
     21      52.5759      0.00000
     22      54.1939      0.00000
     23      57.3111      0.00000
     24      58.2475      0.00000

 k-point   100 :      -0.3500   -0.3500    0.2500
  band No.  band energies     occupation 
      1     -41.0021      2.00000
      2     -40.9042      2.00000
      3     -40.7795      2.00000
      4       5.6876      2.00000
      5       6.4816      2.00000
      6       9.0069      2.00000
      7      10.5075      2.00000
      8      11.7258      1.99999
      9      17.5799      0.00000
     10      18.2588      0.00000
     11      22.2057      0.00000
     12      26.4953      0.00000
     13      31.6697      0.00000
     14      38.3142      0.00000
     15      39.2482      0.00000
     16      40.6011      0.00000
     17      48.1154      0.00000
     18      49.1374      0.00000
     19      49.2864      0.00000
     20      51.8800      0.00000
     21      52.5716      0.00000
     22      53.3612      0.00000
     23      56.1984      0.00000
     24      57.8995      0.00000

 k-point   101 :       0.3500    0.3500    0.3500
  band No.  band energies     occupation 
      1     -41.0050      2.00000
      2     -40.6957      2.00000
      3     -40.6957      2.00000
      4       4.5058      2.00000
      5       8.2791      2.00000
      6       8.2791      2.00000
      7       8.9168      2.00000
      8      11.1808      2.00000
      9      11.1808      2.00000
     10      21.4732      0.00000
     11      27.0339      0.00000
     12      32.6955      0.00000
     13      32.6955      0.00000
     14      37.2967      0.00000
     15      37.7344      0.00000
     16      37.7344      0.00000
     17      47.1287      0.00000
     18      47.1287      0.00000
     19      48.9299      0.00000
     20      52.5666      0.00000
     21      52.9931      0.00000
     22      54.4318      0.00000
     23      54.4318      0.00000
     24      60.3357      0.00000

 k-point   102 :       0.4500    0.3500    0.3500
  band No.  band energies     occupation 
      1     -41.0290      2.00000
      2     -40.7387      2.00000
      3     -40.6999      2.00000
      4       4.9186      2.00000
      5       8.0115      2.00000
      6       8.4200      2.00000
      7       8.9050      2.00000
      8      11.0201      2.00000
      9      12.5725      0.00000
     10      20.3721      0.00000
     11      27.0814      0.00000
     12      29.7599      0.00000
     13      32.6658      0.00000
     14      36.6842      0.00000
     15      39.4315      0.00000
     16      40.6198      0.00000
     17      44.7274      0.00000
     18      47.4202      0.00000
     19      50.2750      0.00000
     20      51.1851      0.00000
     21      52.5740      0.00000
     22      55.5713      0.00000
     23      56.2281      0.00000
     24      57.6499      0.00000

 k-point   103 :      -0.4500    0.3500    0.3500
  band No.  band energies     occupation 
      1     -41.0184      2.00000
      2     -40.8242      2.00000
      3     -40.7218      2.00000
      4       5.7844      2.00000
      5       7.4510      2.00000
      6       8.3382      2.00000
      7       9.0134      2.00000
      8      10.9828      2.00000
      9      14.4172      0.00000
     10      19.7613      0.00000
     11      25.6471      0.00000
     12      28.9137      0.00000
     13      31.2958      0.00000
     14      36.6467      0.00000
     15      39.4284      0.00000
     16      43.0918      0.00000
     17      46.0894      0.00000
     18      47.5539      0.00000
     19      48.9459      0.00000
     20      50.1929      0.00000
     21      52.5718      0.00000
     22      53.7546      0.00000
     23      57.7764      0.00000
     24      58.5036      0.00000

 k-point   104 :      -0.3500    0.3500    0.3500
  band No.  band energies     occupation 
      1     -40.9744      2.00000
      2     -40.9204      2.00000
      3     -40.7515      2.00000
      4       6.1319      2.00000
      5       7.1267      2.00000
      6       8.1140      2.00000
      7       9.8429      2.00000
      8      11.1878      2.00000
      9      15.9300      0.00000
     10      20.1362      0.00000
     11      22.3195      0.00000
     12      28.9123      0.00000
     13      30.3808      0.00000
     14      37.9783      0.00000
     15      39.0491      0.00000
     16      41.3352      0.00000
     17      48.2601      0.00000
     18      49.1824      0.00000
     19      49.2885      0.00000
     20      51.9576      0.00000
     21      52.2792      0.00000
     22      52.5822      0.00000
     23      54.3154      0.00000
     24      59.6694      0.00000

 k-point   105 :       0.4500    0.4500    0.3500
  band No.  band energies     occupation 
      1     -41.0555      2.00000
      2     -40.7274      2.00000
      3     -40.7194      2.00000
      4       4.9212      2.00000
      5       7.8828      2.00000
      6       8.4219      2.00000
      7       9.2193      2.00000
      8      11.8853      0.86737
      9      12.6336      0.00000
     10      19.1400      0.00000
     11      26.8564      0.00000
     12      30.2050      0.00000
     13      30.9052      0.00000
     14      38.6655      0.00000
     15      39.8488      0.00000
     16      40.6653      0.00000
     17      43.7492      0.00000
     18      48.9410      0.00000
     19      49.3277      0.00000
     20      51.8078      0.00000
     21      52.5742      0.00000
     22      55.5516      0.00000
     23      56.4195      0.00000
     24      57.3260      0.00000

 k-point   106 :      -0.4500    0.4500    0.3500
  band No.  band energies     occupation 
      1     -41.0478      2.00000
      2     -40.7898      2.00000
      3     -40.7319      2.00000
      4       5.4928      2.00000
      5       7.4376      2.00000
      6       8.6757      2.00000
      7       8.9238      2.00000
      8      11.6514      2.00000
      9      14.6223      0.00000
     10      18.2609      0.00000
     11      27.0680      0.00000
     12      27.8861      0.00000
     13      30.7609      0.00000
     14      38.0375      0.00000
     15      40.1681      0.00000
     16      43.0336      0.00000
     17      43.9075      0.00000
     18      47.7923      0.00000
     19      49.6944      0.00000
     20      50.5205      0.00000
     21      52.5696      0.00000
     22      53.9052      0.00000
     23      57.5586      0.00000
     24      59.0112      0.00000

 k-point   107 :      -0.3500    0.4500    0.3500
  band No.  band energies     occupation 
      1     -41.0084      2.00000
      2     -40.8730      2.00000
      3     -40.7599      2.00000
      4       6.2372      2.00000
      5       6.9332      2.00000
      6       8.0913      2.00000
      7       9.6214      2.00000
      8      11.5814      2.00000
      9      16.5912      0.00000
     10      18.1446      0.00000
     11      24.3811      0.00000
     12      27.0211      0.00000
     13      31.6040      0.00000
     14      37.3831      0.00000
     15      40.7116      0.00000
     16      42.2179      0.00000
     17      44.8793      0.00000
     18      46.7503      0.00000
     19      51.5806      0.00000
     20      52.1299      0.00000
     21      52.5743      0.00000
     22      52.6213      0.00000
     23      55.9909      0.00000
     24      58.5028      0.00000

 k-point   108 :      -0.4500   -0.4500    0.3500
  band No.  band energies     occupation 
      1     -41.0446      2.00000
      2     -40.8134      2.00000
      3     -40.7411      2.00000
      4       5.6347      2.00000
      5       7.2911      2.00000
      6       8.6441      2.00000
      7       9.0558      2.00000
      8      11.8021      1.97129
      9      15.7499      0.00000
     10      17.3419      0.00000
     11      26.2102      0.00000
     12      29.0975      0.00000
     13      29.2720      0.00000
     14      39.1516      0.00000
     15      39.4384      0.00000
     16      42.2831      0.00000
     17      44.7743      0.00000
     18      48.2065      0.00000
     19      49.8684      0.00000
     20      50.7033      0.00000
     21      52.5687      0.00000
     22      53.3961      0.00000
     23      56.8958      0.00000
     24      59.5589      0.00000

 k-point   109 :       0.4500    0.4500    0.4500
  band No.  band energies     occupation 
      1     -41.0860      2.00000
      2     -40.7077      2.00000
      3     -40.7077      2.00000
      4       4.6199      2.00000
      5       8.0911      2.00000
      6       8.0911      2.00000
      7      10.9497      2.00000
      8      11.8063      1.96152
      9      11.8063      1.96152
     10      18.2236      0.00000
     11      26.1749      0.00000
     12      30.9844      0.00000
     13      30.9844      0.00000
     14      39.6347      0.00000
     15      39.6347      0.00000
     16      40.5599      0.00000
     17      46.9928      0.00000
     18      46.9928      0.00000
     19      47.5581      0.00000
     20      52.5672      0.00000
     21      55.4041      0.00000
     22      55.4041      0.00000
     23      56.7881      0.00000
     24      57.3913      0.00000

 k-point   110 :      -0.4500    0.4500    0.4500
  band No.  band energies     occupation 
      1     -41.0804      2.00000
      2     -40.7407      2.00000
      3     -40.7158      2.00000
      4       4.9348      2.00000
      5       7.8271      2.00000
      6       8.3166      2.00000
      7       9.9315      2.00000
      8      11.7713      1.99777
      9      13.6594      0.00000
     10      17.5979      0.00000
     11      26.5810      0.00000
     12      29.5997      0.00000
     13      30.6136      0.00000
     14      39.3518      0.00000
     15      39.7427      0.00000
     16      42.1659      0.00000
     17      46.4374      0.00000
     18      47.2515      0.00000
     19      47.3628      0.00000
     20      52.5765      0.00000
     21      52.9834      0.00000
     22      53.6094      0.00000
     23      57.6483      0.00000
     24      58.1604      0.00000


--------------------------------------------------------------------------------------------------------


 soft charge-density along one line, spin component           1
         0         1         2         3         4         5         6         7         8         9
 total charge-density along one line
 
 pseudopotential strength for first ion, spin component:           1
-31.456  -0.000  -0.000  10.510   0.000   0.000  -0.000  -0.000
 -0.000 -31.456  -0.000   0.000  10.510   0.000   0.000  -0.000
 -0.000  -0.000 -31.456   0.000   0.000  10.510  -0.000   0.000
 10.510   0.000   0.000  16.339  -0.000  -0.000  -0.000   0.000
  0.000  10.510   0.000  -0.000  16.339  -0.000  -0.000   0.000
  0.000   0.000  10.510  -0.000  -0.000  16.339   0.000   0.000
 -0.000   0.000  -0.000  -0.000  -0.000   0.000  -3.569   0.000
 -0.000  -0.000   0.000   0.000   0.000   0.000   0.000  -3.569
  0.000  -0.000  -0.000   0.000   0.000  -0.000   0.000  -0.000
  0.000  -0.000  -0.000   0.000   0.000   0.000   0.000   0.000
  0.000  -0.000   0.000   0.000   0.000   0.000   0.000   0.000
 -0.000  -0.000  -0.000   0.000  -0.000   0.000  -3.781   0.000
 -0.000  -0.000   0.000   0.000   0.000   0.000   0.000  -3.781
  0.000  -0.000   0.000  -0.000   0.000  -0.000   0.000  -0.000
  0.000  -0.000  -0.000   0.000  -0.000   0.000   0.000   0.000
  0.000  -0.000   0.000  -0.000   0.000   0.000   0.000   0.000
  0.000   0.000   0.000   0.000  -0.000   0.000   0.000   0.000
 -0.000  -0.000  -0.000  -0.000  -0.000   0.000  -0.000  -0.000
 total augmentation occupancy for first ion, spin component:           1
  2.002   0.000   0.000  -0.021   0.000  -0.000   0.000   0.000   0.000   0.000   0.000   0.000   0.000   0.000   0.000   0.000
  0.000   2.002  -0.000   0.000  -0.021  -0.000   0.000   0.000   0.000   0.000   0.000   0.000   0.000   0.000   0.000   0.000
  0.000  -0.000   2.002   0.000  -0.000  -0.021   0.000   0.000   0.000   0.000   0.000   0.000   0.000   0.000   0.000   0.000
 -0.021   0.000  -0.000   0.050   0.000   0.000   0.000   0.000   0.000   0.000   0.000   0.000   0.000   0.000   0.000   0.000
 -0.000  -0.021  -0.000  -0.000   0.050   0.000   0.000   0.000   0.000   0.000   0.000   0.000   0.000   0.000   0.000   0.000
  0.000  -0.000  -0.021  -0.000   0.000   0.050   0.000   0.000   0.000   0.000   0.000   0.000   0.000   0.000   0.000   0.000
  0.000   0.000   0.000   0.000   0.000   0.000   5.438   0.000   0.000  -0.000   0.000  -3.093  -0.000   0.000   0.000  -0.000
  0.000   0.000   0.000   0.000   0.000   0.000   0.000   5.438   0.000  -0.000  -0.000  -0.000  -3.093   0.000   0.000   0.000
  0.000   0.000   0.000   0.000   0.000   0.000   0.000   0.000   4.485   0.000   0.000   0.000  -0.000  -2.469   0.000  -0.000
  0.000   0.000   0.000   0.000   0.000   0.000  -0.000  -0.000  -0.000   5.438  -0.000   0.000   0.000   0.000  -3.093   0.000
  0.000   0.000   0.000   0.000   0.000   0.000   0.000  -0.000   0.000   0.000   4.485  -0.000   0.000  -0.000   0.000  -2.469
  0.000   0.000   0.000   0.000   0.000   0.000  -3.093  -0.000   0.000   0.000  -0.000   2.488   0.000   0.000  -0.000  -0.000
  0.000   0.000   0.000   0.000   0.000   0.000  -0.000  -3.093   0.000   0.000   0.000   0.000   2.488   0.000  -0.000   0.000
  0.000   0.000   0.000   0.000   0.000   0.000   0.000  -0.000  -2.469   0.000  -0.000  -0.000  -0.000   2.307   0.000   0.000
  0.000   0.000   0.000   0.000   0.000   0.000   0.000   0.000   0.000  -3.093   0.000  -0.000  -0.000   0.000   2.488   0.000
  0.000   0.000   0.000   0.000   0.000   0.000  -0.000   0.000  -0.000   0.000  -2.469  -0.000   0.000   0.000  -0.000   2.307
  0.000   0.000   0.000   0.000   0.000   0.000   0.000  -0.000  -0.000  -0.000   0.000  -0.000  -0.000   0.000  -0.000  -0.000
  0.000   0.000   0.000   0.000   0.000   0.000   0.000   0.000   0.000  -0.000   0.000   0.000   0.000   0.000   0.000  -0.000


------------------------ aborting loop because EDIFF is reached ----------------------------------------





 total charge

# of ion       s       p       d       tot
------------------------------------------
    1        0.343   6.085   7.067  13.496
 
    CHARGE:  cpu time      0.0175: real time      0.0175
    FORLOC:  cpu time      0.0001: real time      0.0001
    FORNL :  cpu time      0.0062: real time      0.0062
    STRESS:  cpu time      0.1164: real time      0.1169
    FORCOR:  cpu time      0.0019: real time      0.0019
    FORHAR:  cpu time      0.0004: real time      0.0004
    MIXING:  cpu time      0.0002: real time      0.0002
    OFIELD:  cpu time      0.0000: real time      0.0000

  FORCE on cell =-STRESS in cart. coord.  units (eV):
  Direction    XX          YY          ZZ          XY          YZ          ZX
  --------------------------------------------------------------------------------------
  Alpha Z   157.44158   157.44158   157.44158
  Ewald    -715.75038  -715.75038  -715.75038    -0.00000    -0.00000     0.00000
  Hartree   125.81306   125.81306   125.81306     0.00000     0.00000     0.00000
  E(xc)     -85.54714   -85.54714   -85.54714     0.00000     0.00000     0.00000
  Local     125.64371   125.64371   125.64371     0.00000     0.00000     0.00000
  n-local   -29.87171   -27.17156   -32.61386     3.30466    -3.09478     0.17066
  augment    73.32640    73.32640    73.32640     0.00000     0.00000     0.00000
  Kinetic   348.54274   353.82878   345.81028     4.50610    -3.84127    -0.55715
  Fock        0.00000     0.00000     0.00000     0.00000     0.00000     0.00000
  -------------------------------------------------------------------------------------
  Total       0.43546     0.43546     0.43546    -0.00000     0.00000    -0.00000
  in kB      45.78115    45.78115    45.78115    -0.00000     0.00000    -0.00000
  external pressure =       45.78 kB  Pullay stress =        0.00 kB


 VOLUME and BASIS-vectors are now :
 -----------------------------------------------------------------------------
  energy-cutoff  :      425.00
  volume of cell :       15.24
      direct lattice vectors                 reciprocal lattice vectors
     0.000000000  1.967793378  1.967793378    -0.254091718  0.254091718  0.254091718
     1.967793378  0.000000000  1.967793378     0.254091718 -0.254091718  0.254091718
     1.967793378  1.967793378  0.000000000     0.254091718  0.254091718 -0.254091718

  length of vectors
     2.782880084  2.782880084  2.782880084     0.440099765  0.440099765  0.440099765


 FORCES acting on ions
    electron-ion (+dipol)            ewald-force                    non-local-force                 convergence-correction
 -----------------------------------------------------------------------------------------------
   -.622E-14 -.701E-14 -.312E-15   -.152E-14 -.105E-14 -.332E-14   -.323E-26 0.129E-25 -.129E-25   -.222E-13 -.701E-13 -.149E-13
 -----------------------------------------------------------------------------------------------
   -.622E-14 -.701E-14 -.312E-15   -.152E-14 -.105E-14 -.332E-14   -.323E-26 0.129E-25 -.129E-25   -.222E-13 -.701E-13 -.149E-13
 
 
 POSITION                                       TOTAL-FORCE (eV/Angst)
 -----------------------------------------------------------------------------------
      0.00000      0.00000      0.00000         0.000000      0.000000      0.000000
 -----------------------------------------------------------------------------------
    total drift:                               -0.000000     -0.000000     -0.000000


--------------------------------------------------------------------------------------------------------



  FREE ENERGIE OF THE ION-ELECTRON SYSTEM (eV)
  ---------------------------------------------------
  free  energy   TOTEN  =        -6.07289970 eV

  energy  without entropy=       -6.07046050  energy(sigma->0) =       -6.07168010
 


--------------------------------------------------------------------------------------------------------


    POTLOK:  cpu time      0.0046: real time      0.0046


--------------------------------------------------------------------------------------------------------




--------------------------------------------------------------------------------------------------------


  
 reached required accuracy - stopping structural energy minimisation
 writing wavefunctions
     LOOP+:  cpu time      7.4782: real time      7.7303
    4ORBIT:  cpu time      0.0000: real time      0.0000



 total charge

# of ion       s       p       d       tot
------------------------------------------
    1        0.343   6.085   7.067  13.496
 

 total amount of memory used by VASP MPI-rank0    36607. kBytes
=======================================================================

   base      :      30000. kBytes
   nonl-proj :       5327. kBytes
   fftplans  :        147. kBytes
   grid      :        485. kBytes
   one-center:         15. kBytes
   wavefun   :        633. kBytes
 
  
  
 General timing and accounting informations for this job:
 ========================================================
  
                  Total CPU time used (sec):        8.623
                            User time (sec):        8.121
                          System time (sec):        0.503
                         Elapsed time (sec):       10.146
  
                   Maximum memory used (kb):      223236.
                   Average memory used (kb):          N/A
  
                          Minor page faults:        26839
                          Major page faults:           84
                 Voluntary context switches:         2154
