   1   1   0   0
  0.1081089E+02  0.2481945E-09  0.2481945E-09  0.2481945E-09  0.5000000E-15
  1.000000000000000E-004
  CAR 
 Co fcc                                  
     53.32929367     -0.81666677  301     10.39882145      1.00000000
     -0.817  0.0000E+00  0.0000E+00  0.0000E+00  0.0000E+00
     -0.636  0.0000E+00  0.0000E+00  0.0000E+00  0.0000E+00
     -0.456  0.0000E+00  0.0000E+00  0.0000E+00  0.0000E+00
     -0.275  0.0000E+00  0.0000E+00  0.0000E+00  0.0000E+00
     -0.095 -0.1807E-33 -0.4058E-34 -0.3262E-34 -0.7323E-35
      0.086 -0.4701E-27 -0.1234E-27 -0.8485E-28 -0.2227E-28
      0.266 -0.2367E-21 -0.7267E-22 -0.4272E-22 -0.1312E-22
      0.447 -0.2297E-16 -0.8254E-17 -0.4146E-17 -0.1490E-17
      0.627 -0.4113E-12 -0.1732E-12 -0.7423E-13 -0.3127E-13
      0.808 -0.1427E-08 -0.7053E-09 -0.2576E-09 -0.1273E-09
      0.988 -0.9091E-06 -0.5292E-06 -0.1643E-06 -0.9563E-07
      1.169 -0.9930E-04 -0.6878E-04 -0.1809E-04 -0.1251E-04
      1.349 -0.1371E-02 -0.1202E-02 -0.2655E-03 -0.2295E-03
      1.530  0.6184E-02  0.4081E-02  0.8506E-03  0.5070E-03
      1.710  0.3437E-01  0.3302E-01  0.7053E-02  0.6466E-02
      1.891  0.1366E-01  0.1701E-01  0.9518E-02  0.9536E-02
      2.071 -0.5969E-02 -0.5171E-02  0.8441E-02  0.8602E-02
      2.252  0.2339E-01  0.1360E-01  0.1266E-01  0.1106E-01
      2.432  0.1047E+00  0.1004E+00  0.3156E-01  0.2918E-01
      2.613  0.3455E-01  0.4836E-01  0.3780E-01  0.3791E-01
      2.793 -0.8753E-02 -0.9107E-02  0.3622E-01  0.3626E-01
      2.974  0.5384E-01  0.3125E-01  0.4594E-01  0.4190E-01
      3.154  0.9703E-01  0.1051E+00  0.6345E-01  0.6087E-01
      3.335  0.4911E-02  0.2385E-01  0.6434E-01  0.6518E-01
      3.515  0.2881E-01 -0.3525E-02  0.6953E-01  0.6454E-01
      3.695  0.1377E+00  0.1052E+00  0.9438E-01  0.8352E-01
      3.876  0.4066E-01  0.1024E+00  0.1017E+00  0.1020E+00
      4.056  0.1915E-01 -0.8848E-02  0.1052E+00  0.1004E+00
      4.237  0.1943E+00  0.8263E-01  0.1402E+00  0.1153E+00
      4.417  0.1171E+00  0.2036E+00  0.1614E+00  0.1521E+00
      4.598  0.8858E-01  0.3634E-01  0.1774E+00  0.1586E+00
      4.778  0.4716E-01  0.6967E-01  0.1859E+00  0.1712E+00
      4.959  0.1254E+00  0.7381E-01  0.2085E+00  0.1845E+00
      5.139  0.3177E+00  0.1086E-01  0.2658E+00  0.1865E+00
      5.320  0.4940E+00  0.1501E+00  0.3550E+00  0.2136E+00
      5.500  0.6038E+00  0.1760E+00  0.4640E+00  0.2453E+00
      5.681  0.6525E+00  0.1716E+00  0.5817E+00  0.2763E+00
      5.861  0.6468E+00  0.2456E+00  0.6985E+00  0.3206E+00
      6.042  0.9132E+00  0.1434E+00  0.8633E+00  0.3465E+00
      6.222  0.9827E+00  0.2081E+00  0.1041E+01  0.3841E+00
      6.403  0.8793E+00  0.4342E+00  0.1199E+01  0.4625E+00
      6.583  0.8544E+00  0.4854E+00  0.1354E+01  0.5501E+00
      6.764  0.8695E+00  0.5231E+00  0.1511E+01  0.6445E+00
      6.944  0.6567E+00  0.3658E+00  0.1629E+01  0.7105E+00
      7.125  0.9485E+00  0.4158E+00  0.1800E+01  0.7855E+00
      7.305  0.1115E+01  0.8199E+00  0.2001E+01  0.9335E+00
      7.486  0.1195E+01  0.7858E+00  0.2217E+01  0.1075E+01
      7.666  0.1293E+01  0.7099E+00  0.2450E+01  0.1203E+01
      7.847  0.1559E+01  0.7111E+00  0.2732E+01  0.1332E+01
      8.027  0.1690E+01  0.8116E+00  0.3037E+01  0.1478E+01
      8.208  0.1046E+01  0.5849E+00  0.3226E+01  0.1584E+01
      8.388  0.8880E+00  0.6141E+00  0.3386E+01  0.1695E+01
      8.569  0.1242E+01  0.1008E+01  0.3610E+01  0.1877E+01
      8.749  0.1474E+01  0.1203E+01  0.3876E+01  0.2094E+01
      8.930  0.9375E+00  0.7939E+00  0.4045E+01  0.2237E+01
      9.110  0.1074E+01  0.9449E+00  0.4239E+01  0.2408E+01
      9.291  0.1165E+01  0.1084E+01  0.4449E+01  0.2603E+01
      9.471  0.1437E+01  0.1087E+01  0.4709E+01  0.2799E+01
      9.652  0.1764E+01  0.1305E+01  0.5027E+01  0.3035E+01
      9.832  0.9294E+00  0.9839E+00  0.5195E+01  0.3213E+01
     10.013  0.2908E+00  0.7301E+00  0.5247E+01  0.3344E+01
     10.193  0.1316E+00  0.6983E+00  0.5271E+01  0.3470E+01
     10.373  0.3031E+00  0.9177E+00  0.5326E+01  0.3636E+01
     10.554  0.1602E+00  0.1227E+01  0.5355E+01  0.3857E+01
     10.734  0.6082E-01  0.7184E+00  0.5366E+01  0.3987E+01
     10.915  0.9592E-01  0.1123E+01  0.5383E+01  0.4190E+01
     11.095  0.8740E-01  0.1249E+01  0.5399E+01  0.4415E+01
     11.276  0.1444E+00  0.8750E+00  0.5425E+01  0.4573E+01
     11.456  0.3441E+00  0.1608E+01  0.5487E+01  0.4863E+01
     11.637  0.2304E+00  0.1460E+01  0.5529E+01  0.5127E+01
     11.817 -0.7180E-02  0.7294E+00  0.5527E+01  0.5258E+01
     11.998  0.4602E-01  0.4890E+00  0.5536E+01  0.5347E+01
     12.178  0.2098E+00  0.3011E+00  0.5573E+01  0.5401E+01
     12.359  0.6091E-01  0.7372E-01  0.5584E+01  0.5414E+01
     12.539 -0.2139E-02  0.3547E-01  0.5584E+01  0.5421E+01
     12.720  0.1361E+00  0.1928E+00  0.5609E+01  0.5456E+01
     12.900  0.1702E+00  0.2185E+00  0.5639E+01  0.5495E+01
     13.081  0.1731E+00  0.1875E+00  0.5671E+01  0.5529E+01
     13.261  0.1272E+00  0.1942E+00  0.5693E+01  0.5564E+01
     13.442 -0.9825E-02  0.1660E+00  0.5692E+01  0.5594E+01
     13.622  0.2198E+00  0.1498E+00  0.5731E+01  0.5621E+01
     13.803  0.3837E+00  0.1689E+00  0.5801E+01  0.5651E+01
     13.983  0.4120E-01  0.8231E-01  0.5808E+01  0.5666E+01
     14.164 -0.1889E-01  0.3941E-01  0.5805E+01  0.5673E+01
     14.344  0.7723E-02  0.8475E-01  0.5806E+01  0.5689E+01
     14.525  0.1768E+00  0.1686E+00  0.5838E+01  0.5719E+01
     14.705  0.1359E+00  0.3910E+00  0.5863E+01  0.5790E+01
     14.886 -0.4651E-02  0.9503E-01  0.5862E+01  0.5807E+01
     15.066 -0.8209E-02  0.5259E-01  0.5860E+01  0.5816E+01
     15.247  0.3548E-03  0.2080E+00  0.5860E+01  0.5854E+01
     15.427  0.1787E+00  0.4984E-01  0.5893E+01  0.5863E+01
     15.608  0.2464E+00 -0.8990E-02  0.5937E+01  0.5861E+01
     15.788  0.5042E-01 -0.3442E-02  0.5946E+01  0.5861E+01
     15.969 -0.8476E-02 -0.1267E-01  0.5945E+01  0.5858E+01
     16.149 -0.9113E-02  0.1341E+00  0.5943E+01  0.5883E+01
     16.330  0.3284E-01  0.3009E+00  0.5949E+01  0.5937E+01
     16.510  0.1997E+00  0.5462E-01  0.5985E+01  0.5947E+01
     16.691  0.1080E+00 -0.1369E-01  0.6004E+01  0.5944E+01
     16.871  0.1046E+00 -0.9548E-02  0.6023E+01  0.5943E+01
     17.052  0.1353E+00  0.1012E+00  0.6048E+01  0.5961E+01
     17.232  0.1974E+00  0.1992E+00  0.6083E+01  0.5997E+01
     17.412  0.1484E+00  0.2353E-01  0.6110E+01  0.6001E+01
     17.593  0.4175E-01 -0.1203E-01  0.6118E+01  0.5999E+01
     17.773  0.2010E+00  0.8049E-01  0.6154E+01  0.6013E+01
     17.954  0.8007E-01  0.2328E+00  0.6168E+01  0.6055E+01
     18.134  0.5981E-01  0.2526E+00  0.6179E+01  0.6101E+01
     18.315  0.1579E+00  0.1439E+00  0.6208E+01  0.6127E+01
     18.495  0.2151E+00  0.1899E+00  0.6246E+01  0.6161E+01
     18.676  0.1392E+00  0.5672E-01  0.6272E+01  0.6171E+01
     18.856  0.1943E+00  0.1068E+00  0.6307E+01  0.6191E+01
     19.037  0.6143E-01  0.7540E-01  0.6318E+01  0.6204E+01
     19.217  0.1743E+00  0.2356E+00  0.6349E+01  0.6247E+01
     19.398  0.1165E+00  0.3222E+00  0.6370E+01  0.6305E+01
     19.578  0.4319E-01  0.5776E-01  0.6378E+01  0.6315E+01
     19.759  0.2068E+00  0.8376E-01  0.6415E+01  0.6331E+01
     19.939  0.6568E-01  0.1900E+00  0.6427E+01  0.6365E+01
     20.120 -0.1226E-03  0.5068E-01  0.6427E+01  0.6374E+01
     20.300  0.8858E-01  0.1850E+00  0.6443E+01  0.6407E+01
     20.481  0.4809E-01  0.1122E+00  0.6452E+01  0.6428E+01
     20.661  0.2698E+00 -0.1237E-01  0.6501E+01  0.6425E+01
     20.842  0.3456E+00  0.3514E-01  0.6563E+01  0.6432E+01
     21.022  0.2223E-01  0.8975E-01  0.6567E+01  0.6448E+01
     21.203  0.1523E+00  0.1075E+00  0.6594E+01  0.6467E+01
     21.383  0.1522E+00  0.3309E+00  0.6622E+01  0.6527E+01
     21.564  0.3179E+00  0.1880E+00  0.6679E+01  0.6561E+01
     21.744  0.3892E+00  0.1587E+00  0.6750E+01  0.6590E+01
     21.925  0.8255E-01  0.1667E+00  0.6764E+01  0.6620E+01
     22.105  0.1782E+00  0.2448E+00  0.6797E+01  0.6664E+01
     22.286  0.2303E+00  0.3881E+00  0.6838E+01  0.6734E+01
     22.466  0.1714E+00  0.2494E+00  0.6869E+01  0.6779E+01
     22.647  0.7714E-01  0.1782E+00  0.6883E+01  0.6811E+01
     22.827  0.7979E-01  0.1371E+00  0.6897E+01  0.6836E+01
     23.008 -0.2940E-02  0.1802E+00  0.6897E+01  0.6868E+01
     23.188  0.9945E-01  0.8952E-01  0.6915E+01  0.6885E+01
     23.369  0.3301E+00  0.7009E-01  0.6974E+01  0.6897E+01
     23.549  0.2990E+00  0.1160E-03  0.7028E+01  0.6897E+01
     23.730  0.3970E+00  0.2190E+00  0.7100E+01  0.6937E+01
     23.910  0.2212E+00  0.3479E+00  0.7140E+01  0.7000E+01
     24.090  0.1451E+00  0.3958E+00  0.7166E+01  0.7071E+01
     24.271  0.5534E-01  0.4067E+00  0.7176E+01  0.7144E+01
     24.451 -0.9989E-03  0.5509E-01  0.7176E+01  0.7154E+01
     24.632  0.1519E+00  0.9040E-01  0.7203E+01  0.7171E+01
     24.812  0.1868E+00  0.2252E-01  0.7237E+01  0.7175E+01
     24.993  0.4366E+00  0.4198E-01  0.7316E+01  0.7182E+01
     25.173  0.4017E+00  0.2954E+00  0.7388E+01  0.7236E+01
     25.354  0.9669E-01  0.4417E+00  0.7406E+01  0.7315E+01
     25.534  0.5419E-01  0.3347E+00  0.7416E+01  0.7376E+01
     25.715  0.2454E+00  0.1358E+00  0.7460E+01  0.7400E+01
     25.895  0.3839E+00  0.9456E-01  0.7529E+01  0.7417E+01
     26.076  0.4565E+00  0.2715E+00  0.7612E+01  0.7466E+01
     26.256  0.2412E+00  0.3008E+00  0.7655E+01  0.7521E+01
     26.437  0.1177E+00  0.4625E+00  0.7676E+01  0.7604E+01
     26.617  0.4311E-01  0.2909E+00  0.7684E+01  0.7657E+01
     26.798  0.9066E-01  0.1122E+00  0.7701E+01  0.7677E+01
     26.978  0.2197E+00  0.5802E-01  0.7740E+01  0.7687E+01
     27.159  0.2447E+00  0.1533E+00  0.7784E+01  0.7715E+01
     27.339  0.3553E+00  0.1906E+00  0.7848E+01  0.7749E+01
     27.520  0.1836E+00  0.2538E+00  0.7882E+01  0.7795E+01
     27.700 -0.1045E-01  0.3311E+00  0.7880E+01  0.7855E+01
     27.881  0.8939E-01  0.1450E+00  0.7896E+01  0.7881E+01
     28.061  0.2831E+00  0.1632E-01  0.7947E+01  0.7884E+01
     28.242  0.2339E+00  0.1175E+00  0.7989E+01  0.7905E+01
     28.422  0.3698E-01  0.2466E+00  0.7996E+01  0.7950E+01
     28.603  0.1382E+00  0.2131E+00  0.8021E+01  0.7988E+01
     28.783  0.3468E+00  0.6236E-01  0.8083E+01  0.7999E+01
     28.964  0.3852E+00  0.2744E+00  0.8153E+01  0.8049E+01
     29.144  0.1915E+00  0.4360E+00  0.8187E+01  0.8128E+01
     29.325  0.1379E+00  0.2276E+00  0.8212E+01  0.8169E+01
     29.505  0.1718E+00  0.2053E+00  0.8243E+01  0.8206E+01
     29.686  0.2678E+00  0.1413E+00  0.8292E+01  0.8231E+01
     29.866  0.3600E-01  0.1817E+00  0.8298E+01  0.8264E+01
     30.047 -0.1009E-01  0.1755E+00  0.8296E+01  0.8296E+01
     30.227 -0.8797E-02  0.8480E-02  0.8295E+01  0.8297E+01
     30.408 -0.3132E-02 -0.1099E-01  0.8294E+01  0.8295E+01
     30.588  0.3072E+00  0.5442E-02  0.8350E+01  0.8296E+01
     30.768  0.4137E+00  0.1591E+00  0.8424E+01  0.8325E+01
     30.949  0.1082E+00  0.5237E+00  0.8444E+01  0.8420E+01
     31.129  0.2141E+00  0.2605E+00  0.8482E+01  0.8467E+01
     31.310  0.3207E+00 -0.1926E-01  0.8540E+01  0.8463E+01
     31.490  0.3790E+00  0.2010E+00  0.8609E+01  0.8499E+01
     31.671  0.2778E+00  0.3457E+00  0.8659E+01  0.8562E+01
     31.851 -0.8195E-02  0.3573E+00  0.8657E+01  0.8626E+01
     32.032  0.1262E+00  0.3115E+00  0.8680E+01  0.8682E+01
     32.212  0.4152E+00  0.1674E+00  0.8755E+01  0.8713E+01
     32.393  0.3605E+00  0.1937E+00  0.8820E+01  0.8748E+01
     32.573  0.8728E-01  0.3513E+00  0.8836E+01  0.8811E+01
     32.754  0.1289E-01  0.1778E+00  0.8838E+01  0.8843E+01
     32.934  0.3680E-01 -0.8360E-02  0.8845E+01  0.8842E+01
     33.115  0.2909E+00  0.6584E-01  0.8897E+01  0.8853E+01
     33.295  0.2690E+00  0.2206E+00  0.8946E+01  0.8893E+01
     33.476  0.1037E+00  0.2263E+00  0.8965E+01  0.8934E+01
     33.656  0.3216E+00  0.1989E+00  0.9023E+01  0.8970E+01
     33.837  0.2861E+00  0.2808E+00  0.9074E+01  0.9021E+01
     34.017  0.3335E+00  0.2675E+00  0.9135E+01  0.9069E+01
     34.198  0.4340E+00  0.3103E+00  0.9213E+01  0.9125E+01
     34.378  0.2596E+00  0.6065E+00  0.9260E+01  0.9234E+01
     34.559  0.1574E+00  0.1977E+00  0.9288E+01  0.9270E+01
     34.739  0.4147E-01  0.6539E-02  0.9296E+01  0.9271E+01
     34.920  0.3703E+00  0.9582E-01  0.9362E+01  0.9289E+01
     35.100  0.5643E+00  0.5209E+00  0.9464E+01  0.9383E+01
     35.281  0.3342E+00  0.6038E+00  0.9525E+01  0.9492E+01
     35.461  0.3166E+00  0.2438E+00  0.9582E+01  0.9536E+01
     35.642  0.1254E+00  0.1209E+00  0.9604E+01  0.9557E+01
     35.822  0.7322E-01  0.1109E+00  0.9618E+01  0.9577E+01
     36.003  0.1241E+00  0.1244E+00  0.9640E+01  0.9600E+01
     36.183  0.1737E+00  0.4601E-01  0.9671E+01  0.9608E+01
     36.364  0.1617E+00  0.1602E+00  0.9701E+01  0.9637E+01
     36.544  0.3168E+00  0.2475E+00  0.9758E+01  0.9682E+01
     36.725  0.3380E+00  0.4258E+00  0.9819E+01  0.9759E+01
     36.905  0.3139E+00  0.3631E+00  0.9875E+01  0.9824E+01
     37.086  0.1598E+00  0.2159E+00  0.9904E+01  0.9863E+01
     37.266  0.9498E-01  0.1761E+00  0.9921E+01  0.9895E+01
     37.446  0.8219E-01  0.1531E+00  0.9936E+01  0.9923E+01
     37.627  0.2272E+00  0.6558E-01  0.9977E+01  0.9934E+01
     37.807  0.3856E+00  0.3381E+00  0.1005E+02  0.9995E+01
     37.988  0.6381E-01  0.3336E+00  0.1006E+02  0.1006E+02
     38.168 -0.1787E-01  0.9617E-02  0.1006E+02  0.1006E+02
     38.349  0.2430E-01 -0.1146E-01  0.1006E+02  0.1006E+02
     38.529  0.5821E-01  0.1139E-02  0.1007E+02  0.1006E+02
     38.710  0.7583E-01  0.5509E-01  0.1008E+02  0.1007E+02
     38.890  0.2651E+00  0.3413E-01  0.1013E+02  0.1007E+02
     39.071  0.4379E+00  0.5457E-01  0.1021E+02  0.1008E+02
     39.251  0.3188E+00  0.3758E+00  0.1027E+02  0.1015E+02
     39.432  0.3080E-01  0.3407E+00  0.1027E+02  0.1021E+02
     39.612  0.6924E-01  0.3015E+00  0.1029E+02  0.1027E+02
     39.793  0.1339E+00  0.1324E+00  0.1031E+02  0.1029E+02
     39.973  0.7278E+00  0.1096E+00  0.1044E+02  0.1031E+02
     40.154  0.7236E+00  0.4863E+00  0.1057E+02  0.1040E+02
     40.334  0.2851E+00  0.1006E+01  0.1062E+02  0.1058E+02
     40.515  0.1630E+00  0.3583E+00  0.1065E+02  0.1064E+02
     40.695  0.1828E-01  0.6416E-01  0.1066E+02  0.1065E+02
     40.876  0.8185E-01  0.1163E-01  0.1067E+02  0.1066E+02
     41.056  0.2628E+00  0.2833E-01  0.1072E+02  0.1066E+02
     41.237  0.1577E+00  0.2102E+00  0.1075E+02  0.1070E+02
     41.417  0.2903E+00  0.1973E+00  0.1080E+02  0.1074E+02
     41.598  0.2303E+00  0.3155E+00  0.1084E+02  0.1079E+02
     41.778  0.2476E+00  0.2683E+00  0.1089E+02  0.1084E+02
     41.959  0.3252E+00  0.7863E-01  0.1094E+02  0.1085E+02
     42.139  0.2270E+00  0.3653E+00  0.1099E+02  0.1092E+02
     42.320  0.1938E+00  0.3828E+00  0.1102E+02  0.1099E+02
     42.500  0.2073E+00  0.1416E+00  0.1106E+02  0.1102E+02
     42.681  0.2815E+00  0.2001E+00  0.1111E+02  0.1105E+02
     42.861  0.1230E+00  0.2317E+00  0.1113E+02  0.1109E+02
     43.042  0.3321E-01  0.1079E+00  0.1114E+02  0.1111E+02
     43.222  0.5541E-01  0.8878E-01  0.1115E+02  0.1113E+02
     43.403  0.4261E+00  0.2473E+00  0.1122E+02  0.1117E+02
     43.583  0.3341E+00  0.4355E+00  0.1128E+02  0.1125E+02
     43.764  0.1309E+00  0.1552E+00  0.1131E+02  0.1128E+02
     43.944  0.2556E+00 -0.3208E-01  0.1135E+02  0.1127E+02
     44.124  0.3925E+00  0.1080E+00  0.1142E+02  0.1129E+02
     44.305  0.2418E+00  0.5542E+00  0.1147E+02  0.1139E+02
     44.485  0.2809E-01  0.4146E+00  0.1147E+02  0.1147E+02
     44.666  0.2170E+00  0.4197E-01  0.1151E+02  0.1148E+02
     44.846  0.2272E+00  0.8197E-01  0.1155E+02  0.1149E+02
     45.027  0.3944E-01  0.5169E-01  0.1156E+02  0.1150E+02
     45.207  0.2856E+00  0.9387E-01  0.1161E+02  0.1152E+02
     45.388  0.1634E+00  0.2378E+00  0.1164E+02  0.1156E+02
     45.568 -0.1293E-01  0.2644E+00  0.1164E+02  0.1161E+02
     45.749 -0.1265E-01  0.1712E+00  0.1164E+02  0.1164E+02
     45.929  0.5001E-01  0.5692E-02  0.1165E+02  0.1164E+02
     46.110  0.1998E+00 -0.1017E-01  0.1168E+02  0.1164E+02
     46.290  0.2584E+00 -0.4671E-02  0.1173E+02  0.1164E+02
     46.471  0.4457E+00  0.1838E+00  0.1181E+02  0.1167E+02
     46.651  0.1396E+00  0.2645E+00  0.1183E+02  0.1172E+02
     46.832  0.1294E-02  0.2614E-01  0.1183E+02  0.1172E+02
     47.012  0.4355E+00 -0.2584E-02  0.1191E+02  0.1172E+02
     47.193  0.4543E+00  0.1834E+00  0.1200E+02  0.1176E+02
     47.373  0.4133E-01  0.2931E+00  0.1200E+02  0.1181E+02
     47.554 -0.1396E-01  0.1462E+00  0.1200E+02  0.1183E+02
     47.734 -0.1085E-02 -0.4010E-02  0.1200E+02  0.1183E+02
     47.915 -0.1340E-04 -0.7726E-02  0.1200E+02  0.1183E+02
     48.095 -0.3086E-07 -0.8050E-02  0.1200E+02  0.1183E+02
     48.276 -0.1350E-10  0.1591E+00  0.1200E+02  0.1186E+02
     48.456 -0.1128E-14  0.2738E+00  0.1200E+02  0.1191E+02
     48.637  0.0000E+00  0.5889E-01  0.1200E+02  0.1192E+02
     48.817  0.0000E+00  0.8813E-01  0.1200E+02  0.1194E+02
     48.998  0.0000E+00  0.5268E-01  0.1200E+02  0.1195E+02
     49.178  0.0000E+00 -0.4101E-02  0.1200E+02  0.1194E+02
     49.359  0.0000E+00 -0.1094E-02  0.1200E+02  0.1194E+02
     49.539  0.0000E+00 -0.2078E-04  0.1200E+02  0.1194E+02
     49.720  0.0000E+00 -0.6369E-07  0.1200E+02  0.1194E+02
     49.900  0.0000E+00 -0.7571E-08  0.1200E+02  0.1194E+02
     50.081  0.0000E+00 -0.4222E-05  0.1200E+02  0.1194E+02
     50.261  0.0000E+00 -0.4084E-03  0.1200E+02  0.1194E+02
     50.442  0.0000E+00 -0.5222E-02  0.1200E+02  0.1194E+02
     50.622  0.0000E+00  0.1983E-01  0.1200E+02  0.1195E+02
     50.802  0.0000E+00  0.1470E+00  0.1200E+02  0.1197E+02
     50.983  0.0000E+00  0.1378E+00  0.1200E+02  0.1200E+02
     51.163  0.0000E+00  0.1382E-01  0.1200E+02  0.1200E+02
     51.344  0.0000E+00 -0.4710E-02  0.1200E+02  0.1200E+02
     51.524  0.0000E+00 -0.3057E-03  0.1200E+02  0.1200E+02
     51.705  0.0000E+00 -0.2745E-05  0.1200E+02  0.1200E+02
     51.885  0.0000E+00 -0.4288E-08  0.1200E+02  0.1200E+02
     52.066  0.0000E+00 -0.1234E-11  0.1200E+02  0.1200E+02
     52.246  0.0000E+00 -0.6835E-16  0.1200E+02  0.1200E+02
     52.427  0.0000E+00  0.0000E+00  0.1200E+02  0.1200E+02
     52.607  0.0000E+00  0.0000E+00  0.1200E+02  0.1200E+02
     52.788  0.0000E+00  0.0000E+00  0.1200E+02  0.1200E+02
     52.968  0.0000E+00  0.0000E+00  0.1200E+02  0.1200E+02
     53.149  0.0000E+00  0.0000E+00  0.1200E+02  0.1200E+02
     53.329  0.0000E+00  0.0000E+00  0.1200E+02  0.1200E+02
