    1    1    1    2
  0.1081089E+02  0.2481945E-09  0.2481945E-09  0.2481945E-09  0.5000000E-15
  1.000000000000000E-004
  CAR 
 Co fcc                                  
      9     28     12
 
  0.8333333E-01  0.8333333E-01  0.8333333E-01  0.9259259E-02
      1          1.644513        1.661720   1.000000   1.000000
      2          7.583316        9.182651   1.000000   1.000000
      3          7.723319        9.352956   1.000000   1.000000
      4          7.723319        9.352956   1.000000   1.000000
      5          8.701934       10.675684   1.000000  -0.032330
      6          8.701934       10.675684   1.000000  -0.032330
      7         32.708574       32.585033   0.000000   0.000000
      8         35.440098       35.480143   0.000000   0.000000
      9         37.402105       37.626531   0.000000   0.000000
     10         37.402105       37.626531   0.000000   0.000000
     11         41.750701       41.921893   0.000000   0.000000
     12         41.751113       41.984582   0.000000   0.000000
 
  0.2500000E+00  0.8333333E-01  0.8333333E-01  0.2777778E-01
      1          3.017127        3.058136   1.000000   1.000000
      2          7.265040        8.757597   1.000000   1.000000
      3          7.874749        9.541436   1.000000   1.000000
      4          7.965313        9.641557   1.000000   1.000001
      5          8.500292       10.411778   1.000000   0.445302
      6          8.977648       10.914268   1.000000  -0.000814
      7         28.017380       28.345465   0.000000   0.000000
      8         31.474840       31.637209   0.000000   0.000000
      9         36.601771       36.601577   0.000000   0.000000
     10         39.025621       39.225553   0.000000   0.000000
     11         39.530428       39.512748   0.000000   0.000000
     12         41.072145       41.367998   0.000000   0.000000
 
  0.4166667E+00  0.8333333E-01  0.8333333E-01  0.2777778E-01
      1          5.049002        5.565103   1.000000   1.000000
      2          7.583527        8.748277   1.000000   1.000000
      3          7.749881        9.277292   1.000000   1.000000
      4          7.819962        9.489493   1.000000   1.000000
      5          9.144400       11.025855   1.000000  -0.000043
      6          9.947027       11.709014   1.003174  -0.000000
      7         20.260459       20.912991   0.000000   0.000000
      8         30.584158       30.692197   0.000000   0.000000
      9         34.378034       34.427806   0.000000   0.000000
     10         36.431908       36.777737   0.000000   0.000000
     11         38.933265       39.228904   0.000000   0.000000
     12         40.435078       40.598719   0.000000   0.000000
 
 -0.4166667E+00  0.8333333E-01  0.8333333E-01  0.2777778E-01
      1          5.315302        6.255285   1.000000   1.000000
      2          7.407467        9.021928   1.000000   1.000000
      3          7.658391        9.384723   1.000000   1.000000
      4          8.674072        9.572510   1.000000   1.000000
      5          9.622541       11.565364   1.000000  -0.000000
      6         11.117041       12.232632  -0.000002  -0.000000
      7         16.796789       17.776679   0.000000   0.000000
      8         30.991972       30.910444   0.000000   0.000000
      9         33.531223       33.865786   0.000000   0.000000
     10         33.919689       34.167904   0.000000   0.000000
     11         40.016568       40.242535   0.000000   0.000000
     12         40.041703       40.283722   0.000000   0.000000
 
 -0.2500000E+00  0.8333333E-01  0.8333333E-01  0.2777778E-01
      1          4.539730        4.779713   1.000000   1.000000
      2          7.311494        8.536286   1.000000   1.000000
      3          7.679355        9.390281   1.000000   1.000000
      4          7.881549        9.601619   1.000000   1.000000
      5          9.190907       10.964754   1.000000  -0.000234
      6          9.279890       11.220092   1.000000  -0.000000
      7         22.666542       23.195430   0.000000   0.000000
      8         32.288884       32.168220   0.000000   0.000000
      9         33.055576       33.415705   0.000000   0.000000
     10         36.314206       36.652980   0.000000   0.000000
     11         40.015700       40.171744   0.000000   0.000000
     12         42.545176       42.720330   0.000000   0.000000
 
 -0.8333333E-01  0.8333333E-01  0.8333333E-01  0.2777778E-01
      1          2.354336        2.378711   1.000000   1.000000
      2          7.344027        8.892516   1.000000   1.000000
      3          7.898317        9.546604   1.000000   1.000000
      4          7.908041        9.556609   1.000000   1.000000
      5          8.497431       10.415459   1.000000   0.429870
      6          8.832084       10.813995   1.000000  -0.006209
      7         30.732101       30.918206   0.000000   0.000000
      8         33.755934       33.699473   0.000000   0.000000
      9         34.499348       34.831488   0.000000   0.000000
     10         37.185133       37.243525   0.000000   0.000000
     11         41.338034       41.599029   0.000000   0.000000
     12         43.647492       44.180397   0.000000   0.000000
 
  0.2500000E+00  0.2500000E+00  0.8333333E-01  0.2777778E-01
      1          3.627407        3.700483   1.000000   1.000000
      2          6.913193        8.383478   1.000000   1.000000
      3          7.956928        9.686209   1.000000   1.000003
      4          8.259727        9.951205   1.000000   1.003441
      5          8.575184       10.306032   1.000000   0.849657
      6          9.059384       11.052535   1.000000  -0.000019
      7         28.498558       28.820125   0.000000   0.000000
      8         31.490256       31.837321   0.000000   0.000000
      9         31.992878       32.021603   0.000000   0.000000
     10         34.118420       34.279163   0.000000   0.000000
     11         39.075272       39.726636   0.000000   0.000000
     12         45.165544       45.180647   0.000000   0.000000
 
  0.4166667E+00  0.2500000E+00  0.8333333E-01  0.5555556E-01
      1          5.349158        5.763424   1.000000   1.000000
      2          6.617665        7.970391   1.000000   1.000000
      3          7.533288        9.092879   1.000000   1.000000
      4          8.543014       10.320398   1.000000   0.805243
      5          9.165221       10.980328   1.000000  -0.000155
      6         10.285160       11.938715   0.905286  -0.000000
      7         23.613357       24.072305   0.000000   0.000000
      8         27.100321       27.422534   0.000000   0.000000
      9         29.572914       29.889510   0.000000   0.000000
     10         34.893431       35.085818   0.000000   0.000000
     11         39.878125       40.240972   0.000000   0.000000
     12         44.094481       44.355667   0.000000   0.000000
 
 -0.4166667E+00  0.2500000E+00  0.8333333E-01  0.5555556E-01
      1          6.030611        7.112161   1.000000   1.000000
      2          6.728968        8.023425   1.000000   1.000000
      3          7.611912        8.911668   1.000000   1.000000
      4          8.249467       10.048952   1.000000   1.016452
      5          9.575650       11.481136   1.000000  -0.000000
      6         13.679381       14.562150  -0.000000  -0.000000
      7         17.236190       18.048954   0.000000   0.000000
      8         26.143868       26.501219   0.000000   0.000000
      9         28.094720       28.458064   0.000000   0.000000
     10         35.016879       35.152000   0.000000   0.000000
     11         41.445760       41.625167   0.000000   0.000000
     12         46.431370       47.167535   0.000000   0.000000
 
 -0.2500000E+00  0.2500000E+00  0.8333333E-01  0.5555556E-01
      1          5.934712        6.533134   1.000000   1.000000
      2          6.955309        8.229851   1.000000   1.000000
      3          7.156717        8.711006   1.000000   1.000000
      4          8.320984       10.131758   1.000000   1.033844
      5          9.053846       10.860596   1.000000  -0.002605
      6         11.481724       12.924665  -0.000000  -0.000000
      7         21.187361       21.756290   0.000000   0.000000
      8         25.005800       25.403866   0.000000   0.000000
      9         30.613174       30.898142   0.000000   0.000000
     10         36.862894       36.991909   0.000000   0.000000
     11         39.891139       40.008857   0.000000   0.000000
     12         45.163208       45.589311   0.000000   0.000000
 
 -0.8333333E-01  0.2500000E+00  0.8333333E-01  0.5555556E-01
      1          4.186974        4.301420   1.000000   1.000000
      2          6.991882        8.410772   1.000000   1.000000
      3          7.717362        9.411241   1.000000   1.000000
      4          8.172641        9.903230   1.000000   1.001277
      5          8.648319       10.453980   1.000000   0.276157
      6          9.435725       11.322859   1.000000  -0.000000
      7         25.621089       26.037152   0.000000   0.000000
      8         29.141775       29.411867   0.000000   0.000000
      9         34.180481       34.295881   0.000000   0.000000
     10         36.565825       36.723513   0.000000   0.000000
     11         40.934901       41.171123   0.000000   0.000000
     12         41.791894       42.096377   0.000000   0.000000
 
  0.4166667E+00  0.4166667E+00  0.8333333E-01  0.2777778E-01
      1          5.289961        6.221716   1.000000   1.000000
      2          6.035001        7.365706   1.000000   1.000000
      3          8.873626       10.144928   1.000000   1.035168
      4          9.157899       11.048498   1.000000  -0.000022
      5          9.601928       11.563879   1.000000  -0.000000
      6         10.833477       11.982936  -0.004391  -0.000000
      7         24.064094       24.551787   0.000000   0.000000
      8         24.979519       25.343178   0.000000   0.000000
      9         26.854601       27.101782   0.000000   0.000000
     10         31.473722       31.806132   0.000000   0.000000
     11         35.796235       36.240063   0.000000   0.000000
     12         47.054137       50.722807   0.000000   0.000000
 
 -0.4166667E+00  0.4166667E+00  0.8333333E-01  0.5555556E-01
      1          5.563213        6.785005   1.000000   1.000000
      2          6.081509        7.365911   1.000000   1.000000
      3          8.419500        9.757157   1.000000   1.000028
      4          9.122242       11.091399   1.000000  -0.000006
      5          9.779370       11.653740   1.000054  -0.000000
      6         14.504805       15.146783  -0.000000  -0.000000
      7         20.676962       21.298946   0.000000   0.000000
      8         21.549031       22.076145   0.000000   0.000000
      9         24.920022       25.231435   0.000000   0.000000
     10         33.608700       33.865010   0.000000   0.000000
     11         38.784436       39.173123   0.000000   0.000000
     12         46.979182       48.292183   0.000000   0.000000
 
 -0.2500000E+00  0.4166667E+00  0.8333333E-01  0.5555556E-01
      1          6.298314        7.602594   1.000000   1.000000
      2          6.510711        7.668842   1.000000   1.000000
      3          7.409653        8.705699   1.000000   1.000000
      4          8.559444       10.440652   1.000000   0.327222
      5          9.493438       11.340337   1.000000  -0.000000
      6         15.417872       16.193660  -0.000000   0.000000
      7         17.703417       18.377751   0.000000   0.000000
      8         22.311616       22.860449   0.000000   0.000000
      9         27.321265       27.678928   0.000000   0.000000
     10         34.926281       35.097866   0.000000   0.000000
     11         43.333707       43.425402   0.000000   0.000000
     12         46.291998       47.367732   0.000000   0.000000
 
 -0.8333333E-01  0.4166667E+00  0.8333333E-01  0.5555556E-01
      1          5.556260        6.395337   1.000000   1.000000
      2          7.216355        8.572140   1.000000   1.000000
      3          7.791753        9.076463   1.000000   1.000000
      4          7.951886        9.666774   1.000000   1.000001
      5          9.459833       11.356988   1.000000  -0.000000
      6         11.359404       12.663355  -0.000000  -0.000000
      7         18.421780       19.180669   0.000000   0.000000
      8         28.823031       29.031382   0.000000   0.000000
      9         31.178243       31.468576   0.000000   0.000000
     10         35.270877       35.414935   0.000000   0.000000
     11         39.967233       40.207243   0.000000   0.000000
     12         43.436351       43.569791   0.000000   0.000000
 
 -0.4166667E+00 -0.4166667E+00  0.8333333E-01  0.2777778E-01
      1          5.209754        6.383906   1.000000   1.000000
      2          5.811860        7.110404   1.000000   1.000000
      3          9.403598       10.929974   1.000000  -0.000561
      4          9.414880       11.430117   1.000000  -0.000000
      5          9.804325       11.696288   1.000109  -0.000000
      6         13.012252       13.476435  -0.000000  -0.000000
      7         20.681060       21.484738   0.000000   0.000000
      8         23.895854       24.171201   0.000000   0.000000
      9         25.759393       25.954036   0.000000   0.000000
     10         31.205916       31.581661   0.000000   0.000000
     11         35.428885       35.866319   0.000000   0.000000
     12         47.126509       50.868114   0.000000   0.000000
 
 -0.2500000E+00 -0.4166667E+00  0.8333333E-01  0.5555556E-01
      1          5.678845        6.666681   1.000000   1.000000
      2          6.271432        7.581505   1.000000   1.000000
      3          7.930335        9.243277   1.000000   1.000000
      4          8.950620       10.814482   1.000000  -0.006157
      5          9.556453       11.442879   1.000000  -0.000000
      6         12.094707       13.224634  -0.000000  -0.000000
      7         22.057354       22.510661   0.000000   0.000000
      8         24.621319       25.081695   0.000000   0.000000
      9         25.923127       26.281718   0.000000   0.000000
     10         34.001453       34.230408   0.000000   0.000000
     11         39.102887       39.475502   0.000000   0.000000
     12         46.023730       46.472699   0.000000   0.000000
 
 -0.2500000E+00 -0.2500000E+00  0.8333333E-01  0.2777778E-01
      1          4.907816        5.263944   1.000000   1.000000
      2          6.433975        7.825086   1.000000   1.000000
      3          8.065736        9.547155   1.000000   1.000000
      4          8.720205       10.488373   1.000000   0.159931
      5          9.310588       10.930814   1.000000  -0.000550
      6          9.332282       11.327260   1.000000  -0.000000
      7         26.404603       26.756763   0.000000   0.000000
      8         28.647543       28.931185   0.000000   0.000000
      9         28.851573       29.161827   0.000000   0.000000
     10         32.148379       32.410223   0.000000   0.000000
     11         36.828533       37.332924   0.000000   0.000000
     12         46.969814       48.772060   0.000000   0.000000
 
  0.2500000E+00  0.2500000E+00  0.2500000E+00  0.9259259E-02
      1          3.587990        3.675587   1.000000   1.000000
      2          7.342294        8.711774   1.000000   1.000000
      3          7.840966        9.541376   1.000000   1.000000
      4          7.840966        9.541376   1.000000   1.000000
      5          8.875491       10.788718   1.000000  -0.009380
      6          8.875491       10.788718   1.000000  -0.009380
      7         25.113522       25.548257   0.000000   0.000000
      8         33.705929       33.461955   0.000000   0.000000
      9         36.067651       36.425169   0.000000   0.000000
     10         36.067651       36.425169   0.000000   0.000000
     11         41.322573       41.507577   0.000000   0.000000
     12         41.322574       41.507578   0.000000   0.000000
 
  0.4166667E+00  0.2500000E+00  0.2500000E+00  0.2777778E-01
      1          5.099869        5.358990   1.000000   1.000000
      2          7.060619        8.388088   1.000000   1.000000
      3          7.514495        9.148183   1.000000   1.000000
      4          8.093959        9.898381   1.000000   1.001147
      5          8.678286       10.475609   1.000000   0.200112
      6         10.214262       11.970775   1.015149  -0.000000
      7         23.178612       23.685266   0.000000   0.000000
      8         26.838960       27.180978   0.000000   0.000000
      9         35.127791       35.121458   0.000000   0.000000
     10         36.074522       36.419212   0.000000   0.000000
     11         40.328870       40.298419   0.000000   0.000000
     12         41.836560       42.117737   0.000000   0.000000
 
 -0.4166667E+00  0.2500000E+00  0.2500000E+00  0.2777778E-01
      1          6.266687        7.184015   1.000000   1.000000
      2          6.804618        8.182198   1.000000   1.000000
      3          7.312515        8.609443   1.000000   1.000000
      4          8.298581       10.148798   1.000000   1.035362
      5          9.184489       11.007851   1.000000  -0.000072
      6         13.121134       14.227446  -0.000000  -0.000000
      7         19.187757       19.839193   0.000000   0.000000
      8         23.367003       23.842212   0.000000   0.000000
      9         31.483036       31.840265   0.000000   0.000000
     10         33.087007       33.192704   0.000000   0.000000
     11         44.228579       44.215836   0.000000   0.000000
     12         44.624989       44.799062   0.000000   0.000000
 
 -0.2500000E+00  0.2500000E+00  0.2500000E+00  0.2777778E-01
      1          5.852718        6.914897   1.000000   1.000000
      2          6.491352        7.735519   1.000000   1.000000
      3          7.761913        9.079360   1.000000   1.000000
      4          8.488114       10.316250   1.000000   0.818559
      5          9.680287       11.619857   1.000002  -0.000000
      6         12.782812       13.813879  -0.000000  -0.000000
      7         19.190085       19.789625   0.000000   0.000000
      8         25.217686       25.650530   0.000000   0.000000
      9         28.787102       29.091660   0.000000   0.000000
     10         32.377329       32.616611   0.000000   0.000000
     11         42.824637       43.163912   0.000000   0.000000
     12         46.399427       46.563614   0.000000   0.000000
 
  0.4166667E+00  0.4166667E+00  0.2500000E+00  0.2777778E-01
      1          5.440442        6.041316   1.000000   1.000000
      2          6.954066        8.180932   1.000000   1.000000
      3          7.557641        9.088678   1.000000   1.000000
      4          8.116533        9.876461   1.000000   1.000693
      5          9.576178       11.533074   1.000000  -0.000000
      6         10.501073       11.944603   0.123781  -0.000000
      7         20.685966       21.275939   0.000000   0.000000
      8         29.479845       29.650100   0.000000   0.000000
      9         30.566445       30.900240   0.000000   0.000000
     10         33.239871       33.507003   0.000000   0.000000
     11         43.316198       43.425995   0.000000   0.000000
     12         44.032646       44.379232   0.000000   0.000000
 
 -0.4166667E+00  0.4166667E+00  0.2500000E+00  0.5555556E-01
      1          6.231194        7.299580   1.000000   1.000000
      2          6.634160        7.932773   1.000000   1.000000
      3          7.178938        8.506012   1.000000   1.000000
      4          8.633063       10.493721   1.000000   0.144228
      5          9.480865       11.323596   1.000000  -0.000000
      6         13.647132       14.642228  -0.000000  -0.000000
      7         19.678844       20.260585   0.000000   0.000000
      8         23.676271       24.114956   0.000000   0.000000
      9         25.935097       26.354921   0.000000   0.000000
     10         37.713991       37.835722   0.000000   0.000000
     11         40.154426       40.288516   0.000000   0.000000
     12         44.692123       45.364985   0.000000   0.000000
 
 -0.2500000E+00  0.4166667E+00  0.2500000E+00  0.5555556E-01
      1          6.025978        7.309468   1.000000   1.000000
      2          6.596739        7.862089   1.000000   1.000000
      3          7.404554        8.691613   1.000000   1.000000
      4          8.728920       10.630790   1.000000  -0.034750
      5          9.770440       11.637160   1.000041  -0.000000
      6         16.449398       17.101864   0.000000   0.000000
      7         18.756821       19.321714   0.000000   0.000000
      8         21.664422       22.266983   0.000000   0.000000
      9         23.327018       23.769511   0.000000   0.000000
     10         37.648578       37.800091   0.000000   0.000000
     11         42.096403       42.247440   0.000000   0.000000
     12         43.877620       44.225455   0.000000   0.000000
 
 -0.4166667E+00 -0.4166667E+00  0.2500000E+00  0.2777778E-01
      1          5.850462        7.138198   1.000000   1.000000
      2          6.277165        7.489544   1.000000   1.000000
      3          8.027138        9.322230   1.000000   1.000000
      4          8.841740       10.766154   1.000000  -0.013062
      5          9.608119       11.481257   1.000000  -0.000000
      6         15.560389       16.245933  -0.000000   0.000000
      7         18.197380       18.776394   0.000000   0.000000
      8         21.509079       22.156437   0.000000   0.000000
      9         27.856960       28.143504   0.000000   0.000000
     10         32.148234       32.415997   0.000000   0.000000
     11         42.500322       42.885184   0.000000   0.000000
     12         47.010885       48.388076   0.000000   0.000000
 
  0.4166667E+00  0.4166667E+00  0.4166667E+00  0.9259259E-02
      1          5.088647        5.869981   1.000000   1.000000
      2          7.587379        9.304010   1.000000   1.000000
      3          7.587379        9.304010   1.000000   1.000000
      4          9.148620        9.461714   1.000000   1.000000
      5          9.500718       11.432685   1.000000  -0.000000
      6          9.500718       11.432685   1.000000  -0.000000
      7         18.069593       18.904895   0.000000   0.000000
      8         32.268963       31.973489   0.000000   0.000000
      9         35.437563       35.776705   0.000000   0.000000
     10         35.437563       35.776705   0.000000   0.000000
     11         38.418136       38.699184   0.000000   0.000000
     12         38.418136       38.699184   0.000000   0.000000
 
 -0.4166667E+00  0.4166667E+00  0.4166667E+00  0.2777778E-01
      1          5.741892        6.740708   1.000000   1.000000
      2          7.073578        8.480999   1.000000   1.000000
      3          7.938286        9.130750   1.000000   1.000000
      4          7.950285        9.708014   1.000000   1.000006
      5          9.479549       11.385253   1.000000  -0.000000
      6         12.671381       13.649017  -0.000000  -0.000000
      7         16.999500       17.903306   0.000000   0.000000
      8         27.301949       27.600391   0.000000   0.000000
      9         32.169224       32.514820   0.000000   0.000000
     10         33.101525       33.181041   0.000000   0.000000
     11         42.257823       42.497799   0.000000   0.000000
     12         42.565179       42.674039   0.000000   0.000000
