Pt-hcc                                  
   1.00000000000000     
     2.890621    0.000000    0.000000
    -1.445310    2.503351    0.000000
     0.000000    0.000000    5.007933
   Pt
     2
Direct
  0.000000  0.000000  0.000000
  0.333333  0.666667  0.500000
 
   40   40   72
  317.40      316.98      314.85      308.88      296.45      275.64      246.16      209.80      170.00      130.99    
  96.522      68.971      48.921      35.398      26.440      20.319      16.255      13.668      12.109      11.281    
  11.024      11.281      12.110      13.667      16.256      20.316      26.443      35.397      48.920      68.972    
  96.521      130.99      170.00      209.80      246.16      275.64      296.45      308.88      314.85      316.98    
  316.98      316.97      315.69      311.59      302.26      285.39      259.88      226.54      188.07      148.42    
  111.65      80.833      57.400      41.054      30.240      22.922      17.956      14.734      12.724      11.570    
  11.044      11.044      11.570      12.725      14.733      17.957      22.922      30.237      41.057      57.398    
  80.834      111.65      148.42      188.07      226.54      259.88      285.39      302.26      311.59      315.69    
  314.85      315.70      314.85      311.59      304.04      289.97      267.87      237.75      201.52      162.57    
  124.89      91.935      65.808      46.895      34.147      25.625      19.770      15.882      13.398      11.899    
  11.099      10.850      11.098      11.899      13.397      15.883      19.768      25.628      34.145      46.896    
  65.808      91.934      124.89      162.57      201.52      237.75      267.87      289.97      304.04      311.59    
  308.88      311.61      311.61      308.88      302.26      289.97      270.47      243.33      209.75      172.47    
  135.14      101.28      73.396      52.473      37.970      28.279      21.605      17.068      14.113      12.258    
  11.188      10.696      10.697      11.186      12.260      14.111      17.070      21.603      28.279      37.971    
  52.472      73.398      101.28      135.14      172.47      209.75      243.33      270.47      289.97      302.26    
  296.45      302.29      304.08      302.29      296.45      285.39      267.87      243.33      212.51      177.55    
  141.60      108.01      79.434      57.266      41.432      30.718      23.345      18.234      14.832      12.638    
  11.303      10.583      10.358      10.583      11.302      12.638      14.831      18.234      23.347      30.715    
  41.434      57.265      79.434      108.01      141.60      177.55      212.51      243.33      267.87      285.39    
  275.64      285.42      290.02      290.02      285.42      275.64      259.88      237.75      209.75      177.55    
  143.81      111.53      83.317      60.782      44.212      32.768      24.867      19.303      15.514      13.017    
  11.435      10.506      10.077      10.077      10.506      11.435      13.017      15.515      19.301      24.869    
  32.767      44.213      60.781      83.317      111.53      143.81      177.55      209.75      237.75      259.88    
  246.16      259.91      267.91      270.52      267.91      259.91      246.16      226.54      201.52      172.47    
  141.60      111.53      84.658      62.641      46.016      34.259      26.056      20.194      16.116      13.369    
  11.575      10.459      9.8516      9.6579      9.8517      10.459      11.575      13.369      16.117      20.192    
  26.057      34.259      46.016      62.642      84.657      111.53      141.60      172.47      201.52      226.54    
  209.80      226.55      237.78      243.37      243.37      237.78      226.55      209.80      188.07      162.57    
  135.14      108.01      83.318      62.641      46.642      35.045      26.814      20.835      16.587      13.667    
  11.707      10.437      9.6755      9.3189      9.3185      9.6759      10.437      11.707      13.666      16.588    
  20.834      26.813      35.046      46.641      62.642      83.317      108.01      135.14      162.57      188.07    
  170.00      188.06      201.51      209.75      212.52      209.75      201.51      188.06      170.00      148.42    
  124.89      101.28      79.434      60.780      46.017      35.045      27.074      21.170      16.889      13.883    
  11.816      10.430      9.5456      9.0531      8.8943      9.0531      9.5457      10.430      11.816      13.883    
  16.889      21.170      27.073      35.046      46.016      60.781      79.434      101.28      124.89      148.42    
  130.99      148.39      162.53      172.43      177.51      177.51      172.43      162.53      148.39      130.99    
  111.65      91.936      73.396      57.265      44.213      34.258      26.814      21.169      16.993      13.997    
  11.888      10.432      9.4572      8.8569      8.5697      8.5697      8.8569      9.4573      10.431      11.888    
  13.997      16.992      21.170      26.813      34.259      44.213      57.265      73.398      91.934      111.65    
  96.521      111.61      124.82      135.05      141.51      143.71      141.51      135.05      124.81      111.61    
  96.522      80.834      65.807      52.474      41.433      32.767      26.057      20.833      16.889      13.997    
  11.913      10.434      9.4061      8.7276      8.3397      8.2133      8.3397      8.7277      9.4063      10.434    
  11.913      13.997      16.889      20.834      26.057      32.767      41.434      52.472      65.808      80.834    
  68.972      80.784      91.844      101.15      107.87      111.38      111.38      107.87      101.15      91.845    
  80.785      68.971      57.398      46.898      37.968      30.718      24.868      20.192      16.588      13.882    
  11.888      10.434      9.3896      8.6634      8.2024      7.9773      7.9774      8.2023      8.6633      9.3894    
  10.434      11.888      13.883      16.588      20.192      24.869      30.715      37.971      46.896      57.398    
  48.920      57.349      65.710      73.260      79.266      83.132      84.465      83.132      79.266      73.258    
  65.709      57.349      48.922      41.055      34.144      28.282      23.344      19.302      16.116      13.666    
  11.816      10.431      9.4063      8.6633      8.1567      7.8595      7.7619      7.8594      8.1569      8.6633    
  9.4063      10.431      11.816      13.666      16.117      19.301      23.347      28.279      34.145      41.057    
  35.397      41.012      46.804      52.336      57.092      60.583      62.430      62.430      60.583      57.093    
  52.338      46.805      41.010      35.395      30.241      25.627      21.602      18.236      15.514      13.370    
  11.707      10.430      9.4572      8.7277      8.2022      7.8598      7.6900      7.6902      7.8594      8.2023    
  8.7277      9.4573      10.430      11.707      13.369      15.515      18.234      21.603      25.628      30.237    
  26.443      30.200      34.067      37.851      41.276      44.024      45.808      46.427      45.808      44.024    
  41.274      37.849      34.066      30.204      26.443      22.920      19.770      17.070      14.830      13.018    
  11.575      10.437      9.5458      8.8569      8.3398      7.9774      7.7618      7.6900      7.7619      7.9774    
  8.3397      8.8569      9.5457      10.437      11.575      13.017      14.831      17.070      19.768      22.922    
  20.316      22.894      25.567      28.181      30.580      32.603      34.073      34.849      34.849      34.073    
  32.603      30.583      28.184      25.565      22.891      20.318      17.958      15.881      14.111      12.639    
  11.435      10.459      9.6757      9.0530      8.5697      8.2133      7.9774      7.8598      7.8595      7.9773    
  8.2133      8.5697      9.0531      9.6759      10.459      11.435      12.638      14.111      15.883      17.957    
  16.256      17.937      19.722      21.528      23.242      24.740      25.907      26.649      26.904      26.650    
  25.907      24.738      23.239      21.527      19.724      17.938      16.255      14.732      13.399      12.259    
  11.302      10.506      9.8513      9.3187      8.8945      8.5697      8.3398      8.2022      8.1567      8.2024    
  8.3397      8.5697      8.8943      9.3185      9.8517      10.506      11.302      12.260      13.397      14.733    
  13.667      14.718      15.850      17.016      18.157      19.203      20.074      20.702      21.030      21.030    
  20.701      20.075      19.205      18.159      17.016      15.848      14.718      13.668      12.725      11.898    
  11.187      10.584      10.077      9.6582      9.3187      9.0530      8.8569      8.7277      8.6633      8.6634    
  8.7276      8.8569      9.0531      9.3189      9.6579      10.077      10.583      11.186      11.899      12.725    
  12.110      12.714      13.375      14.073      14.778      15.446      16.033      16.493      16.786      16.888    
  16.787      16.493      16.031      15.444      14.776      14.074      13.376      12.715      12.109      11.570    
  11.099      10.697      10.357      10.077      9.8513      9.6757      9.5458      9.4572      9.4063      9.3896    
  9.4061      9.4572      9.5456      9.6755      9.8516      10.077      10.358      10.697      11.098      11.570    
  11.281      11.562      11.883      12.234      12.601      12.970      13.311      13.601      13.811      13.921    
  13.921      13.811      13.601      13.312      12.970      12.602      12.233      11.882      11.562      11.282    
  11.044      10.849      10.697      10.584      10.506      10.459      10.437      10.430      10.431      10.434    
  10.434      10.432      10.430      10.437      10.459      10.506      10.583      10.696      10.850      11.044    
  11.024      11.038      11.086      11.168      11.278      11.404      11.539      11.666      11.772      11.842    
  11.866      11.842      11.771      11.666      11.538      11.404      11.277      11.168      11.087      11.038    
  11.023      11.044      11.099      11.187      11.302      11.435      11.575      11.707      11.816      11.888    
  11.913      11.888      11.816      11.707      11.575      11.435      11.303      11.188      11.099      11.044    
  11.281      11.037      10.839      10.682      10.564      10.485      10.436      10.413      10.406      10.407    
  10.410      10.409      10.407      10.406      10.413      10.437      10.486      10.565      10.682      10.838    
  11.038      11.282      11.570      11.898      12.259      12.639      13.018      13.370      13.666      13.882    
  13.997      13.997      13.883      13.667      13.369      13.017      12.638      12.258      11.899      11.570    
  12.109      11.563      11.086      10.681      10.342      10.062      9.8378      9.6640      9.5364      9.4502    
  9.4005      9.3844      9.4001      9.4499      9.5362      9.6637      9.8371      10.062      10.341      10.682    
  11.087      11.562      12.109      12.725      13.399      14.111      14.830      15.514      16.116      16.588    
  16.889      16.993      16.889      16.587      16.116      15.514      14.832      14.113      13.398      12.724    
  13.668      12.713      11.883      11.169      10.564      10.061      9.6461      9.3119      9.0515      8.8602    
  8.7349      8.6727      8.6732      8.7351      8.8606      9.0517      9.3123      9.6466      10.062      10.565    
  11.168      11.882      12.715      13.668      14.732      15.881      17.070      18.236      19.302      20.192    
  20.833      21.169      21.170      20.835      20.194      19.303      18.234      17.068      15.882      14.734    
  16.255      14.719      13.375      12.232      11.278      10.485      9.8377      9.3125      8.8961      8.5791    
  8.3553      8.2222      8.1774      8.2220      8.3552      8.5790      8.8959      9.3123      9.8371      10.486    
  11.277      12.233      13.376      14.718      16.255      17.958      19.770      21.602      23.344      24.868    
  26.057      26.814      27.074      26.814      26.056      24.867      23.345      21.605      19.770      17.956    
  20.319      17.936      15.849      14.075      12.601      11.404      10.437      9.6634      9.0516      8.5787    
  8.2313      8.0018      7.8883      7.8880      8.0023      8.2313      8.5790      9.0517      9.6637      10.437    
  11.404      12.602      14.074      15.848      17.938      20.318      22.920      25.627      28.282      30.718    
  32.767      34.258      35.045      35.045      34.259      32.768      30.718      28.279      25.625      22.922    
  26.440      22.894      19.724      17.014      14.778      12.970      11.539      10.414      9.5363      8.8607    
  8.3553      8.0025      7.7923      7.7231      7.7925      8.0023      8.3552      8.8606      9.5362      10.413    
  11.538      12.970      14.776      17.016      19.724      22.891      26.443      30.241      34.144      37.968    
  41.433      44.213      46.017      46.642      46.016      44.212      41.432      37.970      34.147      30.240    
  35.398      30.203      25.563      21.530      18.157      15.445      13.312      11.666      10.406      9.4497    
  8.7351      8.2216      7.8883      7.7229      7.7231      7.8880      8.2220      8.7351      9.4499      10.406    
  11.666      13.312      15.444      18.159      21.527      25.565      30.204      35.395      41.055      46.898    
  52.474      57.265      60.780      62.641      62.641      60.782      57.266      52.473      46.895      41.054    
  48.921      41.009      34.070      28.180      23.241      19.204      16.031      13.602      11.771      10.408    
  9.4000      8.6736      8.1771      7.8883      7.7923      7.8883      8.1774      8.6732      9.4001      10.407    
  11.771      13.601      16.031      19.205      23.239      28.184      34.066      41.010      48.922      57.398    
  65.807      73.396      79.434      83.318      84.658      83.317      79.434      73.396      65.808      57.400    
  68.971      57.351      46.803      37.850      30.583      24.737      20.076      16.491      13.811      11.841    
  10.410      9.3835      8.6736      8.2216      8.0025      8.0018      8.2222      8.6727      9.3844      10.409    
  11.842      13.811      16.493      20.075      24.738      30.583      37.849      46.805      57.349      68.971    
  80.834      91.936      101.28      108.01      111.53      111.53      108.01      101.28      91.935      80.833    
  96.522      80.784      65.711      52.337      41.274      32.605      25.906      20.702      16.786      13.922    
  11.866      10.410      9.4000      8.7351      8.3553      8.2313      8.3553      8.7349      9.4005      10.410    
  11.866      13.921      16.787      20.701      25.907      32.603      41.274      52.338      65.709      80.785    
  96.522      111.65      124.89      135.14      141.60      143.81      141.60      135.14      124.89      111.65    
  130.99      111.61      91.844      73.258      57.094      44.023      34.074      26.649      21.030      16.887    
  13.922      11.841      10.408      9.4497      8.8607      8.5787      8.5791      8.8602      9.4502      10.407    
  11.842      13.921      16.888      21.030      26.650      34.073      44.024      57.093      73.258      91.845    
  111.61      130.99      148.42      162.57      172.47      177.55      177.55      172.47      162.57      148.42    
  170.00      148.39      124.82      101.15      79.265      60.584      45.808      34.849      26.904      21.030    
  16.786      13.811      11.771      10.406      9.5363      9.0516      8.8961      9.0515      9.5364      10.406    
  11.772      13.811      16.786      21.030      26.904      34.849      45.808      60.583      79.266      101.15    
  124.81      148.39      170.00      188.07      201.52      209.75      212.51      209.75      201.52      188.07    
  209.80      188.06      162.53      135.05      107.87      83.131      62.430      46.427      34.849      26.649    
  20.702      16.491      13.602      11.666      10.414      9.6634      9.3125      9.3119      9.6640      10.413    
  11.666      13.601      16.493      20.702      26.649      34.849      46.427      62.430      83.132      107.87    
  135.05      162.53      188.06      209.80      226.54      237.75      243.33      243.33      237.75      226.54    
  246.16      226.55      201.51      172.43      141.51      111.38      84.465      62.430      45.808      34.074    
  25.906      20.076      16.031      13.312      11.539      10.437      9.8377      9.6461      9.8378      10.436    
  11.539      13.311      16.033      20.074      25.907      34.073      45.808      62.430      84.465      111.38    
  141.51      172.43      201.51      226.55      246.16      259.88      267.87      270.47      267.87      259.88    
  275.64      259.91      237.78      209.75      177.51      143.71      111.38      83.131      60.584      44.023    
  32.605      24.737      19.204      15.445      12.970      11.404      10.485      10.061      10.062      10.485    
  11.404      12.970      15.446      19.203      24.740      32.603      44.024      60.583      83.132      111.38    
  143.71      177.51      209.75      237.78      259.91      275.64      285.39      289.97      289.97      285.39    
  296.45      285.42      267.91      243.37      212.52      177.51      141.51      107.87      79.265      57.094    
  41.274      30.583      23.241      18.157      14.778      12.601      11.278      10.564      10.342      10.564    
  11.278      12.601      14.778      18.157      23.242      30.580      41.276      57.092      79.266      107.87    
  141.51      177.51      212.52      243.37      267.91      285.42      296.45      302.26      304.04      302.26    
  308.88      302.29      290.02      270.52      243.37      209.75      172.43      135.05      101.15      73.258    
  52.337      37.850      28.180      21.530      17.014      14.075      12.232      11.169      10.681      10.682    
  11.168      12.234      14.073      17.016      21.528      28.181      37.851      52.336      73.260      101.15    
  135.05      172.43      209.75      243.37      270.52      290.02      302.29      308.88      311.59      311.59    
  314.85      311.61      304.08      290.02      267.91      237.78      201.51      162.53      124.82      91.844    
  65.711      46.803      34.070      25.563      19.724      15.849      13.375      11.883      11.086      10.839    
  11.086      11.883      13.375      15.850      19.722      25.567      34.067      46.804      65.710      91.844    
  124.82      162.53      201.51      237.78      267.91      290.02      304.08      311.61      314.85      315.69    
  316.98      315.70      311.61      302.29      285.42      259.91      226.55      188.06      148.39      111.61    
  80.784      57.351      41.009      30.203      22.894      17.936      14.719      12.713      11.563      11.037    
  11.038      11.562      12.714      14.718      17.937      22.894      30.200      41.012      57.349      80.784    
  111.61      148.39      188.06      226.55      259.91      285.42      302.29      311.61      315.70      316.97    
  317.19      316.66      314.27      307.90      295.04      273.86      244.16      207.75      168.10      129.37    
  95.267      68.079      48.336      35.029      26.194      20.148      16.134      13.577      12.036      11.216    
  10.962      11.216      12.037      13.576      16.136      20.145      26.198      35.028      48.335      68.081    
  95.267      129.37      168.10      207.75      244.16      273.86      295.04      307.90      314.27      316.66    
  316.66      316.66      315.19      310.76      301.02      283.76      257.96      224.49      186.08      146.66    
  110.22      79.775      56.680      40.593      29.944      22.718      17.814      14.630      12.643      11.502    
  10.980      10.981      11.501      12.644      14.629      17.815      22.718      29.941      40.597      56.677    
  79.776      110.22      146.66      186.08      224.49      257.96      283.76      301.02      310.76      315.19    
  314.27      315.20      314.27      310.76      302.86      288.42      266.01      235.71      199.48      160.70    
  123.32      90.731      64.959      46.339      33.794      25.386      19.604      15.764      13.309      11.826    
  11.034      10.788      11.033      11.827      13.308      15.765      19.602      25.390      33.791      46.340    
  64.959      90.731      123.32      160.70      199.48      235.71      266.01      288.42      302.86      310.76    
  307.90      310.78      310.78      307.90      301.02      288.42      268.64      241.31      207.69      170.55    
  133.48      99.960      72.437      51.826      37.556      28.006      21.415      16.935      14.014      12.181    
  11.121      10.634      10.635      11.120      12.182      14.012      16.937      21.413      28.007      37.557    
  51.825      72.438      99.959      133.48      170.55      207.70      241.31      268.64      288.42      301.02    
  295.04      301.05      302.90      301.05      295.04      283.76      266.01      241.31      210.45      175.60    
  139.89      106.61      78.390      56.544      40.962      30.412      23.133      18.085      14.724      12.555    
  11.234      10.521      10.299      10.521      11.234      12.555      14.724      18.085      23.134      30.410    
  40.964      56.542      78.390      106.61      139.89      175.60      210.46      241.31      266.01      283.76    
  273.86      283.79      288.47      288.47      283.79      273.86      257.96      235.72      207.69      175.60    
  142.08      110.10      82.221      60.004      43.695      32.433      24.635      19.139      15.398      12.930    
  11.364      10.444      10.019      10.019      10.444      11.364      12.929      15.399      19.138      24.637    
  32.431      43.697      60.004      82.221      110.09      142.08      175.60      207.70      235.71      257.96    
  244.16      257.98      266.06      268.70      266.06      257.98      244.16      224.49      199.48      170.55    
  139.89      110.09      83.543      61.835      45.470      33.900      25.809      20.019      15.991      13.277    
  11.502      10.397      9.7953      9.6029      9.7954      10.397      11.502      13.276      15.993      20.017    
  25.810      33.899      45.470      61.835      83.543      110.09      139.89      170.55      199.48      224.49    
  207.75      224.50      235.75      241.36      241.36      235.75      224.50      207.75      186.08      160.70    
  133.48      106.61      82.221      61.835      46.085      34.674      26.557      20.651      16.457      13.571    
  11.632      10.375      9.6203      9.2665      9.2662      9.6205      10.374      11.632      13.570      16.457    
  20.651      26.556      34.675      46.085      61.836      82.221      106.61      133.48      160.70      186.08    
  168.10      186.08      199.49      207.71      210.48      207.71      199.49      186.08      168.10      146.66    
  123.32      99.959      78.390      60.003      45.471      34.674      26.814      20.982      16.754      13.784    
  11.740      10.368      9.4913      9.0026      8.8452      9.0026      9.4914      10.368      11.740      13.784    
  16.754      20.982      26.813      34.674      45.470      60.004      78.391      99.959      123.32      146.66    
  129.37      146.63      160.67      170.52      175.58      175.58      170.52      160.67      146.64      129.37    
  110.22      90.733      72.436      56.542      43.697      33.899      26.557      20.981      16.857      13.896    
  11.811      10.369      9.4037      8.8079      8.5231      8.5229      8.8082      9.4035      10.369      11.811    
  13.897      16.856      20.982      26.556      33.900      43.696      56.542      72.438      90.731      110.22    
  95.266      110.18      123.26      133.40      139.81      142.00      139.81      133.40      123.26      110.18    
  95.267      79.775      64.958      51.827      40.962      32.431      25.810      20.650      16.755      13.896    
  11.836      10.372      9.3529      8.6798      8.2948      8.1692      8.2948      8.6799      9.3531      10.372    
  11.836      13.896      16.754      20.651      25.809      32.431      40.964      51.826      64.959      79.776    
  68.081      79.731      90.650      99.851      106.49      109.96      109.96      106.49      99.852      90.652    
  79.731      68.079      56.678      46.341      37.555      30.412      24.636      20.018      16.458      13.783    
  11.811      10.371      9.3364      8.6161      8.1585      7.9350      7.9351      8.1585      8.6160      9.3364    
  10.372      11.811      13.784      16.457      20.017      24.637      30.410      37.557      46.340      56.678    
  48.334      56.634      64.871      72.314      78.240      82.055      83.371      82.055      78.239      72.312    
  64.869      56.633      48.337      40.595      33.791      28.009      23.131      19.140      15.992      13.570    
  11.740      10.369      9.3530      8.6161      8.1132      7.8181      7.7212      7.8180      8.1134      8.6160    
  9.3531      10.369      11.740      13.570      15.992      19.138      23.134      28.007      33.791      40.597    
  35.028      40.556      46.256      51.701      56.385      59.824      61.644      61.644      59.824      56.386    
  51.704      46.257      40.554      35.025      29.945      25.388      21.412      18.087      15.397      13.277    
  11.632      10.368      9.4035      8.6799      8.1583      7.8184      7.6498      7.6500      7.8180      8.1585    
  8.6798      9.4037      10.368      11.633      13.276      15.398      18.085      21.413      25.390      29.942    
  26.197      29.908      33.721      37.448      40.819      43.524      45.280      45.890      45.281      43.524    
  40.817      37.446      33.720      29.912      26.197      22.716      19.604      16.936      14.722      12.930    
  11.502      10.375      9.4914      8.8080      8.2948      7.9351      7.7211      7.6498      7.7212      7.9351    
  8.2949      8.8079      9.4914      10.374      11.502      12.929      14.724      16.937      19.602      22.718    
  20.146      22.692      25.334      27.918      30.287      32.281      33.731      34.495      34.495      33.731    
  32.282      30.289      27.920      25.332      22.690      20.147      17.816      15.763      14.013      12.556    
  11.364      10.397      9.6204      9.0026      8.5230      8.1693      7.9350      7.8184      7.8181      7.9350    
  8.1691      8.5231      9.0027      9.6207      10.397      11.364      12.555      14.012      15.765      17.815    
  16.135      17.797      19.561      21.346      23.040      24.520      25.675      26.409      26.661      26.409    
  25.675      24.519      23.037      21.345      19.563      17.798      16.134      14.629      13.310      12.182    
  11.233      10.444      9.7949      9.2663      8.8453      8.5230      8.2948      8.1583      8.1132      8.1585    
  8.2949      8.5229      8.8452      9.2661      9.7952      10.444      11.234      12.182      13.308      14.629    
  13.577      14.616      15.736      16.890      18.017      19.051      19.913      20.533      20.857      20.857    
  20.533      19.914      19.053      18.019      16.889      15.735      14.617      13.578      12.644      11.825    
  11.120      10.522      10.019      9.6034      9.2663      9.0026      8.8080      8.6799      8.6161      8.6161    
  8.6797      8.8081      9.0027      9.2666      9.6031      10.019      10.521      11.120      11.826      12.644    
  12.037      12.636      13.290      13.981      14.678      15.339      15.920      16.375      16.666      16.766    
  16.666      16.375      15.919      15.338      14.677      13.981      13.291      12.636      12.036      11.501    
  11.035      10.635      10.298      10.019      9.7949      9.6204      9.4915      9.4035      9.3530      9.3364    
  9.3529      9.4034      9.4913      9.6201      9.7951      10.019      10.299      10.636      11.034      11.501    
  11.216      11.495      11.814      12.162      12.526      12.891      13.230      13.516      13.725      13.834    
  13.834      13.725      13.517      13.231      12.892      12.527      12.161      11.813      11.495      11.217    
  10.981      10.787      10.635      10.522      10.444      10.397      10.375      10.368      10.369      10.371    
  10.372      10.369      10.368      10.375      10.397      10.444      10.521      10.634      10.788      10.981    
  10.962      10.977      11.025      11.106      11.216      11.342      11.476      11.603      11.708      11.777    
  11.801      11.777      11.707      11.602      11.475      11.342      11.215      11.107      11.026      10.976    
  10.961      10.981      11.035      11.120      11.233      11.364      11.502      11.632      11.740      11.811    
  11.836      11.811      11.740      11.632      11.502      11.364      11.234      11.121      11.034      10.980    
  11.216      10.976      10.780      10.626      10.510      10.432      10.384      10.362      10.355      10.357    