Pt-hcc                                  
   1.00000000000000     
     2.890621    0.000000    0.000000
    -1.445310    2.503351    0.000000
     0.000000    0.000000    5.007933
   Pt
     2
Direct
  0.000000  0.000000  0.000000
  0.333333  0.666667  0.500000
 
   40   40   72
 0.31740448798E+03 0.31697508300E+03 0.31485375831E+03 0.30888105322E+03 0.29644812822E+03
 0.27563709017E+03 0.24616463753E+03 0.20979966585E+03 0.17000421316E+03 0.13099156982E+03
 0.96521984324E+02 0.68970752347E+02 0.48921204452E+02 0.35398123346E+02 0.26440231093E+02
 0.20318584823E+02 0.16254695639E+02 0.13667661946E+02 0.12109364856E+02 0.11281285943E+02
 0.11023919033E+02 0.11281070791E+02 0.12109833166E+02 0.13666851330E+02 0.16256052840E+02
 0.20316249302E+02 0.26443222636E+02 0.35397344041E+02 0.48919658094E+02 0.68971901389E+02
 0.96521430860E+02 0.13099196551E+03 0.17000399558E+03 0.20980000899E+03 0.24616449165E+03
 0.27563711410E+03 0.29644816487E+03 0.30888070154E+03 0.31485374309E+03 0.31697546290E+03
 0.31697546290E+03 0.31697486643E+03 0.31569007445E+03 0.31159453953E+03 0.30226178994E+03
 0.28538938703E+03 0.25988495435E+03 0.22654038613E+03 0.18807314818E+03 0.14842130158E+03
 0.11165074748E+03 0.80832862877E+02 0.57399751185E+02 0.41053703197E+02 0.30239971757E+02
 0.22922223716E+02 0.17956381304E+02 0.14733681751E+02 0.12723693696E+02 0.11570399802E+02
 0.11043605222E+02 0.11044379596E+02 0.11569576663E+02 0.12724505229E+02 0.14732801322E+02
 0.17957158378E+02 0.22922416135E+02 0.30237272753E+02 0.41056996498E+02 0.57398204890E+02
 0.80833817916E+02 0.11164979060E+03 0.14842204039E+03 0.18807222568E+03 0.22654127190E+03
 0.25988412581E+03 0.28539027524E+03 0.30226152648E+03 0.31159494046E+03 0.31569001275E+03
 0.31485374309E+03 0.31569626390E+03 0.31485426478E+03 0.31159488886E+03 0.30404006551E+03
 0.28997115265E+03 0.26786648575E+03 0.23775005867E+03 0.20151830502E+03 0.16256826245E+03
 0.12488699226E+03 0.91934538126E+02 0.65808492095E+02 0.46895329782E+02 0.34147093436E+02
 0.25624589772E+02 0.19770144474E+02 0.15881944711E+02 0.13398224289E+02 0.11898988502E+02
 0.11098703508E+02 0.10850460093E+02 0.11098489841E+02 0.11899350743E+02 0.13397481077E+02
 0.15883132246E+02 0.19767916687E+02 0.25628202031E+02 0.34144587452E+02 0.46896015365E+02
 0.65808123639E+02 0.91934467803E+02 0.12488719656E+03 0.16256816926E+03 0.20151844106E+03
 0.23775017215E+03 0.26786711044E+03 0.28997092209E+03 0.30404114546E+03 0.31159494046E+03
 0.30888070154E+03 0.31161204815E+03 0.31161109787E+03 0.30888030612E+03 0.30226111869E+03
 0.28997152603E+03 0.27047074570E+03 0.24333021602E+03 0.20974785548E+03 0.17247245524E+03
 0.13513773195E+03 0.10127665270E+03 0.73396107844E+02 0.52473202104E+02 0.37970097298E+02
 0.28278753245E+02 0.21605290775E+02 0.17068224537E+02 0.14112519568E+02 0.12258341609E+02
 0.11187902198E+02 0.10696131016E+02 0.10697447227E+02 0.11186470556E+02 0.12259808373E+02
 0.14110752546E+02 0.17070365356E+02 0.21603078267E+02 0.28279330215E+02 0.37971176980E+02
 0.52471959161E+02 0.73397575256E+02 0.10127550855E+03 0.13513814822E+03 0.17247202067E+03
 0.20974805029E+03 0.24332983393E+03 0.27047143189E+03 0.28997092209E+03 0.30226152648E+03
 0.29644816487E+03 0.30228665872E+03 0.30407570940E+03 0.30228695439E+03 0.29644811061E+03
 0.28539022937E+03 0.26786583040E+03 0.24333035369E+03 0.21251086495E+03 0.17755445122E+03
 0.14160276696E+03 0.10800766988E+03 0.79433697084E+02 0.57266311015E+02 0.41432253043E+02
 0.30717710462E+02 0.23344972052E+02 0.18233622282E+02 0.14831636638E+02 0.12637891371E+02
 0.11302653724E+02 0.10582621385E+02 0.10358405362E+02 0.10582674245E+02 0.11302455445E+02
 0.12638085325E+02 0.14831336798E+02 0.18233613426E+02 0.23346530047E+02 0.30715457706E+02
 0.41434298998E+02 0.57264704182E+02 0.79434376949E+02 0.10800717631E+03 0.14160310407E+03
 0.17755426020E+03 0.21251149709E+03 0.24332983393E+03 0.26786711044E+03 0.28539027524E+03
 0.27563711410E+03 0.28541817540E+03 0.29001802026E+03 0.29001829484E+03 0.28541819187E+03
 0.27563684879E+03 0.25988441154E+03 0.23775105711E+03 0.20974777209E+03 0.17755464376E+03
 0.14380998392E+03 0.11152760013E+03 0.83317121589E+02 0.60781626855E+02 0.44211928736E+02
 0.32768378909E+02 0.24866829738E+02 0.19302629750E+02 0.15514447108E+02 0.13017312539E+02
 0.11434864781E+02 0.10506034112E+02 0.10077140970E+02 0.10077353290E+02 0.10505767801E+02
 0.11435145944E+02 0.13016892554E+02 0.15515230135E+02 0.19300827396E+02 0.24868920505E+02
 0.32766881649E+02 0.44212953186E+02 0.60781230275E+02 0.83317450171E+02 0.11152750490E+03
 0.14380961195E+03 0.17755426020E+03 0.20974805029E+03 0.23775017215E+03 0.25988412581E+03
 0.24616449165E+03 0.25990685149E+03 0.26791116056E+03 0.27052444133E+03 0.26791059304E+03
 0.25990681587E+03 0.24616481363E+03 0.22654121032E+03 0.20151774252E+03 0.17247240634E+03
 0.14160306461E+03 0.11152678484E+03 0.84657689804E+02 0.62641054880E+02 0.46016370383E+02
 0.34258747036E+02 0.26055996997E+02 0.20193615108E+02 0.16115696793E+02 0.13369334566E+02
 0.11574786620E+02 0.10459145112E+02 0.98516311164E+01 0.96578833042E+01 0.98517248072E+01
 0.10458942892E+02 0.11575105033E+02 0.13368728311E+02 0.16116988039E+02 0.20192397128E+02
 0.26056698899E+02 0.34258566359E+02 0.46016097060E+02 0.62641525453E+02 0.84656751402E+02
 0.11152750490E+03 0.14160310407E+03 0.17247202067E+03 0.20151844106E+03 0.22654127190E+03
 0.20980000899E+03 0.22654981229E+03 0.23777568852E+03 0.24336775474E+03 0.24336836599E+03
 0.23777651988E+03 0.22655054156E+03 0.20979974782E+03 0.18807281122E+03 0.16256916056E+03
 0.13513794563E+03 0.10800737015E+03 0.83317905738E+02 0.62640573305E+02 0.46641993466E+02
 0.35045262713E+02 0.26813574585E+02 0.20834546951E+02 0.16587151787E+02 0.13667138615E+02
 0.11706555542E+02 0.10436984375E+02 0.96754513282E+01 0.93189334063E+01 0.93185243854E+01
 0.96758984920E+01 0.10436541807E+02 0.11707162210E+02 0.13666122636E+02 0.16587920317E+02
 0.20834253909E+02 0.26813388883E+02 0.35045868861E+02 0.46641263072E+02 0.62641525453E+02
 0.83317450171E+02 0.10800717631E+03 0.13513814822E+03 0.16256816926E+03 0.18807222568E+03
 0.17000399558E+03 0.18806304367E+03 0.20151346762E+03 0.20975139424E+03 0.21251853292E+03
 0.20975080053E+03 0.20151254417E+03 0.18806295566E+03 0.17000460318E+03 0.14842191688E+03
 0.12488615479E+03 0.10127604325E+03 0.79434420999E+02 0.60780470171E+02 0.46017078041E+02
 0.35044861085E+02 0.27074140032E+02 0.21169600194E+02 0.16888822624E+02 0.13883213294E+02
 0.11815718564E+02 0.10430418820E+02 0.95456015630E+01 0.90531040662E+01 0.88943138557E+01
 0.90530902340E+01 0.95456868483E+01 0.10430283440E+02 0.11816177012E+02 0.13882995131E+02
 0.16888566592E+02 0.21170140277E+02 0.27073205818E+02 0.35045868861E+02 0.46016097060E+02
 0.60781230275E+02 0.79434376949E+02 0.10127550855E+03 0.12488719656E+03 0.14842204039E+03
 0.13099196551E+03 0.14839448520E+03 0.16252768243E+03 0.17242892660E+03 0.17751230527E+03
 0.17751270876E+03 0.17242993171E+03 0.16252893258E+03 0.14839486388E+03 0.13099152024E+03
 0.11165000940E+03 0.91935824397E+02 0.73396024037E+02 0.57265131546E+02 0.44213427440E+02
 0.34257585402E+02 0.26814425065E+02 0.21169173758E+02 0.16992916821E+02 0.13996832891E+02
 0.11887973829E+02 0.10431692159E+02 0.94572275046E+01 0.88568586523E+01 0.85697332588E+01
 0.85697135146E+01 0.88569301834E+01 0.94572657757E+01 0.10431493679E+02 0.11887896274E+02
 0.13997210945E+02 0.16992152062E+02 0.21170140277E+02 0.26813388883E+02 0.34258566359E+02
 0.44212953186E+02 0.57264704182E+02 0.73397575256E+02 0.91934467803E+02 0.11164979060E+03
 0.96521430860E+02 0.11160811451E+03 0.12481602106E+03 0.13505025968E+03 0.14150764444E+03
 0.14371231000E+03 0.14150707011E+03 0.13504933232E+03 0.12481465421E+03 0.11160788574E+03
 0.96521975196E+02 0.80833543459E+02 0.65806710998E+02 0.52473813439E+02 0.41432900380E+02
 0.32766813798E+02 0.26057281006E+02 0.20833479595E+02 0.16889496953E+02 0.13996587886E+02
 0.11913337652E+02 0.10434235821E+02 0.94061110643E+01 0.87276288419E+01 0.83397305445E+01
 0.82132993282E+01 0.83397126460E+01 0.87276676828E+01 0.94062757593E+01 0.10434388211E+02
 0.11912902968E+02 0.13997210945E+02 0.16888566592E+02 0.20834253909E+02 0.26056698899E+02
 0.32766881649E+02 0.41434298998E+02 0.52471959161E+02 0.65808123639E+02 0.80833817916E+02
 0.68971901389E+02 0.80784482937E+02 0.91843613640E+02 0.10115358038E+03 0.10786610149E+03
 0.11137740235E+03 0.11137742909E+03 0.10786665870E+03 0.10115467254E+03 0.91845067737E+02
 0.80784554255E+02 0.68970683796E+02 0.57398089967E+02 0.46897554655E+02 0.37968495607E+02
 0.30717665554E+02 0.24868169496E+02 0.20192405200E+02 0.16588346543E+02 0.13882379945E+02
 0.11888419136E+02 0.10434022636E+02 0.93895776805E+01 0.86633577558E+01 0.82023721675E+01
 0.79772868490E+01 0.79774369625E+01 0.82022921839E+01 0.86633232506E+01 0.93893939274E+01
 0.10434388211E+02 0.11887896274E+02 0.13882995131E+02 0.16587920317E+02 0.20192397128E+02
 0.24868920505E+02 0.30715457706E+02 0.37971176980E+02 0.46896015365E+02 0.57398204890E+02
 0.48919658094E+02 0.57349377367E+02 0.65710427259E+02 0.73259756383E+02 0.79266341690E+02
 0.83132229722E+02 0.84465353150E+02 0.83132211511E+02 0.79265610134E+02 0.73257974384E+02
 0.65708655619E+02 0.57349157545E+02 0.48922231870E+02 0.41055292211E+02 0.34143721295E+02
 0.28281965595E+02 0.23343528516E+02 0.19302457877E+02 0.16116173200E+02 0.13666418236E+02
 0.11816277371E+02 0.10431412561E+02 0.94062954178E+01 0.86633304926E+01 0.81566835833E+01
 0.78594991706E+01 0.77619483501E+01 0.78594430976E+01 0.81569275581E+01 0.86633232506E+01
 0.94062757593E+01 0.10431493679E+02 0.11816177012E+02 0.13666122636E+02 0.16116988039E+02
 0.19300827396E+02 0.23346530047E+02 0.28279330215E+02 0.34144587452E+02 0.41056996498E+02
 0.35397344041E+02 0.41011920779E+02 0.46803676227E+02 0.52335682188E+02 0.57092136680E+02
 0.60582884231E+02 0.62430138228E+02 0.62429767041E+02 0.60582892426E+02 0.57092880457E+02
 0.52337937330E+02 0.46805341777E+02 0.41010342413E+02 0.35394525357E+02 0.30241015866E+02
 0.25626546933E+02 0.21602316868E+02 0.18235746169E+02 0.15513976951E+02 0.13369526768E+02
 0.11706795766E+02 0.10430260137E+02 0.94572211603E+01 0.87277250109E+01 0.82022029985E+01
 0.78597616732E+01 0.76900351401E+01 0.76902094534E+01 0.78594430976E+01 0.82022921839E+01
 0.87276676828E+01 0.94572657757E+01 0.10430283440E+02 0.11707162210E+02 0.13368728311E+02
 0.15515230135E+02 0.18233613426E+02 0.21603078267E+02 0.25628202031E+02 0.30237272753E+02
 0.26443222636E+02 0.30200407515E+02 0.34066994282E+02 0.37851447003E+02 0.41275712867E+02
 0.44024084783E+02 0.45808111852E+02 0.46426994130E+02 0.45808393185E+02 0.44024090358E+02
 0.41273992633E+02 0.37848605237E+02 0.34066119148E+02 0.30204063806E+02 0.26443269478E+02
 0.22919772639E+02 0.19770305289E+02 0.17070093446E+02 0.14830110039E+02 0.13017630298E+02
 0.11574574536E+02 0.10436739551E+02 0.95458070342E+01 0.88568633611E+01 0.83397535602E+01
 0.79773721105E+01 0.77617657985E+01 0.76900351401E+01 0.77619483501E+01 0.79774369625E+01
 0.83397126460E+01 0.88569301834E+01 0.95456868483E+01 0.10436541807E+02 0.11575105033E+02
 0.13016892554E+02 0.14831336798E+02 0.17070365356E+02 0.19767916687E+02 0.22922416135E+02
 0.20316249302E+02 0.22893990395E+02 0.25566865171E+02 0.28180802488E+02 0.30580455777E+02
 0.32602626768E+02 0.34073179858E+02 0.34848920704E+02 0.34848823864E+02 0.34072656180E+02
 0.32603132996E+02 0.30582901185E+02 0.28183651286E+02 0.25565300362E+02 0.22891462399E+02
 0.20317756208E+02 0.17958464114E+02 0.15881399494E+02 0.14111333845E+02 0.12639113047E+02
 0.11434660464E+02 0.10459381438E+02 0.96756762910E+01 0.90529666424E+01 0.85697352206E+01
 0.82133164470E+01 0.79773721105E+01 0.78597616732E+01 0.78594991706E+01 0.79772868490E+01
 0.82132993282E+01 0.85697135146E+01 0.90530902340E+01 0.96758984920E+01 0.10458942892E+02
 0.11435145944E+02 0.12638085325E+02 0.14110752546E+02 0.15883132246E+02 0.17957158378E+02
 0.16256052840E+02 0.17936769001E+02 0.19721936329E+02 0.21528205861E+02 0.23241992958E+02
 0.24739563565E+02 0.25906768948E+02 0.26649206286E+02 0.26904239654E+02 0.26649625842E+02
 0.25906901052E+02 0.24738449452E+02 0.23238927837E+02 0.21527332379E+02 0.19724301046E+02
 0.17937985051E+02 0.16254835454E+02 0.14732386150E+02 0.13398977697E+02 0.12259263546E+02
 0.11301565732E+02 0.10506072577E+02 0.98513351328E+01 0.93187234573E+01 0.88944752297E+01
 0.85697352206E+01 0.83397535602E+01 0.82022029985E+01 0.81566835833E+01 0.82023721675E+01
 0.83397305445E+01 0.85697332588E+01 0.88943138557E+01 0.93185243854E+01 0.98517248072E+01
 0.10505767801E+02 0.11302455445E+02 0.12259808373E+02 0.13397481077E+02 0.14732801322E+02
 0.13666851330E+02 0.14718219612E+02 0.15850175159E+02 0.17015945845E+02 0.18156887683E+02
 0.19202605328E+02 0.20074481396E+02 0.20701717283E+02 0.21029874866E+02 0.21029562808E+02
 0.20701444717E+02 0.20074880905E+02 0.19204553746E+02 0.18159089032E+02 0.17015827336E+02
 0.15848433060E+02 0.14717886905E+02 0.13667958536E+02 0.12724691050E+02 0.11898138837E+02
 0.11187072025E+02 0.10583503956E+02 0.10077163792E+02 0.96582067020E+01 0.93187234573E+01
 0.90529666424E+01 0.88568633611E+01 0.87277250109E+01 0.86633304926E+01 0.86633577558E+01
 0.87276288419E+01 0.88568586523E+01 0.90531040662E+01 0.93189334063E+01 0.96578833042E+01
 0.10077353290E+02 0.10582674245E+02 0.11186470556E+02 0.11899350743E+02 0.12724505229E+02
 0.12109833166E+02 0.12714418884E+02 0.13374600061E+02 0.14073085433E+02 0.14777654668E+02
 0.15445542112E+02 0.16032637170E+02 0.16492603761E+02 0.16786473676E+02 0.16887841319E+02
 0.16786742519E+02 0.16492615141E+02 0.16031422885E+02 0.15444153056E+02 0.14776290374E+02
 0.14073557962E+02 0.13376005872E+02 0.12714514164E+02 0.12108925802E+02 0.11569659658E+02
 0.11099490430E+02 0.10696770381E+02 0.10357487675E+02 0.10077163792E+02 0.98513351328E+01
 0.96756762910E+01 0.95458070342E+01 0.94572211603E+01 0.94062954178E+01 0.93895776805E+01
 0.94061110643E+01 0.94572275046E+01 0.95456015630E+01 0.96754513282E+01 0.98516311164E+01
 0.10077140970E+02 0.10358405362E+02 0.10697447227E+02 0.11098489841E+02 0.11569576663E+02
 0.11281070791E+02 0.11562081553E+02 0.11883136200E+02 0.12233707765E+02 0.12601432285E+02
 0.12969565219E+02 0.13311440688E+02 0.13600662502E+02 0.13810840699E+02 0.13921328472E+02
 0.13921321572E+02 0.13810683549E+02 0.13601369108E+02 0.13312450501E+02 0.12970457431E+02
 0.12602481073E+02 0.12233216056E+02 0.11881906540E+02 0.11562201285E+02 0.11281731262E+02
 0.11044028864E+02 0.10849437116E+02 0.10696770381E+02 0.10583503956E+02 0.10506072577E+02
 0.10459381438E+02 0.10436739551E+02 0.10430260137E+02 0.10431412561E+02 0.10434022636E+02
 0.10434235821E+02 0.10431692159E+02 0.10430418820E+02 0.10436984375E+02 0.10459145112E+02
 0.10506034112E+02 0.10582621385E+02 0.10696131016E+02 0.10850460093E+02 0.11044379596E+02
 0.11023919033E+02 0.11038254617E+02 0.11086161522E+02 0.11167905113E+02 0.11277700091E+02
 0.11404410916E+02 0.11539036197E+02 0.11666347359E+02 0.11771712813E+02 0.11841609160E+02
 0.11865993894E+02 0.11841624581E+02 0.11771265653E+02 0.11665801974E+02 0.11538214409E+02
 0.11403839597E+02 0.11276649669E+02 0.11168425399E+02 0.11087085791E+02 0.11037866909E+02
 0.11023196442E+02 0.11044028864E+02 0.11099490430E+02 0.11187072025E+02 0.11301565732E+02
 0.11434660464E+02 0.11574574536E+02 0.11706795766E+02 0.11816277371E+02 0.11888419136E+02
 0.11913337652E+02 0.11887973829E+02 0.11815718564E+02 0.11706555542E+02 0.11574786620E+02
 0.11434864781E+02 0.11302653724E+02 0.11187902198E+02 0.11098703508E+02 0.11043605222E+02
 0.11281285943E+02 0.11037407779E+02 0.10839262288E+02 0.10682289249E+02 0.10564368524E+02
 0.10485129770E+02 0.10436461003E+02 0.10412954691E+02 0.10405928740E+02 0.10406943397E+02
 0.10409524738E+02 0.10409455842E+02 0.10407466493E+02 0.10406218644E+02 0.10413423524E+02
 0.10437076598E+02 0.10485524619E+02 0.10565237434E+02 0.10681654652E+02 0.10838265300E+02
 0.11037866909E+02 0.11281731262E+02 0.11569659658E+02 0.11898138837E+02 0.12259263546E+02
 0.12639113047E+02 0.13017630298E+02 0.13369526768E+02 0.13666418236E+02 0.13882379945E+02
 0.13996587886E+02 0.13996832891E+02 0.13883213294E+02 0.13667138615E+02 0.13369334566E+02
 0.13017312539E+02 0.12637891371E+02 0.12258341609E+02 0.11898988502E+02 0.11570399802E+02
 0.12109364856E+02 0.11562917370E+02 0.11086320057E+02 0.10680994117E+02 0.10342395074E+02
 0.10061748315E+02 0.98377736602E+01 0.96640412279E+01 0.95364223057E+01 0.94501836964E+01
 0.94004583208E+01 0.93844035026E+01 0.94000615165E+01 0.94498967579E+01 0.95361754090E+01
 0.96637365614E+01 0.98371284982E+01 0.10061544894E+02 0.10341365856E+02 0.10681654652E+02
 0.11087085791E+02 0.11562201285E+02 0.12108925802E+02 0.12724691050E+02 0.13398977697E+02
 0.14111333845E+02 0.14830110039E+02 0.15513976951E+02 0.16116173200E+02 0.16588346543E+02
 0.16889496953E+02 0.16992916821E+02 0.16888822624E+02 0.16587151787E+02 0.16115696793E+02
 0.15514447108E+02 0.14831636638E+02 0.14112519568E+02 0.13398224289E+02 0.12723693696E+02
 0.13667661946E+02 0.12713496340E+02 0.11882687617E+02 0.11169195087E+02 0.10564264649E+02
 0.10061463567E+02 0.96461285888E+01 0.93118728598E+01 0.90515364466E+01 0.88602323688E+01
 0.87349015975E+01 0.86726985143E+01 0.86732159378E+01 0.87350778937E+01 0.88605879192E+01
 0.90516741849E+01 0.93122503362E+01 0.96466175605E+01 0.10061544894E+02 0.10565237434E+02
 0.11168425399E+02 0.11881906540E+02 0.12714514164E+02 0.13667958536E+02 0.14732386150E+02
 0.15881399494E+02 0.17070093446E+02 0.18235746169E+02 0.19302457877E+02 0.20192405200E+02
 0.20833479595E+02 0.21169173758E+02 0.21169600194E+02 0.20834546951E+02 0.20193615108E+02
 0.19302629750E+02 0.18233622282E+02 0.17068224537E+02 0.15881944711E+02 0.14733681751E+02
 0.16254695639E+02 0.14719142534E+02 0.13375265542E+02 0.12232208916E+02 0.11277809812E+02
 0.10485416944E+02 0.98376624736E+01 0.93124910650E+01 0.88961207782E+01 0.85791262854E+01
 0.83553343899E+01 0.82222298263E+01 0.81774200274E+01 0.82219801712E+01 0.83551532839E+01
 0.85789644196E+01 0.88959383678E+01 0.93122503362E+01 0.98371284982E+01 0.10485524619E+02
 0.11276649669E+02 0.12233216056E+02 0.13376005872E+02 0.14717886905E+02 0.16254835454E+02
 0.17958464114E+02 0.19770305289E+02 0.21602316868E+02 0.23343528516E+02 0.24868169496E+02
 0.26057281006E+02 0.26814425065E+02 0.27074140032E+02 0.26813574585E+02 0.26055996997E+02
 0.24866829738E+02 0.23344972052E+02 0.21605290775E+02 0.19770144474E+02 0.17956381304E+02
 0.20318584823E+02 0.17935907954E+02 0.15848951388E+02 0.14074726840E+02 0.12601172161E+02
 0.11404024037E+02 0.10436689380E+02 0.96634257773E+01 0.90516330116E+01 0.85786541071E+01
 0.82313159048E+01 0.80018462120E+01 0.78882779587E+01 0.78879702808E+01 0.80022525693E+01
 0.82313429557E+01 0.85789644196E+01 0.90516741849E+01 0.96637365614E+01 0.10437076598E+02
 0.11403839597E+02 0.12602481073E+02 0.14073557962E+02 0.15848433060E+02 0.17937985051E+02
 0.20317756208E+02 0.22919772639E+02 0.25626546933E+02 0.28281965595E+02 0.30717665554E+02
 0.32766813798E+02 0.34257585402E+02 0.35044861085E+02 0.35045262713E+02 0.34258747036E+02
 0.32768378909E+02 0.30717710462E+02 0.28278753245E+02 0.25624589772E+02 0.22922223716E+02
 0.26440231093E+02 0.22893897246E+02 0.19724237915E+02 0.17013874505E+02 0.14777932599E+02
 0.12970011083E+02 0.11538674148E+02 0.10413638555E+02 0.95363107776E+01 0.88607423333E+01
 0.83552845239E+01 0.80024748200E+01 0.77923213998E+01 0.77230700065E+01 0.77925023677E+01
 0.80022525693E+01 0.83551532839E+01 0.88605879192E+01 0.95361754090E+01 0.10413423524E+02
 0.11538214409E+02 0.12970457431E+02 0.14776290374E+02 0.17015827336E+02 0.19724301046E+02
 0.22891462399E+02 0.26443269478E+02 0.30241015866E+02 0.34143721295E+02 0.37968495607E+02
 0.41432900380E+02 0.44213427440E+02 0.46017078041E+02 0.46641993466E+02 0.46016370383E+02
 0.44211928736E+02 0.41432253043E+02 0.37970097298E+02 0.34147093436E+02 0.30239971757E+02
 0.35398123346E+02 0.30203086271E+02 0.25563312278E+02 0.21530381071E+02 0.18156929190E+02
 0.15444707524E+02 0.13312097720E+02 0.11665543920E+02 0.10406227932E+02 0.94496769950E+01
 0.87351047660E+01 0.82215981057E+01 0.78883398208E+01 0.77228798746E+01 0.77230700065E+01
 0.78879702808E+01 0.82219801712E+01 0.87350778937E+01 0.94498967579E+01 0.10406218644E+02
 0.11665801974E+02 0.13312450501E+02 0.15444153056E+02 0.18159089032E+02 0.21527332379E+02
 0.25565300362E+02 0.30204063806E+02 0.35394525357E+02 0.41055292211E+02 0.46897554655E+02
 0.52473813439E+02 0.57265131546E+02 0.60780470171E+02 0.62640573305E+02 0.62641054880E+02
 0.60781626855E+02 0.57266311015E+02 0.52473202104E+02 0.46895329782E+02 0.41053703197E+02
 0.48921204452E+02 0.41008717142E+02 0.34069618177E+02 0.28180405715E+02 0.23240600439E+02
 0.19204488918E+02 0.16031269559E+02 0.13601910661E+02 0.11771079837E+02 0.10407767296E+02
 0.94000149418E+01 0.86735815797E+01 0.81771365127E+01 0.78883398208E+01 0.77923213998E+01
 0.78882779587E+01 0.81774200274E+01 0.86732159378E+01 0.94000615165E+01 0.10407466493E+02
 0.11771265653E+02 0.13601369108E+02 0.16031422885E+02 0.19204553746E+02 0.23238927837E+02
 0.28183651286E+02 0.34066119148E+02 0.41010342413E+02 0.48922231870E+02 0.57398089967E+02
 0.65806710998E+02 0.73396024037E+02 0.79434420999E+02 0.83317905738E+02 0.84657689804E+02
 0.83317121589E+02 0.79433697084E+02 0.73396107844E+02 0.65808492095E+02 0.57399751185E+02
 0.68970752347E+02 0.57350981110E+02 0.46802934002E+02 0.37850411649E+02 0.30582749247E+02
 0.24737366448E+02 0.20075938358E+02 0.16491403602E+02 0.13811405662E+02 0.11840853033E+02
 0.10410029247E+02 0.93835472232E+01 0.86735815797E+01 0.82215981057E+01 0.80024748200E+01
 0.80018462120E+01 0.82222298263E+01 0.86726985143E+01 0.93844035026E+01 0.10409455842E+02
 0.11841624581E+02 0.13810683549E+02 0.16492615141E+02 0.20074880905E+02 0.24738449452E+02
 0.30582901185E+02 0.37848605237E+02 0.46805341777E+02 0.57349157545E+02 0.68970683796E+02
 0.80833543459E+02 0.91935824397E+02 0.10127604325E+03 0.10800737015E+03 0.11152678484E+03
 0.11152760013E+03 0.10800766988E+03 0.10127665270E+03 0.91934538126E+02 0.80832862877E+02
 0.96521984324E+02 0.80783521100E+02 0.65710626343E+02 0.52337163168E+02 0.41273645185E+02
 0.32604506961E+02 0.25905825815E+02 0.20702354273E+02 0.16786269878E+02 0.13921668470E+02
 0.11865762642E+02 0.10410029247E+02 0.94000149418E+01 0.87351047660E+01 0.83552845239E+01
 0.82313159048E+01 0.83553343899E+01 0.87349015975E+01 0.94004583208E+01 0.10409524738E+02
 0.11865993894E+02 0.13921321572E+02 0.16786742519E+02 0.20701444717E+02 0.25906901052E+02
 0.32603132996E+02 0.41273992633E+02 0.52337937330E+02 0.65708655619E+02 0.80784554255E+02
 0.96521975196E+02 0.11165000940E+03 0.12488615479E+03 0.13513794563E+03 0.14160306461E+03
 0.14380998392E+03 0.14160276696E+03 0.13513773195E+03 0.12488699226E+03 0.11165074748E+03
 0.13099156982E+03 0.11160879511E+03 0.91843773871E+02 0.73258100347E+02 0.57093820997E+02
 0.44022737659E+02 0.34073705335E+02 0.26648826091E+02 0.21029905670E+02 0.16887404407E+02
 0.13921668470E+02 0.11840853033E+02 0.10407767296E+02 0.94496769950E+01 0.88607423333E+01
 0.85786541071E+01 0.85791262854E+01 0.88602323688E+01 0.94501836964E+01 0.10406943397E+02
 0.11841609160E+02 0.13921328472E+02 0.16887841319E+02 0.21029562808E+02 0.26649625842E+02
 0.34072656180E+02 0.44024090358E+02 0.57092880457E+02 0.73257974384E+02 0.91845067737E+02
 0.11160788574E+03 0.13099152024E+03 0.14842191688E+03 0.16256916056E+03 0.17247240634E+03
 0.17755464376E+03 0.17755445122E+03 0.17247245524E+03 0.16256826245E+03 0.14842130158E+03
 0.17000421316E+03 0.14839393521E+03 0.12481556680E+03 0.10115478471E+03 0.79265173625E+02
 0.60583907457E+02 0.45807874871E+02 0.34849165922E+02 0.26904182573E+02 0.21029905670E+02
 0.16786269878E+02 0.13811405662E+02 0.11771079837E+02 0.10406227932E+02 0.95363107776E+01
 0.90516330116E+01 0.88961207782E+01 0.90515364466E+01 0.95364223057E+01 0.10405928740E+02
 0.11771712813E+02 0.13810840699E+02 0.16786473676E+02 0.21029874866E+02 0.26904239654E+02
 0.34848823864E+02 0.45808393185E+02 0.60582892426E+02 0.79265610134E+02 0.10115467254E+03
 0.12481465421E+03 0.14839486388E+03 0.17000460318E+03 0.18807281122E+03 0.20151774252E+03
 0.20974777209E+03 0.21251086495E+03 0.20974785548E+03 0.20151830502E+03 0.18807314818E+03
 0.20979966585E+03 0.18806344115E+03 0.16252808283E+03 0.13504904711E+03 0.10786717431E+03
 0.83131123987E+02 0.62430427223E+02 0.46426599912E+02 0.34849165922E+02 0.26648826091E+02
 0.20702354273E+02 0.16491403602E+02 0.13601910661E+02 0.11665543920E+02 0.10413638555E+02
 0.96634257773E+01 0.93124910650E+01 0.93118728598E+01 0.96640412279E+01 0.10412954691E+02
 0.11666347359E+02 0.13600662502E+02 0.16492603761E+02 0.20701717283E+02 0.26649206286E+02
 0.34848920704E+02 0.46426994130E+02 0.62429767041E+02 0.83132211511E+02 0.10786665870E+03
 0.13504933232E+03 0.16252893258E+03 0.18806295566E+03 0.20979974782E+03 0.22654121032E+03
 0.23775105711E+03 0.24333035369E+03 0.24333021602E+03 0.23775005867E+03 0.22654038613E+03
 0.24616463753E+03 0.22654981914E+03 0.20151291434E+03 0.17243000205E+03 0.14150652108E+03
 0.11137821933E+03 0.84465077763E+02 0.62430427223E+02 0.45807874871E+02 0.34073705335E+02
 0.25905825815E+02 0.20075938358E+02 0.16031269559E+02 0.13312097720E+02 0.11538674148E+02
 0.10436689380E+02 0.98376624736E+01 0.96461285888E+01 0.98377736602E+01 0.10436461003E+02
 0.11539036197E+02 0.13311440688E+02 0.16032637170E+02 0.20074481396E+02 0.25906768948E+02
 0.34073179858E+02 0.45808111852E+02 0.62430138228E+02 0.84465353150E+02 0.11137742909E+03
 0.14150707011E+03 0.17242993171E+03 0.20151254417E+03 0.22655054156E+03 0.24616481363E+03
 0.25988441154E+03 0.26786583040E+03 0.27047074570E+03 0.26786648575E+03 0.25988495435E+03
 0.27563709017E+03 0.25990682479E+03 0.23777633693E+03 0.20975026075E+03 0.17751346468E+03
 0.14371111284E+03 0.11137821933E+03 0.83131123987E+02 0.60583907457E+02 0.44022737659E+02
 0.32604506961E+02 0.24737366448E+02 0.19204488918E+02 0.15444707524E+02 0.12970011083E+02
 0.11404024037E+02 0.10485416944E+02 0.10061463567E+02 0.10061748315E+02 0.10485129770E+02
 0.11404410916E+02 0.12969565219E+02 0.15445542112E+02 0.19202605328E+02 0.24739563565E+02
 0.32602626768E+02 0.44024084783E+02 0.60582884231E+02 0.83132229722E+02 0.11137740235E+03
 0.14371231000E+03 0.17751270876E+03 0.20975080053E+03 0.23777651988E+03 0.25990681587E+03
 0.27563684879E+03 0.28539022937E+03 0.28997152603E+03 0.28997115265E+03 0.28538938703E+03
 0.29644812822E+03 0.28541833863E+03 0.26791101508E+03 0.24336901159E+03 0.21251761068E+03
 0.17751346468E+03 0.14150652108E+03 0.10786717431E+03 0.79265173625E+02 0.57093820997E+02
 0.41273645185E+02 0.30582749247E+02 0.23240600439E+02 0.18156929190E+02 0.14777932599E+02
 0.12601172161E+02 0.11277809812E+02 0.10564264649E+02 0.10342395074E+02 0.10564368524E+02
 0.11277700091E+02 0.12601432285E+02 0.14777654668E+02 0.18156887683E+02 0.23241992958E+02
 0.30580455777E+02 0.41275712867E+02 0.57092136680E+02 0.79266341690E+02 0.10786610149E+03
 0.14150764444E+03 0.17751230527E+03 0.21251853292E+03 0.24336836599E+03 0.26791059304E+03
 0.28541819187E+03 0.29644811061E+03 0.30226111869E+03 0.30404006551E+03 0.30226178994E+03
 0.30888105322E+03 0.30228680638E+03 0.29001869977E+03 0.27052367561E+03 0.24336901159E+03
 0.20975026075E+03 0.17243000205E+03 0.13504904711E+03 0.10115478471E+03 0.73258100347E+02
 0.52337163168E+02 0.37850411649E+02 0.28180405715E+02 0.21530381071E+02 0.17013874505E+02
 0.14074726840E+02 0.12232208916E+02 0.11169195087E+02 0.10680994117E+02 0.10682289249E+02
 0.11167905113E+02 0.12233707765E+02 0.14073085433E+02 0.17015945845E+02 0.21528205861E+02
 0.28180802488E+02 0.37851447003E+02 0.52335682188E+02 0.73259756383E+02 0.10115358038E+03
 0.13505025968E+03 0.17242892660E+03 0.20975139424E+03 0.24336775474E+03 0.27052444133E+03
 0.29001829484E+03 0.30228695439E+03 0.30888030612E+03 0.31159488886E+03 0.31159453953E+03
 0.31485375831E+03 0.31161136667E+03 0.30407641181E+03 0.29001869977E+03 0.26791101508E+03
 0.23777633693E+03 0.20151291434E+03 0.16252808283E+03 0.12481556680E+03 0.91843773871E+02
 0.65710626343E+02 0.46802934002E+02 0.34069618177E+02 0.25563312278E+02 0.19724237915E+02
 0.15848951388E+02 0.13375265542E+02 0.11882687617E+02 0.11086320057E+02 0.10839262288E+02
 0.11086161522E+02 0.11883136200E+02 0.13374600061E+02 0.15850175159E+02 0.19721936329E+02
 0.25566865171E+02 0.34066994282E+02 0.46803676227E+02 0.65710427259E+02 0.91843613640E+02
 0.12481602106E+03 0.16252768243E+03 0.20151346762E+03 0.23777568852E+03 0.26791116056E+03
 0.29001802026E+03 0.30407570940E+03 0.31161109787E+03 0.31485426478E+03 0.31569007445E+03
 0.31697508300E+03 0.31569728522E+03 0.31161136667E+03 0.30228680638E+03 0.28541833863E+03
 0.25990682479E+03 0.22654981914E+03 0.18806344115E+03 0.14839393521E+03 0.11160879511E+03
 0.80783521100E+02 0.57350981110E+02 0.41008717142E+02 0.30203086271E+02 0.22893897246E+02
 0.17935907954E+02 0.14719142534E+02 0.12713496340E+02 0.11562917370E+02 0.11037407779E+02
 0.11038254617E+02 0.11562081553E+02 0.12714418884E+02 0.14718219612E+02 0.17936769001E+02
 0.22893990395E+02 0.30200407515E+02 0.41011920779E+02 0.57349377367E+02 0.80784482937E+02
 0.11160811451E+03 0.14839448520E+03 0.18806304367E+03 0.22654981229E+03 0.25990685149E+03
 0.28541817540E+03 0.30228665872E+03 0.31161204815E+03 0.31569626390E+03 0.31697486643E+03
 0.31719039066E+03 0.31666336260E+03 0.31426890859E+03 0.30790364225E+03 0.29504405339E+03
 0.27386375287E+03 0.24416151429E+03 0.20775218929E+03 0.16809940542E+03 0.12937392562E+03
 0.95267035129E+02 0.68079378429E+02 0.48335855365E+02 0.35029198482E+02 0.26194315045E+02
 0.20147615116E+02 0.16134393310E+02 0.13577087182E+02 0.12036341887E+02 0.11216187901E+02
 0.10961756708E+02 0.11215987645E+02 0.12036777919E+02 0.13576324748E+02 0.16135677501E+02
 0.20145393575E+02 0.26197583555E+02 0.35027803023E+02 0.48334681175E+02 0.68080503283E+02