Pt-hcc                                  
   1.00000000000000     
     2.798111    0.000000    0.000000
    -1.399055    2.423235    0.000000
     0.000000    0.000000    4.847662
   Pt
     2
Direct
  0.000000  0.000000  0.000000
  0.333333  0.666667  0.500000
 
   40   40   72
 0.28774486059E+03 0.28738632833E+03 0.28564344115E+03 0.28076320174E+03 0.27058313022E+03
 0.25340787789E+03 0.22878707753E+03 0.19789335891E+03 0.16336298343E+03 0.12861400559E+03
 0.96945413322E+02 0.70706447882E+02 0.50868711620E+02 0.37033995477E+02 0.27840922740E+02
 0.21594164707E+02 0.17358775403E+02 0.14634045464E+02 0.12980004797E+02 0.12106165771E+02
 0.11831281513E+02 0.12106042709E+02 0.12980256346E+02 0.14633679608E+02 0.17359162233E+02
 0.21594291994E+02 0.27838617700E+02 0.37036927186E+02 0.50867430526E+02 0.70707023992E+02
 0.96945029378E+02 0.12861452322E+03 0.16336251696E+03 0.19789395218E+03 0.22878661063E+03
 0.25340847333E+03 0.27058283177E+03 0.28076325518E+03 0.28564338772E+03 0.28738629758E+03
 0.28738629758E+03 0.28738624679E+03 0.28632796567E+03 0.28297812692E+03 0.27534623610E+03
 0.26147364987E+03 0.24028702521E+03 0.21218305250E+03 0.17913772672E+03 0.14425915887E+03
 0.11097461919E+03 0.82125130973E+02 0.59350076822E+02 0.42862654610E+02 0.31719275276E+02
 0.24262514109E+02 0.19145381944E+02 0.15759428805E+02 0.13636139351E+02 0.12412207083E+02
 0.11857171882E+02 0.11856331188E+02 0.12413097516E+02 0.13635056046E+02 0.15760835868E+02
 0.19143241501E+02 0.24265710133E+02 0.31717409448E+02 0.42862496840E+02 0.59350359030E+02
 0.82124855919E+02 0.11097473874E+03 0.14425892996E+03 0.17913790332E+03 0.21218296783E+03
 0.24028702029E+03 0.26147394016E+03 0.27534605767E+03 0.28297829985E+03 0.28632812026E+03
 0.28564338772E+03 0.28633487979E+03 0.28564322025E+03 0.28297843875E+03 0.27680035790E+03
 0.26524837887E+03 0.24694076211E+03 0.22167833386E+03 0.19076222391E+03 0.15680426702E+03
 0.12307186603E+03 0.92637814954E+02 0.67621434676E+02 0.48819514647E+02 0.35742957758E+02
 0.27013353631E+02 0.21029898145E+02 0.16969764955E+02 0.14353878988E+02 0.12763163488E+02
 0.11920481062E+02 0.11655646006E+02 0.11920290492E+02 0.12763497975E+02 0.14353267356E+02
 0.16970576899E+02 0.21029206149E+02 0.27012161338E+02 0.35745434837E+02 0.48817566799E+02
 0.67623204363E+02 0.92636470936E+02 0.12307285041E+03 0.15680356903E+03 0.19076255644E+03
 0.22167833257E+03 0.24694075166E+03 0.26524859153E+03 0.27680100575E+03 0.28297829985E+03
 0.28076325518E+03 0.28299573722E+03 0.28299580989E+03 0.28076315634E+03 0.27534591415E+03
 0.26524865656E+03 0.24910530804E+03 0.22638344244E+03 0.19783147927E+03 0.16551120310E+03
 0.13234108759E+03 0.10136789972E+03 0.74983709614E+02 0.54437046199E+02 0.39689866597E+02
 0.29711726039E+02 0.22914464719E+02 0.18216981249E+02 0.15108356565E+02 0.13149392957E+02
 0.12017291945E+02 0.11500959801E+02 0.11500769046E+02 0.12017477361E+02 0.13149069172E+02
 0.15108838365E+02 0.18215898547E+02 0.22917081445E+02 0.29708953087E+02 0.39691803610E+02
 0.54435682097E+02 0.74984290033E+02 0.10136747295E+03 0.13234122107E+03 0.16551117673E+03
 0.19783145350E+03 0.22638382506E+03 0.24910537670E+03 0.26524859153E+03 0.27534605767E+03
 0.27058283177E+03 0.27537401072E+03 0.27683895359E+03 0.27537363355E+03 0.27058257430E+03
 0.26147381900E+03 0.24694077487E+03 0.22638325998E+03 0.20019856093E+03 0.16995615500E+03
 0.13814633411E+03 0.10760054611E+03 0.80777666416E+02 0.59209840245E+02 0.43249605051E+02
 0.32206045931E+02 0.24688610052E+02 0.19432812065E+02 0.15865866642E+02 0.13553453647E+02
 0.12141830939E+02 0.11386510754E+02 0.11150635613E+02 0.11386302372E+02 0.12142208654E+02
 0.13552725908E+02 0.15867044973E+02 0.19430808371E+02 0.24690252579E+02 0.32205383840E+02
 0.43249787714E+02 0.59210119455E+02 0.80777481965E+02 0.10760078368E+03 0.13814582469E+03
 0.16995670005E+03 0.20019770344E+03 0.22638382506E+03 0.24694075166E+03 0.26147394016E+03
 0.25340847333E+03 0.26150560644E+03 0.26530166600E+03 0.26530147529E+03 0.26150658248E+03
 0.25340815112E+03 0.24028709590E+03 0.22167807718E+03 0.19783216238E+03 0.16995563800E+03
 0.14012120486E+03 0.11084125730E+03 0.84477975535E+02 0.62682482468E+02 0.46089990405E+02
 0.34317663155E+02 0.26234601431E+02 0.20538997482E+02 0.16582150334E+02 0.13954008171E+02
 0.12282430583E+02 0.11308827379E+02 0.10860238080E+02 0.10861183438E+02 0.11307827906E+02
 0.12283495488E+02 0.13952746195E+02 0.16583714654E+02 0.20538074554E+02 0.26234790173E+02
 0.34317996010E+02 0.46089473150E+02 0.62682984641E+02 0.84477205097E+02 0.11084206161E+03
 0.14012020131E+03 0.16995670005E+03 0.19783145350E+03 0.22167833257E+03 0.24028702029E+03
 0.22878661063E+03 0.24031603798E+03 0.24699566818E+03 0.24917026483E+03 0.24699528537E+03
 0.24031551630E+03 0.22878697727E+03 0.21218326967E+03 0.19076285324E+03 0.16551059005E+03
 0.13814691917E+03 0.11084115282E+03 0.85749155716E+02 0.64510193616E+02 0.47923895392E+02
 0.35856919522E+02 0.27439511533E+02 0.21454880611E+02 0.17209762124E+02 0.14322699476E+02
 0.12427967354E+02 0.11259386526E+02 0.10625368521E+02 0.10426792407E+02 0.10625449763E+02
 0.11259201256E+02 0.12428255935E+02 0.14322240977E+02 0.17209692004E+02 0.21455499351E+02
 0.27438590189E+02 0.35857838139E+02 0.47923073921E+02 0.64510993310E+02 0.85748384353E+02
 0.11084206161E+03 0.13814582469E+03 0.16551117673E+03 0.19076255644E+03 0.21218296783E+03
 0.19789395218E+03 0.21219981776E+03 0.22171780610E+03 0.22643836480E+03 0.22643884195E+03
 0.22171796764E+03 0.21220064679E+03 0.19789362530E+03 0.17913774068E+03 0.15680351219E+03
 0.13234214295E+03 0.10759962544E+03 0.84478384728E+02 0.64510113997E+02 0.48557950667E+02
 0.36669849254E+02 0.28207392440E+02 0.22110008078E+02 0.17700354159E+02 0.14631480774E+02
 0.12563397912E+02 0.11231511913E+02 0.10440172836E+02 0.10073230113E+02 0.10073019831E+02
 0.10440402984E+02 0.11231296344E+02 0.12563670116E+02 0.14631673019E+02 0.17699743188E+02
 0.22110819151E+02 0.28206715309E+02 0.36670509712E+02 0.48557371566E+02 0.64510993310E+02
 0.84477205097E+02 0.10760078368E+03 0.13234122107E+03 0.15680356903E+03 0.17913790332E+03
 0.16336251696E+03 0.17913721091E+03 0.19077388846E+03 0.19785599581E+03 0.20022846956E+03
 0.19785612555E+03 0.19077379624E+03 0.17913685717E+03 0.16336303444E+03 0.14425958986E+03
 0.12307264863E+03 0.10136670571E+03 0.80778414584E+02 0.62681874233E+02 0.47923976584E+02
 0.36669973320E+02 0.28471083901E+02 0.22452071857E+02 0.18012568719E+02 0.14854906981E+02
 0.12673029672E+02 0.11219075973E+02 0.10299384820E+02 0.97948259612E+01 0.96324494494E+01
 0.97948376899E+01 0.10299398745E+02 0.11219061232E+02 0.12672710912E+02 0.14855473631E+02
 0.18011815032E+02 0.22452566736E+02 0.28470485991E+02 0.36670509712E+02 0.47923073921E+02
 0.62682984641E+02 0.80777481965E+02 0.10136747295E+03 0.12307285041E+03 0.14425892996E+03
 0.12861452322E+03 0.14423953474E+03 0.15677918068E+03 0.16549048560E+03 0.16994040407E+03
 0.16994002251E+03 0.16549034818E+03 0.15677931421E+03 0.14424017132E+03 0.12861407445E+03
 0.11097416846E+03 0.92636829139E+02 0.74985263350E+02 0.59208739450E+02 0.46090676664E+02
 0.35856671300E+02 0.28207318606E+02 0.22451981170E+02 0.18120012784E+02 0.14971861230E+02
 0.12745034702E+02 0.11214499725E+02 0.10201366993E+02 0.95862719964E+01 0.92953316363E+01
 0.92952615669E+01 0.95863698136E+01 0.10201328270E+02 0.11214838604E+02 0.12744516687E+02
 0.14972493513E+02 0.18119532681E+02 0.22452566736E+02 0.28206715309E+02 0.35857838139E+02
 0.46089473150E+02 0.59210119455E+02 0.74984290033E+02 0.92636470936E+02 0.11097473874E+03
 0.96945029378E+02 0.11093841178E+03 0.12301468802E+03 0.13227232552E+03 0.13807454567E+03
 0.14004837955E+03 0.13807507595E+03 0.13227290906E+03 0.12301445194E+03 0.11093782913E+03
 0.96945244381E+02 0.82125681403E+02 0.67622080709E+02 0.54434976087E+02 0.43251099099E+02
 0.34316553359E+02 0.27440014730E+02 0.22110055329E+02 0.18012589247E+02 0.14972064038E+02
 0.12769725838E+02 0.11214021223E+02 0.10142732442E+02 0.94479088878E+01 0.90546362261E+01
 0.89287387629E+01 0.90546191479E+01 0.94479759894E+01 0.10142466557E+02 0.11214464047E+02
 0.12769086213E+02 0.14972493513E+02 0.18011815032E+02 0.22110819151E+02 0.27438590189E+02
 0.34317996010E+02 0.43249787714E+02 0.54435682097E+02 0.67623204363E+02 0.82124855919E+02
 0.70707023992E+02 0.82079176594E+02 0.92553183089E+02 0.10125913291E+03 0.10747754774E+03
 0.11071247140E+03 0.11071209171E+03 0.10747677563E+03 0.10125823248E+03 0.92553623622E+02
 0.82079846889E+02 0.70706817570E+02 0.59349130501E+02 0.48818966626E+02 0.39691942659E+02
 0.32204146809E+02 0.26236221487E+02 0.21453867734E+02 0.17700791315E+02 0.14854450864E+02
 0.12745202441E+02 0.11213600600E+02 0.10123877299E+02 0.93779169856E+01 0.89109578706E+01
 0.86853890336E+01 0.86857588098E+01 0.89106019407E+01 0.93784693524E+01 0.10123244504E+02
 0.11214464047E+02 0.12744516687E+02 0.14855473631E+02 0.17699743188E+02 0.21455499351E+02
 0.26234790173E+02 0.32205383840E+02 0.39691803610E+02 0.48817566799E+02 0.59350359030E+02
 0.50867430526E+02 0.59300109952E+02 0.67527192464E+02 0.74850995206E+02 0.80618047676E+02
 0.84302658350E+02 0.85569271219E+02 0.84303310712E+02 0.80619001861E+02 0.74851871496E+02
 0.67526174726E+02 0.59298945690E+02 0.50867406504E+02 0.42864510887E+02 0.35742757591E+02
 0.29709836074E+02 0.24690749916E+02 0.20537070883E+02 0.17211135365E+02 0.14630813574E+02
 0.12673651387E+02 0.11214325239E+02 0.10143135251E+02 0.93780686529E+01 0.88625669541E+01
 0.85646245868E+01 0.84664577758E+01 0.85647056590E+01 0.88623187101E+01 0.93784693524E+01
 0.10142466557E+02 0.11214838604E+02 0.12672710912E+02 0.14631673019E+02 0.17209692004E+02
 0.20538074554E+02 0.24690252579E+02 0.29708953087E+02 0.35745434837E+02 0.42862496840E+02
 0.37036927186E+02 0.42815307666E+02 0.48722912557E+02 0.54297067159E+02 0.59036463752E+02
 0.62484970380E+02 0.64300817587E+02 0.64300326849E+02 0.62484079109E+02 0.59035026908E+02
 0.54296363879E+02 0.48724213764E+02 0.42817336997E+02 0.37035187936E+02 0.31715894500E+02
 0.27015563260E+02 0.22914883847E+02 0.19431602198E+02 0.16583805075E+02 0.14321377246E+02
 0.12564134147E+02 0.11218293442E+02 0.10201698647E+02 0.94473015100E+01 0.89110189016E+01
 0.85643211416E+01 0.83942165280E+01 0.83939138250E+01 0.85647056590E+01 0.89106019407E+01
 0.94479759894E+01 0.10201328270E+02 0.11219061232E+02 0.12563670116E+02 0.14322240977E+02
 0.16583714654E+02 0.19430808371E+02 0.22917081445E+02 0.27012161338E+02 0.31717409448E+02
 0.27838617700E+02 0.31677044002E+02 0.35660014705E+02 0.39561411631E+02 0.43080465721E+02
 0.45890095485E+02 0.47705163727E+02 0.48333059210E+02 0.47705840193E+02 0.45891270238E+02
 0.43081889358E+02 0.39561655602E+02 0.35657408721E+02 0.31675561745E+02 0.27842177030E+02
 0.24264928453E+02 0.21027335696E+02 0.18217795371E+02 0.15865995522E+02 0.13953142538E+02
 0.12428739033E+02 0.11231198829E+02 0.10299877741E+02 0.95862926478E+01 0.90550267181E+01
 0.86856455048E+01 0.84665533332E+01 0.83942165280E+01 0.84664577758E+01 0.86857588098E+01
 0.90546191479E+01 0.95863698136E+01 0.10299398745E+02 0.11231296344E+02 0.12428255935E+02
 0.13952746195E+02 0.15867044973E+02 0.18215898547E+02 0.21029206149E+02 0.24265710133E+02
 0.21594291994E+02 0.24233345557E+02 0.26941073551E+02 0.29598110096E+02 0.32057969089E+02
 0.34138650365E+02 0.35655426300E+02 0.36455873460E+02 0.36455682595E+02 0.35654376589E+02
 0.34137197045E+02 0.32056668297E+02 0.29598985523E+02 0.26944472502E+02 0.24232549813E+02
 0.21591835092E+02 0.19144820412E+02 0.16971390052E+02 0.15107855588E+02 0.13553481496E+02
 0.12283180352E+02 0.11258616893E+02 0.10440503502E+02 0.97942355218E+01 0.92954223340E+01
 0.89281937982E+01 0.86856455048E+01 0.85643211416E+01 0.85646245868E+01 0.86853890336E+01
 0.89287387629E+01 0.92952615669E+01 0.97948376899E+01 0.10440402984E+02 0.11259201256E+02
 0.12283495488E+02 0.13552725908E+02 0.15108838365E+02 0.16970576899E+02 0.19143241501E+02
 0.17359162233E+02 0.19118078204E+02 0.20973675247E+02 0.22828675090E+02 0.24569839714E+02
 0.26082963289E+02 0.27262042314E+02 0.28014533848E+02 0.28273488391E+02 0.28015019587E+02
 0.27263425983E+02 0.26084490380E+02 0.24570465559E+02 0.22826507127E+02 0.20971862921E+02
 0.19119660290E+02 0.17360553405E+02 0.15759807501E+02 0.14352725022E+02 0.13149793368E+02
 0.12141519321E+02 0.11308282333E+02 0.10625909260E+02 0.10073143202E+02 0.96329128298E+01
 0.92954223340E+01 0.90550267181E+01 0.89110189016E+01 0.88625669541E+01 0.89109578706E+01
 0.90546362261E+01 0.92953316363E+01 0.96324494494E+01 0.10073019831E+02 0.10625449763E+02
 0.11307827906E+02 0.12142208654E+02 0.13149069172E+02 0.14353267356E+02 0.15760835868E+02
 0.14633679608E+02 0.15741966053E+02 0.16928747842E+02 0.18148437210E+02 0.19336706630E+02
 0.20418041284E+02 0.21314014745E+02 0.21954469790E+02 0.22288604733E+02 0.22288318261E+02
 0.21953678601E+02 0.21312473255E+02 0.20416857316E+02 0.19337523074E+02 0.18150256622E+02
 0.16929555658E+02 0.15740894431E+02 0.14632703614E+02 0.13635956799E+02 0.12763913418E+02
 0.12017126782E+02 0.11386764970E+02 0.10860776913E+02 0.10426181197E+02 0.10073143202E+02
 0.97942355218E+01 0.95862926478E+01 0.94473015100E+01 0.93780686529E+01 0.93779169856E+01
 0.94479088878E+01 0.95862719964E+01 0.97948259612E+01 0.10073230113E+02 0.10426792407E+02
 0.10861183438E+02 0.11386302372E+02 0.12017477361E+02 0.12763497975E+02 0.13635056046E+02
 0.12980256346E+02 0.13620756356E+02 0.14321965000E+02 0.15058356412E+02 0.15796422402E+02
 0.16493272191E+02 0.17102338101E+02 0.17578552843E+02 0.17881665915E+02 0.17986042890E+02
 0.17882264646E+02 0.17579512859E+02 0.17103868526E+02 0.16493424146E+02 0.15795401298E+02
 0.15057375167E+02 0.14321414744E+02 0.13621664829E+02 0.12981013079E+02 0.12412487313E+02
 0.11919755785E+02 0.11500965597E+02 0.11150139676E+02 0.10860776913E+02 0.10625909260E+02
 0.10440503502E+02 0.10299877741E+02 0.10201698647E+02 0.10143135251E+02 0.10123877299E+02
 0.10142732442E+02 0.10201366993E+02 0.10299384820E+02 0.10440172836E+02 0.10625368521E+02
 0.10860238080E+02 0.11150635613E+02 0.11500769046E+02 0.11920290492E+02 0.12413097516E+02
 0.12106042709E+02 0.12401820742E+02 0.12739534294E+02 0.13111365962E+02 0.13500688027E+02
 0.13886720482E+02 0.14243325499E+02 0.14541652748E+02 0.14757517160E+02 0.14870532763E+02
 0.14870261781E+02 0.14756727164E+02 0.14540642409E+02 0.14242478392E+02 0.13886992574E+02
 0.13501431110E+02 0.13112003545E+02 0.12739920682E+02 0.12401167130E+02 0.12105203611E+02
 0.11856802362E+02 0.11656095229E+02 0.11500965597E+02 0.11386764970E+02 0.11308282333E+02
 0.11258616893E+02 0.11231198829E+02 0.11218293442E+02 0.11214325239E+02 0.11213600600E+02
 0.11214021223E+02 0.11214499725E+02 0.11219075973E+02 0.11231511913E+02 0.11259386526E+02
 0.11308827379E+02 0.11386510754E+02 0.11500959801E+02 0.11655646006E+02 0.11856331188E+02
 0.11831281513E+02 0.11846434165E+02 0.11900526737E+02 0.11987843583E+02 0.12102966128E+02
 0.12235029543E+02 0.12371564496E+02 0.12499893645E+02 0.12604153251E+02 0.12672730350E+02
 0.12696746312E+02 0.12673153936E+02 0.12605090477E+02 0.12500379757E+02 0.12372083689E+02
 0.12234738178E+02 0.12102279291E+02 0.11987491976E+02 0.11899994573E+02 0.11846919364E+02
 0.11831995443E+02 0.11856802362E+02 0.11919755785E+02 0.12017126782E+02 0.12141519321E+02
 0.12283180352E+02 0.12428739033E+02 0.12564134147E+02 0.12673651387E+02 0.12745202441E+02
 0.12769725838E+02 0.12745034702E+02 0.12673029672E+02 0.12563397912E+02 0.12427967354E+02
 0.12282430583E+02 0.12141830939E+02 0.12017291945E+02 0.11920481062E+02 0.11857171882E+02
 0.12106165771E+02 0.11847306586E+02 0.11637254603E+02 0.11475133682E+02 0.11354478133E+02
 0.11270926089E+02 0.11218102679E+02 0.11187105132E+02 0.11172470666E+02 0.11166642829E+02
 0.11165025056E+02 0.11164892859E+02 0.11166045556E+02 0.11171874696E+02 0.11186904901E+02
 0.11217554765E+02 0.11271281454E+02 0.11354939230E+02 0.11475274203E+02 0.11637709732E+02
 0.11846919364E+02 0.12105203611E+02 0.12412487313E+02 0.12763913418E+02 0.13149793368E+02
 0.13553481496E+02 0.13953142538E+02 0.14321377246E+02 0.14630813574E+02 0.14854450864E+02
 0.14972064038E+02 0.14971861230E+02 0.14854906981E+02 0.14631480774E+02 0.14322699476E+02
 0.13954008171E+02 0.13553453647E+02 0.13149392957E+02 0.12763163488E+02 0.12412207083E+02
 0.12980004797E+02 0.12400854884E+02 0.11900685886E+02 0.11475233959E+02 0.11121197019E+02
 0.10829685268E+02 0.10593378190E+02 0.10408538552E+02 0.10268612409E+02 0.10171415653E+02
 0.10114076387E+02 0.10095141698E+02 0.10114424337E+02 0.10171765502E+02 0.10269037138E+02
 0.10408692897E+02 0.10593855897E+02 0.10829312332E+02 0.11120725945E+02 0.11475274203E+02
 0.11899994573E+02 0.12401167130E+02 0.12981013079E+02 0.13635956799E+02 0.14352725022E+02
 0.15107855588E+02 0.15865995522E+02 0.16583805075E+02 0.17211135365E+02 0.17700791315E+02
 0.18012589247E+02 0.18120012784E+02 0.18012568719E+02 0.17700354159E+02 0.17209762124E+02
 0.16582150334E+02 0.15865866642E+02 0.15108356565E+02 0.14353878988E+02 0.13636139351E+02
 0.14634045464E+02 0.13621860776E+02 0.12739132948E+02 0.11987675683E+02 0.11354639374E+02
 0.10828847468E+02 0.10397613211E+02 0.10047428648E+02 0.97729849282E+01 0.95684766084E+01
 0.94325296091E+01 0.93646388815E+01 0.93643821810E+01 0.94324039415E+01 0.95683069015E+01
 0.97725738289E+01 0.10047425039E+02 0.10397064583E+02 0.10829312332E+02 0.11354939230E+02
 0.11987491976E+02 0.12739920682E+02 0.13621664829E+02 0.14632703614E+02 0.15759807501E+02
 0.16971390052E+02 0.18217795371E+02 0.19431602198E+02 0.20537070883E+02 0.21453867734E+02
 0.22110055329E+02 0.22451981170E+02 0.22452071857E+02 0.22110008078E+02 0.21454880611E+02
 0.20538997482E+02 0.19432812065E+02 0.18216981249E+02 0.16969764955E+02 0.15759428805E+02
 0.17358775403E+02 0.15740472138E+02 0.14322542487E+02 0.13111546021E+02 0.12102560119E+02
 0.11271776891E+02 0.10593325714E+02 0.10047442043E+02 0.96138790501E+01 0.92830270914E+01
 0.90483864561E+01 0.89076936864E+01 0.88610611341E+01 0.89078396543E+01 0.90484168158E+01
 0.92832485892E+01 0.96142457246E+01 0.10047425039E+02 0.10593855897E+02 0.11271281454E+02
 0.12102279291E+02 0.13112003545E+02 0.14321414744E+02 0.15740894431E+02 0.17360553405E+02
 0.19144820412E+02 0.21027335696E+02 0.22914883847E+02 0.24690749916E+02 0.26236221487E+02
 0.27440014730E+02 0.28207318606E+02 0.28471083901E+02 0.28207392440E+02 0.27439511533E+02
 0.26234601431E+02 0.24688610052E+02 0.22914464719E+02 0.21029898145E+02 0.19145381944E+02
 0.21594164707E+02 0.19120277932E+02 0.16927914287E+02 0.15057917495E+02 0.13501342000E+02
 0.12234061135E+02 0.11218227241E+02 0.10408537372E+02 0.97729573753E+01 0.92833770548E+01
 0.89243767901E+01 0.86877071788E+01 0.85695015117E+01 0.85696326982E+01 0.86876443501E+01
 0.89243578490E+01 0.92832485892E+01 0.97725738289E+01 0.10408692897E+02 0.11217554765E+02
 0.12234738178E+02 0.13501431110E+02 0.15057375167E+02 0.16929555658E+02 0.19119660290E+02
 0.21591835092E+02 0.24264928453E+02 0.27015563260E+02 0.29709836074E+02 0.32204146809E+02
 0.34316553359E+02 0.35856671300E+02 0.36669973320E+02 0.36669849254E+02 0.35856919522E+02
 0.34317663155E+02 0.32206045931E+02 0.29711726039E+02 0.27013353631E+02 0.24262514109E+02
 0.27840922740E+02 0.24230115984E+02 0.20974404486E+02 0.18149412964E+02 0.15795269671E+02
 0.13887818753E+02 0.12371364270E+02 0.11187122307E+02 0.10268713898E+02 0.95681522010E+01
 0.90484434837E+01 0.86874944538E+01 0.84744053599E+01 0.84036125795E+01 0.84742079003E+01
 0.86876443501E+01 0.90484168158E+01 0.95683069015E+01 0.10269037138E+02 0.11186904901E+02
 0.12372083689E+02 0.13886992574E+02 0.15795401298E+02 0.18150256622E+02 0.20971862921E+02
 0.24232549813E+02 0.27842177030E+02 0.31715894500E+02 0.35742757591E+02 0.39691942659E+02
 0.43251099099E+02 0.46090676664E+02 0.47923976584E+02 0.48557950667E+02 0.47923895392E+02
 0.46089990405E+02 0.43249605051E+02 0.39689866597E+02 0.35742957758E+02 0.31719275276E+02
 0.37033995477E+02 0.31679022535E+02 0.26942260888E+02 0.22826232112E+02 0.19338697345E+02
 0.16491877053E+02 0.14243657759E+02 0.12499859945E+02 0.11172402483E+02 0.10171757567E+02
 0.94324860566E+01 0.89078930018E+01 0.85695562928E+01 0.84034505790E+01 0.84036125795E+01
 0.85696326982E+01 0.89078396543E+01 0.94324039415E+01 0.10171765502E+02 0.11171874696E+02
 0.12500379757E+02 0.14242478392E+02 0.16493424146E+02 0.19337523074E+02 0.22826507127E+02
 0.26944472502E+02 0.31675561745E+02 0.37035187936E+02 0.42864510887E+02 0.48818966626E+02
 0.54434976087E+02 0.59208739450E+02 0.62681874233E+02 0.64510113997E+02 0.64510193616E+02
 0.62682482468E+02 0.59209840245E+02 0.54437046199E+02 0.48819514647E+02 0.42862654610E+02
 0.50868711620E+02 0.42815437840E+02 0.35657614342E+02 0.29600862909E+02 0.24568305151E+02
 0.20418751852E+02 0.17102611331E+02 0.14541149433E+02 0.12604696819E+02 0.11165968522E+02
 0.10114502813E+02 0.93642031199E+01 0.88612498373E+01 0.85695562928E+01 0.84744053599E+01
 0.85695015117E+01 0.88610611341E+01 0.93643821810E+01 0.10114424337E+02 0.11166045556E+02
 0.12605090477E+02 0.14540642409E+02 0.17103868526E+02 0.20416857316E+02 0.24570465559E+02
 0.29598985523E+02 0.35657408721E+02 0.42817336997E+02 0.50867406504E+02 0.59349130501E+02
 0.67622080709E+02 0.74985263350E+02 0.80778414584E+02 0.84478384728E+02 0.85749155716E+02
 0.84477975535E+02 0.80777666416E+02 0.74983709614E+02 0.67621434676E+02 0.59350076822E+02
 0.70706447882E+02 0.59299893374E+02 0.48724783866E+02 0.39559723749E+02 0.32058510174E+02
 0.26083181686E+02 0.21313138677E+02 0.17579488745E+02 0.14756638219E+02 0.12673621083E+02
 0.11164456155E+02 0.10095673326E+02 0.93642031199E+01 0.89078930018E+01 0.86874944538E+01
 0.86877071788E+01 0.89076936864E+01 0.93646388815E+01 0.10095141698E+02 0.11164892859E+02
 0.12673153936E+02 0.14756727164E+02 0.17579512859E+02 0.21312473255E+02 0.26084490380E+02
 0.32056668297E+02 0.39561655602E+02 0.48724213764E+02 0.59298945690E+02 0.70706817570E+02
 0.82125681403E+02 0.92636829139E+02 0.10136670571E+03 0.10759962544E+03 0.11084115282E+03
 0.11084125730E+03 0.10760054611E+03 0.10136789972E+03 0.92637814954E+02 0.82125130973E+02
 0.96945413322E+02 0.82079205409E+02 0.67525642894E+02 0.54298229822E+02 0.43080517091E+02
 0.34138067746E+02 0.27263141539E+02 0.21953363623E+02 0.17882566796E+02 0.14869609584E+02
 0.12697300577E+02 0.11164456155E+02 0.10114502813E+02 0.94324860566E+01 0.90484434837E+01
 0.89243767901E+01 0.90483864561E+01 0.94325296091E+01 0.10114076387E+02 0.11165025056E+02
 0.12696746312E+02 0.14870261781E+02 0.17882264646E+02 0.21953678601E+02 0.27263425983E+02
 0.34137197045E+02 0.43081889358E+02 0.54296363879E+02 0.67526174726E+02 0.82079846889E+02
 0.96945244381E+02 0.11097416846E+03 0.12307264863E+03 0.13234214295E+03 0.13814691917E+03
 0.14012120486E+03 0.13814633411E+03 0.13234108759E+03 0.12307186603E+03 0.11097461919E+03
 0.12861400559E+03 0.11093850253E+03 0.92554331165E+02 0.74850505307E+02 0.59035914477E+02
 0.45891051393E+02 0.35654179439E+02 0.28015712975E+02 0.22287593575E+02 0.17986958285E+02
 0.14869609584E+02 0.12673621083E+02 0.11165968522E+02 0.10171757567E+02 0.95681522010E+01
 0.92833770548E+01 0.92830270914E+01 0.95684766084E+01 0.10171415653E+02 0.11166642829E+02
 0.12672730350E+02 0.14870532763E+02 0.17986042890E+02 0.22288318261E+02 0.28015019587E+02
 0.35654376589E+02 0.45891270238E+02 0.59035026908E+02 0.74851871496E+02 0.92553623622E+02
 0.11093782913E+03 0.12861407445E+03 0.14425958986E+03 0.15680351219E+03 0.16551059005E+03
 0.16995563800E+03 0.16995615500E+03 0.16551120310E+03 0.15680426702E+03 0.14425915887E+03
 0.16336298343E+03 0.14423946314E+03 0.12301373658E+03 0.10125917824E+03 0.80618585422E+02
 0.62484130114E+02 0.47706233306E+02 0.36454906206E+02 0.28274220794E+02 0.22287593575E+02
 0.17882566796E+02 0.14756638219E+02 0.12604696819E+02 0.11172402483E+02 0.10268713898E+02
 0.97729573753E+01 0.96138790501E+01 0.97729849282E+01 0.10268612409E+02 0.11172470666E+02
 0.12604153251E+02 0.14757517160E+02 0.17881665915E+02 0.22288604733E+02 0.28273488391E+02
 0.36455682595E+02 0.47705840193E+02 0.62484079109E+02 0.80619001861E+02 0.10125823248E+03
 0.12301445194E+03 0.14424017132E+03 0.16336303444E+03 0.17913774068E+03 0.19076285324E+03
 0.19783216238E+03 0.20019856093E+03 0.19783147927E+03 0.19076222391E+03 0.17913772672E+03
 0.19789335891E+03 0.17913738717E+03 0.15677961305E+03 0.13227246545E+03 0.10747694016E+03
 0.84303577640E+02 0.64299718558E+02 0.48334083175E+02 0.36454906206E+02 0.28015712975E+02
 0.21953363623E+02 0.17579488745E+02 0.14541149433E+02 0.12499859945E+02 0.11187122307E+02
 0.10408537372E+02 0.10047442043E+02 0.10047428648E+02 0.10408538552E+02 0.11187105132E+02
 0.12499893645E+02 0.14541652748E+02 0.17578552843E+02 0.21954469790E+02 0.28014533848E+02
 0.36455873460E+02 0.48333059210E+02 0.64300326849E+02 0.84303310712E+02 0.10747677563E+03
 0.13227290906E+03 0.15677931421E+03 0.17913685717E+03 0.19789362530E+03 0.21218326967E+03
 0.22167807718E+03 0.22638325998E+03 0.22638344244E+03 0.22167833386E+03 0.21218305250E+03
 0.22878707753E+03 0.21219990407E+03 0.19077338780E+03 0.16549052437E+03 0.13807482410E+03
 0.11071163578E+03 0.85570066494E+02 0.64299718558E+02 0.47706233306E+02 0.35654179439E+02
 0.27263141539E+02 0.21313138677E+02 0.17102611331E+02 0.14243657759E+02 0.12371364270E+02
 0.11218227241E+02 0.10593325714E+02 0.10397613211E+02 0.10593378190E+02 0.11218102679E+02
 0.12371564496E+02 0.14243325499E+02 0.17102338101E+02 0.21314014745E+02 0.27262042314E+02
 0.35655426300E+02 0.47705163727E+02 0.64300817587E+02 0.85569271219E+02 0.11071209171E+03
 0.13807507595E+03 0.16549034818E+03 0.19077379624E+03 0.21220064679E+03 0.22878697727E+03
 0.24028709590E+03 0.24694077487E+03 0.24910530804E+03 0.24694076211E+03 0.24028702521E+03
 0.25340787789E+03 0.24031609037E+03 0.22171809328E+03 0.19785609134E+03 0.16993995908E+03
 0.14004906349E+03 0.11071163578E+03 0.84303577640E+02 0.62484130114E+02 0.45891051393E+02
 0.34138067746E+02 0.26083181686E+02 0.20418751852E+02 0.16491877053E+02 0.13887818753E+02
 0.12234061135E+02 0.11271776891E+02 0.10828847468E+02 0.10829685268E+02 0.11270926089E+02
 0.12235029543E+02 0.13886720482E+02 0.16493272191E+02 0.20418041284E+02 0.26082963289E+02
 0.34138650365E+02 0.45890095485E+02 0.62484970380E+02 0.84302658350E+02 0.11071247140E+03
 0.14004837955E+03 0.16994002251E+03 0.19785612555E+03 0.22171796764E+03 0.24031551630E+03
 0.25340815112E+03 0.26147381900E+03 0.26524865656E+03 0.26524837887E+03 0.26147364987E+03
 0.27058313022E+03 0.26150625359E+03 0.24699523010E+03 0.22643898003E+03 0.20022831037E+03
 0.16993995908E+03 0.13807482410E+03 0.10747694016E+03 0.80618585422E+02 0.59035914477E+02
 0.43080517091E+02 0.32058510174E+02 0.24568305151E+02 0.19338697345E+02 0.15795269671E+02
 0.13501342000E+02 0.12102560119E+02 0.11354639374E+02 0.11121197019E+02 0.11354478133E+02
 0.12102966128E+02 0.13500688027E+02 0.15796422402E+02 0.19336706630E+02 0.24569839714E+02
 0.32057969089E+02 0.43080465721E+02 0.59036463752E+02 0.80618047676E+02 0.10747754774E+03
 0.13807454567E+03 0.16994040407E+03 0.20022846956E+03 0.22643884195E+03 0.24699528537E+03
 0.26150658248E+03 0.27058257430E+03 0.27534591415E+03 0.27680035790E+03 0.27534623610E+03
 0.28076320174E+03 0.27537351174E+03 0.26530217858E+03 0.24916996665E+03 0.22643898003E+03
 0.19785609134E+03 0.16549052437E+03 0.13227246545E+03 0.10125917824E+03 0.74850505307E+02
 0.54298229822E+02 0.39559723749E+02 0.29600862909E+02 0.22826232112E+02 0.18149412964E+02
 0.15057917495E+02 0.13111546021E+02 0.11987675683E+02 0.11475233959E+02 0.11475133682E+02
 0.11987843583E+02 0.13111365962E+02 0.15058356412E+02 0.18148437210E+02 0.22828675090E+02
 0.29598110096E+02 0.39561411631E+02 0.54297067159E+02 0.74850995206E+02 0.10125913291E+03
 0.13227232552E+03 0.16549048560E+03 0.19785599581E+03 0.22643836480E+03 0.24917026483E+03
 0.26530147529E+03 0.27537363355E+03 0.28076315634E+03 0.28297843875E+03 0.28297812692E+03
 0.28564344115E+03 0.28299608872E+03 0.27683908621E+03 0.26530217858E+03 0.24699523010E+03
 0.22171809328E+03 0.19077338780E+03 0.15677961305E+03 0.12301373658E+03 0.92554331165E+02
 0.67525642894E+02 0.48724783866E+02 0.35657614342E+02 0.26942260888E+02 0.20974404486E+02
 0.16927914287E+02 0.14322542487E+02 0.12739132948E+02 0.11900685886E+02 0.11637254603E+02
 0.11900526737E+02 0.12739534294E+02 0.14321965000E+02 0.16928747842E+02 0.20973675247E+02
 0.26941073551E+02 0.35660014705E+02 0.48722912557E+02 0.67527192464E+02 0.92553183089E+02
 0.12301468802E+03 0.15677918068E+03 0.19077388846E+03 0.22171780610E+03 0.24699566818E+03
 0.26530166600E+03 0.27683895359E+03 0.28299580989E+03 0.28564322025E+03 0.28632796567E+03
 0.28738632833E+03 0.28633478840E+03 0.28299608872E+03 0.27537351174E+03 0.26150625359E+03
 0.24031609037E+03 0.21219990407E+03 0.17913738717E+03 0.14423946314E+03 0.11093850253E+03
 0.82079205409E+02 0.59299893374E+02 0.42815437840E+02 0.31679022535E+02 0.24230115984E+02
 0.19120277932E+02 0.15740472138E+02 0.13621860776E+02 0.12400854884E+02 0.11847306586E+02
 0.11846434165E+02 0.12401820742E+02 0.13620756356E+02 0.15741966053E+02 0.19118078204E+02
 0.24233345557E+02 0.31677044002E+02 0.42815307666E+02 0.59300109952E+02 0.82079176594E+02
 0.11093841178E+03 0.14423953474E+03 0.17913721091E+03 0.21219981776E+03 0.24031603798E+03
 0.26150560644E+03 0.27537401072E+03 0.28299573722E+03 0.28633487979E+03 0.28738624679E+03
 0.28758039543E+03 0.28714376086E+03 0.28518131706E+03 0.27998262591E+03 0.26944920782E+03
 0.25195786400E+03 0.22712228515E+03 0.19615765048E+03 0.16170793030E+03 0.12716634176E+03
 0.95782051982E+02 0.69846429169E+02 0.50280560506E+02 0.36653332569E+02 0.27590751442E+02
 0.21417632118E+02 0.17232027014E+02 0.14538578364E+02 0.12903121692E+02 0.12038341065E+02
 0.11766537924E+02 0.12038199939E+02 0.12903414989E+02 0.14538135077E+02 0.17232559008E+02
 0.21417378628E+02 0.27588755230E+02 0.36656353272E+02 0.50279152729E+02 0.69846985558E+02