   2   2   1   0
  0.1811930E+02  0.2890621E-09  0.2890621E-09  0.5007933E-09  0.5000000E-15
  1.000000000000000E-004
  CAR 
 Pt-hcc                                  
     31.85426152    -47.12194799  301      8.72466712      1.00000000
    -47.122  0.0000E+00  0.0000E+00
    -46.859  0.0000E+00  0.0000E+00
    -46.595  0.0000E+00  0.0000E+00
    -46.332  0.0000E+00  0.0000E+00
    -46.069  0.0000E+00  0.0000E+00
    -45.806  0.0000E+00  0.0000E+00
    -45.542  0.0000E+00  0.0000E+00
    -45.279  0.0000E+00  0.0000E+00
    -45.016  0.0000E+00  0.0000E+00
    -44.753  0.0000E+00  0.0000E+00
    -44.489  0.0000E+00  0.0000E+00
    -44.226  0.0000E+00  0.0000E+00
    -43.963  0.0000E+00  0.0000E+00
    -43.700  0.4748E-08  0.1250E-08
    -43.436  0.1080E+00  0.2843E-01
    -43.173  0.3290E+00  0.1150E+00
    -42.910  0.1885E-01  0.1200E+00
    -42.647  0.0000E+00  0.1200E+00
    -42.383  0.0000E+00  0.1200E+00
    -42.120  0.0000E+00  0.1200E+00
    -41.857  0.0000E+00  0.1200E+00
    -41.594  0.0000E+00  0.1200E+00
    -41.330  0.0000E+00  0.1200E+00
    -41.067  0.0000E+00  0.1200E+00
    -40.804  0.0000E+00  0.1200E+00
    -40.541  0.0000E+00  0.1200E+00
    -40.277  0.0000E+00  0.1200E+00
    -40.014  0.0000E+00  0.1200E+00
    -39.751  0.0000E+00  0.1200E+00
    -39.488  0.0000E+00  0.1200E+00
    -39.224  0.0000E+00  0.1200E+00
    -38.961  0.0000E+00  0.1200E+00
    -38.698  0.0000E+00  0.1200E+00
    -38.435  0.0000E+00  0.1200E+00
    -38.171  0.0000E+00  0.1200E+00
    -37.908  0.0000E+00  0.1200E+00
    -37.645  0.0000E+00  0.1200E+00
    -37.382  0.0000E+00  0.1200E+00
    -37.118  0.0000E+00  0.1200E+00
    -36.855  0.0000E+00  0.1200E+00
    -36.592  0.0000E+00  0.1200E+00
    -36.329  0.0000E+00  0.1200E+00
    -36.065  0.0000E+00  0.1200E+00
    -35.802  0.0000E+00  0.1200E+00
    -35.539  0.0000E+00  0.1200E+00
    -35.276  0.0000E+00  0.1200E+00
    -35.012  0.0000E+00  0.1200E+00
    -34.749  0.0000E+00  0.1200E+00
    -34.486  0.0000E+00  0.1200E+00
    -34.223  0.0000E+00  0.1200E+00
    -33.959  0.0000E+00  0.1200E+00
    -33.696  0.0000E+00  0.1200E+00
    -33.433  0.0000E+00  0.1200E+00
    -33.169  0.0000E+00  0.1200E+00
    -32.906  0.0000E+00  0.1200E+00
    -32.643  0.0000E+00  0.1200E+00
    -32.380  0.0000E+00  0.1200E+00
    -32.116  0.0000E+00  0.1200E+00
    -31.853  0.0000E+00  0.1200E+00
    -31.590  0.0000E+00  0.1200E+00
    -31.327  0.0000E+00  0.1200E+00
    -31.063  0.0000E+00  0.1200E+00
    -30.800  0.0000E+00  0.1200E+00
    -30.537  0.0000E+00  0.1200E+00
    -30.274  0.0000E+00  0.1200E+00
    -30.010  0.0000E+00  0.1200E+00
    -29.747  0.0000E+00  0.1200E+00
    -29.484  0.0000E+00  0.1200E+00
    -29.221  0.0000E+00  0.1200E+00
    -28.957  0.0000E+00  0.1200E+00
    -28.694  0.0000E+00  0.1200E+00
    -28.431  0.0000E+00  0.1200E+00
    -28.168  0.0000E+00  0.1200E+00
    -27.904  0.0000E+00  0.1200E+00
    -27.641  0.0000E+00  0.1200E+00
    -27.378  0.0000E+00  0.1200E+00
    -27.115  0.0000E+00  0.1200E+00
    -26.851  0.0000E+00  0.1200E+00
    -26.588  0.0000E+00  0.1200E+00
    -26.325  0.0000E+00  0.1200E+00
    -26.062  0.0000E+00  0.1200E+00
    -25.798  0.0000E+00  0.1200E+00
    -25.535  0.0000E+00  0.1200E+00
    -25.272  0.0000E+00  0.1200E+00
    -25.009  0.0000E+00  0.1200E+00
    -24.745  0.0000E+00  0.1200E+00
    -24.482  0.0000E+00  0.1200E+00
    -24.219  0.0000E+00  0.1200E+00
    -23.956  0.0000E+00  0.1200E+00
    -23.692  0.0000E+00  0.1200E+00
    -23.429  0.0000E+00  0.1200E+00
    -23.166  0.0000E+00  0.1200E+00
    -22.903  0.0000E+00  0.1200E+00
    -22.639  0.0000E+00  0.1200E+00
    -22.376  0.0000E+00  0.1200E+00
    -22.113  0.0000E+00  0.1200E+00
    -21.850  0.0000E+00  0.1200E+00
    -21.586  0.0000E+00  0.1200E+00
    -21.323  0.0000E+00  0.1200E+00
    -21.060  0.0000E+00  0.1200E+00
    -20.797  0.0000E+00  0.1200E+00
    -20.533  0.0000E+00  0.1200E+00
    -20.270  0.0000E+00  0.1200E+00
    -20.007  0.0000E+00  0.1200E+00
    -19.744  0.0000E+00  0.1200E+00
    -19.480  0.0000E+00  0.1200E+00
    -19.217  0.0000E+00  0.1200E+00
    -18.954  0.0000E+00  0.1200E+00
    -18.691  0.0000E+00  0.1200E+00
    -18.427  0.0000E+00  0.1200E+00
    -18.164  0.0000E+00  0.1200E+00
    -17.901  0.0000E+00  0.1200E+00
    -17.637  0.0000E+00  0.1200E+00
    -17.374  0.0000E+00  0.1200E+00
    -17.111  0.0000E+00  0.1200E+00
    -16.848  0.0000E+00  0.1200E+00
    -16.584  0.0000E+00  0.1200E+00
    -16.321  0.0000E+00  0.1200E+00
    -16.058  0.0000E+00  0.1200E+00
    -15.795  0.0000E+00  0.1200E+00
    -15.531  0.0000E+00  0.1200E+00
    -15.268  0.0000E+00  0.1200E+00
    -15.005  0.0000E+00  0.1200E+00
    -14.742  0.0000E+00  0.1200E+00
    -14.478  0.0000E+00  0.1200E+00
    -14.215  0.0000E+00  0.1200E+00
    -13.952  0.0000E+00  0.1200E+00
    -13.689  0.0000E+00  0.1200E+00
    -13.425  0.0000E+00  0.1200E+00
    -13.162  0.0000E+00  0.1200E+00
    -12.899  0.0000E+00  0.1200E+00
    -12.636  0.0000E+00  0.1200E+00
    -12.372  0.0000E+00  0.1200E+00
    -12.109  0.0000E+00  0.1200E+00
    -11.846  0.0000E+00  0.1200E+00
    -11.583  0.0000E+00  0.1200E+00
    -11.319  0.0000E+00  0.1200E+00
    -11.056  0.0000E+00  0.1200E+00
    -10.793  0.0000E+00  0.1200E+00
    -10.530  0.0000E+00  0.1200E+00
    -10.266  0.0000E+00  0.1200E+00
    -10.003  0.0000E+00  0.1200E+00
     -9.740  0.0000E+00  0.1200E+00
     -9.477  0.0000E+00  0.1200E+00
     -9.213  0.0000E+00  0.1200E+00
     -8.950  0.0000E+00  0.1200E+00
     -8.687  0.0000E+00  0.1200E+00
     -8.424  0.0000E+00  0.1200E+00
     -8.160  0.0000E+00  0.1200E+00
     -7.897  0.0000E+00  0.1200E+00
     -7.634  0.0000E+00  0.1200E+00
     -7.371  0.0000E+00  0.1200E+00
     -7.107  0.0000E+00  0.1200E+00
     -6.844  0.0000E+00  0.1200E+00
     -6.581  0.0000E+00  0.1200E+00
     -6.318  0.0000E+00  0.1200E+00
     -6.054  0.0000E+00  0.1200E+00
     -5.791  0.0000E+00  0.1200E+00
     -5.528  0.0000E+00  0.1200E+00
     -5.265  0.0000E+00  0.1200E+00
     -5.001  0.0000E+00  0.1200E+00
     -4.738  0.0000E+00  0.1200E+00
     -4.475  0.0000E+00  0.1200E+00
     -4.212  0.0000E+00  0.1200E+00
     -3.948  0.0000E+00  0.1200E+00
     -3.685  0.0000E+00  0.1200E+00
     -3.422  0.0000E+00  0.1200E+00
     -3.159  0.0000E+00  0.1200E+00
     -2.895  0.0000E+00  0.1200E+00
     -2.632  0.0000E+00  0.1200E+00
     -2.369  0.0000E+00  0.1200E+00
     -2.106  0.0000E+00  0.1200E+00
     -1.842  0.0000E+00  0.1200E+00
     -1.579  0.0000E+00  0.1200E+00
     -1.316  0.0000E+00  0.1200E+00
     -1.052  0.0000E+00  0.1200E+00
     -0.789  0.0000E+00  0.1200E+00
     -0.526  0.0000E+00  0.1200E+00
     -0.263  0.0000E+00  0.1200E+00
      0.001  0.0000E+00  0.1200E+00
      0.264  0.2239E-08  0.1200E+00
      0.527  0.1939E-03  0.1201E+00
      0.790  0.7372E-03  0.1202E+00
      1.054  0.1253E-02  0.1206E+00
      1.317  0.1369E-02  0.1209E+00
      1.580  0.1837E-02  0.1214E+00
      1.843  0.3814E-02  0.1224E+00
      2.107  0.1334E-02  0.1228E+00
      2.370  0.2746E-02  0.1235E+00
      2.633  0.4321E-02  0.1246E+00
      2.896  0.6666E-02  0.1264E+00
      3.160  0.6216E-02  0.1280E+00
      3.423  0.1262E-01  0.1313E+00
      3.686  0.2633E-01  0.1383E+00
      3.949  0.2210E-01  0.1441E+00
      4.213  0.2810E-01  0.1515E+00
      4.476  0.1856E-01  0.1564E+00
      4.739  0.4236E-01  0.1675E+00
      5.002  0.3395E-01  0.1765E+00
      5.266  0.3773E-01  0.1864E+00
      5.529  0.3533E-01  0.1957E+00
      5.792  0.3385E-01  0.2046E+00
      6.055  0.4348E-01  0.2161E+00
      6.319  0.4731E-01  0.2285E+00
      6.582  0.3749E-01  0.2384E+00
      6.845  0.5023E-01  0.2516E+00
      7.108  0.3714E-01  0.2614E+00
      7.372  0.2530E-01  0.2680E+00
      7.635  0.3103E-01  0.2762E+00
      7.898  0.3683E-01  0.2859E+00
      8.161  0.2914E-01  0.2936E+00
      8.425  0.3414E-01  0.3026E+00
      8.688  0.5880E-01  0.3181E+00
      8.951  0.3706E-01  0.3278E+00
      9.214  0.2201E-01  0.3336E+00
      9.478  0.6409E-02  0.3353E+00
      9.741  0.4662E-02  0.3365E+00
     10.004  0.2026E-02  0.3370E+00
     10.267  0.1066E-02  0.3373E+00
     10.531  0.1671E-01  0.3417E+00
     10.794  0.7774E-02  0.3438E+00
     11.057  0.5476E-02  0.3452E+00
     11.320  0.2507E-02  0.3459E+00
     11.584  0.3845E-02  0.3469E+00
     11.847  0.6817E-02  0.3487E+00
     12.110  0.6392E-02  0.3504E+00
     12.373  0.4755E-02  0.3516E+00
     12.637  0.7189E-02  0.3535E+00
     12.900  0.7900E-02  0.3556E+00
     13.163  0.5962E-02  0.3572E+00
     13.426  0.5375E-02  0.3586E+00
     13.690  0.3708E-02  0.3596E+00
     13.953  0.2164E-02  0.3601E+00
     14.216  0.6540E-02  0.3618E+00
     14.479  0.9054E-02  0.3642E+00
     14.743  0.7281E-02  0.3661E+00
     15.006  0.1182E-01  0.3693E+00
     15.269  0.5309E-02  0.3707E+00
     15.533  0.7310E-02  0.3726E+00
     15.796  0.9592E-02  0.3751E+00
     16.059  0.5637E-02  0.3766E+00
     16.322  0.7317E-02  0.3785E+00
     16.586  0.5096E-02  0.3799E+00
     16.849  0.5963E-02  0.3814E+00
     17.112  0.1518E-01  0.3854E+00
     17.375  0.5944E-02  0.3870E+00
     17.639  0.3513E-02  0.3879E+00
     17.902  0.6742E-02  0.3897E+00
     18.165  0.9290E-02  0.3921E+00
     18.428  0.9606E-02  0.3947E+00
     18.692  0.4367E-02  0.3958E+00
     18.955  0.5536E-02  0.3973E+00
     19.218  0.8810E-02  0.3996E+00
     19.481  0.5226E-02  0.4010E+00
     19.745  0.5349E-02  0.4024E+00
     20.008  0.1096E-01  0.4053E+00
     20.271  0.1159E-01  0.4083E+00
     20.534  0.1273E-01  0.4117E+00
     20.798  0.4631E-02  0.4129E+00
     21.061  0.6265E-02  0.4145E+00
     21.324  0.8199E-02  0.4167E+00
     21.587  0.2415E-02  0.4173E+00
     21.851  0.1753E-01  0.4219E+00
     22.114  0.1860E-01  0.4268E+00
     22.377  0.1619E-01  0.4311E+00
     22.640  0.7844E-02  0.4332E+00
     22.904  0.1716E-01  0.4377E+00
     23.167  0.7876E-02  0.4397E+00
     23.430  0.1622E-01  0.4440E+00
     23.693  0.2049E-01  0.4494E+00
     23.957  0.1061E-01  0.4522E+00
     24.220  0.1413E-01  0.4559E+00
     24.483  0.9705E-02  0.4585E+00
     24.746  0.1357E-01  0.4621E+00
     25.010  0.1483E-01  0.4660E+00
     25.273  0.7549E-02  0.4679E+00
     25.536  0.1204E-01  0.4711E+00
     25.799  0.3109E-02  0.4719E+00
     26.063  0.6075E-02  0.4735E+00
     26.326  0.7253E-02  0.4754E+00
     26.589  0.4035E-02  0.4765E+00
     26.852  0.4582E-02  0.4777E+00
     27.116  0.5326E-02  0.4791E+00
     27.379  0.1809E-02  0.4796E+00
     27.642  0.4205E-04  0.4796E+00
     27.905  0.7595E-03  0.4798E+00
     28.169  0.4521E-03  0.4799E+00
     28.432  0.3077E-03  0.4800E+00
     28.695  0.0000E+00  0.4800E+00
     28.958  0.0000E+00  0.4800E+00
     29.222  0.0000E+00  0.4800E+00
     29.485  0.0000E+00  0.4800E+00
     29.748  0.0000E+00  0.4800E+00
     30.011  0.0000E+00  0.4800E+00
     30.275  0.0000E+00  0.4800E+00
     30.538  0.0000E+00  0.4800E+00
     30.801  0.0000E+00  0.4800E+00
     31.064  0.0000E+00  0.4800E+00
     31.328  0.0000E+00  0.4800E+00
     31.591  0.0000E+00  0.4800E+00
     31.854  0.0000E+00  0.4800E+00
     31.85426152    -47.12194799  301      8.72466712      1.00000000
    -47.122  0.0000E+00  0.0000E+00  0.0000E+00  0.0000E+00  0.0000E+00  0.0000E+00  0.0000E+00  0.0000E+00  0.0000E+00
    -46.859  0.0000E+00  0.0000E+00  0.0000E+00  0.0000E+00  0.0000E+00  0.0000E+00  0.0000E+00  0.0000E+00  0.0000E+00
    -46.595  0.0000E+00  0.0000E+00  0.0000E+00  0.0000E+00  0.0000E+00  0.0000E+00  0.0000E+00  0.0000E+00  0.0000E+00
    -46.332  0.0000E+00  0.0000E+00  0.0000E+00  0.0000E+00  0.0000E+00  0.0000E+00  0.0000E+00  0.0000E+00  0.0000E+00
    -46.069  0.0000E+00  0.0000E+00  0.0000E+00  0.0000E+00  0.0000E+00  0.0000E+00  0.0000E+00  0.0000E+00  0.0000E+00
    -45.806  0.0000E+00  0.0000E+00  0.0000E+00  0.0000E+00  0.0000E+00  0.0000E+00  0.0000E+00  0.0000E+00  0.0000E+00
    -45.542  0.0000E+00  0.0000E+00  0.0000E+00  0.0000E+00  0.0000E+00  0.0000E+00  0.0000E+00  0.0000E+00  0.0000E+00
    -45.279  0.0000E+00  0.0000E+00  0.0000E+00  0.0000E+00  0.0000E+00  0.0000E+00  0.0000E+00  0.0000E+00  0.0000E+00
    -45.016  0.0000E+00  0.0000E+00  0.0000E+00  0.0000E+00  0.0000E+00  0.0000E+00  0.0000E+00  0.0000E+00  0.0000E+00
    -44.753  0.0000E+00  0.0000E+00  0.0000E+00  0.0000E+00  0.0000E+00  0.0000E+00  0.0000E+00  0.0000E+00  0.0000E+00
    -44.489  0.0000E+00  0.0000E+00  0.0000E+00  0.0000E+00  0.0000E+00  0.0000E+00  0.0000E+00  0.0000E+00  0.0000E+00
    -44.226  0.0000E+00  0.0000E+00  0.0000E+00  0.0000E+00  0.0000E+00  0.0000E+00  0.0000E+00  0.0000E+00  0.0000E+00
    -43.963  0.0000E+00  0.0000E+00  0.0000E+00  0.0000E+00  0.0000E+00  0.0000E+00  0.0000E+00  0.0000E+00  0.0000E+00
    -43.700  0.6073E-12  0.1155E-06  0.3102E-08  0.1155E-06  0.2296E-12  0.3669E-13  0.5079E-12  0.3669E-13  0.2296E-12
    -43.436  0.4713E-04  0.2629E+01  0.7640E-01  0.2629E+01  0.1936E-04  0.1436E-05  0.2482E-04  0.1436E-05  0.1936E-04
    -43.173  0.6299E-04  0.4893E+01  0.6528E+01  0.4893E+01  0.4551E-04  0.1953E-04  0.3338E-04  0.1953E-04  0.4551E-04
    -42.910  0.1195E-05  0.5858E-02  0.9241E+00  0.5858E-02  0.1116E-06  0.1250E-05  0.1116E-05  0.1250E-05  0.1116E-06
    -42.647  0.0000E+00  0.0000E+00  0.0000E+00  0.0000E+00  0.0000E+00  0.0000E+00  0.0000E+00  0.0000E+00  0.0000E+00
    -42.383  0.0000E+00  0.0000E+00  0.0000E+00  0.0000E+00  0.0000E+00  0.0000E+00  0.0000E+00  0.0000E+00  0.0000E+00
    -42.120  0.0000E+00  0.0000E+00  0.0000E+00  0.0000E+00  0.0000E+00  0.0000E+00  0.0000E+00  0.0000E+00  0.0000E+00
    -41.857  0.0000E+00  0.0000E+00  0.0000E+00  0.0000E+00  0.0000E+00  0.0000E+00  0.0000E+00  0.0000E+00  0.0000E+00
    -41.594  0.0000E+00  0.0000E+00  0.0000E+00  0.0000E+00  0.0000E+00  0.0000E+00  0.0000E+00  0.0000E+00  0.0000E+00
    -41.330  0.0000E+00  0.0000E+00  0.0000E+00  0.0000E+00  0.0000E+00  0.0000E+00  0.0000E+00  0.0000E+00  0.0000E+00
    -41.067  0.0000E+00  0.0000E+00  0.0000E+00  0.0000E+00  0.0000E+00  0.0000E+00  0.0000E+00  0.0000E+00  0.0000E+00
    -40.804  0.0000E+00  0.0000E+00  0.0000E+00  0.0000E+00  0.0000E+00  0.0000E+00  0.0000E+00  0.0000E+00  0.0000E+00
    -40.541  0.0000E+00  0.0000E+00  0.0000E+00  0.0000E+00  0.0000E+00  0.0000E+00  0.0000E+00  0.0000E+00  0.0000E+00
    -40.277  0.0000E+00  0.0000E+00  0.0000E+00  0.0000E+00  0.0000E+00  0.0000E+00  0.0000E+00  0.0000E+00  0.0000E+00
    -40.014  0.0000E+00  0.0000E+00  0.0000E+00  0.0000E+00  0.0000E+00  0.0000E+00  0.0000E+00  0.0000E+00  0.0000E+00
    -39.751  0.0000E+00  0.0000E+00  0.0000E+00  0.0000E+00  0.0000E+00  0.0000E+00  0.0000E+00  0.0000E+00  0.0000E+00
    -39.488  0.0000E+00  0.0000E+00  0.0000E+00  0.0000E+00  0.0000E+00  0.0000E+00  0.0000E+00  0.0000E+00  0.0000E+00
    -39.224  0.0000E+00  0.0000E+00  0.0000E+00  0.0000E+00  0.0000E+00  0.0000E+00  0.0000E+00  0.0000E+00  0.0000E+00
    -38.961  0.0000E+00  0.0000E+00  0.0000E+00  0.0000E+00  0.0000E+00  0.0000E+00  0.0000E+00  0.0000E+00  0.0000E+00
    -38.698  0.0000E+00  0.0000E+00  0.0000E+00  0.0000E+00  0.0000E+00  0.0000E+00  0.0000E+00  0.0000E+00  0.0000E+00
    -38.435  0.0000E+00  0.0000E+00  0.0000E+00  0.0000E+00  0.0000E+00  0.0000E+00  0.0000E+00  0.0000E+00  0.0000E+00
    -38.171  0.0000E+00  0.0000E+00  0.0000E+00  0.0000E+00  0.0000E+00  0.0000E+00  0.0000E+00  0.0000E+00  0.0000E+00
    -37.908  0.0000E+00  0.0000E+00  0.0000E+00  0.0000E+00  0.0000E+00  0.0000E+00  0.0000E+00  0.0000E+00  0.0000E+00
    -37.645  0.0000E+00  0.0000E+00  0.0000E+00  0.0000E+00  0.0000E+00  0.0000E+00  0.0000E+00  0.0000E+00  0.0000E+00
    -37.382  0.0000E+00  0.0000E+00  0.0000E+00  0.0000E+00  0.0000E+00  0.0000E+00  0.0000E+00  0.0000E+00  0.0000E+00
    -37.118  0.0000E+00  0.0000E+00  0.0000E+00  0.0000E+00  0.0000E+00  0.0000E+00  0.0000E+00  0.0000E+00  0.0000E+00
    -36.855  0.0000E+00  0.0000E+00  0.0000E+00  0.0000E+00  0.0000E+00  0.0000E+00  0.0000E+00  0.0000E+00  0.0000E+00
    -36.592  0.0000E+00  0.0000E+00  0.0000E+00  0.0000E+00  0.0000E+00  0.0000E+00  0.0000E+00  0.0000E+00  0.0000E+00
    -36.329  0.0000E+00  0.0000E+00  0.0000E+00  0.0000E+00  0.0000E+00  0.0000E+00  0.0000E+00  0.0000E+00  0.0000E+00
    -36.065  0.0000E+00  0.0000E+00  0.0000E+00  0.0000E+00  0.0000E+00  0.0000E+00  0.0000E+00  0.0000E+00  0.0000E+00
    -35.802  0.0000E+00  0.0000E+00  0.0000E+00  0.0000E+00  0.0000E+00  0.0000E+00  0.0000E+00  0.0000E+00  0.0000E+00
    -35.539  0.0000E+00  0.0000E+00  0.0000E+00  0.0000E+00  0.0000E+00  0.0000E+00  0.0000E+00  0.0000E+00  0.0000E+00
    -35.276  0.0000E+00  0.0000E+00  0.0000E+00  0.0000E+00  0.0000E+00  0.0000E+00  0.0000E+00  0.0000E+00  0.0000E+00
    -35.012  0.0000E+00  0.0000E+00  0.0000E+00  0.0000E+00  0.0000E+00  0.0000E+00  0.0000E+00  0.0000E+00  0.0000E+00
    -34.749  0.0000E+00  0.0000E+00  0.0000E+00  0.0000E+00  0.0000E+00  0.0000E+00  0.0000E+00  0.0000E+00  0.0000E+00
    -34.486  0.0000E+00  0.0000E+00  0.0000E+00  0.0000E+00  0.0000E+00  0.0000E+00  0.0000E+00  0.0000E+00  0.0000E+00
    -34.223  0.0000E+00  0.0000E+00  0.0000E+00  0.0000E+00  0.0000E+00  0.0000E+00  0.0000E+00  0.0000E+00  0.0000E+00
    -33.959  0.0000E+00  0.0000E+00  0.0000E+00  0.0000E+00  0.0000E+00  0.0000E+00  0.0000E+00  0.0000E+00  0.0000E+00
    -33.696  0.0000E+00  0.0000E+00  0.0000E+00  0.0000E+00  0.0000E+00  0.0000E+00  0.0000E+00  0.0000E+00  0.0000E+00
    -33.433  0.0000E+00  0.0000E+00  0.0000E+00  0.0000E+00  0.0000E+00  0.0000E+00  0.0000E+00  0.0000E+00  0.0000E+00
    -33.169  0.0000E+00  0.0000E+00  0.0000E+00  0.0000E+00  0.0000E+00  0.0000E+00  0.0000E+00  0.0000E+00  0.0000E+00
    -32.906  0.0000E+00  0.0000E+00  0.0000E+00  0.0000E+00  0.0000E+00  0.0000E+00  0.0000E+00  0.0000E+00  0.0000E+00
    -32.643  0.0000E+00  0.0000E+00  0.0000E+00  0.0000E+00  0.0000E+00  0.0000E+00  0.0000E+00  0.0000E+00  0.0000E+00
    -32.380  0.0000E+00  0.0000E+00  0.0000E+00  0.0000E+00  0.0000E+00  0.0000E+00  0.0000E+00  0.0000E+00  0.0000E+00
    -32.116  0.0000E+00  0.0000E+00  0.0000E+00  0.0000E+00  0.0000E+00  0.0000E+00  0.0000E+00  0.0000E+00  0.0000E+00
    -31.853  0.0000E+00  0.0000E+00  0.0000E+00  0.0000E+00  0.0000E+00  0.0000E+00  0.0000E+00  0.0000E+00  0.0000E+00
    -31.590  0.0000E+00  0.0000E+00  0.0000E+00  0.0000E+00  0.0000E+00  0.0000E+00  0.0000E+00  0.0000E+00  0.0000E+00
    -31.327  0.0000E+00  0.0000E+00  0.0000E+00  0.0000E+00  0.0000E+00  0.0000E+00  0.0000E+00  0.0000E+00  0.0000E+00
    -31.063  0.0000E+00  0.0000E+00  0.0000E+00  0.0000E+00  0.0000E+00  0.0000E+00  0.0000E+00  0.0000E+00  0.0000E+00
    -30.800  0.0000E+00  0.0000E+00  0.0000E+00  0.0000E+00  0.0000E+00  0.0000E+00  0.0000E+00  0.0000E+00  0.0000E+00
    -30.537  0.0000E+00  0.0000E+00  0.0000E+00  0.0000E+00  0.0000E+00  0.0000E+00  0.0000E+00  0.0000E+00  0.0000E+00
    -30.274  0.0000E+00  0.0000E+00  0.0000E+00  0.0000E+00  0.0000E+00  0.0000E+00  0.0000E+00  0.0000E+00  0.0000E+00
    -30.010  0.0000E+00  0.0000E+00  0.0000E+00  0.0000E+00  0.0000E+00  0.0000E+00  0.0000E+00  0.0000E+00  0.0000E+00
    -29.747  0.0000E+00  0.0000E+00  0.0000E+00  0.0000E+00  0.0000E+00  0.0000E+00  0.0000E+00  0.0000E+00  0.0000E+00
    -29.484  0.0000E+00  0.0000E+00  0.0000E+00  0.0000E+00  0.0000E+00  0.0000E+00  0.0000E+00  0.0000E+00  0.0000E+00
    -29.221  0.0000E+00  0.0000E+00  0.0000E+00  0.0000E+00  0.0000E+00  0.0000E+00  0.0000E+00  0.0000E+00  0.0000E+00
    -28.957  0.0000E+00  0.0000E+00  0.0000E+00  0.0000E+00  0.0000E+00  0.0000E+00  0.0000E+00  0.0000E+00  0.0000E+00
    -28.694  0.0000E+00  0.0000E+00  0.0000E+00  0.0000E+00  0.0000E+00  0.0000E+00  0.0000E+00  0.0000E+00  0.0000E+00
    -28.431  0.0000E+00  0.0000E+00  0.0000E+00  0.0000E+00  0.0000E+00  0.0000E+00  0.0000E+00  0.0000E+00  0.0000E+00
    -28.168  0.0000E+00  0.0000E+00  0.0000E+00  0.0000E+00  0.0000E+00  0.0000E+00  0.0000E+00  0.0000E+00  0.0000E+00
    -27.904  0.0000E+00  0.0000E+00  0.0000E+00  0.0000E+00  0.0000E+00  0.0000E+00  0.0000E+00  0.0000E+00  0.0000E+00
    -27.641  0.0000E+00  0.0000E+00  0.0000E+00  0.0000E+00  0.0000E+00  0.0000E+00  0.0000E+00  0.0000E+00  0.0000E+00
    -27.378  0.0000E+00  0.0000E+00  0.0000E+00  0.0000E+00  0.0000E+00  0.0000E+00  0.0000E+00  0.0000E+00  0.0000E+00
    -27.115  0.0000E+00  0.0000E+00  0.0000E+00  0.0000E+00  0.0000E+00  0.0000E+00  0.0000E+00  0.0000E+00  0.0000E+00
    -26.851  0.0000E+00  0.0000E+00  0.0000E+00  0.0000E+00  0.0000E+00  0.0000E+00  0.0000E+00  0.0000E+00  0.0000E+00
    -26.588  0.0000E+00  0.0000E+00  0.0000E+00  0.0000E+00  0.0000E+00  0.0000E+00  0.0000E+00  0.0000E+00  0.0000E+00
    -26.325  0.0000E+00  0.0000E+00  0.0000E+00  0.0000E+00  0.0000E+00  0.0000E+00  0.0000E+00  0.0000E+00  0.0000E+00
    -26.062  0.0000E+00  0.0000E+00  0.0000E+00  0.0000E+00  0.0000E+00  0.0000E+00  0.0000E+00  0.0000E+00  0.0000E+00
    -25.798  0.0000E+00  0.0000E+00  0.0000E+00  0.0000E+00  0.0000E+00  0.0000E+00  0.0000E+00  0.0000E+00  0.0000E+00
    -25.535  0.0000E+00  0.0000E+00  0.0000E+00  0.0000E+00  0.0000E+00  0.0000E+00  0.0000E+00  0.0000E+00  0.0000E+00
    -25.272  0.0000E+00  0.0000E+00  0.0000E+00  0.0000E+00  0.0000E+00  0.0000E+00  0.0000E+00  0.0000E+00  0.0000E+00
    -25.009  0.0000E+00  0.0000E+00  0.0000E+00  0.0000E+00  0.0000E+00  0.0000E+00  0.0000E+00  0.0000E+00  0.0000E+00
    -24.745  0.0000E+00  0.0000E+00  0.0000E+00  0.0000E+00  0.0000E+00  0.0000E+00  0.0000E+00  0.0000E+00  0.0000E+00
    -24.482  0.0000E+00  0.0000E+00  0.0000E+00  0.0000E+00  0.0000E+00  0.0000E+00  0.0000E+00  0.0000E+00  0.0000E+00
    -24.219  0.0000E+00  0.0000E+00  0.0000E+00  0.0000E+00  0.0000E+00  0.0000E+00  0.0000E+00  0.0000E+00  0.0000E+00
    -23.956  0.0000E+00  0.0000E+00  0.0000E+00  0.0000E+00  0.0000E+00  0.0000E+00  0.0000E+00  0.0000E+00  0.0000E+00
    -23.692  0.0000E+00  0.0000E+00  0.0000E+00  0.0000E+00  0.0000E+00  0.0000E+00  0.0000E+00  0.0000E+00  0.0000E+00
    -23.429  0.0000E+00  0.0000E+00  0.0000E+00  0.0000E+00  0.0000E+00  0.0000E+00  0.0000E+00  0.0000E+00  0.0000E+00
    -23.166  0.0000E+00  0.0000E+00  0.0000E+00  0.0000E+00  0.0000E+00  0.0000E+00  0.0000E+00  0.0000E+00  0.0000E+00
    -22.903  0.0000E+00  0.0000E+00  0.0000E+00  0.0000E+00  0.0000E+00  0.0000E+00  0.0000E+00  0.0000E+00  0.0000E+00
    -22.639  0.0000E+00  0.0000E+00  0.0000E+00  0.0000E+00  0.0000E+00  0.0000E+00  0.0000E+00  0.0000E+00  0.0000E+00
    -22.376  0.0000E+00  0.0000E+00  0.0000E+00  0.0000E+00  0.0000E+00  0.0000E+00  0.0000E+00  0.0000E+00  0.0000E+00
    -22.113  0.0000E+00  0.0000E+00  0.0000E+00  0.0000E+00  0.0000E+00  0.0000E+00  0.0000E+00  0.0000E+00  0.0000E+00
    -21.850  0.0000E+00  0.0000E+00  0.0000E+00  0.0000E+00  0.0000E+00  0.0000E+00  0.0000E+00  0.0000E+00  0.0000E+00
    -21.586  0.0000E+00  0.0000E+00  0.0000E+00  0.0000E+00  0.0000E+00  0.0000E+00  0.0000E+00  0.0000E+00  0.0000E+00
    -21.323  0.0000E+00  0.0000E+00  0.0000E+00  0.0000E+00  0.0000E+00  0.0000E+00  0.0000E+00  0.0000E+00  0.0000E+00
    -21.060  0.0000E+00  0.0000E+00  0.0000E+00  0.0000E+00  0.0000E+00  0.0000E+00  0.0000E+00  0.0000E+00  0.0000E+00
    -20.797  0.0000E+00  0.0000E+00  0.0000E+00  0.0000E+00  0.0000E+00  0.0000E+00  0.0000E+00  0.0000E+00  0.0000E+00
    -20.533  0.0000E+00  0.0000E+00  0.0000E+00  0.0000E+00  0.0000E+00  0.0000E+00  0.0000E+00  0.0000E+00  0.0000E+00
    -20.270  0.0000E+00  0.0000E+00  0.0000E+00  0.0000E+00  0.0000E+00  0.0000E+00  0.0000E+00  0.0000E+00  0.0000E+00
    -20.007  0.0000E+00  0.0000E+00  0.0000E+00  0.0000E+00  0.0000E+00  0.0000E+00  0.0000E+00  0.0000E+00  0.0000E+00
    -19.744  0.0000E+00  0.0000E+00  0.0000E+00  0.0000E+00  0.0000E+00  0.0000E+00  0.0000E+00  0.0000E+00  0.0000E+00
    -19.480  0.0000E+00  0.0000E+00  0.0000E+00  0.0000E+00  0.0000E+00  0.0000E+00  0.0000E+00  0.0000E+00  0.0000E+00
    -19.217  0.0000E+00  0.0000E+00  0.0000E+00  0.0000E+00  0.0000E+00  0.0000E+00  0.0000E+00  0.0000E+00  0.0000E+00
    -18.954  0.0000E+00  0.0000E+00  0.0000E+00  0.0000E+00  0.0000E+00  0.0000E+00  0.0000E+00  0.0000E+00  0.0000E+00
    -18.691  0.0000E+00  0.0000E+00  0.0000E+00  0.0000E+00  0.0000E+00  0.0000E+00  0.0000E+00  0.0000E+00  0.0000E+00
    -18.427  0.0000E+00  0.0000E+00  0.0000E+00  0.0000E+00  0.0000E+00  0.0000E+00  0.0000E+00  0.0000E+00  0.0000E+00
    -18.164  0.0000E+00  0.0000E+00  0.0000E+00  0.0000E+00  0.0000E+00  0.0000E+00  0.0000E+00  0.0000E+00  0.0000E+00
    -17.901  0.0000E+00  0.0000E+00  0.0000E+00  0.0000E+00  0.0000E+00  0.0000E+00  0.0000E+00  0.0000E+00  0.0000E+00
    -17.637  0.0000E+00  0.0000E+00  0.0000E+00  0.0000E+00  0.0000E+00  0.0000E+00  0.0000E+00  0.0000E+00  0.0000E+00
    -17.374  0.0000E+00  0.0000E+00  0.0000E+00  0.0000E+00  0.0000E+00  0.0000E+00  0.0000E+00  0.0000E+00  0.0000E+00
    -17.111  0.0000E+00  0.0000E+00  0.0000E+00  0.0000E+00  0.0000E+00  0.0000E+00  0.0000E+00  0.0000E+00  0.0000E+00
    -16.848  0.0000E+00  0.0000E+00  0.0000E+00  0.0000E+00  0.0000E+00  0.0000E+00  0.0000E+00  0.0000E+00  0.0000E+00
    -16.584  0.0000E+00  0.0000E+00  0.0000E+00  0.0000E+00  0.0000E+00  0.0000E+00  0.0000E+00  0.0000E+00  0.0000E+00
    -16.321  0.0000E+00  0.0000E+00  0.0000E+00  0.0000E+00  0.0000E+00  0.0000E+00  0.0000E+00  0.0000E+00  0.0000E+00
    -16.058  0.0000E+00  0.0000E+00  0.0000E+00  0.0000E+00  0.0000E+00  0.0000E+00  0.0000E+00  0.0000E+00  0.0000E+00
    -15.795  0.0000E+00  0.0000E+00  0.0000E+00  0.0000E+00  0.0000E+00  0.0000E+00  0.0000E+00  0.0000E+00  0.0000E+00
    -15.531  0.0000E+00  0.0000E+00  0.0000E+00  0.0000E+00  0.0000E+00  0.0000E+00  0.0000E+00  0.0000E+00  0.0000E+00
    -15.268  0.0000E+00  0.0000E+00  0.0000E+00  0.0000E+00  0.0000E+00  0.0000E+00  0.0000E+00  0.0000E+00  0.0000E+00
    -15.005  0.0000E+00  0.0000E+00  0.0000E+00  0.0000E+00  0.0000E+00  0.0000E+00  0.0000E+00  0.0000E+00  0.0000E+00
    -14.742  0.0000E+00  0.0000E+00  0.0000E+00  0.0000E+00  0.0000E+00  0.0000E+00  0.0000E+00  0.0000E+00  0.0000E+00
    -14.478  0.0000E+00  0.0000E+00  0.0000E+00  0.0000E+00  0.0000E+00  0.0000E+00  0.0000E+00  0.0000E+00  0.0000E+00
    -14.215  0.0000E+00  0.0000E+00  0.0000E+00  0.0000E+00  0.0000E+00  0.0000E+00  0.0000E+00  0.0000E+00  0.0000E+00
    -13.952  0.0000E+00  0.0000E+00  0.0000E+00  0.0000E+00  0.0000E+00  0.0000E+00  0.0000E+00  0.0000E+00  0.0000E+00
    -13.689  0.0000E+00  0.0000E+00  0.0000E+00  0.0000E+00  0.0000E+00  0.0000E+00  0.0000E+00  0.0000E+00  0.0000E+00
    -13.425  0.0000E+00  0.0000E+00  0.0000E+00  0.0000E+00  0.0000E+00  0.0000E+00  0.0000E+00  0.0000E+00  0.0000E+00
    -13.162  0.0000E+00  0.0000E+00  0.0000E+00  0.0000E+00  0.0000E+00  0.0000E+00  0.0000E+00  0.0000E+00  0.0000E+00
    -12.899  0.0000E+00  0.0000E+00  0.0000E+00  0.0000E+00  0.0000E+00  0.0000E+00  0.0000E+00  0.0000E+00  0.0000E+00
    -12.636  0.0000E+00  0.0000E+00  0.0000E+00  0.0000E+00  0.0000E+00  0.0000E+00  0.0000E+00  0.0000E+00  0.0000E+00
    -12.372  0.0000E+00  0.0000E+00  0.0000E+00  0.0000E+00  0.0000E+00  0.0000E+00  0.0000E+00  0.0000E+00  0.0000E+00
    -12.109  0.0000E+00  0.0000E+00  0.0000E+00  0.0000E+00  0.0000E+00  0.0000E+00  0.0000E+00  0.0000E+00  0.0000E+00
    -11.846  0.0000E+00  0.0000E+00  0.0000E+00  0.0000E+00  0.0000E+00  0.0000E+00  0.0000E+00  0.0000E+00  0.0000E+00
    -11.583  0.0000E+00  0.0000E+00  0.0000E+00  0.0000E+00  0.0000E+00  0.0000E+00  0.0000E+00  0.0000E+00  0.0000E+00
    -11.319  0.0000E+00  0.0000E+00  0.0000E+00  0.0000E+00  0.0000E+00  0.0000E+00  0.0000E+00  0.0000E+00  0.0000E+00
    -11.056  0.0000E+00  0.0000E+00  0.0000E+00  0.0000E+00  0.0000E+00  0.0000E+00  0.0000E+00  0.0000E+00  0.0000E+00
    -10.793  0.0000E+00  0.0000E+00  0.0000E+00  0.0000E+00  0.0000E+00  0.0000E+00  0.0000E+00  0.0000E+00  0.0000E+00
    -10.530  0.0000E+00  0.0000E+00  0.0000E+00  0.0000E+00  0.0000E+00  0.0000E+00  0.0000E+00  0.0000E+00  0.0000E+00
    -10.266  0.0000E+00  0.0000E+00  0.0000E+00  0.0000E+00  0.0000E+00  0.0000E+00  0.0000E+00  0.0000E+00  0.0000E+00
    -10.003  0.0000E+00  0.0000E+00  0.0000E+00  0.0000E+00  0.0000E+00  0.0000E+00  0.0000E+00  0.0000E+00  0.0000E+00
     -9.740  0.0000E+00  0.0000E+00  0.0000E+00  0.0000E+00  0.0000E+00  0.0000E+00  0.0000E+00  0.0000E+00  0.0000E+00
     -9.477  0.0000E+00  0.0000E+00  0.0000E+00  0.0000E+00  0.0000E+00  0.0000E+00  0.0000E+00  0.0000E+00  0.0000E+00
     -9.213  0.0000E+00  0.0000E+00  0.0000E+00  0.0000E+00  0.0000E+00  0.0000E+00  0.0000E+00  0.0000E+00  0.0000E+00
     -8.950  0.0000E+00  0.0000E+00  0.0000E+00  0.0000E+00  0.0000E+00  0.0000E+00  0.0000E+00  0.0000E+00  0.0000E+00
     -8.687  0.0000E+00  0.0000E+00  0.0000E+00  0.0000E+00  0.0000E+00  0.0000E+00  0.0000E+00  0.0000E+00  0.0000E+00
     -8.424  0.0000E+00  0.0000E+00  0.0000E+00  0.0000E+00  0.0000E+00  0.0000E+00  0.0000E+00  0.0000E+00  0.0000E+00
     -8.160  0.0000E+00  0.0000E+00  0.0000E+00  0.0000E+00  0.0000E+00  0.0000E+00  0.0000E+00  0.0000E+00  0.0000E+00
     -7.897  0.0000E+00  0.0000E+00  0.0000E+00  0.0000E+00  0.0000E+00  0.0000E+00  0.0000E+00  0.0000E+00  0.0000E+00
     -7.634  0.0000E+00  0.0000E+00  0.0000E+00  0.0000E+00  0.0000E+00  0.0000E+00  0.0000E+00  0.0000E+00  0.0000E+00
     -7.371  0.0000E+00  0.0000E+00  0.0000E+00  0.0000E+00  0.0000E+00  0.0000E+00  0.0000E+00  0.0000E+00  0.0000E+00
     -7.107  0.0000E+00  0.0000E+00  0.0000E+00  0.0000E+00  0.0000E+00  0.0000E+00  0.0000E+00  0.0000E+00  0.0000E+00
     -6.844  0.0000E+00  0.0000E+00  0.0000E+00  0.0000E+00  0.0000E+00  0.0000E+00  0.0000E+00  0.0000E+00  0.0000E+00
     -6.581  0.0000E+00  0.0000E+00  0.0000E+00  0.0000E+00  0.0000E+00  0.0000E+00  0.0000E+00  0.0000E+00  0.0000E+00
     -6.318  0.0000E+00  0.0000E+00  0.0000E+00  0.0000E+00  0.0000E+00  0.0000E+00  0.0000E+00  0.0000E+00  0.0000E+00
     -6.054  0.0000E+00  0.0000E+00  0.0000E+00  0.0000E+00  0.0000E+00  0.0000E+00  0.0000E+00  0.0000E+00  0.0000E+00