    2    2  100    1
  0.1811930E+02  0.2890621E-09  0.2890621E-09  0.5007933E-09  0.5000000E-15
  1.000000000000000E-004
  CAR 
 Pt-hcc                                  
     32     70     24
 
  0.0000000E+00  0.0000000E+00  0.0000000E+00  0.1250000E-02
      1        -43.353062   1.000000
      2        -43.309134   1.000000
      3        -43.309134   1.000000
      4        -43.284534   1.000000
      5        -43.284533   1.000000
      6        -43.160336   1.000000
      7          0.407649   1.000000
      8          2.915416   1.000000
      9          5.613550   1.000000
     10          6.005316   1.000000
     11          6.005317   1.000000
     12          6.292530   1.000000
     13          6.292531   1.000000
     14          7.311544   1.000000
     15          7.311544   1.000000
     16          8.567866   0.999995
     17          8.567867   0.999995
     18          8.628484   0.996741
     19         12.624614   0.000000
     20         23.929930   0.000000
     21         24.344495   0.000000
     22         25.860336   0.000000
     23         28.264434   0.000000
     24         28.264434   0.000000
 
  0.1000000E+00  0.0000000E+00  0.0000000E+00  0.7500000E-02
      1        -43.346166   1.000000
      2        -43.330507   1.000000
      3        -43.315372   1.000000
      4        -43.306929   1.000000
      5        -43.289323   1.000000
      6        -43.162485   1.000000
      7          0.724435   1.000000
      8          3.197079   1.000000
      9          5.558291   1.000000
     10          6.020426   1.000000
     11          6.179601   1.000000
     12          6.228751   1.000000
     13          6.503852   1.000000
     14          6.918594   1.000000
     15          7.180299   1.000000
     16          7.378993   1.000000
     17          8.613265   0.999186
     18         10.313437   0.000000
     19         12.606784   0.000000
     20         24.078255   0.000000
     21         24.805706   0.000000
     22         25.680391   0.000000
     23         26.861041   0.000000
     24         27.205891   0.000000
 
  0.2000000E+00  0.0000000E+00  0.0000000E+00  0.7500000E-02
      1        -43.386699   1.000000
      2        -43.363395   1.000000
      3        -43.331441   1.000000
      4        -43.327787   1.000000
      5        -43.301461   1.000000
      6        -43.168415   1.000000
      7          1.599468   1.000000
      8          3.831025   1.000000
      9          5.376576   1.000000
     10          5.794321   1.000000
     11          5.821071   1.000000
     12          6.521116   1.000000
     13          6.858456   1.000000
     14          6.885113   1.000000
     15          6.929679   1.000000
     16          7.095826   1.000000
     17          8.686241   0.861450
     18         12.223654   0.000000
     19         12.598047   0.000000
     20         21.664375   0.000000
     21         24.640100   0.000000
     22         25.376214   0.000000
     23         26.050232   0.000000
     24         26.344041   0.000000
 
  0.3000000E+00 -0.2775558E-16  0.0000000E+00  0.7500000E-02
      1        -43.455126   1.000000
      2        -43.431772   1.000000
      3        -43.350944   1.000000
      4        -43.316584   1.000000
      5        -43.301533   1.000000
      6        -43.177976   1.000000
      7          2.713502   1.000000
      8          3.988591   1.000000
      9          4.953191   1.000000
     10          5.594105   1.000000
     11          5.870920   1.000000
     12          6.522312   1.000000
     13          6.577027   1.000000
     14          7.445047   1.000000
     15          7.751342   1.000000
     16          7.925086   1.000000
     17          8.726109   0.483738
     18         12.809569   0.000000
     19         14.212252   0.000000
     20         18.038355   0.000000
     21         22.518013   0.000000
     22         23.700811   0.000000
     23         23.899912   0.000000
     24         25.859303   0.000000
 
  0.4000000E+00 -0.8326673E-16  0.0000000E+00  0.7500000E-02
      1        -43.510636   1.000000
      2        -43.486610   1.000000
      3        -43.366484   1.000000
      4        -43.328887   1.000000
      5        -43.275269   1.000000
      6        -43.191138   1.000000
      7          3.393806   1.000000
      8          3.735980   1.000000
      9          4.419389   1.000000
     10          6.016325   1.000000
     11          6.221792   1.000000
     12          6.355670   1.000000
     13          6.559998   1.000000
     14          8.591173   0.999920
     15          8.727213   0.471300
     16          8.735029   0.384727
     17          8.984646   0.000000
     18         13.740203   0.000000
     19         14.576718   0.000000
     20         16.049443   0.000000
     21         19.792494   0.000000
     22         20.879135   0.000000
     23         22.118864   0.000000
     24         24.708973   0.000000
 
  0.5000000E+00  0.0000000E+00  0.0000000E+00  0.3750000E-02
      1        -43.531848   1.000000
      2        -43.507340   1.000000
      3        -43.372652   1.000000
      4        -43.333858   1.000000
      5        -43.262438   1.000000
      6        -43.199388   1.000000
      7          3.561259   1.000000
      8          3.578827   1.000000
      9          4.239246   1.000000
     10          6.112225   1.000000
     11          6.275971   1.000000
     12          6.427753   1.000000
     13          6.769695   1.000000
     14          8.734572   0.389681
     15          8.936697   0.000000
     16          9.093286   0.000000
     17         10.783817   0.000000
     18         12.010961   0.000000
     19         15.385160   0.000000
     20         16.987693   0.000000
     21         17.043632   0.000000
     22         20.230903   0.000000
     23         21.290474   0.000000
     24         24.269548   0.000000
 
  0.1000000E+00  0.1000000E+00  0.0000000E+00  0.7500000E-02
      1        -43.365707   1.000000
      2        -43.349792   1.000000
      3        -43.333580   1.000000
      4        -43.323424   1.000000
      5        -43.301036   1.000000
      6        -43.166630   1.000000
      7          1.326511   1.000000
      8          3.691955   1.000000
      9          5.346370   1.000000
     10          5.946848   1.000000
     11          6.155963   1.000000
     12          6.202247   1.000000
     13          6.699408   1.000000
     14          6.734607   1.000000
     15          6.976051   1.000000
     16          7.253017   1.000000
     17          8.629225   0.996528
     18         11.711966   0.000000
     19         12.595071   0.000000
     20         23.378255   0.000000
     21         23.496998   0.000000
     22         25.610922   0.000000
     23         26.452049   0.000000
     24         26.835584   0.000000
 
  0.2000000E+00  0.1000000E+00  0.0000000E+00  0.1500000E-01
      1        -43.423143   1.000000
      2        -43.407551   1.000000
      3        -43.345758   1.000000
      4        -43.318947   1.000000
      5        -43.311090   1.000000
      6        -43.174298   1.000000
      7          2.378486   1.000000
      8          4.247374   1.000000
      9          5.202160   1.000000
     10          5.289619   1.000000
     11          5.728551   1.000000
     12          6.349310   1.000000
     13          6.691337   1.000000
     14          6.959619   1.000000
     15          7.545855   1.000000
     16          7.857494   1.000000
     17          8.628741   0.996668
     18         12.710469   0.000000
     19         13.561625   0.000000
     20         19.867147   0.000000
     21         21.799170   0.000000
     22         24.663277   0.000000
     23         26.093556   0.000000
     24         26.239820   0.000000
 
  0.3000000E+00  0.1000000E+00  0.0000000E+00  0.1500000E-01
      1        -43.483030   1.000000
      2        -43.462795   1.000000
      3        -43.368865   1.000000
      4        -43.336046   1.000000
      5        -43.284280   1.000000
      6        -43.186473   1.000000
      7          3.384938   1.000000
      8          4.081907   1.000000
      9          4.657070   1.000000
     10          5.605646   1.000000
     11          6.096593   1.000000
     12          6.113962   1.000000
     13          6.571111   1.000000
     14          7.568004   1.000000
     15          8.396872   1.000000
     16          8.618392   0.998676
     17          9.003886   0.000000
     18         13.350715   0.000000
     19         15.502168   0.000000
     20         16.274193   0.000000
     21         19.883579   0.000000
     22         22.428131   0.000000
     23         23.057705   0.000000
     24         24.967432   0.000000
 
  0.4000000E+00  0.1000000E+00  0.0000000E+00  0.1500000E-01
      1        -43.520209   1.000000
      2        -43.495996   1.000000
      3        -43.382719   1.000000
      4        -43.346384   1.000000
      5        -43.262012   1.000000
      6        -43.199225   1.000000
      7          3.746630   1.000000
      8          3.850527   1.000000
      9          4.330851   1.000000
     10          6.070789   1.000000
     11          6.249644   1.000000
     12          6.261607   1.000000
     13          6.521315   1.000000
     14          8.534788   1.000000
     15          8.605661   0.999619
     16          8.820650   0.003316
     17         10.486652   0.000000
     18         13.119721   0.000000
     19         14.976249   0.000000
     20         17.093848   0.000000
     21         17.659892   0.000000
     22         19.976787   0.000000
     23         21.689307   0.000000
     24         24.137995   0.000000
 
  0.2000000E+00  0.2000000E+00  0.0000000E+00  0.7500000E-02
      1        -43.456969   1.000000
      2        -43.456856   1.000000
      3        -43.372026   1.000000
      4        -43.348642   1.000000
      5        -43.287275   1.000000
      6        -43.184782   1.000000
      7          3.475306   1.000000
      8          4.768178   1.000000
      9          4.822972   1.000000
     10          4.840685   1.000000
     11          5.898170   1.000000
     12          5.962606   1.000000
     13          6.727676   1.000000
     14          6.980630   1.000000
     15          8.388511   1.000000
     16          8.492276   1.000000
     17          9.069388   0.000000
     18         13.284725   0.000000
     19         15.353348   0.000000
     20         17.712463   0.000000
     21         18.640980   0.000000
     22         23.853786   0.000000
     23         24.083877   0.000000
     24         24.871048   0.000000
 
  0.3000000E+00  0.2000000E+00  0.0000000E+00  0.1500000E-01
      1        -43.493456   1.000000
      2        -43.477079   1.000000
      3        -43.402472   1.000000
      4        -43.374211   1.000000
      5        -43.262292   1.000000
      6        -43.199325   1.000000
      7          4.233000   1.000000
      8          4.493440   1.000000
      9          4.512980   1.000000
     10          5.427755   1.000000
     11          5.846393   1.000000
     12          6.343768   1.000000
     13          6.351656   1.000000
     14          7.608973   1.000000
     15          8.387022   1.000000
     16          8.728142   0.460850
     17         10.475314   0.000000
     18         14.207691   0.000000
     19         15.269441   0.000000
     20         16.917329   0.000000
     21         17.259458   0.000000
     22         21.174265   0.000000
     23         22.662238   0.000000
     24         23.631043   0.000000
 
  0.4000000E+00  0.2000000E+00  0.0000000E+00  0.7500000E-02
      1        -43.506884   1.000000
      2        -43.482563   1.000000
      3        -43.416857   1.000000
      4        -43.383760   1.000000
      5        -43.248163   1.000000
      6        -43.209448   1.000000
      7          4.355931   1.000000
      8          4.370183   1.000000
      9          4.404927   1.000000
     10          5.911904   1.000000
     11          5.953873   1.000000
     12          6.046630   1.000000
     13          6.570045   1.000000
     14          8.209950   1.000000
     15          8.348779   1.000000
     16          8.574171   0.999990
     17         12.015744   0.000000
     18         12.333880   0.000000
     19         15.650943   0.000000
     20         16.994164   0.000000
     21         18.417917   0.000000
     22         19.119941   0.000000
     23         21.571187   0.000000
     24         23.200432   0.000000
 
  0.3000000E+00  0.3000000E+00  0.0000000E+00  0.7500000E-02
      1        -43.485588   1.000000
      2        -43.466729   1.000000
      3        -43.439384   1.000000
      4        -43.415591   1.000000
      5        -43.239986   1.000000
      6        -43.216244   1.000000
      7          4.484670   1.000000
      8          4.737036   1.000000
      9          4.963649   1.000000
     10          5.338649   1.000000
     11          5.809431   1.000000
     12          6.026123   1.000000
     13          6.641300   1.000000
     14          7.891627   1.000000
     15          8.220915   1.000000
     16          8.452299   1.000000
     17         11.934457   0.000000
     18         13.181275   0.000000
     19         14.641705   0.000000
     20         17.634256   0.000000
     21         19.201711   0.000000
     22         20.183984   0.000000
     23         20.870497   0.000000
     24         21.449170   0.000000
 
  0.0000000E+00  0.0000000E+00  0.1250000E+00  0.2500000E-02
      1        -43.345835   1.000000
      2        -43.308209   1.000000
      3        -43.308208   1.000000
      4        -43.285504   1.000000
      5        -43.285503   1.000000
      6        -43.168339   1.000000
      7          0.525178   1.000000
      8          2.888467   1.000000
      9          5.587737   1.000000
     10          5.989528   1.000000
     11          5.989529   1.000000
     12          6.262214   1.000000
     13          6.262215   1.000000
     14          7.388773   1.000000
     15          7.388773   1.000000
     16          7.994038   1.000000
     17          8.544530   1.000000
     18          8.544530   1.000000
     19         13.505172   0.000000
     20         23.459678   0.000000
     21         24.724068   0.000000
     22         25.610324   0.000000
     23         28.031850   0.000000
     24         28.031850   0.000000
 
  0.1000000E+00  0.0000000E+00  0.1250000E+00  0.1500000E-01
      1        -43.342143   1.000000
      2        -43.327055   1.000000
      3        -43.314485   1.000000
      4        -43.308065   1.000000
      5        -43.290491   1.000000
      6        -43.169656   1.000000
      7          0.840018   1.000000
      8          3.176019   1.000000
      9          5.561290   1.000000
     10          5.953165   1.000000
     11          6.103789   1.000000
     12          6.205777   1.000000
     13          6.470322   1.000000
     14          6.903295   1.000000
     15          7.271154   1.000000
     16          7.331675   1.000000
     17          8.581693   0.999974
     18          9.716916   0.000000
     19         13.622509   0.000000
     20         23.776380   0.000000
     21         24.942020   0.000000
     22         25.649687   0.000000
     23         26.694198   0.000000
     24         26.875665   0.000000
 
  0.2000000E+00  0.0000000E+00  0.1250000E+00  0.1500000E-01
      1        -43.387410   1.000000
      2        -43.364750   1.000000
      3        -43.330291   1.000000
      4        -43.320013   1.000000
      5        -43.302674   1.000000
      6        -43.173815   1.000000
      7          1.703741   1.000000
      8          3.831223   1.000000
      9          5.402746   1.000000
     10          5.585436   1.000000
     11          5.819620   1.000000
     12          6.446539   1.000000
     13          6.732688   1.000000
     14          7.004425   1.000000
     15          7.080585   1.000000
     16          7.141344   1.000000
     17          8.638889   0.992370
     18         10.980843   0.000000
     19         14.122300   0.000000
     20         21.770096   0.000000
     21         24.789864   0.000000
     22         25.050249   0.000000
     23         25.534582   0.000000
     24         26.580888   0.000000
 
  0.3000000E+00 -0.2775558E-16  0.1250000E+00  0.1500000E-01
      1        -43.455461   1.000000
      2        -43.433528   1.000000
      3        -43.349650   1.000000
      4        -43.318004   1.000000
      5        -43.295529   1.000000
      6        -43.182191   1.000000
      7          2.770518   1.000000
      8          4.008159   1.000000
      9          4.927729   1.000000
     10          5.465336   1.000000
     11          5.895904   1.000000
     12          6.602617   1.000000
     13          6.626028   1.000000
     14          7.487300   1.000000
     15          7.769182   1.000000
     16          7.887482   1.000000
     17          8.671568   0.933435
     18         11.912914   0.000000
     19         15.177683   0.000000
     20         18.274818   0.000000
     21         22.722383   0.000000
     22         22.793410   0.000000
     23         24.434360   0.000000
     24         26.165851   0.000000
 
  0.4000000E+00 -0.8326673E-16  0.1250000E+00  0.1500000E-01
      1        -43.510858   1.000000
      2        -43.488510   1.000000
      3        -43.364852   1.000000
      4        -43.330403   1.000000
      5        -43.270741   1.000000
      6        -43.193596   1.000000
      7          3.351753   1.000000
      8          3.747213   1.000000
      9          4.531668   1.000000
     10          5.512603   1.000000
     11          6.373845   1.000000
     12          6.423688   1.000000
     13          7.031890   1.000000
     14          8.534552   1.000000
     15          8.604741   0.999653
     16          8.803811   0.012593
     17          8.912842   0.000000
     18         12.998091   0.000000
     19         14.600289   0.000000
     20         16.796039   0.000000
     21         19.549781   0.000000
     22         21.109777   0.000000
     23         22.429317   0.000000
     24         24.913055   0.000000
 
  0.5000000E+00  0.0000000E+00  0.1250000E+00  0.7500000E-02
      1        -43.532037   1.000000
      2        -43.508958   1.000000
      3        -43.370941   1.000000
      4        -43.335364   1.000000
      5        -43.258378   1.000000
      6        -43.200993   1.000000
      7          3.452420   1.000000
      8          3.601534   1.000000
      9          4.405254   1.000000
     10          5.570565   1.000000
     11          6.348280   1.000000
     12          6.494820   1.000000
     13          7.420340   1.000000
     14          8.599841   0.999793
     15          8.953050   0.000000
     16          9.088420   0.000000
     17         10.622006   0.000000
     18         11.942157   0.000000
     19         15.199667   0.000000
     20         15.731759   0.000000
     21         18.537493   0.000000
     22         20.471150   0.000000
     23         21.457607   0.000000
     24         24.505581   0.000000
 
  0.1000000E+00  0.1000000E+00  0.1250000E+00  0.1500000E-01
      1        -43.367365   1.000000
      2        -43.350547   1.000000
      3        -43.325126   1.000000
      4        -43.323271   1.000000
      5        -43.302216   1.000000
      6        -43.172258   1.000000
      7          1.436086   1.000000
      8          3.684958   1.000000
      9          5.371282   1.000000
     10          5.749833   1.000000
     11          6.026868   1.000000
     12          6.239035   1.000000
     13          6.647324   1.000000
     14          6.827800   1.000000
     15          7.056733   1.000000
     16          7.300109   1.000000
     17          8.588197   0.999943
     18         10.689340   0.000000
     19         13.938383   0.000000
     20         23.407735   0.000000
     21         23.586258   0.000000
     22         25.299251   0.000000
     23         25.980136   0.000000
     24         27.075329   0.000000
 
  0.2000000E+00  0.1000000E+00  0.1250000E+00  0.3000000E-01
      1        -43.423888   1.000000
      2        -43.408857   1.000000
      3        -43.345139   1.000000
      4        -43.320142   1.000000
      5        -43.304217   1.000000
      6        -43.178579   1.000000
      7          2.463876   1.000000
      8          4.270857   1.000000
      9          5.128526   1.000000
     10          5.258274   1.000000
     11          5.716025   1.000000
     12          6.258249   1.000000
     13          6.822545   1.000000
     14          6.941102   1.000000
     15          7.635114   1.000000
     16          7.816616   1.000000
     17          8.588900   0.999938
     18         11.653935   0.000000
     19         14.803986   0.000000
     20         20.028459   0.000000
     21         21.914248   0.000000
     22         24.341137   0.000000
     23         25.413274   0.000000
     24         26.881402   0.000000
 
  0.3000000E+00  0.1000000E+00  0.1250000E+00  0.3000000E-01
      1        -43.483383   1.000000
      2        -43.464531   1.000000
      3        -43.367970   1.000000
      4        -43.337436   1.000000
      5        -43.279071   1.000000
      6        -43.189036   1.000000
      7          3.388197   1.000000
      8          4.108988   1.000000
      9          4.695382   1.000000
     10          5.388270   1.000000
     11          6.071148   1.000000
     12          6.387765   1.000000
     13          6.583067   1.000000
     14          7.581333   1.000000
     15          8.433535   1.000000
     16          8.477953   1.000000
     17          9.045472   0.000000
     18         12.670527   0.000000
     19         15.671529   0.000000
     20         17.015823   0.000000
     21         19.926559   0.000000
     22         21.877906   0.000000
     23         23.549091   0.000000
     24         24.985123   0.000000
 
  0.4000000E+00  0.1000000E+00  0.1250000E+00  0.3000000E-01
      1        -43.520504   1.000000
      2        -43.498101   1.000000
      3        -43.381578   1.000000
      4        -43.348020   1.000000
      5        -43.258299   1.000000
      6        -43.200605   1.000000
      7          3.643747   1.000000
      8          3.865146   1.000000
      9          4.517952   1.000000
     10          5.519449   1.000000
     11          6.146118   1.000000
     12          6.593767   1.000000
     13          6.968953   1.000000
     14          8.446110   1.000000
     15          8.539044   1.000000
     16          8.852864   0.000144
     17         10.459991   0.000000
     18         13.026203   0.000000
     19         14.537446   0.000000
     20         16.874692   0.000000
     21         18.247259   0.000000
     22         20.214384   0.000000
     23         21.953545   0.000000
     24         24.047158   0.000000
 
  0.2000000E+00  0.2000000E+00  0.1250000E+00  0.1500000E-01
      1        -43.458300   1.000000
      2        -43.457367   1.000000
      3        -43.371904   1.000000
      4        -43.350263   1.000000
      5        -43.281927   1.000000
      6        -43.187538   1.000000
      7          3.515528   1.000000
      8          4.673342   1.000000
      9          4.857270   1.000000
     10          4.911454   1.000000
     11          5.910221   1.000000
     12          5.941413   1.000000
     13          6.630625   1.000000
     14          7.106876   1.000000
     15          8.330379   1.000000
     16          8.473711   1.000000
     17          9.122604   0.000000
     18         12.620410   0.000000
     19         15.921636   0.000000
     20         18.090781   0.000000
     21         18.775127   0.000000
     22         23.278061   0.000000
     23         23.486221   0.000000
     24         25.482092   0.000000
 
  0.3000000E+00  0.2000000E+00  0.1250000E+00  0.3000000E-01
      1        -43.493512   1.000000
      2        -43.478602   1.000000
      3        -43.402211   1.000000
      4        -43.375845   1.000000
      5        -43.258293   1.000000
      6        -43.200144   1.000000
      7          4.140255   1.000000
      8          4.508408   1.000000
      9          4.650971   1.000000
     10          5.275440   1.000000
     11          5.949587   1.000000
     12          6.257414   1.000000
     13          6.470827   1.000000
     14          7.659160   1.000000
     15          8.233727   1.000000
     16          8.804868   0.011652
     17         10.513143   0.000000
     18         14.173399   0.000000
     19         14.715004   0.000000
     20         16.955281   0.000000
     21         18.037917   0.000000
     22         20.704159   0.000000
     23         22.685793   0.000000
     24         23.305629   0.000000
 
  0.4000000E+00  0.2000000E+00  0.1250000E+00  0.1500000E-01
      1        -43.506763   1.000000
      2        -43.484226   1.000000
      3        -43.416481   1.000000
      4        -43.385632   1.000000
      5        -43.244864   1.000000
      6        -43.209477   1.000000
      7          4.135308   1.000000
      8          4.408466   1.000000
      9          4.722875   1.000000
     10          5.459642   1.000000
     11          5.839331   1.000000
     12          6.424725   1.000000
     13          6.708979   1.000000
     14          8.189596   1.000000
     15          8.229548   1.000000
     16          8.632136   0.995567
     17         12.101741   0.000000
     18         12.373347   0.000000
     19         15.612457   0.000000
     20         16.663866   0.000000
     21         17.639722   0.000000
     22         20.268657   0.000000
     23         21.762179   0.000000
     24         22.359952   0.000000
 
  0.3000000E+00  0.3000000E+00  0.1250000E+00  0.1500000E-01
      1        -43.484806   1.000000
      2        -43.468441   1.000000
      3        -43.440106   1.000000
      4        -43.417209   1.000000
      5        -43.237427   1.000000
      6        -43.215093   1.000000
      7          4.506658   1.000000
      8          4.722876   1.000000
      9          5.000027   1.000000
     10          5.252906   1.000000
     11          5.905416   1.000000
     12          5.941407   1.000000
     13          6.650015   1.000000
     14          7.966045   1.000000
     15          8.059884   1.000000
     16          8.524273   1.000000
     17         12.019748   0.000000
     18         13.312722   0.000000
     19         14.844325   0.000000
     20         16.825805   0.000000
     21         19.237910   0.000000
     22         19.464268   0.000000
     23         21.081905   0.000000
     24         22.426965   0.000000
 
  0.0000000E+00  0.0000000E+00  0.2500000E+00  0.2500000E-02
      1        -43.325331   1.000000
      2        -43.305539   1.000000
      3        -43.305538   1.000000
      4        -43.288554   1.000000
      5        -43.288553   1.000000
      6        -43.190054   1.000000
      7          0.864901   1.000000
      8          2.772678   1.000000
      9          5.530753   1.000000
     10          5.964399   1.000000
     11          5.964400   1.000000
     12          6.184040   1.000000
     13          6.184041   1.000000
     14          6.909498   1.000000
     15          7.588312   1.000000
     16          7.588313   1.000000
     17          8.466398   1.000000
     18          8.466398   1.000000
     19         15.348555   0.000000
     20         22.786646   0.000000
     21         24.742530   0.000000
     22         25.068209   0.000000
     23         27.761184   0.000000
     24         27.761184   0.000000
 
  0.1000000E+00  0.0000000E+00  0.2500000E+00  0.1500000E-01
      1        -43.334785   1.000000
      2        -43.312933   1.000000
      3        -43.311567   1.000000
      4        -43.310869   1.000000
      5        -43.293302   1.000000
      6        -43.189283   1.000000
      7          1.174782   1.000000
      8          3.073657   1.000000
      9          5.553284   1.000000
     10          5.831142   1.000000
     11          5.906889   1.000000
     12          6.169670   1.000000
     13          6.387937   1.000000
     14          6.547350   1.000000
     15          7.497168   1.000000
     16          7.504631   1.000000
     17          8.482603   1.000000
     18          9.020108   0.000000
     19         15.521190   0.000000
     20         23.154283   0.000000
     21         24.863551   0.000000
     22         25.287071   0.000000
     23         26.335298   0.000000
     24         26.987759   0.000000
 
  0.2000000E+00  0.0000000E+00  0.2500000E+00  0.1500000E-01
      1        -43.387648   1.000000
      2        -43.369007   1.000000
      3        -43.327015   1.000000
      4        -43.305990   1.000000
      5        -43.299752   1.000000
      6        -43.189750   1.000000
      7          2.006489   1.000000
      8          3.779899   1.000000
      9          5.277538   1.000000
     10          5.487698   1.000000
     11          5.633785   1.000000
     12          6.285417   1.000000
     13          6.665700   1.000000
     14          6.943944   1.000000
     15          7.387481   1.000000
     16          7.419633   1.000000
     17          8.499828   1.000000
     18          9.880965   0.000000
     19         16.035379   0.000000
     20         22.082044   0.000000
     21         24.116188   0.000000
     22         24.765868   0.000000
     23         25.236049   0.000000
     24         26.581416   0.000000
 
  0.3000000E+00 -0.2775558E-16  0.2500000E+00  0.1500000E-01
      1        -43.455882   1.000000
      2        -43.438524   1.000000
      3        -43.345880   1.000000
      4        -43.321732   1.000000
      5        -43.279322   1.000000
      6        -43.193161   1.000000
      7          2.938152   1.000000