       N       E                     dE             d eps       ncg     rms          rms(c)
DAV:   1     0.144731137358E+03    0.14473E+03   -0.22874E+04  3408   0.124E+03
DAV:   2    -0.107995395041E+02   -0.15553E+03   -0.15441E+03  3696   0.272E+02
DAV:   3    -0.123596038910E+02   -0.15601E+01   -0.15413E+01  4272   0.337E+01
DAV:   4    -0.123649623605E+02   -0.53585E-02   -0.53547E-02  4968   0.171E+00
DAV:   5    -0.123649682380E+02   -0.58775E-05   -0.58773E-05  4440   0.393E-02    0.142E+01
DAV:   6    -0.116666063282E+02    0.69836E+00   -0.31603E+00  3504   0.104E+01    0.315E+00
DAV:   7    -0.116473687810E+02    0.19238E-01   -0.76886E-02  4560   0.136E+00    0.126E+00
DAV:   8    -0.116459128026E+02    0.14560E-02   -0.71076E-03  3864   0.909E-01    0.601E-02
DAV:   9    -0.116458859010E+02    0.26902E-04   -0.74513E-05  4632   0.669E-02    0.243E-02
DAV:  10    -0.116459058035E+02   -0.19902E-04   -0.12923E-05  3912   0.258E-02    0.874E-03
DAV:  11    -0.116459056530E+02    0.15051E-06   -0.14209E-06  4128   0.940E-03
   1 F= -.11645906E+02 E0= -.11642534E+02  d E =-.116459E+02
