PROCAR lm decomposed
# of k-points:   70         # of bands:   24         # of ions:    2

 k-point     1 :    0.00000000 0.00000000 0.00000000     weight = 0.00125000

band     1 # energy  -43.35306230 # occ.  2.00000000
 
ion      s     py     pz     px    dxy    dyz    dz2    dxz  x2-y2    tot
    1  0.000  0.000  0.493  0.000  0.000  0.000  0.000  0.000  0.000  0.493
    2  0.000  0.000  0.493  0.000  0.000  0.000  0.000  0.000  0.000  0.493
tot    0.000  0.000  0.986  0.000  0.000  0.000  0.000  0.000  0.000  0.986
 
band     2 # energy  -43.30913449 # occ.  2.00000000
 
ion      s     py     pz     px    dxy    dyz    dz2    dxz  x2-y2    tot
    1  0.000  0.124  0.000  0.373  0.000  0.000  0.000  0.000  0.000  0.497
    2  0.000  0.124  0.000  0.373  0.000  0.000  0.000  0.000  0.000  0.497
tot    0.000  0.249  0.000  0.746  0.000  0.000  0.000  0.000  0.000  0.994
 
band     3 # energy  -43.30913366 # occ.  2.00000000
 
ion      s     py     pz     px    dxy    dyz    dz2    dxz  x2-y2    tot
    1  0.000  0.373  0.000  0.124  0.000  0.000  0.000  0.000  0.000  0.497
    2  0.000  0.373  0.000  0.124  0.000  0.000  0.000  0.000  0.000  0.497
tot    0.000  0.746  0.000  0.249  0.000  0.000  0.000  0.000  0.000  0.994
 
band     4 # energy  -43.28453398 # occ.  2.00000000
 
ion      s     py     pz     px    dxy    dyz    dz2    dxz  x2-y2    tot
    1  0.000  0.124  0.000  0.373  0.000  0.000  0.000  0.000  0.000  0.498
    2  0.000  0.124  0.000  0.373  0.000  0.000  0.000  0.000  0.000  0.497
tot    0.000  0.249  0.000  0.746  0.000  0.000  0.000  0.000  0.000  0.995
 
band     5 # energy  -43.28453315 # occ.  2.00000000
 
ion      s     py     pz     px    dxy    dyz    dz2    dxz  x2-y2    tot
    1  0.000  0.373  0.000  0.124  0.000  0.000  0.000  0.000  0.000  0.498
    2  0.000  0.373  0.000  0.124  0.000  0.000  0.000  0.000  0.000  0.497
tot    0.000  0.746  0.000  0.249  0.000  0.000  0.000  0.000  0.000  0.995
 
band     6 # energy  -43.16033612 # occ.  2.00000000
 
ion      s     py     pz     px    dxy    dyz    dz2    dxz  x2-y2    tot
    1  0.000  0.000  0.497  0.000  0.000  0.000  0.000  0.000  0.000  0.497
    2  0.000  0.000  0.497  0.000  0.000  0.000  0.000  0.000  0.000  0.497
tot    0.000  0.000  0.994  0.000  0.000  0.000  0.000  0.000  0.000  0.994
 
band     7 # energy    0.40764904 # occ.  2.00000000
 
ion      s     py     pz     px    dxy    dyz    dz2    dxz  x2-y2    tot
    1  0.172  0.000  0.000  0.000  0.000  0.000  0.000  0.000  0.000  0.172
    2  0.172  0.000  0.000  0.000  0.000  0.000  0.000  0.000  0.000  0.172
tot    0.343  0.000  0.000  0.000  0.000  0.000  0.001  0.000  0.000  0.344
 
band     8 # energy    2.91541601 # occ.  2.00000000
 
ion      s     py     pz     px    dxy    dyz    dz2    dxz  x2-y2    tot
    1  0.074  0.000  0.000  0.000  0.000  0.000  0.223  0.000  0.000  0.297
    2  0.074  0.000  0.000  0.000  0.000  0.000  0.223  0.000  0.000  0.297
tot    0.148  0.000  0.000  0.000  0.000  0.000  0.447  0.000  0.000  0.595
 
band     9 # energy    5.61355042 # occ.  2.00000000
 
ion      s     py     pz     px    dxy    dyz    dz2    dxz  x2-y2    tot
    1  0.000  0.000  0.000  0.000  0.000  0.000  0.407  0.000  0.000  0.407
    2  0.000  0.000  0.000  0.000  0.000  0.000  0.407  0.000  0.000  0.407
tot    0.000  0.000  0.000  0.000  0.000  0.000  0.814  0.000  0.000  0.814
 
band    10 # energy    6.00531571 # occ.  2.00000000
 
ion      s     py     pz     px    dxy    dyz    dz2    dxz  x2-y2    tot
    1  0.000  0.000  0.000  0.000  0.104  0.000  0.000  0.000  0.312  0.416
    2  0.000  0.000  0.000  0.000  0.104  0.000  0.000  0.000  0.312  0.416
tot    0.000  0.000  0.000  0.000  0.208  0.000  0.000  0.000  0.625  0.833
 
band    11 # energy    6.00531673 # occ.  2.00000000
 
ion      s     py     pz     px    dxy    dyz    dz2    dxz  x2-y2    tot
    1  0.000  0.000  0.000  0.000  0.312  0.000  0.000  0.000  0.104  0.416
    2  0.000  0.000  0.000  0.000  0.312  0.000  0.000  0.000  0.104  0.416
tot    0.000  0.000  0.000  0.000  0.625  0.000  0.000  0.000  0.208  0.833
 
band    12 # energy    6.29252967 # occ.  2.00000000
 
ion      s     py     pz     px    dxy    dyz    dz2    dxz  x2-y2    tot
    1  0.000  0.000  0.000  0.000  0.106  0.000  0.000  0.000  0.319  0.426
    2  0.000  0.000  0.000  0.000  0.106  0.000  0.000  0.000  0.319  0.425
tot    0.000  0.000  0.000  0.000  0.213  0.000  0.000  0.000  0.638  0.851
 
band    13 # energy    6.29253072 # occ.  2.00000000
 
ion      s     py     pz     px    dxy    dyz    dz2    dxz  x2-y2    tot
    1  0.000  0.000  0.000  0.000  0.319  0.000  0.000  0.000  0.106  0.426
    2  0.000  0.000  0.000  0.000  0.319  0.000  0.000  0.000  0.106  0.425
tot    0.000  0.000  0.000  0.000  0.638  0.000  0.000  0.000  0.213  0.851
 
band    14 # energy    7.31154360 # occ.  2.00000000
 
ion      s     py     pz     px    dxy    dyz    dz2    dxz  x2-y2    tot
    1  0.000  0.000  0.000  0.000  0.000  0.110  0.000  0.329  0.000  0.439
    2  0.000  0.000  0.000  0.000  0.000  0.110  0.000  0.329  0.000  0.439
tot    0.000  0.000  0.000  0.000  0.000  0.219  0.000  0.658  0.000  0.878
 
band    15 # energy    7.31154387 # occ.  2.00000000
 
ion      s     py     pz     px    dxy    dyz    dz2    dxz  x2-y2    tot
    1  0.000  0.000  0.000  0.000  0.000  0.329  0.000  0.110  0.000  0.439
    2  0.000  0.000  0.000  0.000  0.000  0.329  0.000  0.110  0.000  0.439
tot    0.000  0.000  0.000  0.000  0.000  0.658  0.000  0.219  0.000  0.878
 
band    16 # energy    8.56786633 # occ.  1.99999079
 
ion      s     py     pz     px    dxy    dyz    dz2    dxz  x2-y2    tot
    1  0.000  0.000  0.000  0.000  0.000  0.115  0.000  0.345  0.000  0.461
    2  0.000  0.000  0.000  0.000  0.000  0.115  0.000  0.345  0.000  0.461
tot    0.000  0.000  0.000  0.000  0.000  0.230  0.000  0.691  0.000  0.921
 
band    17 # energy    8.56786663 # occ.  1.99999079
 
ion      s     py     pz     px    dxy    dyz    dz2    dxz  x2-y2    tot
    1  0.000  0.000  0.000  0.000  0.000  0.345  0.000  0.115  0.000  0.461
    2  0.000  0.000  0.000  0.000  0.000  0.345  0.000  0.115  0.000  0.461
tot    0.000  0.000  0.000  0.000  0.000  0.691  0.000  0.230  0.000  0.921
 
band    18 # energy    8.62848374 # occ.  1.99348121
 
ion      s     py     pz     px    dxy    dyz    dz2    dxz  x2-y2    tot
    1  0.000  0.000  0.071  0.000  0.000  0.000  0.000  0.000  0.000  0.071
    2  0.000  0.000  0.071  0.000  0.000  0.000  0.000  0.000  0.000  0.071
tot    0.000  0.000  0.142  0.000  0.000  0.000  0.000  0.000  0.000  0.142
 
band    19 # energy   12.62461425 # occ.  0.00000000
 
ion      s     py     pz     px    dxy    dyz    dz2    dxz  x2-y2    tot
    1  0.163  0.000  0.000  0.000  0.000  0.000  0.225  0.000  0.000  0.389
    2  0.163  0.000  0.000  0.000  0.000  0.000  0.225  0.000  0.000  0.389
tot    0.326  0.000  0.000  0.000  0.000  0.000  0.451  0.000  0.000  0.777
 
band    20 # energy   23.92993015 # occ.  0.00000000
 
ion      s     py     pz     px    dxy    dyz    dz2    dxz  x2-y2    tot
    1  0.003  0.000  0.000  0.000  0.000  0.000  0.002  0.000  0.000  0.006
    2  0.003  0.000  0.000  0.000  0.000  0.000  0.002  0.000  0.000  0.006
tot    0.007  0.000  0.000  0.000  0.000  0.000  0.004  0.000  0.000  0.011
 
band    21 # energy   24.34449538 # occ.  0.00000000
 
ion      s     py     pz     px    dxy    dyz    dz2    dxz  x2-y2    tot
    1  0.000  0.000  0.024  0.000  0.000  0.000  0.000  0.000  0.000  0.024
    2  0.000  0.000  0.024  0.000  0.000  0.000  0.000  0.000  0.000  0.024
tot    0.000  0.000  0.048  0.000  0.000  0.000  0.000  0.000  0.000  0.048
 
band    22 # energy   25.86033638 # occ.  0.00000000
 
ion      s     py     pz     px    dxy    dyz    dz2    dxz  x2-y2    tot
    1  0.001  0.000  0.000  0.000  0.000  0.000  0.015  0.000  0.000  0.016
    2  0.001  0.000  0.000  0.000  0.000  0.000  0.015  0.000  0.000  0.016
tot    0.002  0.000  0.000  0.000  0.000  0.000  0.030  0.000  0.000  0.032
 
band    23 # energy   28.26443372 # occ.  0.00000000
 
ion      s     py     pz     px    dxy    dyz    dz2    dxz  x2-y2    tot
    1  0.000  0.092  0.000  0.030  0.004  0.000  0.000  0.000  0.013  0.140
    2  0.000  0.092  0.000  0.030  0.004  0.000  0.000  0.000  0.013  0.140
tot    0.000  0.183  0.000  0.061  0.009  0.000  0.000  0.000  0.027  0.279
 
band    24 # energy   28.26443382 # occ.  0.00000000
 
ion      s     py     pz     px    dxy    dyz    dz2    dxz  x2-y2    tot
    1  0.000  0.030  0.000  0.092  0.013  0.000  0.000  0.000  0.004  0.140
    2  0.000  0.030  0.000  0.092  0.013  0.000  0.000  0.000  0.004  0.140
tot    0.000  0.061  0.000  0.183  0.027  0.000  0.000  0.000  0.009  0.279
 

 k-point     2 :    0.10000000 0.00000000 0.00000000     weight = 0.00750000

band     1 # energy  -43.34616583 # occ.  2.00000000
 
ion      s     py     pz     px    dxy    dyz    dz2    dxz  x2-y2    tot
    1  0.000  0.000  0.493  0.000  0.000  0.000  0.000  0.000  0.000  0.493
    2  0.000  0.000  0.493  0.000  0.000  0.000  0.000  0.000  0.000  0.493
tot    0.000  0.000  0.986  0.000  0.000  0.000  0.000  0.000  0.000  0.986
 
band     2 # energy  -43.33050723 # occ.  2.00000000
 
ion      s     py     pz     px    dxy    dyz    dz2    dxz  x2-y2    tot
    1  0.000  0.124  0.000  0.372  0.000  0.000  0.000  0.000  0.000  0.497
    2  0.000  0.124  0.000  0.373  0.000  0.000  0.000  0.000  0.000  0.497
tot    0.000  0.248  0.000  0.745  0.000  0.000  0.000  0.000  0.000  0.993
 
band     3 # energy  -43.31537214 # occ.  2.00000000
 
ion      s     py     pz     px    dxy    dyz    dz2    dxz  x2-y2    tot
    1  0.000  0.373  0.000  0.124  0.000  0.000  0.000  0.000  0.000  0.497
    2  0.000  0.373  0.000  0.124  0.000  0.000  0.000  0.000  0.000  0.497
tot    0.000  0.745  0.000  0.248  0.000  0.000  0.000  0.000  0.000  0.994
 
band     4 # energy  -43.30692913 # occ.  2.00000000
 
ion      s     py     pz     px    dxy    dyz    dz2    dxz  x2-y2    tot
    1  0.000  0.124  0.000  0.373  0.000  0.000  0.000  0.000  0.000  0.497
    2  0.000  0.124  0.000  0.373  0.000  0.000  0.000  0.000  0.000  0.497
tot    0.000  0.249  0.000  0.746  0.000  0.000  0.000  0.000  0.000  0.994
 
band     5 # energy  -43.28932329 # occ.  2.00000000
 
ion      s     py     pz     px    dxy    dyz    dz2    dxz  x2-y2    tot
    1  0.000  0.373  0.000  0.124  0.000  0.000  0.000  0.000  0.000  0.497
    2  0.000  0.373  0.000  0.124  0.000  0.000  0.000  0.000  0.000  0.497
tot    0.000  0.746  0.000  0.249  0.000  0.000  0.000  0.000  0.000  0.995
 
band     6 # energy  -43.16248458 # occ.  2.00000000
 
ion      s     py     pz     px    dxy    dyz    dz2    dxz  x2-y2    tot
    1  0.000  0.000  0.497  0.000  0.000  0.000  0.000  0.000  0.000  0.497
    2  0.000  0.000  0.497  0.000  0.000  0.000  0.000  0.000  0.000  0.497
tot    0.000  0.000  0.994  0.000  0.000  0.000  0.000  0.000  0.000  0.994
 
band     7 # energy    0.72443474 # occ.  2.00000000
 
ion      s     py     pz     px    dxy    dyz    dz2    dxz  x2-y2    tot
    1  0.169  0.000  0.000  0.001  0.000  0.000  0.000  0.000  0.000  0.171
    2  0.169  0.000  0.000  0.001  0.000  0.000  0.000  0.000  0.000  0.171
tot    0.337  0.001  0.000  0.003  0.001  0.000  0.000  0.000  0.000  0.342
 
band     8 # energy    3.19707874 # occ.  2.00000000
 
ion      s     py     pz     px    dxy    dyz    dz2    dxz  x2-y2    tot
    1  0.068  0.000  0.000  0.001  0.002  0.000  0.229  0.000  0.001  0.300
    2  0.068  0.000  0.000  0.001  0.002  0.000  0.229  0.000  0.001  0.300
tot    0.135  0.001  0.000  0.002  0.003  0.000  0.457  0.000  0.001  0.600
 
band     9 # energy    5.55829134 # occ.  2.00000000
 
ion      s     py     pz     px    dxy    dyz    dz2    dxz  x2-y2    tot
    1  0.000  0.000  0.000  0.000  0.115  0.000  0.249  0.000  0.038  0.403
    2  0.000  0.000  0.000  0.000  0.115  0.000  0.249  0.000  0.038  0.403
tot    0.000  0.000  0.000  0.001  0.231  0.000  0.498  0.000  0.077  0.807
 
band    10 # energy    6.02042640 # occ.  2.00000000
 
ion      s     py     pz     px    dxy    dyz    dz2    dxz  x2-y2    tot
    1  0.000  0.000  0.000  0.000  0.210  0.000  0.134  0.000  0.070  0.414
    2  0.000  0.000  0.000  0.000  0.210  0.000  0.134  0.000  0.070  0.414
tot    0.000  0.000  0.000  0.000  0.420  0.000  0.268  0.000  0.140  0.829
 
band    11 # energy    6.17960142 # occ.  2.00000000
 
ion      s     py     pz     px    dxy    dyz    dz2    dxz  x2-y2    tot
    1  0.001  0.000  0.000  0.000  0.293  0.000  0.027  0.000  0.098  0.419
    2  0.001  0.000  0.000  0.000  0.293  0.000  0.027  0.000  0.098  0.419
tot    0.003  0.000  0.000  0.000  0.586  0.000  0.053  0.000  0.195  0.838
 
band    12 # energy    6.22875090 # occ.  2.00000000
 
ion      s     py     pz     px    dxy    dyz    dz2    dxz  x2-y2    tot
    1  0.000  0.000  0.000  0.000  0.105  0.000  0.000  0.000  0.314  0.419
    2  0.000  0.000  0.000  0.000  0.105  0.000  0.000  0.000  0.314  0.419
tot    0.000  0.001  0.000  0.000  0.209  0.000  0.000  0.000  0.628  0.838
 
band    13 # energy    6.50385156 # occ.  2.00000000
 
ion      s     py     pz     px    dxy    dyz    dz2    dxz  x2-y2    tot
    1  0.000  0.000  0.000  0.000  0.107  0.000  0.000  0.000  0.321  0.428
    2  0.000  0.000  0.000  0.000  0.107  0.000  0.000  0.000  0.321  0.428
tot    0.000  0.001  0.000  0.000  0.214  0.000  0.000  0.000  0.641  0.856
 
band    14 # energy    6.91859379 # occ.  2.00000000
 
ion      s     py     pz     px    dxy    dyz    dz2    dxz  x2-y2    tot
    1  0.000  0.000  0.010  0.000  0.000  0.090  0.000  0.270  0.000  0.370
    2  0.000  0.000  0.010  0.000  0.000  0.090  0.000  0.270  0.000  0.370
tot    0.000  0.000  0.020  0.000  0.000  0.180  0.000  0.541  0.000  0.741
 
band    15 # energy    7.18029905 # occ.  2.00000000
 
ion      s     py     pz     px    dxy    dyz    dz2    dxz  x2-y2    tot
    1  0.000  0.000  0.000  0.000  0.000  0.326  0.000  0.109  0.000  0.435
    2  0.000  0.000  0.000  0.000  0.000  0.326  0.000  0.109  0.000  0.435
tot    0.000  0.000  0.000  0.000  0.000  0.652  0.000  0.217  0.000  0.870
 
band    16 # energy    7.37899303 # occ.  2.00000000
 
ion      s     py     pz     px    dxy    dyz    dz2    dxz  x2-y2    tot
    1  0.000  0.000  0.017  0.000  0.000  0.082  0.000  0.246  0.000  0.345
    2  0.000  0.000  0.017  0.000  0.000  0.082  0.000  0.246  0.000  0.345
tot    0.000  0.000  0.034  0.000  0.000  0.164  0.000  0.492  0.000  0.690
 
band    17 # energy    8.61326508 # occ.  1.99837246
 
ion      s     py     pz     px    dxy    dyz    dz2    dxz  x2-y2    tot
    1  0.000  0.000  0.000  0.000  0.000  0.347  0.000  0.116  0.000  0.463
    2  0.000  0.000  0.000  0.000  0.000  0.347  0.000  0.116  0.000  0.463
tot    0.000  0.000  0.000  0.000  0.000  0.694  0.000  0.231  0.000  0.925
 
band    18 # energy   10.31343652 # occ.  0.00000000
 
ion      s     py     pz     px    dxy    dyz    dz2    dxz  x2-y2    tot
    1  0.000  0.000  0.045  0.000  0.000  0.051  0.000  0.153  0.000  0.249
    2  0.000  0.000  0.045  0.000  0.000  0.051  0.000  0.153  0.000  0.249
tot    0.000  0.000  0.090  0.000  0.000  0.102  0.000  0.306  0.000  0.498
 
band    19 # energy   12.60678375 # occ.  0.00000000
 
ion      s     py     pz     px    dxy    dyz    dz2    dxz  x2-y2    tot
    1  0.165  0.000  0.000  0.000  0.001  0.000  0.216  0.000  0.000  0.383
    2  0.165  0.000  0.000  0.000  0.001  0.000  0.216  0.000  0.000  0.383
tot    0.329  0.000  0.000  0.001  0.003  0.000  0.433  0.000  0.001  0.767
 
band    20 # energy   24.07825489 # occ.  0.00000000
 
ion      s     py     pz     px    dxy    dyz    dz2    dxz  x2-y2    tot
    1  0.006  0.003  0.000  0.008  0.021  0.000  0.004  0.000  0.007  0.048
    2  0.006  0.003  0.000  0.008  0.021  0.000  0.004  0.000  0.007  0.048
tot    0.013  0.005  0.000  0.016  0.041  0.000  0.008  0.000  0.014  0.097
 
band    21 # energy   24.80570566 # occ.  0.00000000
 
ion      s     py     pz     px    dxy    dyz    dz2    dxz  x2-y2    tot
    1  0.000  0.000  0.022  0.000  0.000  0.002  0.000  0.005  0.000  0.028
    2  0.000  0.000  0.022  0.000  0.000  0.002  0.000  0.005  0.000  0.028
tot    0.000  0.000  0.043  0.000  0.000  0.003  0.000  0.009  0.000  0.055
 
band    22 # energy   25.68039096 # occ.  0.00000000
 
ion      s     py     pz     px    dxy    dyz    dz2    dxz  x2-y2    tot
    1  0.007  0.010  0.000  0.029  0.017  0.000  0.022  0.000  0.006  0.090
    2  0.007  0.010  0.000  0.029  0.017  0.000  0.022  0.000  0.006  0.090
tot    0.014  0.019  0.000  0.058  0.034  0.000  0.044  0.000  0.011  0.180
 
band    23 # energy   26.86104126 # occ.  0.00000000
 
ion      s     py     pz     px    dxy    dyz    dz2    dxz  x2-y2    tot
    1  0.000  0.081  0.000  0.027  0.008  0.000  0.000  0.000  0.025  0.141
    2  0.000  0.081  0.000  0.027  0.008  0.000  0.000  0.000  0.025  0.141
tot    0.000  0.162  0.000  0.054  0.017  0.000  0.000  0.000  0.050  0.283
 
band    24 # energy   27.20589150 # occ.  0.00000000
 
ion      s     py     pz     px    dxy    dyz    dz2    dxz  x2-y2    tot
    1  0.003  0.014  0.000  0.043  0.004  0.000  0.000  0.000  0.001  0.066
    2  0.003  0.014  0.000  0.043  0.004  0.000  0.000  0.000  0.001  0.066
tot    0.007  0.029  0.000  0.086  0.008  0.000  0.000  0.000  0.003  0.132
 

 k-point     3 :    0.20000000 0.00000000 0.00000000     weight = 0.00750000

band     1 # energy  -43.38669938 # occ.  2.00000000
 
ion      s     py     pz     px    dxy    dyz    dz2    dxz  x2-y2    tot
    1  0.000  0.124  0.000  0.372  0.000  0.000  0.000  0.000  0.000  0.496
    2  0.000  0.124  0.000  0.372  0.000  0.000  0.000  0.000  0.000  0.496
tot    0.000  0.248  0.000  0.744  0.000  0.000  0.000  0.000  0.000  0.991
 
band     2 # energy  -43.36339525 # occ.  2.00000000
 
ion      s     py     pz     px    dxy    dyz    dz2    dxz  x2-y2    tot
    1  0.000  0.124  0.000  0.372  0.000  0.000  0.000  0.000  0.000  0.496
    2  0.000  0.124  0.000  0.372  0.000  0.000  0.000  0.000  0.000  0.496
tot    0.000  0.248  0.000  0.744  0.000  0.000  0.000  0.000  0.000  0.992
 
band     3 # energy  -43.33144080 # occ.  2.00000000
 
ion      s     py     pz     px    dxy    dyz    dz2    dxz  x2-y2    tot
    1  0.000  0.372  0.000  0.124  0.000  0.000  0.000  0.000  0.000  0.497
    2  0.000  0.373  0.000  0.124  0.000  0.000  0.000  0.000  0.000  0.497
tot    0.000  0.745  0.000  0.248  0.000  0.000  0.000  0.000  0.000  0.993
 
band     4 # energy  -43.32778729 # occ.  2.00000000
 
ion      s     py     pz     px    dxy    dyz    dz2    dxz  x2-y2    tot
    1  0.000  0.000  0.494  0.000  0.000  0.000  0.000  0.000  0.000  0.494
    2  0.000  0.000  0.494  0.000  0.000  0.000  0.000  0.000  0.000  0.494
tot    0.000  0.000  0.987  0.000  0.000  0.000  0.000  0.000  0.000  0.987
 
band     5 # energy  -43.30146052 # occ.  2.00000000
 
ion      s     py     pz     px    dxy    dyz    dz2    dxz  x2-y2    tot
    1  0.000  0.373  0.000  0.124  0.000  0.000  0.000  0.000  0.000  0.497
    2  0.000  0.373  0.000  0.124  0.000  0.000  0.000  0.000  0.000  0.497
tot    0.000  0.746  0.000  0.249  0.000  0.000  0.000  0.000  0.000  0.995
 
band     6 # energy  -43.16841549 # occ.  2.00000000
 
ion      s     py     pz     px    dxy    dyz    dz2    dxz  x2-y2    tot
    1  0.000  0.000  0.497  0.000  0.000  0.000  0.000  0.000  0.000  0.497
    2  0.000  0.000  0.497  0.000  0.000  0.000  0.000  0.000  0.000  0.497
tot    0.000  0.000  0.994  0.000  0.000  0.000  0.000  0.000  0.000  0.994
 
band     7 # energy    1.59946823 # occ.  2.00000000
 
ion      s     py     pz     px    dxy    dyz    dz2    dxz  x2-y2    tot
    1  0.158  0.002  0.000  0.005  0.005  0.000  0.001  0.000  0.002  0.172
    2  0.158  0.002  0.000  0.005  0.005  0.000  0.001  0.000  0.002  0.172
tot    0.315  0.003  0.000  0.009  0.010  0.000  0.001  0.000  0.003  0.343
 
band     8 # energy    3.83102543 # occ.  2.00000000
 
ion      s     py     pz     px    dxy    dyz    dz2    dxz  x2-y2    tot
    1  0.046  0.001  0.000  0.003  0.035  0.000  0.219  0.000  0.012  0.317
    2  0.046  0.001  0.000  0.003  0.035  0.000  0.219  0.000  0.012  0.317
tot    0.093  0.002  0.000  0.006  0.071  0.000  0.438  0.000  0.024  0.633
 
band     9 # energy    5.37657631 # occ.  2.00000000
 
ion      s     py     pz     px    dxy    dyz    dz2    dxz  x2-y2    tot
    1  0.003  0.001  0.000  0.002  0.186  0.000  0.127  0.000  0.062  0.381
    2  0.003  0.001  0.000  0.002  0.186  0.000  0.127  0.000  0.062  0.381
tot    0.005  0.002  0.000  0.005  0.373  0.000  0.254  0.000  0.124  0.762
 
band    10 # energy    5.79432051 # occ.  2.00000000
 
ion      s     py     pz     px    dxy    dyz    dz2    dxz  x2-y2    tot
    1  0.004  0.000  0.000  0.001  0.258  0.000  0.052  0.000  0.086  0.401
    2  0.004  0.000  0.000  0.001  0.258  0.000  0.052  0.000  0.086  0.401
tot    0.009  0.001  0.000  0.002  0.516  0.000  0.103  0.000  0.172  0.802
 
band    11 # energy    5.82107109 # occ.  2.00000000
 
ion      s     py     pz     px    dxy    dyz    dz2    dxz  x2-y2    tot
    1  0.000  0.000  0.013  0.000  0.000  0.078  0.000  0.234  0.000  0.325
    2  0.000  0.000  0.013  0.000  0.000  0.078  0.000  0.234  0.000  0.325
tot    0.000  0.000  0.026  0.000  0.000  0.156  0.000  0.468  0.000  0.650
 
band    12 # energy    6.52111636 # occ.  2.00000000
 
ion      s     py     pz     px    dxy    dyz    dz2    dxz  x2-y2    tot
    1  0.003  0.000  0.000  0.001  0.109  0.000  0.267  0.000  0.036  0.416
    2  0.003  0.000  0.000  0.001  0.109  0.000  0.267  0.000  0.036  0.416
tot    0.006  0.001  0.000  0.002  0.218  0.000  0.534  0.000  0.073  0.833
 
band    13 # energy    6.85845560 # occ.  2.00000000
 
ion      s     py     pz     px    dxy    dyz    dz2    dxz  x2-y2    tot
    1  0.000  0.001  0.000  0.000  0.106  0.000  0.000  0.000  0.319  0.427
    2  0.000  0.001  0.000  0.000  0.106  0.000  0.000  0.000  0.319  0.427
tot    0.000  0.001  0.000  0.000  0.213  0.000  0.000  0.000  0.639  0.853
 
band    14 # energy    6.88511291 # occ.  2.00000000
 
ion      s     py     pz     px    dxy    dyz    dz2    dxz  x2-y2    tot
    1  0.000  0.000  0.000  0.000  0.000  0.320  0.000  0.107  0.000  0.427
    2  0.000  0.000  0.000  0.000  0.000  0.320  0.000  0.107  0.000  0.427
tot    0.000  0.000  0.000  0.000  0.000  0.640  0.000  0.213  0.000  0.853
 
band    15 # energy    6.92967937 # occ.  2.00000000
 
ion      s     py     pz     px    dxy    dyz    dz2    dxz  x2-y2    tot
    1  0.000  0.000  0.007  0.000  0.000  0.096  0.000  0.287  0.000  0.389
    2  0.000  0.000  0.007  0.000  0.000  0.096  0.000  0.287  0.000  0.389
tot    0.000  0.000  0.014  0.000  0.000  0.191  0.000  0.574  0.000  0.779
 
band    16 # energy    7.09582643 # occ.  2.00000000
 
ion      s     py     pz     px    dxy    dyz    dz2    dxz  x2-y2    tot
    1  0.000  0.001  0.000  0.000  0.109  0.000  0.000  0.000  0.326  0.435
    2  0.000  0.001  0.000  0.000  0.108  0.000  0.000  0.000  0.325  0.435
tot    0.000  0.001  0.000  0.000  0.217  0.000  0.000  0.000  0.651  0.870
 
band    17 # energy    8.68624094 # occ.  1.72289976
 
ion      s     py     pz     px    dxy    dyz    dz2    dxz  x2-y2    tot
    1  0.000  0.000  0.000  0.000  0.000  0.349  0.000  0.116  0.000  0.466
    2  0.000  0.000  0.000  0.000  0.000  0.349  0.000  0.116  0.000  0.466
tot    0.000  0.000  0.000  0.000  0.000  0.699  0.000  0.233  0.000  0.932
 
band    18 # energy   12.22365397 # occ.  0.00000000
 
ion      s     py     pz     px    dxy    dyz    dz2    dxz  x2-y2    tot
    1  0.000  0.000  0.054  0.000  0.000  0.045  0.000  0.136  0.000  0.234
    2  0.000  0.000  0.054  0.000  0.000  0.045  0.000  0.136  0.000  0.234
tot    0.000  0.000  0.107  0.000  0.000  0.090  0.000  0.271  0.000  0.469
 
band    19 # energy   12.59804747 # occ.  0.00000000
 
ion      s     py     pz     px    dxy    dyz    dz2    dxz  x2-y2    tot
    1  0.170  0.001  0.000  0.002  0.005  0.000  0.185  0.000  0.002  0.364
    2  0.170  0.001  0.000  0.002  0.005  0.000  0.185  0.000  0.002  0.364
tot    0.340  0.002  0.000  0.005  0.009  0.000  0.370  0.000  0.003  0.729
 
band    20 # energy   21.66437501 # occ.  0.00000000
 
ion      s     py     pz     px    dxy    dyz    dz2    dxz  x2-y2    tot
    1  0.029  0.016  0.000  0.049  0.045  0.000  0.026  0.000  0.015  0.180
    2  0.029  0.016  0.000  0.049  0.045  0.000  0.026  0.000  0.015  0.180
tot    0.057  0.033  0.000  0.098  0.090  0.000  0.052  0.000  0.030  0.360
 
band    21 # energy   24.64009963 # occ.  0.00000000
 
ion      s     py     pz     px    dxy    dyz    dz2    dxz  x2-y2    tot
    1  0.000  0.075  0.000  0.025  0.010  0.000  0.000  0.000  0.029  0.139
    2  0.000  0.075  0.000  0.025  0.010  0.000  0.000  0.000  0.029  0.139
tot    0.000  0.150  0.000  0.050  0.019  0.000  0.000  0.000  0.058  0.278
 
band    22 # energy   25.37621444 # occ.  0.00000000
 
ion      s     py     pz     px    dxy    dyz    dz2    dxz  x2-y2    tot
    1  0.000  0.000  0.014  0.000  0.000  0.003  0.000  0.008  0.000  0.025
    2  0.000  0.000  0.014  0.000  0.000  0.003  0.000  0.008  0.000  0.025
tot    0.000  0.000  0.029  0.000  0.000  0.005  0.000  0.015  0.000  0.049
 
band    23 # energy   26.05023188 # occ.  0.00000000
 
ion      s     py     pz     px    dxy    dyz    dz2    dxz  x2-y2    tot
    1  0.006  0.003  0.000  0.008  0.035  0.000  0.014  0.000  0.012  0.077
    2  0.006  0.003  0.000  0.008  0.035  0.000  0.014  0.000  0.012  0.077
tot    0.011  0.005  0.000  0.016  0.070  0.000  0.028  0.000  0.023  0.154
 
band    24 # energy   26.34404098 # occ.  0.00000000
 
ion      s     py     pz     px    dxy    dyz    dz2    dxz  x2-y2    tot
    1  0.000  0.000  0.002  0.000  0.000  0.015  0.000  0.045  0.000  0.063
    2  0.000  0.000  0.002  0.000  0.000  0.015  0.000  0.045  0.000  0.063
tot    0.000  0.000  0.005  0.000  0.000  0.030  0.000  0.090  0.000  0.125
 

 k-point     4 :    0.30000000-0.00000000 0.00000000     weight = 0.00750000

band     1 # energy  -43.45512557 # occ.  2.00000000
 
ion      s     py     pz     px    dxy    dyz    dz2    dxz  x2-y2    tot
    1  0.000  0.124  0.000  0.371  0.000  0.000  0.000  0.000  0.000  0.494
    2  0.000  0.124  0.000  0.371  0.000  0.000  0.000  0.000  0.000  0.494
tot    0.000  0.247  0.000  0.742  0.000  0.000  0.000  0.000  0.000  0.989
 
band     2 # energy  -43.43177223 # occ.  2.00000000
 
ion      s     py     pz     px    dxy    dyz    dz2    dxz  x2-y2    tot
    1  0.000  0.124  0.000  0.371  0.000  0.000  0.000  0.000  0.000  0.495
    2  0.000  0.124  0.000  0.371  0.000  0.000  0.000  0.000  0.000  0.495
tot    0.000  0.247  0.000  0.742  0.000  0.000  0.000  0.000  0.000  0.990
 
band     3 # energy  -43.35094440 # occ.  2.00000000
 
ion      s     py     pz     px    dxy    dyz    dz2    dxz  x2-y2    tot
    1  0.000  0.372  0.000  0.124  0.000  0.000  0.000  0.000  0.000  0.496
    2  0.000  0.372  0.000  0.124  0.000  0.000  0.000  0.000  0.000  0.496
tot    0.000  0.745  0.000  0.248  0.000  0.000  0.000  0.000  0.000  0.993
 
band     4 # energy  -43.31658408 # occ.  2.00000000
 
ion      s     py     pz     px    dxy    dyz    dz2    dxz  x2-y2    tot
    1  0.000  0.373  0.000  0.124  0.000  0.000  0.000  0.000  0.000  0.497
    2  0.000  0.373  0.000  0.124  0.000  0.000  0.000  0.000  0.000  0.497
tot    0.000  0.746  0.000  0.249  0.000  0.000  0.000  0.000  0.000  0.994
 
band     5 # energy  -43.30153343 # occ.  2.00000000
 
ion      s     py     pz     px    dxy    dyz    dz2    dxz  x2-y2    tot
    1  0.000  0.000  0.494  0.000  0.000  0.000  0.000  0.000  0.000  0.494
    2  0.000  0.000  0.494  0.000  0.000  0.000  0.000  0.000  0.000  0.494
tot    0.000  0.000  0.988  0.000  0.000  0.000  0.000  0.000  0.000  0.988
 
band     6 # energy  -43.17797647 # occ.  2.00000000
 
ion      s     py     pz     px    dxy    dyz    dz2    dxz  x2-y2    tot
    1  0.000  0.000  0.497  0.000  0.000  0.000  0.000  0.000  0.000  0.497
    2  0.000  0.000  0.497  0.000  0.000  0.000  0.000  0.000  0.000  0.497
tot    0.000  0.000  0.993  0.000  0.000  0.000  0.000  0.000  0.000  0.993
 
band     7 # energy    2.71350210 # occ.  2.00000000
 
ion      s     py     pz     px    dxy    dyz    dz2    dxz  x2-y2    tot
    1  0.128  0.002  0.000  0.007  0.042  0.000  0.005  0.000  0.014  0.198
    2  0.128  0.002  0.000  0.007  0.042  0.000  0.005  0.000  0.014  0.198
tot    0.255  0.005  0.000  0.014  0.085  0.000  0.010  0.000  0.028  0.397
 
band     8 # energy    3.98859138 # occ.  2.00000000
 
ion      s     py     pz     px    dxy    dyz    dz2    dxz  x2-y2    tot
    1  0.019  0.000  0.000  0.001  0.158  0.000  0.120  0.000  0.053  0.350
    2  0.019  0.000  0.000  0.001  0.158  0.000  0.120  0.000  0.053  0.350
tot    0.037  0.001  0.000  0.002  0.316  0.000  0.239  0.000  0.105  0.699
 
band     9 # energy    4.95319111 # occ.  2.00000000
 
ion      s     py     pz     px    dxy    dyz    dz2    dxz  x2-y2    tot
    1  0.000  0.000  0.008  0.000  0.000  0.080  0.000  0.241  0.000  0.329
    2  0.000  0.000  0.008  0.000  0.000  0.080  0.000  0.241  0.000  0.329
tot    0.000  0.000  0.016  0.000  0.000  0.161  0.000  0.482  0.000  0.659
 
band    10 # energy    5.59410467 # occ.  2.00000000
 
ion      s     py     pz     px    dxy    dyz    dz2    dxz  x2-y2    tot
    1  0.011  0.002  0.000  0.006  0.214  0.000  0.044  0.000  0.071  0.349
    2  0.011  0.002  0.000  0.006  0.214  0.000  0.044  0.000  0.071  0.349
tot    0.022  0.004  0.000  0.013  0.428  0.000  0.088  0.000  0.143  0.698
 
band    11 # energy    5.87092018 # occ.  2.00000000
 
ion      s     py     pz     px    dxy    dyz    dz2    dxz  x2-y2    tot