<?xml version="1.0" encoding="ISO-8859-1"?>
<modeling>
 <generator>
  <i name="program" type="string">vasp </i>
  <i name="version" type="string">6.3.2  </i>
  <i name="subversion" type="string">27Jun22 (build Aug 12 2022 00:53:59) complex                          parallel </i>
  <i name="platform" type="string">tv2STD </i>
  <i name="date" type="string">2024 12 03 </i>
  <i name="time" type="string">02:20:22 </i>
 </generator>
 <incar>
  <i type="string" name="SYSTEM">Pt-hcc</i>
  <i type="int" name="ISTART">     0</i>
  <i type="string" name="PREC">Accurate      normal | accurate</i>
  <i type="string" name="ALGO">Normal     Normal, Fast, Very_Fast</i>
  <i type="logical" name="ADDGRID"> F  </i>
  <i type="int" name="ICHARG">     2</i>
  <i type="int" name="INIWAV">     1</i>
  <i type="int" name="NELM">   100</i>
  <i type="int" name="IBRION">     2</i>
  <i name="EDIFF">      0.00000100</i>
  <i name="EDIFFG">     -0.02000000</i>
  <i type="int" name="NSW">   100</i>
  <i type="int" name="ISIF">     2</i>
  <i type="int" name="ISYM">     1</i>
  <i name="ENCUT">    450.00000000</i>
  <i type="logical" name="LREAL"> F  </i>
  <i type="int" name="ISMEAR">     0</i>
  <i name="SIGMA">      0.05000000</i>
  <i type="int" name="NWRITE">     2</i>
  <i type="logical" name="LWAVE"> T  </i>
  <i type="logical" name="LCHARG"> T  </i>
  <i type="int" name="LORBIT">    11</i>
 </incar>
 <primitive_cell>
  <structure name="primitive_cell" >
   <crystal>
    <varray name="basis" >
     <v>       2.89062073       0.00000000       0.00000000 </v>
     <v>      -1.44531036       2.50335098       0.00000000 </v>
     <v>       0.00000000       0.00000000       5.00793305 </v>
    </varray>
    <i name="volume">     36.23859662 </i>
    <varray name="rec_basis" >
     <v>       0.34594646       0.19973228       0.00000000 </v>
     <v>       0.00000000       0.39946456       0.00000000 </v>
     <v>       0.00000000       0.00000000       0.19968318 </v>
    </varray>
   </crystal>
   <varray name="positions" >
    <v>       0.00000000       0.00000000       0.00000000 </v>
    <v>       0.33333333       0.66666667       0.50000000 </v>
   </varray>
  </structure>
  <varray name="primitive_index" >
   <v type="int" >        1 </v>
   <v type="int" >        2 </v>
  </varray>
 </primitive_cell>
 <kpoints>
  <generation param="Gamma">
   <v type="int" name="divisions">      10       10        8 </v>
   <v name="usershift">      0.00000000       0.00000000       0.00000000 </v>
   <v name="genvec1">      0.10000000       0.00000000       0.00000000 </v>
   <v name="genvec2">      0.00000000       0.10000000       0.00000000 </v>
   <v name="genvec3">      0.00000000       0.00000000       0.12500000 </v>
   <v name="shift">      0.00000000       0.00000000       0.00000000 </v>
  </generation>
  <varray name="kpointlist" >
   <v>       0.00000000       0.00000000       0.00000000 </v>
   <v>       0.10000000       0.00000000       0.00000000 </v>
   <v>       0.20000000       0.00000000       0.00000000 </v>
   <v>       0.30000000      -0.00000000       0.00000000 </v>
   <v>       0.40000000      -0.00000000       0.00000000 </v>
   <v>       0.50000000       0.00000000       0.00000000 </v>
   <v>       0.10000000       0.10000000       0.00000000 </v>
   <v>       0.20000000       0.10000000       0.00000000 </v>
   <v>       0.30000000       0.10000000       0.00000000 </v>
   <v>       0.40000000       0.10000000       0.00000000 </v>
   <v>       0.20000000       0.20000000       0.00000000 </v>
   <v>       0.30000000       0.20000000       0.00000000 </v>
   <v>       0.40000000       0.20000000       0.00000000 </v>
   <v>       0.30000000       0.30000000       0.00000000 </v>
   <v>       0.00000000       0.00000000       0.12500000 </v>
   <v>       0.10000000       0.00000000       0.12500000 </v>
   <v>       0.20000000       0.00000000       0.12500000 </v>
   <v>       0.30000000      -0.00000000       0.12500000 </v>
   <v>       0.40000000      -0.00000000       0.12500000 </v>
   <v>       0.50000000       0.00000000       0.12500000 </v>
   <v>       0.10000000       0.10000000       0.12500000 </v>
   <v>       0.20000000       0.10000000       0.12500000 </v>
   <v>       0.30000000       0.10000000       0.12500000 </v>
   <v>       0.40000000       0.10000000       0.12500000 </v>
   <v>       0.20000000       0.20000000       0.12500000 </v>
   <v>       0.30000000       0.20000000       0.12500000 </v>
   <v>       0.40000000       0.20000000       0.12500000 </v>
   <v>       0.30000000       0.30000000       0.12500000 </v>
   <v>       0.00000000       0.00000000       0.25000000 </v>
   <v>       0.10000000       0.00000000       0.25000000 </v>
   <v>       0.20000000       0.00000000       0.25000000 </v>
   <v>       0.30000000      -0.00000000       0.25000000 </v>
   <v>       0.40000000      -0.00000000       0.25000000 </v>
   <v>       0.50000000       0.00000000       0.25000000 </v>
   <v>       0.10000000       0.10000000       0.25000000 </v>
   <v>       0.20000000       0.10000000       0.25000000 </v>
   <v>       0.30000000       0.10000000       0.25000000 </v>
   <v>       0.40000000       0.10000000       0.25000000 </v>
   <v>       0.20000000       0.20000000       0.25000000 </v>
   <v>       0.30000000       0.20000000       0.25000000 </v>
   <v>       0.40000000       0.20000000       0.25000000 </v>
   <v>       0.30000000       0.30000000       0.25000000 </v>
   <v>       0.00000000       0.00000000       0.37500000 </v>
   <v>       0.10000000       0.00000000       0.37500000 </v>
   <v>       0.20000000       0.00000000       0.37500000 </v>
   <v>       0.30000000      -0.00000000       0.37500000 </v>
   <v>       0.40000000      -0.00000000       0.37500000 </v>
   <v>       0.50000000       0.00000000       0.37500000 </v>
   <v>       0.10000000       0.10000000       0.37500000 </v>
   <v>       0.20000000       0.10000000       0.37500000 </v>
   <v>       0.30000000       0.10000000       0.37500000 </v>
   <v>       0.40000000       0.10000000       0.37500000 </v>
   <v>       0.20000000       0.20000000       0.37500000 </v>
   <v>       0.30000000       0.20000000       0.37500000 </v>
   <v>       0.40000000       0.20000000       0.37500000 </v>
   <v>       0.30000000       0.30000000       0.37500000 </v>
   <v>       0.00000000       0.00000000       0.50000000 </v>
   <v>       0.10000000       0.00000000       0.50000000 </v>
   <v>       0.20000000       0.00000000       0.50000000 </v>
   <v>       0.30000000      -0.00000000       0.50000000 </v>
   <v>       0.40000000      -0.00000000       0.50000000 </v>
   <v>       0.50000000       0.00000000       0.50000000 </v>
   <v>       0.10000000       0.10000000       0.50000000 </v>
   <v>       0.20000000       0.10000000       0.50000000 </v>
   <v>       0.30000000       0.10000000       0.50000000 </v>
   <v>       0.40000000       0.10000000       0.50000000 </v>
   <v>       0.20000000       0.20000000       0.50000000 </v>
   <v>       0.30000000       0.20000000       0.50000000 </v>
   <v>       0.40000000       0.20000000       0.50000000 </v>
   <v>       0.30000000       0.30000000       0.50000000 </v>
  </varray>
  <varray name="weights" >
   <v>       0.00125000 </v>
   <v>       0.00750000 </v>
   <v>       0.00750000 </v>
   <v>       0.00750000 </v>
   <v>       0.00750000 </v>
   <v>       0.00375000 </v>
   <v>       0.00750000 </v>
   <v>       0.01500000 </v>
   <v>       0.01500000 </v>
   <v>       0.01500000 </v>
   <v>       0.00750000 </v>
   <v>       0.01500000 </v>
   <v>       0.00750000 </v>
   <v>       0.00750000 </v>
   <v>       0.00250000 </v>
   <v>       0.01500000 </v>
   <v>       0.01500000 </v>
   <v>       0.01500000 </v>
   <v>       0.01500000 </v>
   <v>       0.00750000 </v>
   <v>       0.01500000 </v>
   <v>       0.03000000 </v>
   <v>       0.03000000 </v>
   <v>       0.03000000 </v>
   <v>       0.01500000 </v>
   <v>       0.03000000 </v>
   <v>       0.01500000 </v>
   <v>       0.01500000 </v>
   <v>       0.00250000 </v>
   <v>       0.01500000 </v>
   <v>       0.01500000 </v>
   <v>       0.01500000 </v>
   <v>       0.01500000 </v>
   <v>       0.00750000 </v>
   <v>       0.01500000 </v>
   <v>       0.03000000 </v>
   <v>       0.03000000 </v>
   <v>       0.03000000 </v>
   <v>       0.01500000 </v>
   <v>       0.03000000 </v>
   <v>       0.01500000 </v>
   <v>       0.01500000 </v>
   <v>       0.00250000 </v>
   <v>       0.01500000 </v>
   <v>       0.01500000 </v>
   <v>       0.01500000 </v>
   <v>       0.01500000 </v>
   <v>       0.00750000 </v>
   <v>       0.01500000 </v>
   <v>       0.03000000 </v>
   <v>       0.03000000 </v>
   <v>       0.03000000 </v>
   <v>       0.01500000 </v>
   <v>       0.03000000 </v>
   <v>       0.01500000 </v>
   <v>       0.01500000 </v>
   <v>       0.00125000 </v>
   <v>       0.00750000 </v>
   <v>       0.00750000 </v>
   <v>       0.00750000 </v>
   <v>       0.00750000 </v>
   <v>       0.00375000 </v>
   <v>       0.00750000 </v>
   <v>       0.01500000 </v>
   <v>       0.01500000 </v>
   <v>       0.01500000 </v>
   <v>       0.00750000 </v>
   <v>       0.01500000 </v>
   <v>       0.00750000 </v>
   <v>       0.00750000 </v>
  </varray>
 </kpoints>
 <parameters>
  <separator name="general" >
   <i type="string" name="SYSTEM">Pt-hcc</i>
   <i type="logical" name="LCOMPAT"> F  </i>
  </separator>
  <separator name="electronic" >
   <i type="string" name="PREC">accura</i>
   <i name="ENMAX">    450.00000000</i>
   <i name="ENAUG">    527.01400000</i>
   <i name="EDIFF">      0.00000100</i>
   <i type="int" name="IALGO">    38</i>
   <i type="int" name="IWAVPR">    11</i>
   <i type="int" name="NBANDS">    24</i>
   <i type="int" name="NBANDSLOW">    -1</i>
   <i type="int" name="NBANDSHIGH">    -1</i>
   <i name="NELECT">     32.00000000</i>
   <i type="int" name="TURBO">     0</i>
   <i type="int" name="IRESTART">     0</i>
   <i type="int" name="NREBOOT">     0</i>
   <i type="int" name="NMIN">     0</i>
   <i name="EREF">      0.00000000</i>
   <separator name="electronic smearing" >
    <i type="int" name="ISMEAR">     0</i>
    <i name="SIGMA">      0.05000000</i>
    <i name="KSPACING">      0.50000000</i>
    <i type="logical" name="KGAMMA"> T  </i>
    <i type="logical" name="KBLOWUP"> T  </i>
   </separator>
   <separator name="electronic projectors" >
    <i type="logical" name="LREAL"> F  </i>
    <v name="ROPT">      0.00000000</v>
    <i type="int" name="LMAXPAW">  -100</i>
    <i type="int" name="LMAXMIX">     2</i>
    <i type="logical" name="NLSPLINE"> F  </i>
   </separator>
   <separator name="electronic startup" >
    <i type="int" name="ISTART">     0</i>
    <i type="int" name="ICHARG">     2</i>
    <i type="int" name="INIWAV">     1</i>
   </separator>
   <separator name="electronic spin" >
    <i type="int" name="ISPIN">     1</i>
    <i type="logical" name="LNONCOLLINEAR"> F  </i>
    <v name="MAGMOM">      1.00000000      1.00000000</v>
    <i name="NUPDOWN">     -1.00000000</i>
    <i type="logical" name="LSORBIT"> F  </i>
    <v name="SAXIS">      0.00000000      0.00000000      1.00000000</v>
    <i type="logical" name="LSPIRAL"> F  </i>
    <v name="QSPIRAL">      0.00000000      0.00000000      0.00000000</v>
    <i type="logical" name="LZEROZ"> F  </i>
   </separator>
   <separator name="electronic exchange-correlation" >
    <i type="logical" name="LASPH"> F  </i>
    <i type="logical" name="LMETAGGA"> F  </i>
   </separator>
   <separator name="electronic convergence" >
    <i type="int" name="NELM">   100</i>
    <i type="int" name="NELMDL">    -5</i>
    <i type="int" name="NELMIN">     2</i>
    <i name="ENINI">    450.00000000</i>
    <separator name="electronic convergence detail" >
     <i type="logical" name="LDIAG"> T  </i>
     <i type="logical" name="LSUBROT"> F  </i>
     <i name="WEIMIN">      0.00100000</i>
     <i name="EBREAK">      0.00000001</i>
     <i name="DEPER">      0.30000000</i>
     <i type="int" name="NRMM">     4</i>
     <i name="TIME">      0.40000000</i>
    </separator>
   </separator>
   <separator name="electronic mixer" >
    <i name="AMIX">      0.40000000</i>
    <i name="BMIX">      1.00000000</i>
    <i name="AMIN">      0.10000000</i>
    <i name="AMIX_MAG">      1.60000000</i>
    <i name="BMIX_MAG">      1.00000000</i>
    <separator name="electronic mixer details" >
     <i type="int" name="IMIX">     4</i>
     <i type="logical" name="MIXFIRST"> F  </i>
     <i type="int" name="MAXMIX">   -45</i>
     <i name="WC">    100.00000000</i>
     <i type="int" name="INIMIX">     1</i>
     <i type="int" name="MIXPRE">     1</i>
     <i type="int" name="MREMOVE">     5</i>
    </separator>
   </separator>
   <separator name="electronic dipolcorrection" >
    <i type="logical" name="LDIPOL"> F  </i>
    <i type="logical" name="LMONO"> F  </i>
    <i type="int" name="IDIPOL">     0</i>
    <i name="EPSILON">      1.00000000</i>
    <v name="DIPOL">   -100.00000000   -100.00000000   -100.00000000</v>
    <i name="EFIELD">      0.00000000</i>
   </separator>
  </separator>
  <separator name="grids" >
   <i type="int" name="NGX">    20</i>
   <i type="int" name="NGY">    20</i>
   <i type="int" name="NGZ">    36</i>
   <i type="int" name="NGXF">    40</i>
   <i type="int" name="NGYF">    40</i>
   <i type="int" name="NGZF">    72</i>
   <i type="logical" name="ADDGRID"> F  </i>
  </separator>
  <separator name="ionic" >
   <i type="int" name="NSW">   100</i>
   <i type="int" name="IBRION">     2</i>
   <i type="int" name="MDALGO">     0</i>
   <i type="int" name="ISIF">     2</i>
   <i name="PSTRESS">      0.00000000</i>
   <i name="EDIFFG">     -0.02000000</i>
   <i type="int" name="NFREE">     1</i>
   <i name="POTIM">      0.50000000</i>
   <i name="SMASS">     -3.00000000</i>
   <i name="SCALEE">      1.00000000</i>
  </separator>
  <separator name="ionic md" >
   <i name="TEBEG">      0.00010000</i>
   <i name="TEEND">      0.00010000</i>
   <i type="int" name="NBLOCK">     1</i>
   <i type="int" name="KBLOCK">   100</i>
   <i type="int" name="NPACO">   256</i>
   <i name="APACO">     10.00000000</i>
  </separator>
  <separator name="symmetry" >
   <i type="int" name="ISYM">     1</i>
   <i name="SYMPREC">      0.00001000</i>
  </separator>
  <separator name="dos" >
   <i type="int" name="LORBIT">    11</i>
   <v name="RWIGS">     -1.00000000</v>
   <i type="int" name="NEDOS">   301</i>
   <i name="EMIN">     10.00000000</i>
   <i name="EMAX">    -10.00000000</i>
   <i name="EFERMI">      0.00000000</i>
  </separator>
  <separator name="writing" >
   <i type="int" name="NWRITE">     2</i>
   <i type="logical" name="LWAVE"> T  </i>
   <i type="logical" name="LDOWNSAMPLE"> F  </i>
   <i type="logical" name="LCHARG"> T  </i>
   <i type="logical" name="LPARD"> F  </i>
   <i type="logical" name="LVTOT"> F  </i>
   <i type="logical" name="LVHAR"> F  </i>
   <i type="logical" name="LELF"> F  </i>
   <i type="logical" name="LOPTICS"> F  </i>
   <v name="STM">      0.00000000      0.00000000      0.00000000      0.00000000      0.00000000      0.00000000      0.00000000</v>
  </separator>
  <separator name="performance" >
   <i type="int" name="NPAR">    24</i>
   <i type="int" name="NSIM">     4</i>
   <i type="int" name="NBLK">    -1</i>
   <i type="logical" name="LPLANE"> T  </i>
   <i type="logical" name="LSCALAPACK"> T  </i>
   <i type="logical" name="LSCAAWARE"> F  </i>
   <i type="logical" name="LSCALU"> F  </i>
   <i type="logical" name="LASYNC"> F  </i>
   <i type="logical" name="LORBITALREAL"> F  </i>
  </separator>
  <separator name="miscellaneous" >
   <i type="int" name="IDIOT">     3</i>
   <i type="int" name="PHON_NSTRUCT">    -1</i>
   <i type="logical" name="LMUSIC"> F  </i>
   <v name="POMASS">    195.08000000</v>
   <v name="DARWINR">      0.00000000</v>
   <v name="DARWINV">      1.00000000</v>
   <i type="logical" name="LCORR"> T  </i>
  </separator>
  <i type="logical" name="GGA_COMPAT"> T  </i>
  <i type="logical" name="LBERRY"> F  </i>
  <i type="int" name="ICORELEVEL">     0</i>
  <i type="logical" name="LDAU"> F  </i>
  <i type="int" name="I_CONSTRAINED_M">     0</i>
  <separator name="electronic exchange-correlation" >
   <i type="string" name="GGA">--</i>
   <i type="int" name="VOSKOWN">     0</i>
   <i type="logical" name="LHFCALC"> F  </i>
   <i type="string" name="PRECFOCK"></i>
   <i type="logical" name="LSYMGRAD"> F  </i>
   <i type="logical" name="LHFONE"> F  </i>
   <i type="logical" name="LRHFCALC"> F  </i>
   <i type="logical" name="LTHOMAS"> F  </i>
   <i type="logical" name="LMODELHF"> F  </i>
   <i type="logical" name="LFOCKACE"> F  </i>
   <i name="ENCUT4O">     -1.00000000</i>
   <i type="int" name="EXXOEP">     0</i>
   <i type="int" name="FOURORBIT">     0</i>
   <i name="AEXX">      0.00000000</i>
   <i name="HFALPHA">      0.00000000</i>
   <i name="MCALPHA">      0.00000000</i>
   <i name="ALDAX">      1.00000000</i>
   <i name="AGGAX">      1.00000000</i>
   <i name="ALDAC">      1.00000000</i>
   <i name="AGGAC">      1.00000000</i>
   <i type="int" name="NKREDX">     1</i>
   <i type="int" name="NKREDY">     1</i>
   <i type="int" name="NKREDZ">     1</i>
   <i type="logical" name="SHIFTRED"> F  </i>
   <i type="logical" name="ODDONLY"> F  </i>
   <i type="logical" name="EVENONLY"> F  </i>
   <i type="int" name="LMAXFOCK">     0</i>
   <i type="int" name="NMAXFOCKAE">     0</i>
   <i type="logical" name="LFOCKAEDFT"> F  </i>
   <i name="HFSCREEN">      0.00000000</i>
   <i name="HFSCREENC">      0.00000000</i>
   <i type="int" name="NBANDSGWLOW">     0</i>
  </separator>
  <separator name="vdW DFT" >
   <i type="logical" name="LUSE_VDW"> F  </i>
   <i name="Zab_VDW">     -0.84910000</i>
   <i name="PARAM1">      0.12340000</i>
   <i name="PARAM2">      1.00000000</i>
   <i name="PARAM3">      0.00000000</i>
  </separator>
  <separator name="model GW" >
   <i type="int" name="MODEL_GW">     0</i>
   <i name="MODEL_EPS0">     10.87157899</i>
   <i name="MODEL_ALPHA">      1.00000000</i>
  </separator>
  <separator name="linear response parameters" >
   <i type="logical" name="LEPSILON"> F  </i>
   <i type="logical" name="LRPA"> F  </i>
   <i type="logical" name="LNABLA"> F  </i>
   <i type="logical" name="LVEL"> F  </i>
   <i name="CSHIFT">      0.10000000</i>
   <i name="OMEGAMAX">     -1.00000000</i>
   <i name="DEG_THRESHOLD">      0.00200000</i>
   <i name="RTIME">     -0.10000000</i>
   <i name="WPLASMAI">      0.00000000</i>
   <v name="DFIELD">      0.00000000      0.00000000      0.00000000</v>
   <v name="WPLASMA">      0.00000000      0.00000000      0.00000000      0.00000000      0.00000000      0.00000000      0.00000000      0.00000000      0.00000000</v>
  </separator>
  <separator name="orbital magnetization" >
   <i type="logical" name="NUCIND"> F  </i>
   <v name="MAGPOS">      0.00000000      0.00000000      0.00000000</v>
   <i type="logical" name="LNICSALL"> T  </i>
   <i type="logical" name="ORBITALMAG"> F  </i>
   <i type="logical" name="LMAGBLOCH"> F  </i>
   <i type="logical" name="LCHIMAG"> F  </i>
   <i type="logical" name="LGAUGE"> T  </i>
   <i type="int" name="MAGATOM">     0</i>
   <v name="MAGDIPOL">      0.00000000      0.00000000      0.00000000</v>
   <v name="AVECCONST">      0.00000000      0.00000000      0.00000000</v>
  </separator>
  <separator name="response functions" >
   <i type="logical" name="LFINITE_TEMPERATURE"> F  </i>
   <i type="logical" name="LADDER"> F  </i>
   <i type="logical" name="LRPAFORCE"> F  </i>
   <i type="logical" name="LFXC"> F  </i>
   <i type="logical" name="LHARTREE"> T  </i>
   <i type="int" name="IBSE">     0</i>
   <v type="int" name="KPOINT">    -1     0     0     0</v>
   <i type="logical" name="LTCTC"> F  </i>
   <i type="logical" name="LTCTE"> F  </i>
   <i type="logical" name="LTETE"> F  </i>
   <i type="logical" name="LTRIPLET"> F  </i>
   <i type="logical" name="LFXCEPS"> F  </i>
   <i type="logical" name="LFXHEG"> F  </i>
   <i type="int" name="NATURALO">     2</i>
   <i type="logical" name="LHOLEGF"> F  </i>
   <i type="logical" name="L2ORDER"> F  </i>
   <i type="logical" name="LDMP1"> F  </i>
   <i type="logical" name="LMP2LT"> F  </i>
   <i type="logical" name="LSMP2LT"> F  </i>
   <i type="logical" name="LGWLF"> F  </i>
   <i name="ENCUTGW">     -2.00000000</i>
   <i name="ENCUTGWSOFT">     -2.00000000</i>
   <i name="ENCUTLF">     -1.00000000</i>
   <i type="logical" name="LESF_SPLINES"> F  </i>
   <i type="int" name="LMAXMP2">    -1</i>
   <i name="SCISSOR">      0.00000000</i>
   <i type="int" name="NOMEGA">     0</i>
   <i type="int" name="NOMEGAR">     0</i>
   <i type="int" name="NBANDSGW">    -1</i>
   <i type="int" name="NBANDSO">    -1</i>
   <i type="int" name="NBANDSV">    -1</i>
   <i type="int" name="NELMGW">     1</i>
   <i type="int" name="NELMHF">     1</i>
   <i type="int" name="DIM">     3</i>
   <i type="int" name="IESPILON">     4</i>
   <i type="int" name="ANTIRES">     0</i>
   <i name="OMEGAMAX">    -30.00000000</i>
   <i name="OMEGAMIN">    -30.00000000</i>
   <i name="OMEGATL">   -200.00000000</i>
   <i type="int" name="OMEGAGRID">     0</i>
   <i name="CSHIFT">     -0.10000000</i>
   <i type="logical" name="LSELFENERGY"> F  </i>
   <i type="logical" name="LSPECTRAL"> F  </i>
   <i type="logical" name="LSPECTRALGW"> F  </i>
   <i type="logical" name="LSINGLES"> F  </i>
   <i type="logical" name="LFERMIGW"> F  </i>
   <i type="logical" name="ODDONLYGW"> F  </i>
   <i type="logical" name="EVENONLYGW"> F  </i>
   <i type="int" name="NKREDLFX">     1</i>
   <i type="int" name="NKREDLFY">     1</i>
   <i type="int" name="NKREDLFZ">     1</i>
   <i type="int" name="MAXMEM">  2800</i>
   <i type="int" name="TELESCOPE">     0</i>
   <i type="int" name="NTAUPAR">    -1</i>
   <i type="int" name="NOMEGAPAR">    -1</i>
   <i name="DAMP_NEWTON">      0.80000001</i>
   <i name="LAMBDA">      1.00000000</i>
  </separator>
  <separator name="External order field" >
   <i name="OFIELD_KAPPA">      0.00000000</i>
   <v name="OFIELD_K">      0.00000000      0.00000000      0.00000000</v>
   <i name="OFIELD_Q6_NEAR">      0.00000000</i>
   <i name="OFIELD_Q6_FAR">      0.00000000</i>
   <i name="OFIELD_A">      0.00000000</i>
  </separator>
  <separator name="optional k-points parameters" >
   <i type="int" name="KPOINTS_OPT_MODE">     1</i>
   <i type="logical" name="LKPOINTS_OPT"> F  </i>
  </separator>
 </parameters>
 <atominfo>
  <atoms>       2 </atoms>
  <types>       1 </types>
  <array name="atoms" >
   <dimension dim="1">ion</dimension>
   <field type="string">element</field>
   <field type="int">atomtype</field>
   <set>
    <rc><c>Pt</c><c>   1</c></rc>
    <rc><c>Pt</c><c>   1</c></rc>
   </set>
  </array>
  <array name="atomtypes" >
   <dimension dim="1">type</dimension>
   <field type="int">atomspertype</field>
   <field type="string">element</field>
   <field>mass</field>
   <field>valence</field>
   <field type="string">pseudopotential</field>
   <set>
    <rc><c>   2</c><c>Pt</c><c>    195.08000000</c><c>     16.00000000</c><c>  PAW_PBE Pt_pv 12Dec2005               </c></rc>
   </set>
  </array>
 </atominfo>
 <structure name="initialpos" >
  <crystal>
   <varray name="basis" >
    <v>       2.89062073       0.00000000       0.00000000 </v>
    <v>      -1.44531036       2.50335098       0.00000000 </v>
    <v>       0.00000000       0.00000000       5.00793305 </v>
   </varray>
   <i name="volume">     36.23859662 </i>
   <varray name="rec_basis" >
    <v>       0.34594646       0.19973228       0.00000000 </v>
    <v>       0.00000000       0.39946456       0.00000000 </v>
    <v>       0.00000000       0.00000000       0.19968318 </v>
   </varray>
  </crystal>
  <varray name="positions" >
   <v>       0.00000000       0.00000000       0.00000000 </v>
   <v>       0.33333333       0.66666667       0.50000000 </v>
  </varray>
 </structure>
 <calculation>
  <scstep>
   <time name="dav">    0.32    0.32</time>
   <time name="total">    0.33    0.33</time>
   <energy>
    <i name="alphaZ">    264.83570381 </i>
    <i name="ewald">  -4051.55154338 </i>
    <i name="hartreedc">   -911.78318842 </i>
    <i name="XCdc">    126.11561396 </i>
    <i name="pawpsdc">   4131.50523274 </i>
    <i name="pawaedc">  -4061.67189606 </i>
    <i name="eentropy">     -0.00236415 </i>
    <i name="bandstr">   -209.14608659 </i>
    <i name="atom">   4856.42966544 </i>
    <i name="e_fr_energy">    144.73113736 </i>
    <i name="e_wo_entrp">    144.73350151 </i>
    <i name="e_0_energy">    144.73231943 </i>
   </energy>
  </scstep>
  <scstep>
   <time name="dav">    0.36    0.36</time>
   <time name="total">    0.36    0.36</time>
   <energy>
    <i name="e_fr_energy">    -10.79953950 </i>
    <i name="e_wo_entrp">    -10.79485934 </i>
    <i name="e_0_energy">    -10.79719942 </i>
   </energy>
  </scstep>
  <scstep>
   <time name="dav">    0.45    0.46</time>
   <time name="total">    0.45    0.46</time>
   <energy>
    <i name="e_fr_energy">    -12.35960389 </i>
    <i name="e_wo_entrp">    -12.35423821 </i>
    <i name="e_0_energy">    -12.35692105 </i>
   </energy>
  </scstep>
  <scstep>
   <time name="dav">    0.58    0.59</time>
   <time name="total">    0.58    0.59</time>
   <energy>
    <i name="e_fr_energy">    -12.36496236 </i>
    <i name="e_wo_entrp">    -12.35958897 </i>
    <i name="e_0_energy">    -12.36227567 </i>
   </energy>
  </scstep>
  <scstep>
   <time name="dav">    0.49    0.49</time>
   <time name="total">    0.51    0.51</time>
   <energy>
    <i name="e_fr_energy">    -12.36496824 </i>
    <i name="e_wo_entrp">    -12.35959483 </i>
    <i name="e_0_energy">    -12.36228153 </i>
   </energy>
  </scstep>
  <scstep>
   <time name="dav">    0.33    0.33</time>
   <time name="total">    0.36    0.36</time>
   <energy>
    <i name="e_fr_energy">    -11.66660633 </i>
    <i name="e_wo_entrp">    -11.66051509 </i>
    <i name="e_0_energy">    -11.66356071 </i>
   </energy>
  </scstep>
  <scstep>
   <time name="dav">    0.49    0.50</time>
   <time name="total">    0.52    0.52</time>
   <energy>
    <i name="e_fr_energy">    -11.64736878 </i>
    <i name="e_wo_entrp">    -11.64069740 </i>
    <i name="e_0_energy">    -11.64403309 </i>
   </energy>
  </scstep>
  <scstep>
   <time name="dav">    0.38    0.39</time>
   <time name="total">    0.41    0.41</time>
   <energy>
    <i name="e_fr_energy">    -11.64591280 </i>
    <i name="e_wo_entrp">    -11.63914398 </i>
    <i name="e_0_energy">    -11.64252839 </i>
   </energy>
  </scstep>
  <scstep>
   <time name="dav">    0.52    0.52</time>
   <time name="total">    0.55    0.55</time>
   <energy>
    <i name="e_fr_energy">    -11.64588590 </i>
    <i name="e_wo_entrp">    -11.63913818 </i>
    <i name="e_0_energy">    -11.64251204 </i>
   </energy>
  </scstep>
  <scstep>
   <time name="dav">    0.40    0.40</time>
   <time name="total">    0.42    0.43</time>
   <energy>
    <i name="e_fr_energy">    -11.64590580 </i>
    <i name="e_wo_entrp">    -11.63916408 </i>
    <i name="e_0_energy">    -11.64253494 </i>
   </energy>
  </scstep>
  <scstep>
   <time name="dav">    0.43    0.44</time>
   <time name="total">    0.44    0.44</time>
   <energy>
    <i name="alphaZ">    264.83570381 </i>
    <i name="ewald">  -4051.55154338 </i>
    <i name="hartreedc">   -872.66862017 </i>
    <i name="XCdc">    124.41923301 </i>
    <i name="pawpsdc">   4337.74367076 </i>
    <i name="pawaedc">  -4271.67658846 </i>
    <i name="eentropy">     -0.00674306 </i>
    <i name="bandstr">   -399.17068360 </i>
    <i name="atom">   4856.42966544 </i>
    <i name="e_fr_energy">    -11.64590565 </i>
    <i name="e_wo_entrp">    -11.63916259 </i>
    <i name="e_0_energy">    -11.64253412 </i>
   </energy>
  </scstep>
  <structure>
   <crystal>
    <varray name="basis" >
     <v>       2.89062073       0.00000000       0.00000000 </v>
     <v>      -1.44531036       2.50335098       0.00000000 </v>
     <v>       0.00000000       0.00000000       5.00793305 </v>
    </varray>
    <i name="volume">     36.23859662 </i>
    <varray name="rec_basis" >
     <v>       0.34594646       0.19973228       0.00000000 </v>
     <v>       0.00000000       0.39946456       0.00000000 </v>
     <v>       0.00000000       0.00000000       0.19968318 </v>
    </varray>
   </crystal>
   <varray name="positions" >
    <v>       0.00000000       0.00000000       0.00000000 </v>
    <v>       0.33333333       0.66666667       0.50000000 </v>
   </varray>
  </structure>
  <varray name="forces" >
   <v>      -0.00000000       0.00000000       0.00000000 </v>
   <v>       0.00000000      -0.00000000       0.00000000 </v>
  </varray>
  <varray name="stress" >
   <v>    -259.22052836      -0.00000000       0.00000000 </v>
   <v>      -0.00000000    -259.22052836      -0.00000000 </v>
   <v>      -0.00000000      -0.00000000    -226.48781188 </v>
  </varray>
  <energy>
   <i name="e_fr_energy">    -11.64590565 </i>
   <i name="e_wo_entrp">    -11.63916259 </i>
   <i name="e_0_energy">    -11.64253412 </i>
  </energy>
  <time name="totalsc">    5.34    5.45</time>
  <eigenvalues>
   <array>
    <dimension dim="1">band</dimension>
    <dimension dim="2">kpoint</dimension>
    <dimension dim="3">spin</dimension>
    <field>eigene</field>
    <field>occ</field>
    <set>
     <set comment="spin 1">
      <set comment="kpoint 1">
       <r>  -43.3531    1.0000 </r>
       <r>  -43.3091    1.0000 </r>
       <r>  -43.3091    1.0000 </r>
       <r>  -43.2845    1.0000 </r>
       <r>  -43.2845    1.0000 </r>
       <r>  -43.1603    1.0000 </r>
       <r>    0.4076    1.0000 </r>
       <r>    2.9154    1.0000 </r>
       <r>    5.6136    1.0000 </r>
       <r>    6.0053    1.0000 </r>
       <r>    6.0053    1.0000 </r>
       <r>    6.2925    1.0000 </r>
       <r>    6.2925    1.0000 </r>
       <r>    7.3115    1.0000 </r>
       <r>    7.3115    1.0000 </r>
       <r>    8.5679    1.0000 </r>
       <r>    8.5679    1.0000 </r>
       <r>    8.6285    0.9967 </r>
       <r>   12.6246    0.0000 </r>
       <r>   23.9299    0.0000 </r>
       <r>   24.3445    0.0000 </r>
       <r>   25.8603    0.0000 </r>
       <r>   28.2644    0.0000 </r>
       <r>   28.2644    0.0000 </r>
      </set>
      <set comment="kpoint 2">
       <r>  -43.3462    1.0000 </r>
       <r>  -43.3305    1.0000 </r>
       <r>  -43.3154    1.0000 </r>
       <r>  -43.3069    1.0000 </r>
       <r>  -43.2893    1.0000 </r>
       <r>  -43.1625    1.0000 </r>
       <r>    0.7244    1.0000 </r>
       <r>    3.1971    1.0000 </r>
       <r>    5.5583    1.0000 </r>
       <r>    6.0204    1.0000 </r>
       <r>    6.1796    1.0000 </r>
       <r>    6.2288    1.0000 </r>
       <r>    6.5039    1.0000 </r>
       <r>    6.9186    1.0000 </r>
       <r>    7.1803    1.0000 </r>
       <r>    7.3790    1.0000 </r>
       <r>    8.6133    0.9992 </r>
       <r>   10.3134    0.0000 </r>
       <r>   12.6068    0.0000 </r>
       <r>   24.0783    0.0000 </r>
       <r>   24.8057    0.0000 </r>
       <r>   25.6804    0.0000 </r>
       <r>   26.8610    0.0000 </r>
       <r>   27.2059    0.0000 </r>
      </set>
      <set comment="kpoint 3">
       <r>  -43.3867    1.0000 </r>
       <r>  -43.3634    1.0000 </r>
       <r>  -43.3314    1.0000 </r>
       <r>  -43.3278    1.0000 </r>
       <r>  -43.3015    1.0000 </r>
       <r>  -43.1684    1.0000 </r>
       <r>    1.5995    1.0000 </r>
       <r>    3.8310    1.0000 </r>
       <r>    5.3766    1.0000 </r>
       <r>    5.7943    1.0000 </r>
       <r>    5.8211    1.0000 </r>
       <r>    6.5211    1.0000 </r>
       <r>    6.8585    1.0000 </r>
       <r>    6.8851    1.0000 </r>
       <r>    6.9297    1.0000 </r>
       <r>    7.0958    1.0000 </r>
       <r>    8.6862    0.8614 </r>
       <r>   12.2237    0.0000 </r>
       <r>   12.5980    0.0000 </r>
       <r>   21.6644    0.0000 </r>
       <r>   24.6401    0.0000 </r>
       <r>   25.3762    0.0000 </r>
       <r>   26.0502    0.0000 </r>
       <r>   26.3440    0.0000 </r>
      </set>
      <set comment="kpoint 4">
       <r>  -43.4551    1.0000 </r>
       <r>  -43.4318    1.0000 </r>
       <r>  -43.3509    1.0000 </r>
       <r>  -43.3166    1.0000 </r>
       <r>  -43.3015    1.0000 </r>
       <r>  -43.1780    1.0000 </r>
       <r>    2.7135    1.0000 </r>
       <r>    3.9886    1.0000 </r>
       <r>    4.9532    1.0000 </r>
       <r>    5.5941    1.0000 </r>
       <r>    5.8709    1.0000 </r>
       <r>    6.5223    1.0000 </r>
       <r>    6.5770    1.0000 </r>
       <r>    7.4450    1.0000 </r>
       <r>    7.7513    1.0000 </r>
       <r>    7.9251    1.0000 </r>
       <r>    8.7261    0.4837 </r>
       <r>   12.8096    0.0000 </r>
       <r>   14.2123    0.0000 </r>
       <r>   18.0384    0.0000 </r>
       <r>   22.5180    0.0000 </r>
       <r>   23.7008    0.0000 </r>
       <r>   23.8999    0.0000 </r>
       <r>   25.8593    0.0000 </r>
      </set>
      <set comment="kpoint 5">
       <r>  -43.5106    1.0000 </r>
       <r>  -43.4866    1.0000 </r>
       <r>  -43.3665    1.0000 </r>
       <r>  -43.3289    1.0000 </r>
       <r>  -43.2753    1.0000 </r>
       <r>  -43.1911    1.0000 </r>
       <r>    3.3938    1.0000 </r>
       <r>    3.7360    1.0000 </r>
       <r>    4.4194    1.0000 </r>
       <r>    6.0163    1.0000 </r>
       <r>    6.2218    1.0000 </r>
       <r>    6.3557    1.0000 </r>
       <r>    6.5600    1.0000 </r>
       <r>    8.5912    0.9999 </r>
       <r>    8.7272    0.4713 </r>
       <r>    8.7350    0.3847 </r>
       <r>    8.9846    0.0000 </r>
       <r>   13.7402    0.0000 </r>
       <r>   14.5767    0.0000 </r>
       <r>   16.0494    0.0000 </r>
       <r>   19.7925    0.0000 </r>
       <r>   20.8791    0.0000 </r>
       <r>   22.1189    0.0000 </r>
       <r>   24.7090    0.0000 </r>
      </set>
      <set comment="kpoint 6">
       <r>  -43.5318    1.0000 </r>
       <r>  -43.5073    1.0000 </r>
       <r>  -43.3727    1.0000 </r>
       <r>  -43.3339    1.0000 </r>
       <r>  -43.2624    1.0000 </r>
       <r>  -43.1994    1.0000 </r>
       <r>    3.5613    1.0000 </r>
       <r>    3.5788    1.0000 </r>
       <r>    4.2392    1.0000 </r>
       <r>    6.1122    1.0000 </r>
       <r>    6.2760    1.0000 </r>
       <r>    6.4278    1.0000 </r>
       <r>    6.7697    1.0000 </r>
       <r>    8.7346    0.3897 </r>
       <r>    8.9367    0.0000 </r>
       <r>    9.0933    0.0000 </r>
       <r>   10.7838    0.0000 </r>
       <r>   12.0110    0.0000 </r>
       <r>   15.3852    0.0000 </r>
       <r>   16.9877    0.0000 </r>
       <r>   17.0436    0.0000 </r>
       <r>   20.2309    0.0000 </r>
       <r>   21.2905    0.0000 </r>
       <r>   24.2695    0.0000 </r>
      </set>
      <set comment="kpoint 7">
       <r>  -43.3657    1.0000 </r>
       <r>  -43.3498    1.0000 </r>
       <r>  -43.3336    1.0000 </r>
       <r>  -43.3234    1.0000 </r>
       <r>  -43.3010    1.0000 </r>
       <r>  -43.1666    1.0000 </r>
       <r>    1.3265    1.0000 </r>
       <r>    3.6920    1.0000 </r>
       <r>    5.3464    1.0000 </r>
       <r>    5.9468    1.0000 </r>
       <r>    6.1560    1.0000 </r>
       <r>    6.2022    1.0000 </r>
       <r>    6.6994    1.0000 </r>
       <r>    6.7346    1.0000 </r>
       <r>    6.9761    1.0000 </r>
       <r>    7.2530    1.0000 </r>
       <r>    8.6292    0.9965 </r>
       <r>   11.7120    0.0000 </r>
       <r>   12.5951    0.0000 </r>
       <r>   23.3783    0.0000 </r>
       <r>   23.4970    0.0000 </r>
       <r>   25.6109    0.0000 </r>
       <r>   26.4520    0.0000 </r>
       <r>   26.8356    0.0000 </r>
      </set>
      <set comment="kpoint 8">
       <r>  -43.4231    1.0000 </r>
       <r>  -43.4076    1.0000 </r>
       <r>  -43.3458    1.0000 </r>
       <r>  -43.3189    1.0000 </r>
       <r>  -43.3111    1.0000 </r>
       <r>  -43.1743    1.0000 </r>
       <r>    2.3785    1.0000 </r>
       <r>    4.2474    1.0000 </r>
       <r>    5.2022    1.0000 </r>
       <r>    5.2896    1.0000 </r>
       <r>    5.7286    1.0000 </r>
       <r>    6.3493    1.0000 </r>
       <r>    6.6913    1.0000 </r>
       <r>    6.9596    1.0000 </r>
       <r>    7.5459    1.0000 </r>
       <r>    7.8575    1.0000 </r>
       <r>    8.6287    0.9967 </r>
       <r>   12.7105    0.0000 </r>
       <r>   13.5616    0.0000 </r>
       <r>   19.8671    0.0000 </r>
       <r>   21.7992    0.0000 </r>
       <r>   24.6633    0.0000 </r>
       <r>   26.0936    0.0000 </r>
       <r>   26.2398    0.0000 </r>
      </set>
      <set comment="kpoint 9">
       <r>  -43.4830    1.0000 </r>
       <r>  -43.4628    1.0000 </r>
       <r>  -43.3689    1.0000 </r>
       <r>  -43.3360    1.0000 </r>
       <r>  -43.2843    1.0000 </r>
       <r>  -43.1865    1.0000 </r>
       <r>    3.3849    1.0000 </r>
       <r>    4.0819    1.0000 </r>
       <r>    4.6571    1.0000 </r>
       <r>    5.6056    1.0000 </r>
       <r>    6.0966    1.0000 </r>
       <r>    6.1140    1.0000 </r>
       <r>    6.5711    1.0000 </r>
       <r>    7.5680    1.0000 </r>
       <r>    8.3969    1.0000 </r>
       <r>    8.6184    0.9987 </r>
       <r>    9.0039    0.0000 </r>
       <r>   13.3507    0.0000 </r>
       <r>   15.5022    0.0000 </r>
       <r>   16.2742    0.0000 </r>
       <r>   19.8836    0.0000 </r>
       <r>   22.4281    0.0000 </r>
       <r>   23.0577    0.0000 </r>
       <r>   24.9674    0.0000 </r>
      </set>
      <set comment="kpoint 10">
       <r>  -43.5202    1.0000 </r>
       <r>  -43.4960    1.0000 </r>
       <r>  -43.3827    1.0000 </r>
       <r>  -43.3464    1.0000 </r>
       <r>  -43.2620    1.0000 </r>
       <r>  -43.1992    1.0000 </r>
       <r>    3.7466    1.0000 </r>
       <r>    3.8505    1.0000 </r>
       <r>    4.3309    1.0000 </r>
       <r>    6.0708    1.0000 </r>
       <r>    6.2496    1.0000 </r>
       <r>    6.2616    1.0000 </r>
       <r>    6.5213    1.0000 </r>
       <r>    8.5348    1.0000 </r>
       <r>    8.6057    0.9996 </r>
       <r>    8.8207    0.0033 </r>
       <r>   10.4867    0.0000 </r>
       <r>   13.1197    0.0000 </r>
       <r>   14.9762    0.0000 </r>
       <r>   17.0938    0.0000 </r>
       <r>   17.6599    0.0000 </r>
       <r>   19.9768    0.0000 </r>
       <r>   21.6893    0.0000 </r>
       <r>   24.1380    0.0000 </r>
      </set>
      <set comment="kpoint 11">
       <r>  -43.4570    1.0000 </r>
       <r>  -43.4569    1.0000 </r>
       <r>  -43.3720    1.0000 </r>
       <r>  -43.3486    1.0000 </r>
       <r>  -43.2873    1.0000 </r>
       <r>  -43.1848    1.0000 </r>
       <r>    3.4753    1.0000 </r>
       <r>    4.7682    1.0000 </r>
       <r>    4.8230    1.0000 </r>
       <r>    4.8407    1.0000 </r>
       <r>    5.8982    1.0000 </r>
       <r>    5.9626    1.0000 </r>
       <r>    6.7277    1.0000 </r>
       <r>    6.9806    1.0000 </r>
       <r>    8.3885    1.0000 </r>
       <r>    8.4923    1.0000 </r>
       <r>    9.0694    0.0000 </r>
       <r>   13.2847    0.0000 </r>
       <r>   15.3533    0.0000 </r>
       <r>   17.7125    0.0000 </r>
       <r>   18.6410    0.0000 </r>
       <r>   23.8538    0.0000 </r>
       <r>   24.0839    0.0000 </r>
       <r>   24.8710    0.0000 </r>
      </set>
      <set comment="kpoint 12">
       <r>  -43.4935    1.0000 </r>
       <r>  -43.4771    1.0000 </r>
       <r>  -43.4025    1.0000 </r>
       <r>  -43.3742    1.0000 </r>
       <r>  -43.2623    1.0000 </r>
       <r>  -43.1993    1.0000 </r>
       <r>    4.2330    1.0000 </r>
       <r>    4.4934    1.0000 </r>
       <r>    4.5130    1.0000 </r>
       <r>    5.4278    1.0000 </r>
       <r>    5.8464    1.0000 </r>
       <r>    6.3438    1.0000 </r>
       <r>    6.3517    1.0000 </r>
       <r>    7.6090    1.0000 </r>
       <r>    8.3870    1.0000 </r>
       <r>    8.7281    0.4608 </r>
       <r>   10.4753    0.0000 </r>
       <r>   14.2077    0.0000 </r>
       <r>   15.2694    0.0000 </r>
       <r>   16.9173    0.0000 </r>
       <r>   17.2595    0.0000 </r>
       <r>   21.1743    0.0000 </r>
       <r>   22.6622    0.0000 </r>
       <r>   23.6310    0.0000 </r>
      </set>
      <set comment="kpoint 13">
       <r>  -43.5069    1.0000 </r>
       <r>  -43.4826    1.0000 </r>
       <r>  -43.4169    1.0000 </r>
       <r>  -43.3838    1.0000 </r>
       <r>  -43.2482    1.0000 </r>
       <r>  -43.2094    1.0000 </r>
       <r>    4.3559    1.0000 </r>
       <r>    4.3702    1.0000 </r>
       <r>    4.4049    1.0000 </r>
       <r>    5.9119    1.0000 </r>
       <r>    5.9539    1.0000 </r>
       <r>    6.0466    1.0000 </r>
       <r>    6.5700    1.0000 </r>
       <r>    8.2099    1.0000 </r>
       <r>    8.3488    1.0000 </r>
       <r>    8.5742    1.0000 </r>
       <r>   12.0157    0.0000 </r>
       <r>   12.3339    0.0000 </r>
       <r>   15.6509    0.0000 </r>
       <r>   16.9942    0.0000 </r>
       <r>   18.4179    0.0000 </r>
       <r>   19.1199    0.0000 </r>
       <r>   21.5712    0.0000 </r>
       <r>   23.2004    0.0000 </r>
      </set>
      <set comment="kpoint 14">
       <r>  -43.4856    1.0000 </r>
       <r>  -43.4667    1.0000 </r>
       <r>  -43.4394    1.0000 </r>
       <r>  -43.4156    1.0000 </r>
       <r>  -43.2400    1.0000 </r>
       <r>  -43.2162    1.0000 </r>
       <r>    4.4847    1.0000 </r>
       <r>    4.7370    1.0000 </r>
       <r>    4.9636    1.0000 </r>
       <r>    5.3386    1.0000 </r>
       <r>    5.8094    1.0000 </r>
       <r>    6.0261    1.0000 </r>
       <r>    6.6413    1.0000 </r>
       <r>    7.8916    1.0000 </r>
       <r>    8.2209    1.0000 </r>
       <r>    8.4523    1.0000 </r>
       <r>   11.9345    0.0000 </r>
       <r>   13.1813    0.0000 </r>
       <r>   14.6417    0.0000 </r>
       <r>   17.6343    0.0000 </r>
       <r>   19.2017    0.0000 </r>
       <r>   20.1840    0.0000 </r>
       <r>   20.8705    0.0000 </r>
       <r>   21.4492    0.0000 </r>
      </set>
      <set comment="kpoint 15">
       <r>  -43.3458    1.0000 </r>
       <r>  -43.3082    1.0000 </r>
       <r>  -43.3082    1.0000 </r>
       <r>  -43.2855    1.0000 </r>
       <r>  -43.2855    1.0000 </r>
       <r>  -43.1683    1.0000 </r>
       <r>    0.5252    1.0000 </r>
       <r>    2.8885    1.0000 </r>
       <r>    5.5877    1.0000 </r>
       <r>    5.9895    1.0000 </r>
       <r>    5.9895    1.0000 </r>
       <r>    6.2622    1.0000 </r>
       <r>    6.2622    1.0000 </r>
       <r>    7.3888    1.0000 </r>
       <r>    7.3888    1.0000 </r>
       <r>    7.9940    1.0000 </r>
       <r>    8.5445    1.0000 </r>
       <r>    8.5445    1.0000 </r>
       <r>   13.5052    0.0000 </r>
       <r>   23.4597    0.0000 </r>
       <r>   24.7241    0.0000 </r>
       <r>   25.6103    0.0000 </r>
       <r>   28.0319    0.0000 </r>
       <r>   28.0319    0.0000 </r>
      </set>
      <set comment="kpoint 16">
       <r>  -43.3421    1.0000 </r>
       <r>  -43.3271    1.0000 </r>
       <r>  -43.3145    1.0000 </r>
       <r>  -43.3081    1.0000 </r>
       <r>  -43.2905    1.0000 </r>
       <r>  -43.1697    1.0000 </r>
       <r>    0.8400    1.0000 </r>
       <r>    3.1760    1.0000 </r>
       <r>    5.5613    1.0000 </r>
       <r>    5.9532    1.0000 </r>
       <r>    6.1038    1.0000 </r>
       <r>    6.2058    1.0000 </r>
       <r>    6.4703    1.0000 </r>
       <r>    6.9033    1.0000 </r>
       <r>    7.2712    1.0000 </r>
       <r>    7.3317    1.0000 </r>
       <r>    8.5817    1.0000 </r>
       <r>    9.7169    0.0000 </r>
       <r>   13.6225    0.0000 </r>
       <r>   23.7764    0.0000 </r>
       <r>   24.9420    0.0000 </r>
       <r>   25.6497    0.0000 </r>
       <r>   26.6942    0.0000 </r>
       <r>   26.8757    0.0000 </r>
      </set>
      <set comment="kpoint 17">
       <r>  -43.3874    1.0000 </r>
       <r>  -43.3647    1.0000 </r>
       <r>  -43.3303    1.0000 </r>
       <r>  -43.3200    1.0000 </r>
       <r>  -43.3027    1.0000 </r>
       <r>  -43.1738    1.0000 </r>
       <r>    1.7037    1.0000 </r>
       <r>    3.8312    1.0000 </r>
       <r>    5.4027    1.0000 </r>
       <r>    5.5854    1.0000 </r>
       <r>    5.8196    1.0000 </r>
       <r>    6.4465    1.0000 </r>
       <r>    6.7327    1.0000 </r>
       <r>    7.0044    1.0000 </r>
       <r>    7.0806    1.0000 </r>
       <r>    7.1413    1.0000 </r>
       <r>    8.6389    0.9924 </r>
       <r>   10.9808    0.0000 </r>
       <r>   14.1223    0.0000 </r>
       <r>   21.7701    0.0000 </r>
       <r>   24.7899    0.0000 </r>
       <r>   25.0502    0.0000 </r>
       <r>   25.5346    0.0000 </r>
       <r>   26.5809    0.0000 </r>
      </set>
      <set comment="kpoint 18">
       <r>  -43.4555    1.0000 </r>
       <r>  -43.4335    1.0000 </r>
       <r>  -43.3496    1.0000 </r>
       <r>  -43.3180    1.0000 </r>
       <r>  -43.2955    1.0000 </r>
       <r>  -43.1822    1.0000 </r>
       <r>    2.7705    1.0000 </r>
       <r>    4.0082    1.0000 </r>
       <r>    4.9277    1.0000 </r>
       <r>    5.4653    1.0000 </r>
       <r>    5.8959    1.0000 </r>
       <r>    6.6026    1.0000 </r>
       <r>    6.6260    1.0000 </r>
       <r>    7.4873    1.0000 </r>
       <r>    7.7692    1.0000 </r>
       <r>    7.8875    1.0000 </r>
       <r>    8.6716    0.9334 </r>
       <r>   11.9129    0.0000 </r>
       <r>   15.1777    0.0000 </r>
       <r>   18.2748    0.0000 </r>
       <r>   22.7224    0.0000 </r>
       <r>   22.7934    0.0000 </r>
       <r>   24.4344    0.0000 </r>
       <r>   26.1659    0.0000 </r>
      </set>
      <set comment="kpoint 19">
       <r>  -43.5109    1.0000 </r>
       <r>  -43.4885    1.0000 </r>
       <r>  -43.3649    1.0000 </r>
       <r>  -43.3304    1.0000 </r>
       <r>  -43.2707    1.0000 </r>
       <r>  -43.1936    1.0000 </r>
       <r>    3.3518    1.0000 </r>
       <r>    3.7472    1.0000 </r>
       <r>    4.5317    1.0000 </r>
       <r>    5.5126    1.0000 </r>
       <r>    6.3738    1.0000 </r>
       <r>    6.4237    1.0000 </r>
       <r>    7.0319    1.0000 </r>
       <r>    8.5346    1.0000 </r>
       <r>    8.6047    0.9997 </r>
       <r>    8.8038    0.0126 </r>
       <r>    8.9128    0.0000 </r>
       <r>   12.9981    0.0000 </r>
       <r>   14.6003    0.0000 </r>
       <r>   16.7960    0.0000 </r>
       <r>   19.5498    0.0000 </r>
       <r>   21.1098    0.0000 </r>
       <r>   22.4293    0.0000 </r>
       <r>   24.9131    0.0000 </r>
      </set>
      <set comment="kpoint 20">
       <r>  -43.5320    1.0000 </r>
       <r>  -43.5090    1.0000 </r>
       <r>  -43.3709    1.0000 </r>
       <r>  -43.3354    1.0000 </r>
       <r>  -43.2584    1.0000 </r>
       <r>  -43.2010    1.0000 </r>
       <r>    3.4524    1.0000 </r>
       <r>    3.6015    1.0000 </r>
       <r>    4.4053    1.0000 </r>
       <r>    5.5706    1.0000 </r>
       <r>    6.3483    1.0000 </r>
       <r>    6.4948    1.0000 </r>
       <r>    7.4203    1.0000 </r>
       <r>    8.5998    0.9998 </r>
       <r>    8.9530    0.0000 </r>
       <r>    9.0884    0.0000 </r>
       <r>   10.6220    0.0000 </r>
       <r>   11.9422    0.0000 </r>
       <r>   15.1997    0.0000 </r>
       <r>   15.7318    0.0000 </r>
       <r>   18.5375    0.0000 </r>
       <r>   20.4711    0.0000 </r>
       <r>   21.4576    0.0000 </r>
       <r>   24.5056    0.0000 </r>
      </set>
      <set comment="kpoint 21">
       <r>  -43.3674    1.0000 </r>
       <r>  -43.3505    1.0000 </r>
       <r>  -43.3251    1.0000 </r>
       <r>  -43.3233    1.0000 </r>
       <r>  -43.3022    1.0000 </r>
       <r>  -43.1723    1.0000 </r>
       <r>    1.4361    1.0000 </r>
       <r>    3.6850    1.0000 </r>
       <r>    5.3713    1.0000 </r>
       <r>    5.7498    1.0000 </r>
       <r>    6.0269    1.0000 </r>
       <r>    6.2390    1.0000 </r>
       <r>    6.6473    1.0000 </r>
       <r>    6.8278    1.0000 </r>
       <r>    7.0567    1.0000 </r>
       <r>    7.3001    1.0000 </r>
       <r>    8.5882    0.9999 </r>
       <r>   10.6893    0.0000 </r>
       <r>   13.9384    0.0000 </r>
       <r>   23.4077    0.0000 </r>
       <r>   23.5863    0.0000 </r>
       <r>   25.2993    0.0000 </r>
       <r>   25.9801    0.0000 </r>
       <r>   27.0753    0.0000 </r>
      </set>
      <set comment="kpoint 22">
       <r>  -43.4239    1.0000 </r>
       <r>  -43.4089    1.0000 </r>
       <r>  -43.3451    1.0000 </r>
       <r>  -43.3201    1.0000 </r>
       <r>  -43.3042    1.0000 </r>
       <r>  -43.1786    1.0000 </r>
       <r>    2.4639    1.0000 </r>
       <r>    4.2709    1.0000 </r>
       <r>    5.1285    1.0000 </r>
       <r>    5.2583    1.0000 </r>
       <r>    5.7160    1.0000 </r>
       <r>    6.2582    1.0000 </r>
       <r>    6.8225    1.0000 </r>
       <r>    6.9411    1.0000 </r>
       <r>    7.6351    1.0000 </r>
       <r>    7.8166    1.0000 </r>
       <r>    8.5889    0.9999 </r>
       <r>   11.6539    0.0000 </r>
       <r>   14.8040    0.0000 </r>
       <r>   20.0285    0.0000 </r>
       <r>   21.9142    0.0000 </r>
       <r>   24.3411    0.0000 </r>
       <r>   25.4133    0.0000 </r>
       <r>   26.8814    0.0000 </r>
      </set>
      <set comment="kpoint 23">
       <r>  -43.4834    1.0000 </r>
       <r>  -43.4645    1.0000 </r>
       <r>  -43.3680    1.0000 </r>
       <r>  -43.3374    1.0000 </r>
       <r>  -43.2791    1.0000 </r>
       <r>  -43.1890    1.0000 </r>
       <r>    3.3882    1.0000 </r>
       <r>    4.1090    1.0000 </r>
       <r>    4.6954    1.0000 </r>
       <r>    5.3883    1.0000 </r>
       <r>    6.0711    1.0000 </r>
       <r>    6.3878    1.0000 </r>
       <r>    6.5831    1.0000 </r>
       <r>    7.5813    1.0000 </r>
       <r>    8.4335    1.0000 </r>
       <r>    8.4780    1.0000 </r>
       <r>    9.0455    0.0000 </r>
       <r>   12.6705    0.0000 </r>
       <r>   15.6715    0.0000 </r>
       <r>   17.0158    0.0000 </r>
       <r>   19.9266    0.0000 </r>
       <r>   21.8779    0.0000 </r>
       <r>   23.5491    0.0000 </r>
       <r>   24.9851    0.0000 </r>
      </set>
      <set comment="kpoint 24">
       <r>  -43.5205    1.0000 </r>
       <r>  -43.4981    1.0000 </r>
       <r>  -43.3816    1.0000 </r>
       <r>  -43.3480    1.0000 </r>
       <r>  -43.2583    1.0000 </r>
       <r>  -43.2006    1.0000 </r>
       <r>    3.6437    1.0000 </r>
       <r>    3.8651    1.0000 </r>
       <r>    4.5180    1.0000 </r>
       <r>    5.5194    1.0000 </r>
       <r>    6.1461    1.0000 </r>
       <r>    6.5938    1.0000 </r>
       <r>    6.9690    1.0000 </r>
       <r>    8.4461    1.0000 </r>
       <r>    8.5390    1.0000 </r>
       <r>    8.8529    0.0001 </r>
       <r>   10.4600    0.0000 </r>
       <r>   13.0262    0.0000 </r>
       <r>   14.5374    0.0000 </r>
       <r>   16.8747    0.0000 </r>
       <r>   18.2473    0.0000 </r>
       <r>   20.2144    0.0000 </r>
       <r>   21.9535    0.0000 </r>
       <r>   24.0472    0.0000 </r>
      </set>
      <set comment="kpoint 25">
       <r>  -43.4583    1.0000 </r>
       <r>  -43.4574    1.0000 </r>
       <r>  -43.3719    1.0000 </r>
       <r>  -43.3503    1.0000 </r>
       <r>  -43.2819    1.0000 </r>
       <r>  -43.1875    1.0000 </r>
       <r>    3.5155    1.0000 </r>
       <r>    4.6733    1.0000 </r>
       <r>    4.8573    1.0000 </r>
       <r>    4.9115    1.0000 </r>
       <r>    5.9102    1.0000 </r>
       <r>    5.9414    1.0000 </r>
       <r>    6.6306    1.0000 </r>
       <r>    7.1069    1.0000 </r>
       <r>    8.3304    1.0000 </r>
       <r>    8.4737    1.0000 </r>
       <r>    9.1226    0.0000 </r>
       <r>   12.6204    0.0000 </r>
       <r>   15.9216    0.0000 </r>
       <r>   18.0908    0.0000 </r>
       <r>   18.7751    0.0000 </r>
       <r>   23.2781    0.0000 </r>
       <r>   23.4862    0.0000 </r>
       <r>   25.4821    0.0000 </r>
      </set>
      <set comment="kpoint 26">
       <r>  -43.4935    1.0000 </r>
       <r>  -43.4786    1.0000 </r>
       <r>  -43.4022    1.0000 </r>
       <r>  -43.3758    1.0000 </r>
       <r>  -43.2583    1.0000 </r>
       <r>  -43.2001    1.0000 </r>
       <r>    4.1403    1.0000 </r>
       <r>    4.5084    1.0000 </r>
       <r>    4.6510    1.0000 </r>
       <r>    5.2754    1.0000 </r>
       <r>    5.9496    1.0000 </r>
       <r>    6.2574    1.0000 </r>
       <r>    6.4708    1.0000 </r>
       <r>    7.6592    1.0000 </r>
       <r>    8.2337    1.0000 </r>
       <r>    8.8049    0.0117 </r>
       <r>   10.5131    0.0000 </r>
       <r>   14.1734    0.0000 </r>
       <r>   14.7150    0.0000 </r>
       <r>   16.9553    0.0000 </r>
       <r>   18.0379    0.0000 </r>
       <r>   20.7042    0.0000 </r>
       <r>   22.6858    0.0000 </r>
       <r>   23.3056    0.0000 </r>
      </set>
      <set comment="kpoint 27">
       <r>  -43.5068    1.0000 </r>
       <r>  -43.4842    1.0000 </r>
       <r>  -43.4165    1.0000 </r>
       <r>  -43.3856    1.0000 </r>
       <r>  -43.2449    1.0000 </r>
       <r>  -43.2095    1.0000 </r>
       <r>    4.1353    1.0000 </r>
       <r>    4.4085    1.0000 </r>
       <r>    4.7229    1.0000 </r>
       <r>    5.4596    1.0000 </r>
       <r>    5.8393    1.0000 </r>
       <r>    6.4247    1.0000 </r>
       <r>    6.7090    1.0000 </r>
       <r>    8.1896    1.0000 </r>
       <r>    8.2295    1.0000 </r>
       <r>    8.6321    0.9956 </r>
       <r>   12.1017    0.0000 </r>
       <r>   12.3733    0.0000 </r>
       <r>   15.6125    0.0000 </r>
       <r>   16.6639    0.0000 </r>
       <r>   17.6397    0.0000 </r>
       <r>   20.2687    0.0000 </r>
       <r>   21.7622    0.0000 </r>
       <r>   22.3600    0.0000 </r>
      </set>
      <set comment="kpoint 28">
       <r>  -43.4848    1.0000 </r>
       <r>  -43.4684    1.0000 </r>
       <r>  -43.4401    1.0000 </r>
       <r>  -43.4172    1.0000 </r>
       <r>  -43.2374    1.0000 </r>
       <r>  -43.2151    1.0000 </r>
       <r>    4.5067    1.0000 </r>
       <r>    4.7229    1.0000 </r>
       <r>    5.0000    1.0000 </r>
       <r>    5.2529    1.0000 </r>
       <r>    5.9054    1.0000 </r>
       <r>    5.9414    1.0000 </r>
       <r>    6.6500    1.0000 </r>
       <r>    7.9660    1.0000 </r>
       <r>    8.0599    1.0000 </r>
       <r>    8.5243    1.0000 </r>
       <r>   12.0197    0.0000 </r>
       <r>   13.3127    0.0000 </r>
       <r>   14.8443    0.0000 </r>
       <r>   16.8258    0.0000 </r>
       <r>   19.2379    0.0000 </r>
       <r>   19.4643    0.0000 </r>
       <r>   21.0819    0.0000 </r>
       <r>   22.4270    0.0000 </r>
      </set>
      <set comment="kpoint 29">
       <r>  -43.3253    1.0000 </r>
       <r>  -43.3055    1.0000 </r>
       <r>  -43.3055    1.0000 </r>
       <r>  -43.2886    1.0000 </r>
       <r>  -43.2886    1.0000 </r>
       <r>  -43.1901    1.0000 </r>
       <r>    0.8649    1.0000 </r>
       <r>    2.7727    1.0000 </r>
       <r>    5.5308    1.0000 </r>
       <r>    5.9644    1.0000 </r>
       <r>    5.9644    1.0000 </r>
       <r>    6.1840    1.0000 </r>
       <r>    6.1840    1.0000 </r>
       <r>    6.9095    1.0000 </r>
       <r>    7.5883    1.0000 </r>
       <r>    7.5883    1.0000 </r>
       <r>    8.4664    1.0000 </r>
       <r>    8.4664    1.0000 </r>
       <r>   15.3486    0.0000 </r>
       <r>   22.7866    0.0000 </r>
       <r>   24.7425    0.0000 </r>
       <r>   25.0682    0.0000 </r>
       <r>   27.7612    0.0000 </r>
       <r>   27.7612    0.0000 </r>
      </set>
      <set comment="kpoint 30">
       <r>  -43.3348    1.0000 </r>
       <r>  -43.3129    1.0000 </r>
       <r>  -43.3116    1.0000 </r>
       <r>  -43.3109    1.0000 </r>
       <r>  -43.2933    1.0000 </r>
       <r>  -43.1893    1.0000 </r>
       <r>    1.1748    1.0000 </r>
       <r>    3.0737    1.0000 </r>
       <r>    5.5533    1.0000 </r>
       <r>    5.8311    1.0000 </r>
       <r>    5.9069    1.0000 </r>
       <r>    6.1697    1.0000 </r>
       <r>    6.3879    1.0000 </r>
       <r>    6.5474    1.0000 </r>
       <r>    7.4972    1.0000 </r>
       <r>    7.5046    1.0000 </r>
       <r>    8.4826    1.0000 </r>
       <r>    9.0201    0.0000 </r>
       <r>   15.5212    0.0000 </r>
       <r>   23.1543    0.0000 </r>
       <r>   24.8636    0.0000 </r>
       <r>   25.2871    0.0000 </r>
       <r>   26.3353    0.0000 </r>
       <r>   26.9878    0.0000 </r>
      </set>
      <set comment="kpoint 31">
       <r>  -43.3876    1.0000 </r>
       <r>  -43.3690    1.0000 </r>
       <r>  -43.3270    1.0000 </r>
       <r>  -43.3060    1.0000 </r>
       <r>  -43.2998    1.0000 </r>
       <r>  -43.1898    1.0000 </r>
       <r>    2.0065    1.0000 </r>
       <r>    3.7799    1.0000 </r>
       <r>    5.2775    1.0000 </r>
       <r>    5.4877    1.0000 </r>
       <r>    5.6338    1.0000 </r>
       <r>    6.2854    1.0000 </r>
       <r>    6.6657    1.0000 </r>
       <r>    6.9439    1.0000 </r>
       <r>    7.3875    1.0000 </r>
       <r>    7.4196    1.0000 </r>
       <r>    8.4998    1.0000 </r>
       <r>    9.8810    0.0000 </r>
       <r>   16.0354    0.0000 </r>
       <r>   22.0820    0.0000 </r>
       <r>   24.1162    0.0000 </r>
       <r>   24.7659    0.0000 </r>
       <r>   25.2360    0.0000 </r>
       <r>   26.5814    0.0000 </r>
      </set>
      <set comment="kpoint 32">
       <r>  -43.4559    1.0000 </r>
       <r>  -43.4385    1.0000 </r>
       <r>  -43.3459    1.0000 </r>
       <r>  -43.3217    1.0000 </r>
       <r>  -43.2793    1.0000 </r>
       <r>  -43.1932    1.0000 </r>
       <r>    2.9382    1.0000 </r>
       <r>    4.0178    1.0000 </r>
       <r>    4.8201    1.0000 </r>
       <r>    5.2642    1.0000 </r>
       <r>    6.0006    1.0000 </r>
       <r>    6.6705    1.0000 </r>
       <r>    6.7682    1.0000 </r>
       <r>    7.6721    1.0000 </r>
       <r>    7.7125    1.0000 </r>
       <r>    7.8851    1.0000 </r>
       <r>    8.5288    1.0000 </r>
       <r>   10.6877    0.0000 </r>
       <r>   16.5741    0.0000 </r>
       <r>   18.9855    0.0000 </r>
       <r>   21.6663    0.0000 </r>
       <r>   23.3122    0.0000 </r>
       <r>   24.5385    0.0000 </r>
       <r>   25.9017    0.0000 </r>
      </set>
      <set comment="kpoint 33">
       <r>  -43.5110    1.0000 </r>
       <r>  -43.4937    1.0000 </r>
       <r>  -43.3608    1.0000 </r>
       <r>  -43.3345    1.0000 </r>
       <r>  -43.2587    1.0000 </r>
       <r>  -43.2000    1.0000 </r>
       <r>    3.3077    1.0000 </r>
       <r>    3.7670    1.0000 </r>
       <r>    4.6833    1.0000 </r>
       <r>    5.0135    1.0000 </r>
       <r>    6.6150    1.0000 </r>
       <r>    6.6232    1.0000 </r>
       <r>    7.7617    1.0000 </r>
       <r>    8.2052    1.0000 </r>
       <r>    8.6324    0.9955 </r>
       <r>    8.6964    0.7881 </r>
       <r>    8.8061    0.0107 </r>
       <r>   11.7021    0.0000 </r>
       <r>   14.9023    0.0000 </r>
       <r>   17.3751    0.0000 </r>
       <r>   19.6756    0.0000 </r>
       <r>   21.7618    0.0000 </r>
       <r>   22.9361    0.0000 </r>
       <r>   25.3406    0.0000 </r>
      </set>
      <set comment="kpoint 34">
       <r>  -43.5321    1.0000 </r>
       <r>  -43.5145    1.0000 </r>
       <r>  -43.3665    1.0000 </r>
       <r>  -43.3395    1.0000 </r>
       <r>  -43.2483    1.0000 </r>
       <r>  -43.2046    1.0000 </r>
       <r>    3.3299    1.0000 </r>
       <r>    3.6404    1.0000 </r>
       <r>    4.6232    1.0000 </r>
       <r>    4.9721    1.0000 </r>
       <r>    6.5610    1.0000 </r>
       <r>    6.7763    1.0000 </r>
       <r>    8.2594    1.0000 </r>
       <r>    8.3285    1.0000 </r>
       <r>    8.9764    0.0000 </r>
       <r>    9.0745    0.0000 </r>
       <r>   10.1647    0.0000 </r>
       <r>   11.7058    0.0000 </r>
       <r>   14.7787    0.0000 </r>
       <r>   14.8291    0.0000 </r>
       <r>   20.1146    0.0000 </r>
       <r>   21.1443    0.0000 </r>
       <r>   21.8549    0.0000 </r>
       <r>   25.1336    0.0000 </r>
      </set>
      <set comment="kpoint 35">
       <r>  -43.3680    1.0000 </r>
       <r>  -43.3526    1.0000 </r>
       <r>  -43.3218    1.0000 </r>
       <r>  -43.3060    1.0000 </r>
       <r>  -43.3033    1.0000 </r>
       <r>  -43.1893    1.0000 </r>
       <r>    1.7544    1.0000 </r>
       <r>    3.6142    1.0000 </r>
       <r>    5.4339    1.0000 </r>
       <r>    5.4485    1.0000 </r>
       <r>    5.7310    1.0000 </r>
       <r>    6.2068    1.0000 </r>
       <r>    6.5612    1.0000 </r>
       <r>    6.7890    1.0000 </r>
       <r>    7.4026    1.0000 </r>
       <r>    7.4618    1.0000 </r>
       <r>    8.4653    1.0000 </r>
       <r>    9.6745    0.0000 </r>
       <r>   15.8752    0.0000 </r>
       <r>   23.3715    0.0000 </r>
       <r>   23.8591    0.0000 </r>
       <r>   24.6409    0.0000 </r>
       <r>   25.3329    0.0000 </r>
       <r>   26.2201    0.0000 </r>
      </set>
      <set comment="kpoint 36">
       <r>  -43.4248    1.0000 </r>
       <r>  -43.4122    1.0000 </r>
       <r>  -43.3429    1.0000 </r>
       <r>  -43.3237    1.0000 </r>
       <r>  -43.2862    1.0000 </r>
       <r>  -43.1913    1.0000 </r>
       <r>    2.7116    1.0000 </r>
       <r>    4.2794    1.0000 </r>
       <r>    4.8892    1.0000 </r>
       <r>    5.3235    1.0000 </r>
       <r>    5.5956    1.0000 </r>
       <r>    6.1374    1.0000 </r>
       <r>    6.7939    1.0000 </r>
       <r>    7.2506    1.0000 </r>
       <r>    7.7350    1.0000 </r>
       <r>    7.8079    1.0000 </r>
       <r>    8.4798    1.0000 </r>
       <r>   10.4655    0.0000 </r>
       <r>   16.5310    0.0000 </r>
       <r>   20.4972    0.0000 </r>
       <r>   22.1406    0.0000 </r>
       <r>   23.6270    0.0000 </r>
       <r>   24.9429    0.0000 </r>
       <r>   25.2554    0.0000 </r>
      </set>
      <set comment="kpoint 37">
       <r>  -43.4837    1.0000 </r>
       <r>  -43.4689    1.0000 </r>
       <r>  -43.3649    1.0000 </r>
       <r>  -43.3415    1.0000 </r>
       <r>  -43.2651    1.0000 </r>
       <r>  -43.1970    1.0000 </r>
       <r>    3.4283    1.0000 </r>
       <r>    4.1422    1.0000 </r>
       <r>    4.6916    1.0000 </r>
       <r>    5.1716    1.0000 </r>
       <r>    6.1154    1.0000 </r>
       <r>    6.6174    1.0000 </r>
       <r>    6.7445    1.0000 </r>
       <r>    7.6801    1.0000 </r>
       <r>    8.1161    1.0000 </r>
       <r>    8.6036    0.9997 </r>
       <r>    9.0720    0.0000 </r>
       <r>   11.4657    0.0000 </r>
       <r>   16.1341    0.0000 </r>
       <r>   18.3510    0.0000 </r>
       <r>   19.7856    0.0000 </r>
       <r>   21.6367    0.0000 </r>
       <r>   23.8431    0.0000 </r>
       <r>   24.6024    0.0000 </r>
      </set>
      <set comment="kpoint 38">
       <r>  -43.5205    1.0000 </r>
       <r>  -43.5032    1.0000 </r>
       <r>  -43.3784    1.0000 </r>
       <r>  -43.3525    1.0000 </r>
       <r>  -43.2481    1.0000 </r>
       <r>  -43.2044    1.0000 </r>
       <r>    3.5289    1.0000 </r>
       <r>    3.9100    1.0000 </r>
       <r>    4.7621    1.0000 </r>
       <r>    4.9924    1.0000 </r>
       <r>    6.1573    1.0000 </r>
       <r>    6.9634    1.0000 </r>
       <r>    7.5351    1.0000 </r>
       <r>    8.0921    1.0000 </r>
       <r>    8.5003    1.0000 </r>
       <r>    8.9308    0.0000 </r>
       <r>   10.4148    0.0000 </r>
       <r>   12.5092    0.0000 </r>
       <r>   14.1901    0.0000 </r>
       <r>   16.2789    0.0000 </r>
       <r>   19.3531    0.0000 </r>
       <r>   20.9344    0.0000 </r>
       <r>   22.4977    0.0000 </r>
       <r>   23.6125    0.0000 </r>
      </set>
      <set comment="kpoint 39">
       <r>  -43.4606    1.0000 </r>
       <r>  -43.4586    1.0000 </r>
       <r>  -43.3709    1.0000 </r>
       <r>  -43.3537    1.0000 </r>
       <r>  -43.2673    1.0000 </r>
       <r>  -43.1956    1.0000 </r>
       <r>    3.6345    1.0000 </r>
       <r>    4.5214    1.0000 </r>
       <r>    4.9193    1.0000 </r>
       <r>    5.0252    1.0000 </r>
       <r>    5.8575    1.0000 </r>
       <r>    5.8856    1.0000 </r>
       <r>    6.5215    1.0000 </r>
       <r>    7.4689    1.0000 </r>
       <r>    7.9923    1.0000 </r>
       <r>    8.6450    0.9879 </r>
       <r>    9.1897    0.0000 </r>
       <r>   11.4683    0.0000 </r>
       <r>   16.8738    0.0000 </r>
       <r>   19.0891    0.0000 </r>
       <r>   19.1148    0.0000 </r>
       <r>   22.1758    0.0000 </r>
       <r>   22.8514    0.0000 </r>
       <r>   25.2712    0.0000 </r>
      </set>
      <set comment="kpoint 40">
       <r>  -43.4936    1.0000 </r>
       <r>  -43.4824    1.0000 </r>
       <r>  -43.4008    1.0000 </r>
       <r>  -43.3801    1.0000 </r>
       <r>  -43.2476    1.0000 </r>
       <r>  -43.2035    1.0000 </r>
       <r>    4.0485    1.0000 </r>
       <r>    4.6145    1.0000 </r>
       <r>    4.6353    1.0000 </r>
       <r>    5.2827    1.0000 </r>
       <r>    5.8339    1.0000 </r>
       <r>    6.3103    1.0000 </r>
       <r>    6.6421    1.0000 </r>
       <r>    7.7665    1.0000 </r>
       <r>    7.9580    1.0000 </r>
       <r>    8.9466    0.0000 </r>
       <r>   10.6196    0.0000 </r>
       <r>   13.1921    0.0000 </r>
       <r>   14.9019    0.0000 </r>
       <r>   17.2401    0.0000 </r>
       <r>   18.7120    0.0000 </r>
       <r>   20.4680    0.0000 </r>
       <r>   21.9310    0.0000 </r>
       <r>   24.0446    0.0000 </r>
      </set>
      <set comment="kpoint 41">
       <r>  -43.5062    1.0000 </r>
       <r>  -43.4892    1.0000 </r>
       <r>  -43.4144    1.0000 </r>
       <r>  -43.3904    1.0000 </r>
       <r>  -43.2370    1.0000 </r>
       <r>  -43.2099    1.0000 </r>
       <r>    4.0109    1.0000 </r>
       <r>    4.5018    1.0000 </r>
       <r>    4.9869    1.0000 </r>
       <r>    5.1240    1.0000 </r>
       <r>    5.6322    1.0000 </r>
       <r>    6.6868    1.0000 </r>
       <r>    6.9736    1.0000 </r>
       <r>    7.8066    1.0000 </r>
       <r>    8.3043    1.0000 </r>
       <r>    8.7469    0.2652 </r>
       <r>   12.3612    0.0000 </r>
       <r>   12.4980    0.0000 </r>
       <r>   15.1473    0.0000 </r>
       <r>   15.8958    0.0000 </r>
       <r>   17.5298    0.0000 </r>
       <r>   21.0996    0.0000 </r>
       <r>   21.7508    0.0000 </r>
       <r>   22.7249    0.0000 </r>
      </set>
      <set comment="kpoint 42">
       <r>  -43.4830    1.0000 </r>
       <r>  -43.4722    1.0000 </r>
       <r>  -43.4408    1.0000 </r>
       <r>  -43.4218    1.0000 </r>
       <r>  -43.2306    1.0000 </r>
       <r>  -43.2139    1.0000 </r>
       <r>    4.5430    1.0000 </r>
       <r>    4.6689    1.0000 </r>
       <r>    5.1167    1.0000 </r>
       <r>    5.1724    1.0000 </r>
       <r>    5.7769    1.0000 </r>
       <r>    6.0155    1.0000 </r>
       <r>    6.6696    1.0000 </r>
       <r>    7.6570    1.0000 </r>
       <r>    8.1788    1.0000 </r>
       <r>    8.6609    0.9644 </r>
       <r>   12.2804    0.0000 </r>
       <r>   13.7134    0.0000 </r>
       <r>   15.3624    0.0000 </r>
       <r>   15.5795    0.0000 </r>
       <r>   17.9604    0.0000 </r>
       <r>   18.9718    0.0000 </r>
       <r>   22.1946    0.0000 </r>
       <r>   23.7442    0.0000 </r>
      </set>
      <set comment="kpoint 43">
       <r>  -43.3016    1.0000 </r>
       <r>  -43.3016    1.0000 </r>
       <r>  -43.2950    1.0000 </r>
       <r>  -43.2923    1.0000 </r>
       <r>  -43.2923    1.0000 </r>
       <r>  -43.2215    1.0000 </r>
       <r>    1.3813    1.0000 </r>
       <r>    2.4796    1.0000 </r>
       <r>    5.5037    1.0000 </r>
       <r>    5.9653    1.0000 </r>
       <r>    5.9653    1.0000 </r>
       <r>    6.0599    1.0000 </r>
       <r>    6.0890    1.0000 </r>
       <r>    6.0890    1.0000 </r>
       <r>    7.8474    1.0000 </r>
       <r>    7.8474    1.0000 </r>
       <r>    8.3200    1.0000 </r>
       <r>    8.3200    1.0000 </r>
       <r>   17.5067    0.0000 </r>
       <r>   21.6217    0.0000 </r>
       <r>   24.3089    0.0000 </r>
       <r>   24.5414    0.0000 </r>
       <r>   27.7874    0.0000 </r>
       <r>   27.7874    0.0000 </r>
      </set>
      <set comment="kpoint 44">
       <r>  -43.3286    1.0000 </r>
       <r>  -43.3164    1.0000 </r>
       <r>  -43.3075    1.0000 </r>
       <r>  -43.2975    1.0000 </r>
       <r>  -43.2856    1.0000 </r>
       <r>  -43.2183    1.0000 </r>
       <r>    1.6863    1.0000 </r>
       <r>    2.7878    1.0000 </r>
       <r>    5.4877    1.0000 </r>
       <r>    5.6268    1.0000 </r>
       <r>    5.8192    1.0000 </r>
       <r>    6.1577    1.0000 </r>
       <r>    6.1651    1.0000 </r>
       <r>    6.2899    1.0000 </r>
       <r>    7.7815    1.0000 </r>
       <r>    7.8298    1.0000 </r>
       <r>    8.3084    1.0000 </r>
       <r>    8.5608    1.0000 </r>
       <r>   17.6803    0.0000 </r>
       <r>   21.8939    0.0000 </r>
       <r>   24.5058    0.0000 </r>
       <r>   24.7842    0.0000 </r>
       <r>   26.3709    0.0000 </r>
       <r>   27.3157    0.0000 </r>
      </set>
      <set comment="kpoint 45">
       <r>  -43.3854    1.0000 </r>
       <r>  -43.3749    1.0000 </r>
       <r>  -43.3223    1.0000 </r>
       <r>  -43.3108    1.0000 </r>
       <r>  -43.2723    1.0000 </r>
       <r>  -43.2134    1.0000 </r>
       <r>    2.4733    1.0000 </r>
       <r>    3.5247    1.0000 </r>
       <r>    5.0998    1.0000 </r>
       <r>    5.3801    1.0000 </r>
       <r>    5.6315    1.0000 </r>
       <r>    6.0629    1.0000 </r>
       <r>    6.6704    1.0000 </r>
       <r>    6.8364    1.0000 </r>
       <r>    7.6903    1.0000 </r>
       <r>    7.8667    1.0000 </r>
       <r>    8.2793    1.0000 </r>
       <r>    9.0511    0.0000 </r>
       <r>   18.1032    0.0000 </r>
       <r>   22.2757    0.0000 </r>
       <r>   22.6935    0.0000 </r>
       <r>   23.9944    0.0000 </r>
       <r>   25.9663    0.0000 </r>
       <r>   26.0689    0.0000 </r>
      </set>
      <set comment="kpoint 46">
       <r>  -43.4546    1.0000 </r>
       <r>  -43.4447    1.0000 </r>
       <r>  -43.3404    1.0000 </r>
       <r>  -43.3274    1.0000 </r>
       <r>  -43.2568    1.0000 </r>
       <r>  -43.2106    1.0000 </r>
       <r>    3.2043    1.0000 </r>
       <r>    3.8619    1.0000 </r>
       <r>    4.7782    1.0000 </r>
       <r>    5.0915    1.0000 </r>
       <r>    6.1930    1.0000 </r>
       <r>    6.5961    1.0000 </r>
       <r>    6.9852    1.0000 </r>
       <r>    7.5058    1.0000 </r>
       <r>    8.0007    1.0000 </r>
       <r>    8.0780    1.0000 </r>
       <r>    8.3443    1.0000 </r>
       <r>    9.6014    0.0000 </r>
       <r>   17.8906    0.0000 </r>
       <r>   19.8900    0.0000 </r>
       <r>   20.7747    0.0000 </r>
       <r>   23.4289    0.0000 </r>
       <r>   24.2257    0.0000 </r>
       <r>   26.0274    0.0000 </r>
      </set>
      <set comment="kpoint 47">
       <r>  -43.5095    1.0000 </r>
       <r>  -43.4999    1.0000 </r>
       <r>  -43.3548    1.0000 </r>
       <r>  -43.3405    1.0000 </r>
       <r>  -43.2422    1.0000 </r>
       <r>  -43.2105    1.0000 </r>
       <r>    3.3574    1.0000 </r>
       <r>    3.6972    1.0000 </r>
       <r>    4.6573    1.0000 </r>
       <r>    4.8012    1.0000 </r>
       <r>    6.9385    1.0000 </r>
       <r>    7.1020    1.0000 </r>
       <r>    7.7831    1.0000 </r>
       <r>    8.2348    1.0000 </r>
       <r>    8.6085    0.9995 </r>
       <r>    8.6759    0.9160 </r>
       <r>    8.7739    0.0819 </r>
       <r>   10.4681    0.0000 </r>
       <r>   15.4284    0.0000 </r>
       <r>   16.8787    0.0000 </r>
       <r>   20.8211    0.0000 </r>
       <r>   22.7358    0.0000 </r>
       <r>   22.9418    0.0000 </r>
       <r>   25.1279    0.0000 </r>
      </set>
      <set comment="kpoint 48">
       <r>  -43.5310    1.0000 </r>
       <r>  -43.5212    1.0000 </r>
       <r>  -43.3605    1.0000 </r>
       <r>  -43.3458    1.0000 </r>
       <r>  -43.2358    1.0000 </r>
       <r>  -43.2120    1.0000 </r>
       <r>    3.3288    1.0000 </r>
       <r>    3.6018    1.0000 </r>
       <r>    4.6417    1.0000 </r>
       <r>    4.6688    1.0000 </r>
       <r>    6.8974    1.0000 </r>
       <r>    7.3654    1.0000 </r>
       <r>    7.8054    1.0000 </r>
       <r>    8.8161    0.0049 </r>
       <r>    9.0011    0.0000 </r>
       <r>    9.0531    0.0000 </r>
       <r>    9.8713    0.0000 </r>
       <r>   11.2357    0.0000 </r>
       <r>   14.3474    0.0000 </r>
       <r>   14.3893    0.0000 </r>
       <r>   21.4827    0.0000 </r>
       <r>   22.1344    0.0000 </r>
       <r>   22.2417    0.0000 </r>
       <r>   24.4877    0.0000 </r>
      </set>
      <set comment="kpoint 49">
       <r>  -43.3659    1.0000 </r>
       <r>  -43.3566    1.0000 </r>
       <r>  -43.3187    1.0000 </r>
       <r>  -43.3094    1.0000 </r>
       <r>  -43.2761    1.0000 </r>
       <r>  -43.2146    1.0000 </r>
       <r>    2.2451    1.0000 </r>
       <r>    3.3412    1.0000 </r>
       <r>    5.2205    1.0000 </r>
       <r>    5.4493    1.0000 </r>
       <r>    5.5832    1.0000 </r>
       <r>    6.0035    1.0000 </r>
       <r>    6.5553    1.0000 </r>
       <r>    6.6954    1.0000 </r>
       <r>    7.7163    1.0000 </r>
       <r>    7.8475    1.0000 </r>
       <r>    8.2646    1.0000 </r>
       <r>    8.9326    0.0000 </r>
       <r>   17.9964    0.0000 </r>
       <r>   22.2846    0.0000 </r>
       <r>   24.2058    0.0000 </r>
       <r>   24.3054    0.0000 </r>
       <r>   24.7991    0.0000 </r>
       <r>   25.3976    0.0000 </r>
      </set>
      <set comment="kpoint 50">
       <r>  -43.4242    1.0000 </r>
       <r>  -43.4169    1.0000 </r>
       <r>  -43.3392    1.0000 </r>
       <r>  -43.3286    1.0000 </r>
       <r>  -43.2619    1.0000 </r>
       <r>  -43.2111    1.0000 </r>
       <r>    3.0953    1.0000 </r>
       <r>    4.0282    1.0000 </r>
       <r>    4.8596    1.0000 </r>
       <r>    5.2873    1.0000 </r>
       <r>    5.5411    1.0000 </r>
       <r>    5.9436    1.0000 </r>
       <r>    6.9090    1.0000 </r>
       <r>    7.3257    1.0000 </r>
       <r>    7.9543    1.0000 </r>
       <r>    8.0190    1.0000 </r>
       <r>    8.3257    1.0000 </r>
       <r>    9.4615    0.0000 </r>
       <r>   18.3662    0.0000 </r>
       <r>   21.2315    0.0000 </r>
       <r>   21.6928    0.0000 </r>
       <r>   23.3355    0.0000 </r>
       <r>   23.5978    0.0000 </r>
       <r>   24.5034    0.0000 </r>
      </set>
      <set comment="kpoint 51">
       <r>  -43.4827    1.0000 </r>
       <r>  -43.4746    1.0000 </r>
       <r>  -43.3600    1.0000 </r>
       <r>  -43.3473    1.0000 </r>
       <r>  -43.2464    1.0000 </r>
       <r>  -43.2097    1.0000 </r>
       <r>    3.5496    1.0000 </r>
       <r>    4.0145    1.0000 </r>
       <r>    4.7078    1.0000 </r>
       <r>    5.0483    1.0000 </r>
       <r>    6.2991    1.0000 </r>
       <r>    6.6382    1.0000 </r>
       <r>    6.9710    1.0000 </r>
       <r>    7.5901    1.0000 </r>
       <r>    8.1815    1.0000 </r>
       <r>    8.7457    0.2760 </r>
       <r>    9.0811    0.0000 </r>
       <r>   10.2990    0.0000 </r>
       <r>   16.8423    0.0000 </r>
       <r>   18.5653    0.0000 </r>
       <r>   20.3808    0.0000 </r>
       <r>   22.1337    0.0000 </r>
       <r>   23.4406    0.0000 </r>
       <r>   23.6026    0.0000 </r>
      </set>
      <set comment="kpoint 52">
       <r>  -43.5191    1.0000 </r>
       <r>  -43.5096    1.0000 </r>
       <r>  -43.3729    1.0000 </r>
       <r>  -43.3587    1.0000 </r>
       <r>  -43.2350    1.0000 </r>
       <r>  -43.2113    1.0000 </r>
       <r>    3.5382    1.0000 </r>
       <r>    3.8596    1.0000 </r>
       <r>    4.6885    1.0000 </r>
       <r>    4.8478    1.0000 </r>
       <r>    6.4444    1.0000 </r>
       <r>    7.3772    1.0000 </r>
       <r>    7.5141    1.0000 </r>
       <r>    7.9495    1.0000 </r>
       <r>    8.5200    1.0000 </r>
       <r>    8.9281    0.0000 </r>
       <r>   10.5178    0.0000 </r>
       <r>   11.6781    0.0000 </r>
       <r>   14.3913    0.0000 </r>
       <r>   15.5537    0.0000 </r>
       <r>   20.5202    0.0000 </r>
       <r>   21.8767    0.0000 </r>
       <r>   22.7883    0.0000 </r>
       <r>   22.8710    0.0000 </r>
      </set>
      <set comment="kpoint 53">
       <r>  -43.4623    1.0000 </r>
       <r>  -43.4602    1.0000 </r>
       <r>  -43.3684    1.0000 </r>
       <r>  -43.3586    1.0000 </r>
       <r>  -43.2478    1.0000 </r>
       <r>  -43.2090    1.0000 </r>
       <r>    3.8240    1.0000 </r>
       <r>    4.3108    1.0000 </r>
       <r>    5.0348    1.0000 </r>
       <r>    5.1331    1.0000 </r>
       <r>    5.7234    1.0000 </r>
       <r>    5.7264    1.0000 </r>
       <r>    6.6752    1.0000 </r>
       <r>    7.4488    1.0000 </r>
       <r>    8.1771    1.0000 </r>
       <r>    8.7810    0.0555 </r>
       <r>    9.2379    0.0000 </r>
       <r>   10.3425    0.0000 </r>
       <r>   17.9069    0.0000 </r>
       <r>   19.3869    0.0000 </r>
       <r>   20.3041    0.0000 </r>
       <r>   21.2297    0.0000 </r>
       <r>   22.3310    0.0000 </r>
       <r>   23.9648    0.0000 </r>
      </set>
      <set comment="kpoint 54">
       <r>  -43.4929    1.0000 </r>
       <r>  -43.4869    1.0000 </r>
       <r>  -43.3976    1.0000 </r>
       <r>  -43.3861    1.0000 </r>
       <r>  -43.2340    1.0000 </r>
       <r>  -43.2104    1.0000 </r>
       <r>    4.0557    1.0000 </r>
       <r>    4.3832    1.0000 </r>
       <r>    4.8302    1.0000 </r>
       <r>    5.3073    1.0000 </r>
       <r>    5.8607    1.0000 </r>
       <r>    6.3064    1.0000 </r>
       <r>    6.7859    1.0000 </r>
       <r>    7.3473    1.0000 </r>
       <r>    8.3410    1.0000 </r>
       <r>    8.9839    0.0000 </r>
       <r>   10.8326    0.0000 </r>
       <r>   12.0962    0.0000 </r>
       <r>   15.5471    0.0000 </r>
       <r>   17.0940    0.0000 </r>
       <r>   18.9533    0.0000 </r>
       <r>   20.3733    0.0000 </r>
       <r>   22.1315    0.0000 </r>
       <r>   24.0544    0.0000 </r>
      </set>
      <set comment="kpoint 55">
       <r>  -43.5043    1.0000 </r>
       <r>  -43.4952    1.0000 </r>
       <r>  -43.4099    1.0000 </r>
       <r>  -43.3968    1.0000 </r>
       <r>  -43.2271    1.0000 </r>
       <r>  -43.2125    1.0000 </r>
       <r>    4.0218    1.0000 </r>
       <r>    4.4297    1.0000 </r>
       <r>    4.8291    1.0000 </r>
       <r>    5.2513    1.0000 </r>
       <r>    5.7373    1.0000 </r>
       <r>    6.6412    1.0000 </r>
       <r>    7.1977    1.0000 </r>
       <r>    7.4568    1.0000 </r>
       <r>    8.4626    1.0000 </r>
       <r>    8.7830    0.0495 </r>
       <r>   12.7141    0.0000 </r>
       <r>   12.7492    0.0000 </r>
       <r>   14.4811    0.0000 </r>
       <r>   15.0235    0.0000 </r>
       <r>   18.1850    0.0000 </r>
       <r>   20.1084    0.0000 </r>
       <r>   23.0211    0.0000 </r>
       <r>   23.4143    0.0000 </r>
      </set>
      <set comment="kpoint 56">
       <r>  -43.4809    1.0000 </r>
       <r>  -43.4761    1.0000 </r>
       <r>  -43.4392    1.0000 </r>
       <r>  -43.4281    1.0000 </r>
       <r>  -43.2229    1.0000 </r>
       <r>  -43.2139    1.0000 </r>
       <r>    4.5552    1.0000 </r>
       <r>    4.5988    1.0000 </r>
       <r>    5.1872    1.0000 </r>
       <r>    5.2532    1.0000 </r>
       <r>    5.7074    1.0000 </r>
       <r>    6.0051    1.0000 </r>
       <r>    6.7237    1.0000 </r>
[...]
       </set>
       <set comment="band 12">
        <r>  0.0144  0.0089  0.0000  0.0035  0.1070  0.0000  0.4194  0.0000  0.0912 </r>
        <r>  0.0000  0.0000  0.0000  0.0000  0.0000  0.0505  0.0000  0.0430  0.0000 </r>
       </set>
       <set comment="band 13">
        <r>  0.0000  0.0000  0.0002  0.0000  0.0000  0.2108  0.0000  0.5138  0.0000 </r>
        <r>  0.0029  0.0008  0.0000  0.0003  0.0635  0.0000  0.0018  0.0000  0.0460 </r>
       </set>
       <set comment="band 14">
        <r>  0.0029  0.0008  0.0000  0.0003  0.0635  0.0000  0.0018  0.0000  0.0460 </r>
        <r>  0.0000  0.0000  0.0002  0.0000  0.0000  0.2108  0.0000  0.5138  0.0000 </r>
       </set>
       <set comment="band 15">
        <r>  0.0000  0.0000  0.0013  0.0000  0.0000  0.1809  0.0000  0.1403  0.0000 </r>
        <r>  0.0037  0.0000  0.0000  0.0000  0.1871  0.0000  0.3440  0.0000  0.0659 </r>
       </set>
       <set comment="band 16">
        <r>  0.0037  0.0000  0.0000  0.0000  0.1871  0.0000  0.3440  0.0000  0.0659 </r>
        <r>  0.0000  0.0000  0.0013  0.0000  0.0000  0.1809  0.0000  0.1403  0.0000 </r>
       </set>
       <set comment="band 17">
        <r>  0.0000  0.0000  0.0089  0.0000  0.0000  0.1410  0.0000  0.0486  0.0000 </r>
        <r>  0.0904  0.0173  0.0000  0.0059  0.2923  0.0000  0.0106  0.0000  0.1050 </r>
       </set>
       <set comment="band 18">
        <r>  0.0904  0.0173  0.0000  0.0059  0.2923  0.0000  0.0106  0.0000  0.1050 </r>
        <r>  0.0000  0.0000  0.0089  0.0000  0.0000  0.1410  0.0000  0.0486  0.0000 </r>
       </set>
       <set comment="band 19">
        <r>  0.0000  0.0000  0.0296  0.0000  0.0000  0.0173  0.0000  0.0371  0.0000 </r>
        <r>  0.2547  0.0536  0.0000  0.0189  0.0075  0.0000  0.0105  0.0000  0.0041 </r>
       </set>
       <set comment="band 20">
        <r>  0.2547  0.0536  0.0000  0.0189  0.0075  0.0000  0.0104  0.0000  0.0041 </r>
        <r>  0.0000  0.0000  0.0296  0.0000  0.0000  0.0173  0.0000  0.0371  0.0000 </r>
       </set>
       <set comment="band 21">
        <r>  0.0000  0.0000  0.0676  0.0000  0.0000  0.0078  0.0000  0.0160  0.0000 </r>
        <r>  0.0005  0.0396  0.0000  0.0624  0.0321  0.0000  0.0393  0.0000  0.0959 </r>
       </set>
       <set comment="band 22">
        <r>  0.0005  0.0396  0.0000  0.0624  0.0321  0.0000  0.0393  0.0000  0.0959 </r>
        <r>  0.0000  0.0000  0.0676  0.0000  0.0000  0.0078  0.0000  0.0160  0.0000 </r>
       </set>
       <set comment="band 23">
        <r>  0.0000  0.0000  0.0435  0.0000  0.0000  0.0629  0.0000  0.0249  0.0000 </r>
        <r>  0.0028  0.0373  0.0000  0.0334  0.0144  0.0000  0.0544  0.0000  0.0431 </r>
       </set>
       <set comment="band 24">
        <r>  0.0028  0.0373  0.0000  0.0334  0.0144  0.0000  0.0544  0.0000  0.0431 </r>
        <r>  0.0000  0.0000  0.0435  0.0000  0.0000  0.0629  0.0000  0.0249  0.0000 </r>
       </set>
      </set>
      <set comment="kpoint 68">
       <set comment="band 1">
        <r>  0.0000  0.0000  0.0261  0.0000  0.0000  0.0000  0.0000  0.0000  0.0000 </r>
        <r>  0.0000  0.4960  0.0000  0.4653  0.0000  0.0000  0.0000  0.0000  0.0000 </r>
       </set>
       <set comment="band 2">
        <r>  0.0000  0.4960  0.0000  0.4653  0.0000  0.0000  0.0000  0.0000  0.0000 </r>
        <r>  0.0000  0.0000  0.0261  0.0000  0.0000  0.0000  0.0000  0.0000  0.0000 </r>
       </set>
       <set comment="band 3">
        <r>  0.0000  0.0000  0.0138  0.0000  0.0000  0.0000  0.0000  0.0000  0.0000 </r>
        <r>  0.0000  0.4729  0.0000  0.5045  0.0000  0.0000  0.0000  0.0000  0.0000 </r>
       </set>
       <set comment="band 4">
        <r>  0.0000  0.4729  0.0000  0.5045  0.0000  0.0000  0.0000  0.0000  0.0000 </r>
        <r>  0.0000  0.0000  0.0138  0.0000  0.0000  0.0000  0.0000  0.0000  0.0000 </r>
       </set>
       <set comment="band 5">
        <r>  0.0000  0.0000  0.9514  0.0000  0.0000  0.0000  0.0000  0.0000  0.0000 </r>
        <r>  0.0000  0.0206  0.0000  0.0199  0.0000  0.0000  0.0000  0.0000  0.0000 </r>
       </set>
       <set comment="band 6">
        <r>  0.0000  0.0206  0.0000  0.0199  0.0000  0.0000  0.0000  0.0000  0.0000 </r>
        <r>  0.0000  0.0000  0.9514  0.0000  0.0000  0.0000  0.0000  0.0000  0.0000 </r>
       </set>
       <set comment="band 7">
        <r>  0.0000  0.0000  0.0020  0.0000  0.0000  0.1903  0.0000  0.1759  0.0000 </r>
        <r>  0.0608  0.0048  0.0000  0.0013  0.1006  0.0000  0.0541  0.0000  0.0360 </r>
       </set>
       <set comment="band 8">
        <r>  0.0608  0.0048  0.0000  0.0013  0.1006  0.0000  0.0541  0.0000  0.0360 </r>
        <r>  0.0000  0.0000  0.0020  0.0000  0.0000  0.1903  0.0000  0.1759  0.0000 </r>
       </set>
       <set comment="band 9">
        <r>  0.0000  0.0000  0.0020  0.0000  0.0000  0.0726  0.0000  0.0299  0.0000 </r>
        <r>  0.0067  0.0052  0.0000  0.0036  0.2656  0.0000  0.1267  0.0000  0.2143 </r>
       </set>
       <set comment="band 10">
        <r>  0.0067  0.0052  0.0000  0.0036  0.2656  0.0000  0.1267  0.0000  0.2143 </r>
        <r>  0.0000  0.0000  0.0020  0.0000  0.0000  0.0726  0.0000  0.0299  0.0000 </r>
       </set>
       <set comment="band 11">
        <r>  0.0000  0.0000  0.0030  0.0000  0.0000  0.0943  0.0000  0.1561  0.0000 </r>
        <r>  0.0142  0.0081  0.0000  0.0148  0.0590  0.0000  0.1488  0.0000  0.1829 </r>
       </set>
       <set comment="band 12">
        <r>  0.0142  0.0081  0.0000  0.0148  0.0590  0.0000  0.1488  0.0000  0.1829 </r>
        <r>  0.0000  0.0000  0.0030  0.0000  0.0000  0.0943  0.0000  0.1561  0.0000 </r>
       </set>
       <set comment="band 13">
        <r>  0.0000  0.0000  0.0002  0.0000  0.0000  0.2194  0.0000  0.2702  0.0000 </r>
        <r>  0.0114  0.0011  0.0000  0.0028  0.0727  0.0000  0.0357  0.0000  0.2107 </r>
       </set>
       <set comment="band 14">
        <r>  0.0114  0.0011  0.0000  0.0028  0.0727  0.0000  0.0357  0.0000  0.2107 </r>
        <r>  0.0000  0.0000  0.0002  0.0000  0.0000  0.2194  0.0000  0.2702  0.0000 </r>
       </set>
       <set comment="band 15">
        <r>  0.0000  0.0000  0.0013  0.0000  0.0000  0.1702  0.0000  0.1288  0.0000 </r>
        <r>  0.0030  0.0010  0.0000  0.0003  0.0978  0.0000  0.4768  0.0000  0.0397 </r>
       </set>
       <set comment="band 16">
        <r>  0.0030  0.0010  0.0000  0.0003  0.0978  0.0000  0.4768  0.0000  0.0397 </r>
        <r>  0.0000  0.0000  0.0013  0.0000  0.0000  0.1702  0.0000  0.1288  0.0000 </r>
       </set>
       <set comment="band 17">
        <r>  0.0000  0.0000  0.0143  0.0000  0.0000  0.0692  0.0000  0.0235  0.0000 </r>
        <r>  0.1140  0.0251  0.0000  0.0179  0.2556  0.0000  0.0047  0.0000  0.1083 </r>
       </set>
       <set comment="band 18">
        <r>  0.1140  0.0251  0.0000  0.0179  0.2556  0.0000  0.0047  0.0000  0.1083 </r>
        <r>  0.0000  0.0000  0.0143  0.0000  0.0000  0.0692  0.0000  0.0235  0.0000 </r>
       </set>
       <set comment="band 19">
        <r>  0.0000  0.0000  0.0133  0.0000  0.0000  0.0105  0.0000  0.0735  0.0000 </r>
        <r>  0.2737  0.0237  0.0000  0.0401  0.0120  0.0000  0.0231  0.0000  0.0341 </r>
       </set>
       <set comment="band 20">
        <r>  0.2737  0.0237  0.0000  0.0401  0.0120  0.0000  0.0231  0.0000  0.0341 </r>
        <r>  0.0000  0.0000  0.0133  0.0000  0.0000  0.0105  0.0000  0.0735  0.0000 </r>
       </set>
       <set comment="band 21">
        <r>  0.0000  0.0000  0.0356  0.0000  0.0000  0.0373  0.0000  0.0140  0.0000 </r>
        <r>  0.0239  0.0696  0.0000  0.0475  0.0500  0.0000  0.0060  0.0000  0.0979 </r>
       </set>
       <set comment="band 22">
        <r>  0.0239  0.0696  0.0000  0.0475  0.0500  0.0000  0.0060  0.0000  0.0979 </r>
        <r>  0.0000  0.0000  0.0356  0.0000  0.0000  0.0373  0.0000  0.0140  0.0000 </r>
       </set>
       <set comment="band 23">
        <r>  0.0000  0.0000  0.0915  0.0000  0.0000  0.0389  0.0000  0.0190  0.0000 </r>
        <r>  0.0075  0.0305  0.0000  0.0242  0.0098  0.0000  0.0247  0.0000  0.0142 </r>
       </set>
       <set comment="band 24">
        <r>  0.0075  0.0305  0.0000  0.0242  0.0098  0.0000  0.0247  0.0000  0.0142 </r>
        <r>  0.0000  0.0000  0.0915  0.0000  0.0000  0.0389  0.0000  0.0190  0.0000 </r>
       </set>
      </set>
      <set comment="kpoint 69">
       <set comment="band 1">
        <r>  0.0000  0.0000  0.0248  0.0000  0.0000  0.0000  0.0000  0.0000  0.0000 </r>
        <r>  0.0000  0.2413  0.0000  0.7209  0.0000  0.0000  0.0000  0.0000  0.0000 </r>
       </set>
       <set comment="band 2">
        <r>  0.0000  0.2413  0.0000  0.7209  0.0000  0.0000  0.0000  0.0000  0.0000 </r>
        <r>  0.0000  0.0000  0.0248  0.0000  0.0000  0.0000  0.0000  0.0000  0.0000 </r>
       </set>
       <set comment="band 3">
        <r>  0.0000  0.0000  0.0143  0.0000  0.0000  0.0000  0.0000  0.0000  0.0000 </r>
        <r>  0.0000  0.7306  0.0000  0.2459  0.0000  0.0000  0.0000  0.0000  0.0000 </r>
       </set>
       <set comment="band 4">
        <r>  0.0000  0.7306  0.0000  0.2459  0.0000  0.0000  0.0000  0.0000  0.0000 </r>
        <r>  0.0000  0.0000  0.0143  0.0000  0.0000  0.0000  0.0000  0.0000  0.0000 </r>
       </set>
       <set comment="band 5">
        <r>  0.0000  0.0000  0.9523  0.0000  0.0000  0.0000  0.0000  0.0000  0.0000 </r>
        <r>  0.0000  0.0181  0.0000  0.0216  0.0000  0.0000  0.0000  0.0000  0.0000 </r>
       </set>
       <set comment="band 6">
        <r>  0.0000  0.0181  0.0000  0.0216  0.0000  0.0000  0.0000  0.0000  0.0000 </r>
        <r>  0.0000  0.0000  0.9523  0.0000  0.0000  0.0000  0.0000  0.0000  0.0000 </r>
       </set>
       <set comment="band 7">
        <r>  0.0000  0.0000  0.0007  0.0000  0.0000  0.0897  0.0000  0.2592  0.0000 </r>
        <r>  0.0515  0.0038  0.0000  0.0019  0.1415  0.0000  0.0471  0.0000  0.0484 </r>
       </set>
       <set comment="band 8">
        <r>  0.0515  0.0038  0.0000  0.0019  0.1415  0.0000  0.0471  0.0000  0.0484 </r>
        <r>  0.0000  0.0000  0.0007  0.0000  0.0000  0.0897  0.0000  0.2592  0.0000 </r>
       </set>
       <set comment="band 9">
        <r>  0.0000  0.0000  0.0006  0.0000  0.0000  0.0698  0.0000  0.0840  0.0000 </r>
        <r>  0.0001  0.0056  0.0000  0.0021  0.2941  0.0000  0.1834  0.0000  0.0995 </r>
       </set>
       <set comment="band 10">
        <r>  0.0001  0.0056  0.0000  0.0021  0.2941  0.0000  0.1834  0.0000  0.0995 </r>
        <r>  0.0000  0.0000  0.0006  0.0000  0.0000  0.0698  0.0000  0.0840  0.0000 </r>
       </set>
       <set comment="band 11">
        <r>  0.0000  0.0000  0.0034  0.0000  0.0000  0.3434  0.0000  0.1600  0.0000 </r>
        <r>  0.0085  0.0042  0.0000  0.0124  0.0570  0.0000  0.0191  0.0000  0.0952 </r>
       </set>
       <set comment="band 12">
        <r>  0.0085  0.0042  0.0000  0.0124  0.0570  0.0000  0.0191  0.0000  0.0952 </r>
        <r>  0.0000  0.0000  0.0034  0.0000  0.0000  0.3434  0.0000  0.1600  0.0000 </r>
       </set>
       <set comment="band 13">
        <r>  0.0000  0.0000  0.0016  0.0000  0.0000  0.1454  0.0000  0.0723  0.0000 </r>
        <r>  0.0002  0.0042  0.0000  0.0122  0.1450  0.0000  0.0072  0.0000  0.4061 </r>
       </set>
       <set comment="band 14">
        <r>  0.0002  0.0042  0.0000  0.0122  0.1450  0.0000  0.0072  0.0000  0.4061 </r>
        <r>  0.0000  0.0000  0.0016  0.0000  0.0000  0.1454  0.0000  0.0723  0.0000 </r>
       </set>
       <set comment="band 15">
        <r>  0.0000  0.0000  0.0005  0.0000  0.0000  0.1194  0.0000  0.1548  0.0000 </r>
        <r>  0.0000  0.0004  0.0000  0.0001  0.0320  0.0000  0.5915  0.0000  0.0244 </r>
       </set>
       <set comment="band 16">
        <r>  0.0000  0.0004  0.0000  0.0001  0.0320  0.0000  0.5915  0.0000  0.0244 </r>
        <r>  0.0000  0.0000  0.0005  0.0000  0.0000  0.1194  0.0000  0.1548  0.0000 </r>
       </set>
       <set comment="band 17">
        <r>  0.0000  0.0000  0.0285  0.0000  0.0000  0.0235  0.0000  0.0092  0.0000 </r>
        <r>  0.0475  0.0213  0.0000  0.0606  0.0881  0.0000  0.0144  0.0000  0.1794 </r>
       </set>
       <set comment="band 18">
        <r>  0.0475  0.0213  0.0000  0.0606  0.0881  0.0000  0.0144  0.0000  0.1794 </r>
        <r>  0.0000  0.0000  0.0285  0.0000  0.0000  0.0235  0.0000  0.0092  0.0000 </r>
       </set>
       <set comment="band 19">
        <r>  0.0000  0.0000  0.0000  0.0000  0.0000  0.0414  0.0000  0.0993  0.0000 </r>
        <r>  0.3637  0.0059  0.0000  0.0164  0.0643  0.0000  0.0180  0.0000  0.0435 </r>
       </set>
       <set comment="band 20">
        <r>  0.3637  0.0059  0.0000  0.0164  0.0643  0.0000  0.0180  0.0000  0.0435 </r>
        <r>  0.0000  0.0000  0.0000  0.0000  0.0000  0.0414  0.0000  0.0993  0.0000 </r>
       </set>
       <set comment="band 21">
        <r>  0.0000  0.0000  0.0265  0.0000  0.0000  0.0437  0.0000  0.0179  0.0000 </r>
        <r>  0.0381  0.0894  0.0000  0.0340  0.0924  0.0000  0.0019  0.0000  0.0330 </r>
       </set>
       <set comment="band 22">
        <r>  0.0381  0.0894  0.0000  0.0340  0.0924  0.0000  0.0019  0.0000  0.0330 </r>
        <r>  0.0000  0.0000  0.0265  0.0000  0.0000  0.0437  0.0000  0.0179  0.0000 </r>
       </set>
       <set comment="band 23">
        <r>  0.0000  0.0000  0.1033  0.0000  0.0000  0.0192  0.0000  0.0202  0.0000 </r>
        <r>  0.0057  0.0179  0.0000  0.0376  0.0135  0.0000  0.0058  0.0000  0.0126 </r>
       </set>
       <set comment="band 24">
        <r>  0.0057  0.0179  0.0000  0.0376  0.0135  0.0000  0.0058  0.0000  0.0126 </r>
        <r>  0.0000  0.0000  0.1033  0.0000  0.0000  0.0192  0.0000  0.0202  0.0000 </r>
       </set>
      </set>
      <set comment="kpoint 70">
       <set comment="band 1">
        <r>  0.0000  0.0000  0.0269  0.0000  0.0000  0.0000  0.0000  0.0000  0.0000 </r>
        <r>  0.0000  0.7148  0.0000  0.2462  0.0000  0.0000  0.0000  0.0000  0.0000 </r>
       </set>
       <set comment="band 2">
        <r>  0.0000  0.7148  0.0000  0.2462  0.0000  0.0000  0.0000  0.0000  0.0000 </r>
        <r>  0.0000  0.0000  0.0269  0.0000  0.0000  0.0000  0.0000  0.0000  0.0000 </r>
       </set>
       <set comment="band 3">
        <r>  0.0000  0.0000  0.0145  0.0000  0.0000  0.0000  0.0000  0.0000  0.0000 </r>
        <r>  0.0000  0.2522  0.0000  0.7229  0.0000  0.0000  0.0000  0.0000  0.0000 </r>
       </set>
       <set comment="band 4">
        <r>  0.0000  0.2522  0.0000  0.7229  0.0000  0.0000  0.0000  0.0000  0.0000 </r>
        <r>  0.0000  0.0000  0.0145  0.0000  0.0000  0.0000  0.0000  0.0000  0.0000 </r>
       </set>
       <set comment="band 5">
        <r>  0.0000  0.0000  0.9500  0.0000  0.0000  0.0000  0.0000  0.0000  0.0000 </r>
        <r>  0.0000  0.0217  0.0000  0.0204  0.0000  0.0000  0.0000  0.0000  0.0000 </r>
       </set>
       <set comment="band 6">
        <r>  0.0000  0.0217  0.0000  0.0204  0.0000  0.0000  0.0000  0.0000  0.0000 </r>
        <r>  0.0000  0.0000  0.9500  0.0000  0.0000  0.0000  0.0000  0.0000  0.0000 </r>
       </set>
       <set comment="band 7">
        <r>  0.0000  0.0000  0.0002  0.0000  0.0000  0.3134  0.0000  0.1379  0.0000 </r>
        <r>  0.0416  0.0016  0.0000  0.0016  0.0162  0.0000  0.1472  0.0000  0.0205 </r>
       </set>
       <set comment="band 8">
        <r>  0.0416  0.0016  0.0000  0.0016  0.0162  0.0000  0.1472  0.0000  0.0205 </r>
        <r>  0.0000  0.0000  0.0002  0.0000  0.0000  0.3134  0.0000  0.1379  0.0000 </r>
       </set>
       <set comment="band 9">
        <r>  0.0000  0.0000  0.0007  0.0000  0.0000  0.0700  0.0000  0.1845  0.0000 </r>
        <r>  0.0038  0.0052  0.0000  0.0116  0.0966  0.0000  0.0439  0.0000  0.2668 </r>
       </set>
       <set comment="band 10">
        <r>  0.0038  0.0052  0.0000  0.0116  0.0966  0.0000  0.0439  0.0000  0.2668 </r>
        <r>  0.0000  0.0000  0.0007  0.0000  0.0000  0.0700  0.0000  0.1845  0.0000 </r>
       </set>
       <set comment="band 11">
        <r>  0.0000  0.0000  0.0043  0.0000  0.0000  0.0435  0.0000  0.0824  0.0000 </r>
        <r>  0.0018  0.0159  0.0000  0.0079  0.2694  0.0000  0.0325  0.0000  0.2251 </r>
       </set>
       <set comment="band 12">
        <r>  0.0018  0.0159  0.0000  0.0079  0.2694  0.0000  0.0325  0.0000  0.2251 </r>
        <r>  0.0000  0.0000  0.0043  0.0000  0.0000  0.0435  0.0000  0.0824  0.0000 </r>
       </set>
       <set comment="band 13">
        <r>  0.0000  0.0000  0.0001  0.0000  0.0000  0.1587  0.0000  0.2225  0.0000 </r>
        <r>  0.0044  0.0035  0.0000  0.0014  0.2598  0.0000  0.0128  0.0000  0.1621 </r>
       </set>
       <set comment="band 14">
        <r>  0.0044  0.0035  0.0000  0.0014  0.2598  0.0000  0.0128  0.0000  0.1621 </r>
        <r>  0.0000  0.0000  0.0001  0.0000  0.0000  0.1587  0.0000  0.2225  0.0000 </r>
       </set>
       <set comment="band 15">
        <r>  0.0000  0.0000  0.0002  0.0000  0.0000  0.1457  0.0000  0.1216  0.0000 </r>
        <r>  0.0005  0.0004  0.0000  0.0001  0.0229  0.0000  0.6226  0.0000  0.0086 </r>
       </set>
       <set comment="band 16">
        <r>  0.0005  0.0004  0.0000  0.0001  0.0229  0.0000  0.6226  0.0000  0.0086 </r>
        <r>  0.0000  0.0000  0.0002  0.0000  0.0000  0.1457  0.0000  0.1216  0.0000 </r>
       </set>
       <set comment="band 17">
        <r>  0.0000  0.0000  0.0202  0.0000  0.0000  0.0592  0.0000  0.0244  0.0000 </r>
        <r>  0.1956  0.0320  0.0000  0.0124  0.1601  0.0000  0.0099  0.0000  0.0631 </r>
       </set>
       <set comment="band 18">
        <r>  0.1956  0.0320  0.0000  0.0124  0.1601  0.0000  0.0099  0.0000  0.0631 </r>
        <r>  0.0000  0.0000  0.0202  0.0000  0.0000  0.0592  0.0000  0.0244  0.0000 </r>
       </set>
       <set comment="band 19">
        <r>  0.0000  0.0000  0.0192  0.0000  0.0000  0.0337  0.0000  0.0553  0.0000 </r>
        <r>  0.2665  0.0382  0.0000  0.0166  0.0379  0.0000  0.0136  0.0000  0.0244 </r>
       </set>
       <set comment="band 20">
        <r>  0.2665  0.0382  0.0000  0.0166  0.0379  0.0000  0.0136  0.0000  0.0244 </r>
        <r>  0.0000  0.0000  0.0192  0.0000  0.0000  0.0337  0.0000  0.0553  0.0000 </r>
       </set>
       <set comment="band 21">
        <r>  0.0000  0.0000  0.0144  0.0000  0.0000  0.0371  0.0000  0.0418  0.0000 </r>
        <r>  0.0010  0.0408  0.0000  0.0814  0.0645  0.0000  0.0013  0.0000  0.1531 </r>
       </set>
       <set comment="band 22">
        <r>  0.0010  0.0408  0.0000  0.0814  0.0645  0.0000  0.0013  0.0000  0.1531 </r>
        <r>  0.0000  0.0000  0.0144  0.0000  0.0000  0.0371  0.0000  0.0418  0.0000 </r>
       </set>
       <set comment="band 23">
        <r>  0.0000  0.0000  0.1278  0.0000  0.0000  0.0176  0.0000  0.0116  0.0000 </r>
        <r>  0.0025  0.0419  0.0000  0.0235  0.0180  0.0000  0.0045  0.0000  0.0158 </r>
       </set>
       <set comment="band 24">
        <r>  0.0025  0.0419  0.0000  0.0235  0.0180  0.0000  0.0045  0.0000  0.0158 </r>
        <r>  0.0000  0.0000  0.1278  0.0000  0.0000  0.0176  0.0000  0.0116  0.0000 </r>
       </set>
      </set>
     </set>
    </set>
   </array>
  </projected>
 </calculation>
 <structure name="finalpos" >
  <crystal>
   <varray name="basis" >
    <v>       2.89062073       0.00000000       0.00000000 </v>
    <v>      -1.44531036       2.50335098       0.00000000 </v>
    <v>       0.00000000       0.00000000       5.00793305 </v>
   </varray>
   <i name="volume">     36.23859662 </i>
   <varray name="rec_basis" >
    <v>       0.34594646       0.19973228       0.00000000 </v>
    <v>       0.00000000       0.39946456       0.00000000 </v>
    <v>       0.00000000       0.00000000       0.19968318 </v>
   </varray>
  </crystal>
  <varray name="positions" >
   <v>       0.00000000       0.00000000       0.00000000 </v>
   <v>       0.33333333       0.66666667       0.50000000 </v>
  </varray>
 </structure>
</modeling>
