Pt-hcc                                  
           1
     2.798111    0.000000    0.000000
    -1.399055    2.423235    0.000000
     0.000000    0.000000    4.847662
   Pt
     2
Direct configuration=     1
   0.00000000  0.00000000  0.00000000
   0.33333333  0.66666667  0.50000000
