   2   2   1   0
  0.1439176E+02  0.2741503E-09  0.2741503E-09  0.4422174E-09  0.5000000E-15
  1.000000000000000E-004
  CAR 
 Co-hcc                                  
     40.76998340     -2.59534373  301      6.81919753      1.00000000
     -2.595  0.0000E+00  0.0000E+00  0.0000E+00  0.0000E+00
     -2.451  0.0000E+00  0.0000E+00  0.0000E+00  0.0000E+00
     -2.306  0.0000E+00  0.0000E+00  0.0000E+00  0.0000E+00
     -2.162  0.0000E+00  0.0000E+00  0.0000E+00  0.0000E+00
     -2.017  0.0000E+00  0.0000E+00  0.0000E+00  0.0000E+00
     -1.873  0.0000E+00  0.0000E+00  0.0000E+00  0.0000E+00
     -1.728  0.0000E+00  0.0000E+00  0.0000E+00  0.0000E+00
     -1.583  0.0000E+00  0.0000E+00  0.0000E+00  0.0000E+00
     -1.439  0.0000E+00  0.0000E+00  0.0000E+00  0.0000E+00
     -1.294  0.0000E+00  0.0000E+00  0.0000E+00  0.0000E+00
     -1.150  0.0000E+00  0.0000E+00  0.0000E+00  0.0000E+00
     -1.005  0.0000E+00  0.0000E+00  0.0000E+00  0.0000E+00
     -0.861  0.0000E+00  0.6687E-15  0.0000E+00  0.9666E-16
     -0.716  0.1483E-09  0.2785E-06  0.2144E-10  0.4025E-07
     -0.572  0.1898E-04  0.5758E-04  0.2744E-05  0.8363E-05
     -0.427  0.1094E-03  0.2991E-03  0.1856E-04  0.5160E-04
     -0.283  0.4590E-03  0.6781E-03  0.8491E-04  0.1496E-03
     -0.138  0.6714E-03  0.2585E-03  0.1820E-03  0.1870E-03
      0.007  0.2140E-03  0.4368E-03  0.2129E-03  0.2501E-03
      0.151  0.1071E-02  0.1591E-02  0.3677E-03  0.4800E-03
      0.296  0.1081E-02  0.7365E-03  0.5240E-03  0.5865E-03
      0.440  0.6508E-03  0.4543E-03  0.6180E-03  0.6522E-03
      0.585  0.7898E-03  0.6357E-03  0.7322E-03  0.7441E-03
      0.729  0.1062E-02  0.1811E-02  0.8858E-03  0.1006E-02
      0.874  0.1801E-02  0.1586E-02  0.1146E-02  0.1235E-02
      1.018  0.7973E-03  0.3222E-03  0.1261E-02  0.1282E-02
      1.163  0.1240E-02  0.1587E-02  0.1441E-02  0.1511E-02
      1.308  0.2690E-02  0.2266E-02  0.1830E-02  0.1839E-02
      1.452  0.2693E-03  0.2065E-03  0.1868E-02  0.1869E-02
      1.597  0.1449E-02  0.1468E-02  0.2078E-02  0.2081E-02
      1.741  0.2210E-02  0.1769E-02  0.2397E-02  0.2337E-02
      1.886  0.2999E-02  0.3056E-02  0.2831E-02  0.2778E-02
      2.030  0.2293E-02  0.1604E-02  0.3162E-02  0.3010E-02
      2.175  0.2276E-02  0.1841E-02  0.3491E-02  0.3276E-02
      2.319  0.1437E-02  0.1450E-02  0.3699E-02  0.3486E-02
      2.464  0.3720E-02  0.1711E-02  0.4237E-02  0.3733E-02
      2.608  0.4499E-02  0.2228E-02  0.4887E-02  0.4055E-02
      2.753  0.7278E-02  0.3383E-02  0.5939E-02  0.4544E-02
      2.898  0.1129E-01  0.2350E-02  0.7571E-02  0.4884E-02
      3.042  0.1215E-01  0.3427E-02  0.9327E-02  0.5380E-02
      3.187  0.1813E-01  0.2069E-02  0.1195E-01  0.5679E-02
      3.331  0.2101E-01  0.4740E-02  0.1499E-01  0.6364E-02
      3.476  0.2609E-01  0.3142E-02  0.1876E-01  0.6818E-02
      3.620  0.2371E-01  0.3820E-02  0.2218E-01  0.7370E-02
      3.765  0.2608E-01  0.2952E-02  0.2595E-01  0.7797E-02
      3.909  0.2953E-01  0.1148E-01  0.3022E-01  0.9456E-02
      4.054  0.3359E-01  0.8490E-02  0.3508E-01  0.1068E-01
      4.199  0.2245E-01  0.6553E-02  0.3832E-01  0.1163E-01
      4.343  0.3516E-01  0.8537E-02  0.4341E-01  0.1286E-01
      4.488  0.4535E-01  0.1108E-01  0.4996E-01  0.1447E-01
      4.632  0.4773E-01  0.1222E-01  0.5686E-01  0.1623E-01
      4.777  0.4748E-01  0.1366E-01  0.6373E-01  0.1821E-01
      4.921  0.3988E-01  0.1942E-01  0.6949E-01  0.2101E-01
      5.066  0.2720E-01  0.1808E-01  0.7342E-01  0.2363E-01
      5.210  0.3508E-01  0.2024E-01  0.7849E-01  0.2655E-01
      5.355  0.2490E-01  0.2596E-01  0.8209E-01  0.3030E-01
      5.500  0.4101E-01  0.3006E-01  0.8802E-01  0.3465E-01
      5.644  0.5925E-01  0.1637E-01  0.9658E-01  0.3702E-01
      5.789  0.5170E-01  0.1368E-01  0.1041E+00  0.3899E-01
      5.933  0.3184E-02  0.1842E-01  0.1045E+00  0.4166E-01
      6.078  0.2543E-02  0.3413E-01  0.1049E+00  0.4659E-01
      6.222  0.7753E-02  0.3764E-01  0.1060E+00  0.5203E-01
      6.367  0.3978E-02  0.3763E-01  0.1066E+00  0.5747E-01
      6.511  0.4065E-02  0.4404E-01  0.1072E+00  0.6384E-01
      6.656  0.2044E-02  0.3091E-01  0.1075E+00  0.6830E-01
      6.800  0.4109E-03  0.2506E-01  0.1075E+00  0.7193E-01
      6.945  0.1113E-02  0.1983E-01  0.1077E+00  0.7479E-01
      7.090  0.6267E-02  0.2652E-01  0.1086E+00  0.7863E-01
      7.234  0.3149E-02  0.1715E-01  0.1090E+00  0.8110E-01
      7.379  0.7054E-02  0.2981E-01  0.1101E+00  0.8541E-01
      7.523  0.1415E-02  0.3314E-01  0.1103E+00  0.9020E-01
      7.668  0.4492E-02  0.5423E-01  0.1109E+00  0.9804E-01
      7.812  0.1271E-02  0.4745E-01  0.1111E+00  0.1049E+00
      7.957  0.1359E-02  0.1202E-01  0.1113E+00  0.1066E+00
      8.101  0.2523E-02  0.5303E-02  0.1117E+00  0.1074E+00
      8.246  0.3044E-02  0.4111E-02  0.1121E+00  0.1080E+00
      8.391  0.4420E-02  0.4596E-02  0.1127E+00  0.1087E+00
      8.535  0.1639E-02  0.6803E-02  0.1130E+00  0.1096E+00
      8.680  0.4247E-02  0.6024E-02  0.1136E+00  0.1105E+00
      8.824  0.2035E-02  0.4124E-02  0.1139E+00  0.1111E+00
      8.969  0.2792E-02  0.3837E-02  0.1143E+00  0.1117E+00
      9.113  0.8471E-03  0.2741E-02  0.1144E+00  0.1121E+00
      9.258  0.3541E-02  0.2430E-02  0.1149E+00  0.1124E+00
      9.402  0.7754E-02  0.4509E-02  0.1160E+00  0.1131E+00
      9.547  0.1760E-02  0.3033E-02  0.1163E+00  0.1135E+00
      9.691  0.2522E-02  0.3533E-02  0.1167E+00  0.1140E+00
      9.836  0.1420E-02  0.2504E-02  0.1169E+00  0.1144E+00
      9.981  0.1344E-02  0.3937E-02  0.1171E+00  0.1149E+00
     10.125  0.2385E-03  0.5920E-02  0.1171E+00  0.1158E+00
     10.270  0.2743E-02  0.2352E-02  0.1175E+00  0.1161E+00
     10.414  0.5847E-03  0.2656E-02  0.1176E+00  0.1165E+00
     10.559  0.2929E-02  0.3017E-02  0.1180E+00  0.1170E+00
     10.703  0.2836E-02  0.7726E-03  0.1184E+00  0.1171E+00
     10.848  0.4582E-02  0.2465E-02  0.1191E+00  0.1174E+00
     10.992  0.2060E-02  0.9605E-03  0.1194E+00  0.1176E+00
     11.137  0.2154E-02  0.2151E-02  0.1197E+00  0.1179E+00
     11.282  0.8952E-03  0.2436E-02  0.1198E+00  0.1182E+00
     11.426  0.1486E-03  0.5389E-02  0.1198E+00  0.1190E+00
     11.571  0.7247E-03  0.2566E-02  0.1199E+00  0.1194E+00
     11.715  0.1009E-02  0.1725E-02  0.1201E+00  0.1196E+00
     11.860  0.1146E-02  0.2503E-03  0.1203E+00  0.1197E+00
     12.004  0.2530E-02  0.5182E-04  0.1206E+00  0.1197E+00
     12.149  0.3341E-02  0.7787E-03  0.1211E+00  0.1198E+00
     12.293  0.3111E-02  0.1747E-02  0.1216E+00  0.1200E+00
     12.438  0.3735E-02  0.1633E-02  0.1221E+00  0.1203E+00
     12.583  0.5043E-02  0.2195E-03  0.1228E+00  0.1203E+00
     12.727  0.3956E-02  0.1606E-02  0.1234E+00  0.1205E+00
     12.872  0.6123E-02  0.2672E-02  0.1243E+00  0.1209E+00
     13.016  0.4747E-02  0.4105E-02  0.1250E+00  0.1215E+00
     13.161  0.2618E-02  0.7635E-02  0.1253E+00  0.1226E+00
     13.305  0.2379E-02  0.6526E-02  0.1257E+00  0.1236E+00
     13.450  0.2131E-02  0.3523E-02  0.1260E+00  0.1241E+00
     13.594  0.4976E-02  0.4771E-02  0.1267E+00  0.1248E+00
     13.739  0.5436E-02  0.4071E-02  0.1275E+00  0.1254E+00
     13.883  0.1313E-02  0.3330E-02  0.1277E+00  0.1258E+00
     14.028  0.4663E-02  0.2117E-02  0.1284E+00  0.1261E+00
     14.173  0.3287E-02  0.6476E-02  0.1288E+00  0.1271E+00
     14.317  0.1720E-02  0.3862E-02  0.1291E+00  0.1276E+00
     14.462  0.9528E-02  0.2658E-02  0.1305E+00  0.1280E+00
     14.606  0.2913E-02  0.4563E-02  0.1309E+00  0.1287E+00
     14.751  0.2147E-02  0.2285E-02  0.1312E+00  0.1290E+00
     14.895  0.4148E-02  0.8074E-02  0.1318E+00  0.1302E+00
     15.040  0.5828E-02  0.4881E-02  0.1326E+00  0.1309E+00
     15.184  0.3043E-02  0.2665E-02  0.1331E+00  0.1313E+00
     15.329  0.4444E-02  0.5465E-02  0.1337E+00  0.1321E+00
     15.474  0.4883E-02  0.4308E-02  0.1344E+00  0.1327E+00
     15.618  0.3838E-02  0.3019E-02  0.1350E+00  0.1331E+00
     15.763  0.3258E-02  0.5809E-02  0.1355E+00  0.1340E+00
     15.907  0.1689E-02  0.4308E-02  0.1357E+00  0.1346E+00
     16.052  0.7972E-02  0.4847E-02  0.1368E+00  0.1353E+00
     16.196  0.3460E-02  0.2315E-02  0.1373E+00  0.1356E+00
     16.341  0.3026E-02  0.4505E-02  0.1378E+00  0.1363E+00
     16.485  0.3501E-02  0.6019E-02  0.1383E+00  0.1371E+00
     16.630  0.2044E-02  0.2566E-02  0.1386E+00  0.1375E+00
     16.775  0.2852E-02  0.3083E-02  0.1390E+00  0.1380E+00
     16.919  0.2954E-02  0.3385E-02  0.1394E+00  0.1384E+00
     17.064  0.1674E-02  0.3091E-02  0.1397E+00  0.1389E+00
     17.208  0.4680E-02  0.2083E-02  0.1403E+00  0.1392E+00
     17.353  0.3674E-02  0.2471E-02  0.1409E+00  0.1395E+00
     17.497  0.2531E-02  0.3279E-02  0.1412E+00  0.1400E+00
     17.642  0.6552E-02  0.4546E-02  0.1422E+00  0.1407E+00
     17.786  0.1617E-02  0.2967E-02  0.1424E+00  0.1411E+00
     17.931  0.3508E-02  0.5568E-02  0.1429E+00  0.1419E+00
     18.075  0.5067E-02  0.2540E-02  0.1437E+00  0.1423E+00
     18.220  0.4092E-02  0.3028E-02  0.1443E+00  0.1427E+00
     18.365  0.3724E-02  0.4495E-02  0.1448E+00  0.1434E+00
     18.509  0.4628E-02  0.7179E-02  0.1455E+00  0.1444E+00
     18.654  0.4021E-02  0.1581E-02  0.1460E+00  0.1446E+00
     18.798  0.4519E-02  0.4387E-02  0.1467E+00  0.1453E+00
     18.943  0.5435E-02  0.5132E-02  0.1475E+00  0.1460E+00
     19.087  0.5486E-02  0.3595E-02  0.1483E+00  0.1465E+00
     19.232  0.5099E-02  0.6672E-02  0.1490E+00  0.1475E+00
     19.376  0.4166E-02  0.5244E-02  0.1496E+00  0.1483E+00
     19.521  0.7568E-02  0.5355E-02  0.1507E+00  0.1490E+00
     19.666  0.2249E-02  0.4820E-02  0.1510E+00  0.1497E+00
     19.810  0.2667E-02  0.7204E-02  0.1514E+00  0.1508E+00
     19.955  0.4353E-02  0.2041E-02  0.1520E+00  0.1511E+00
     20.099  0.5813E-02  0.3137E-02  0.1529E+00  0.1515E+00
     20.244  0.3167E-02  0.6086E-02  0.1533E+00  0.1524E+00
     20.388  0.5955E-02  0.4427E-02  0.1542E+00  0.1530E+00
     20.533  0.5559E-02  0.2533E-02  0.1550E+00  0.1534E+00
     20.677  0.5482E-02  0.7301E-02  0.1558E+00  0.1545E+00
     20.822  0.5328E-02  0.7296E-02  0.1566E+00  0.1555E+00
     20.966  0.4896E-02  0.2662E-02  0.1573E+00  0.1559E+00
     21.111  0.4095E-02  0.6178E-02  0.1579E+00  0.1568E+00
     21.256  0.3198E-02  0.5358E-02  0.1583E+00  0.1576E+00
     21.400  0.3604E-02  0.4263E-02  0.1589E+00  0.1582E+00
     21.545  0.5870E-02  0.3190E-02  0.1597E+00  0.1586E+00
     21.689  0.5718E-02  0.3918E-02  0.1605E+00  0.1592E+00
     21.834  0.2451E-02  0.7678E-02  0.1609E+00  0.1603E+00
     21.978  0.4986E-02  0.2520E-02  0.1616E+00  0.1607E+00
     22.123  0.3700E-02  0.3468E-02  0.1621E+00  0.1612E+00
     22.267  0.3113E-02  0.5046E-02  0.1626E+00  0.1619E+00
     22.412  0.6724E-02  0.3881E-02  0.1636E+00  0.1625E+00
     22.557  0.4753E-02  0.5267E-02  0.1642E+00  0.1632E+00
     22.701  0.4420E-02  0.6853E-02  0.1649E+00  0.1642E+00
     22.846  0.7518E-02  0.4922E-02  0.1660E+00  0.1649E+00
     22.990  0.5676E-02  0.5676E-02  0.1668E+00  0.1658E+00
     23.135  0.2227E-02  0.5060E-02  0.1671E+00  0.1665E+00
     23.279  0.3355E-02  0.3740E-02  0.1676E+00  0.1670E+00
     23.424  0.5641E-02  0.4947E-02  0.1684E+00  0.1677E+00
     23.568  0.4771E-02  0.3963E-02  0.1691E+00  0.1683E+00
     23.713  0.4609E-02  0.4679E-02  0.1698E+00  0.1690E+00
     23.858  0.3828E-02  0.5101E-02  0.1703E+00  0.1697E+00
     24.002  0.3293E-02  0.4536E-02  0.1708E+00  0.1704E+00
     24.147  0.4459E-02  0.3086E-02  0.1714E+00  0.1708E+00
     24.291  0.3576E-02  0.4973E-02  0.1720E+00  0.1715E+00
     24.436  0.6943E-02  0.2719E-02  0.1730E+00  0.1719E+00
     24.580  0.7511E-02  0.5106E-02  0.1741E+00  0.1727E+00
     24.725  0.5582E-02  0.8473E-02  0.1749E+00  0.1739E+00
     24.869  0.4609E-02  0.5496E-02  0.1755E+00  0.1747E+00
     25.014  0.6237E-02  0.6777E-02  0.1764E+00  0.1757E+00
     25.158  0.4624E-02  0.5735E-02  0.1771E+00  0.1765E+00
     25.303  0.4834E-02  0.3164E-02  0.1778E+00  0.1770E+00
     25.448  0.3067E-02  0.6645E-02  0.1782E+00  0.1779E+00
     25.592  0.3088E-02  0.1625E-02  0.1787E+00  0.1782E+00
     25.737  0.3543E-02  0.4860E-02  0.1792E+00  0.1789E+00
     25.881  0.4790E-02  0.5857E-02  0.1799E+00  0.1797E+00
     26.026  0.6698E-02  0.5019E-02  0.1809E+00  0.1804E+00
     26.170  0.4329E-02  0.4278E-02  0.1815E+00  0.1811E+00
     26.315  0.6561E-02  0.2951E-02  0.1824E+00  0.1815E+00
     26.459  0.1023E-01  0.5876E-02  0.1839E+00  0.1823E+00
     26.604  0.3105E-02  0.9329E-02  0.1844E+00  0.1837E+00
     26.749  0.5760E-02  0.5354E-02  0.1852E+00  0.1845E+00
     26.893  0.4776E-02  0.7161E-02  0.1859E+00  0.1855E+00
     27.038  0.6187E-02  0.5749E-02  0.1868E+00  0.1863E+00
     27.182  0.7369E-02  0.6902E-02  0.1878E+00  0.1873E+00
     27.327  0.4350E-02  0.5152E-02  0.1885E+00  0.1881E+00
     27.471  0.2268E-02  0.4247E-02  0.1888E+00  0.1887E+00
     27.616  0.6451E-02  0.5068E-02  0.1897E+00  0.1894E+00
     27.760  0.4539E-02  0.4335E-02  0.1904E+00  0.1900E+00
     27.905  0.3020E-02  0.4881E-02  0.1908E+00  0.1907E+00
     28.049  0.4932E-02  0.2865E-02  0.1915E+00  0.1912E+00
     28.194  0.4395E-02  0.1669E-02  0.1922E+00  0.1914E+00
     28.339  0.5968E-02  0.6796E-02  0.1930E+00  0.1924E+00
     28.483  0.9254E-02  0.6803E-02  0.1944E+00  0.1934E+00
     28.628  0.4023E-02  0.5684E-02  0.1950E+00  0.1942E+00
     28.772  0.1755E-02  0.5332E-02  0.1952E+00  0.1950E+00
     28.917  0.4858E-02  0.2230E-02  0.1959E+00  0.1953E+00
     29.061  0.7787E-02  0.8163E-02  0.1970E+00  0.1965E+00
     29.206  0.7302E-02  0.8215E-02  0.1981E+00  0.1976E+00
     29.350  0.4592E-02  0.2535E-02  0.1988E+00  0.1980E+00
     29.495  0.2928E-02  0.5944E-02  0.1992E+00  0.1989E+00
     29.640  0.3566E-02  0.1901E-02  0.1997E+00  0.1991E+00
     29.784  0.4375E-02  0.4302E-02  0.2003E+00  0.1998E+00
     29.929  0.5485E-02  0.4779E-02  0.2011E+00  0.2005E+00
     30.073  0.1111E-01  0.5588E-02  0.2027E+00  0.2013E+00
     30.218  0.6757E-02  0.1202E-01  0.2037E+00  0.2030E+00
     30.362  0.2909E-02  0.6172E-02  0.2041E+00  0.2039E+00
     30.507  0.3517E-02  0.2481E-02  0.2046E+00  0.2043E+00
     30.651  0.2420E-02  0.3523E-02  0.2050E+00  0.2048E+00
     30.796  0.3625E-02  0.3468E-02  0.2055E+00  0.2053E+00
     30.941  0.3418E-02  0.2680E-02  0.2060E+00  0.2057E+00
     31.085  0.5877E-02  0.3880E-02  0.2068E+00  0.2062E+00
     31.230  0.8293E-02  0.4591E-02  0.2080E+00  0.2069E+00
     31.374  0.4677E-02  0.6875E-02  0.2087E+00  0.2079E+00
     31.519  0.3874E-02  0.7381E-02  0.2093E+00  0.2089E+00
     31.663  0.3926E-02  0.5647E-02  0.2099E+00  0.2098E+00
     31.808  0.4650E-02  0.3914E-02  0.2105E+00  0.2103E+00
     31.952  0.5535E-02  0.5118E-02  0.2113E+00  0.2111E+00
     32.097  0.9663E-02  0.7205E-02  0.2127E+00  0.2121E+00
     32.241  0.6034E-02  0.7116E-02  0.2136E+00  0.2131E+00
     32.386  0.3282E-02  0.3835E-02  0.2141E+00  0.2137E+00
     32.531  0.4020E-02  0.6603E-02  0.2146E+00  0.2146E+00
     32.675  0.6491E-02  0.3456E-02  0.2156E+00  0.2151E+00
     32.820  0.3669E-02  0.4743E-02  0.2161E+00  0.2158E+00
     32.964  0.6000E-02  0.6062E-02  0.2170E+00  0.2167E+00
     33.109  0.2690E-02  0.3924E-02  0.2174E+00  0.2173E+00
     33.253  0.3720E-02  0.3895E-02  0.2179E+00  0.2178E+00
     33.398  0.5599E-02  0.2727E-02  0.2187E+00  0.2182E+00
     33.542  0.1647E-01  0.6002E-02  0.2211E+00  0.2191E+00
     33.687  0.8651E-02  0.1121E-01  0.2223E+00  0.2207E+00
     33.832  0.3900E-02  0.1283E-01  0.2229E+00  0.2226E+00
     33.976  0.2690E-02  0.2475E-02  0.2233E+00  0.2229E+00
     34.121  0.3389E-02  0.4163E-02  0.2238E+00  0.2235E+00
     34.265  0.3344E-02  0.3609E-02  0.2243E+00  0.2240E+00
     34.410  0.6954E-02  0.5715E-02  0.2253E+00  0.2249E+00
     34.554  0.5987E-02  0.6898E-02  0.2261E+00  0.2259E+00
     34.699  0.4336E-02  0.3946E-02  0.2268E+00  0.2264E+00
     34.843  0.4678E-02  0.4389E-02  0.2274E+00  0.2271E+00
     34.988  0.4212E-02  0.5107E-02  0.2281E+00  0.2278E+00
     35.132  0.3395E-02  0.4197E-02  0.2285E+00  0.2284E+00
     35.277  0.7451E-02  0.5313E-02  0.2296E+00  0.2292E+00
     35.422  0.9338E-02  0.7824E-02  0.2310E+00  0.2303E+00
     35.566  0.6820E-02  0.8232E-02  0.2320E+00  0.2315E+00
     35.711  0.3646E-02  0.4246E-02  0.2325E+00  0.2321E+00
     35.855  0.3345E-02  0.3550E-02  0.2330E+00  0.2326E+00
     36.000  0.2058E-02  0.3317E-02  0.2333E+00  0.2331E+00
     36.144  0.1530E-02  0.2610E-02  0.2335E+00  0.2335E+00
     36.289  0.2663E-02  0.1748E-02  0.2339E+00  0.2337E+00
     36.433  0.2609E-02  0.3753E-02  0.2343E+00  0.2343E+00
     36.578  0.3231E-02  0.9943E-03  0.2347E+00  0.2344E+00
     36.723  0.8942E-02  0.4822E-02  0.2360E+00  0.2351E+00
     36.867  0.4727E-02  0.8642E-02  0.2367E+00  0.2364E+00
     37.012  0.1526E-02  0.3825E-02  0.2369E+00  0.2369E+00
     37.156  0.3186E-02  0.1059E-02  0.2374E+00  0.2371E+00
     37.301  0.2167E-02  0.4584E-02  0.2377E+00  0.2377E+00
     37.445  0.3980E-02  0.2915E-02  0.2383E+00  0.2382E+00
     37.590  0.2702E-02  0.2404E-02  0.2387E+00  0.2385E+00
     37.734  0.2347E-02  0.2874E-02  0.2390E+00  0.2389E+00
     37.879  0.2100E-02  0.1039E-02  0.2393E+00  0.2391E+00
     38.024  0.1411E-02  0.2258E-02  0.2395E+00  0.2394E+00
     38.168  0.5562E-03  0.4092E-03  0.2396E+00  0.2395E+00
     38.313  0.1204E-02  0.1995E-02  0.2398E+00  0.2398E+00
     38.457  0.6250E-04  0.2127E-03  0.2398E+00  0.2398E+00
     38.602  0.3978E-03  0.6324E-03  0.2398E+00  0.2399E+00
     38.746  0.4932E-03  0.4538E-03  0.2399E+00  0.2399E+00
     38.891  0.7279E-03  0.3909E-03  0.2400E+00  0.2400E+00
     39.035  0.1362E-05  0.2464E-07  0.2400E+00  0.2400E+00
     39.180  0.1660E-14  0.0000E+00  0.2400E+00  0.2400E+00
     39.324  0.0000E+00  0.0000E+00  0.2400E+00  0.2400E+00
     39.469  0.0000E+00  0.0000E+00  0.2400E+00  0.2400E+00
     39.614  0.0000E+00  0.0000E+00  0.2400E+00  0.2400E+00
     39.758  0.0000E+00  0.0000E+00  0.2400E+00  0.2400E+00
     39.903  0.0000E+00  0.0000E+00  0.2400E+00  0.2400E+00
     40.047  0.0000E+00  0.0000E+00  0.2400E+00  0.2400E+00
     40.192  0.0000E+00  0.0000E+00  0.2400E+00  0.2400E+00
     40.336  0.0000E+00  0.0000E+00  0.2400E+00  0.2400E+00
     40.481  0.0000E+00  0.0000E+00  0.2400E+00  0.2400E+00
     40.625  0.0000E+00  0.0000E+00  0.2400E+00  0.2400E+00
     40.770  0.0000E+00  0.0000E+00  0.2400E+00  0.2400E+00
     40.76998340     -2.59534373  301      6.81919753      1.00000000
     -2.595  0.0000E+00  0.0000E+00  0.0000E+00  0.0000E+00  0.0000E+00  0.0000E+00  0.0000E+00  0.0000E+00  0.0000E+00  0.0000E+00  0.0000E+00  0.0000E+00  0.0000E+00  0.0000E+00  0.0000E+00  0.0000E+00  0.0000E+00  0.0000E+00
     -2.451  0.0000E+00  0.0000E+00  0.0000E+00  0.0000E+00  0.0000E+00  0.0000E+00  0.0000E+00  0.0000E+00  0.0000E+00  0.0000E+00  0.0000E+00  0.0000E+00  0.0000E+00  0.0000E+00  0.0000E+00  0.0000E+00  0.0000E+00  0.0000E+00
     -2.306  0.0000E+00  0.0000E+00  0.0000E+00  0.0000E+00  0.0000E+00  0.0000E+00  0.0000E+00  0.0000E+00  0.0000E+00  0.0000E+00  0.0000E+00  0.0000E+00  0.0000E+00  0.0000E+00  0.0000E+00  0.0000E+00  0.0000E+00  0.0000E+00
     -2.162  0.0000E+00  0.0000E+00  0.0000E+00  0.0000E+00  0.0000E+00  0.0000E+00  0.0000E+00  0.0000E+00  0.0000E+00  0.0000E+00  0.0000E+00  0.0000E+00  0.0000E+00  0.0000E+00  0.0000E+00  0.0000E+00  0.0000E+00  0.0000E+00
     -2.017  0.0000E+00  0.0000E+00  0.0000E+00  0.0000E+00  0.0000E+00  0.0000E+00  0.0000E+00  0.0000E+00  0.0000E+00  0.0000E+00  0.0000E+00  0.0000E+00  0.0000E+00  0.0000E+00  0.0000E+00  0.0000E+00  0.0000E+00  0.0000E+00
     -1.873  0.0000E+00  0.0000E+00  0.0000E+00  0.0000E+00  0.0000E+00  0.0000E+00  0.0000E+00  0.0000E+00  0.0000E+00  0.0000E+00  0.0000E+00  0.0000E+00  0.0000E+00  0.0000E+00  0.0000E+00  0.0000E+00  0.0000E+00  0.0000E+00
     -1.728  0.0000E+00  0.0000E+00  0.0000E+00  0.0000E+00  0.0000E+00  0.0000E+00  0.0000E+00  0.0000E+00  0.0000E+00  0.0000E+00  0.0000E+00  0.0000E+00  0.0000E+00  0.0000E+00  0.0000E+00  0.0000E+00  0.0000E+00  0.0000E+00
     -1.583  0.0000E+00  0.0000E+00  0.0000E+00  0.0000E+00  0.0000E+00  0.0000E+00  0.0000E+00  0.0000E+00  0.0000E+00  0.0000E+00  0.0000E+00  0.0000E+00  0.0000E+00  0.0000E+00  0.0000E+00  0.0000E+00  0.0000E+00  0.0000E+00
     -1.439  0.0000E+00  0.0000E+00  0.0000E+00  0.0000E+00  0.0000E+00  0.0000E+00  0.0000E+00  0.0000E+00  0.0000E+00  0.0000E+00  0.0000E+00  0.0000E+00  0.0000E+00  0.0000E+00  0.0000E+00  0.0000E+00  0.0000E+00  0.0000E+00
     -1.294  0.0000E+00  0.0000E+00  0.0000E+00  0.0000E+00  0.0000E+00  0.0000E+00  0.0000E+00  0.0000E+00  0.0000E+00  0.0000E+00  0.0000E+00  0.0000E+00  0.0000E+00  0.0000E+00  0.0000E+00  0.0000E+00  0.0000E+00  0.0000E+00
     -1.150  0.0000E+00  0.0000E+00  0.0000E+00  0.0000E+00  0.0000E+00  0.0000E+00  0.0000E+00  0.0000E+00  0.0000E+00  0.0000E+00  0.0000E+00  0.0000E+00  0.0000E+00  0.0000E+00  0.0000E+00  0.0000E+00  0.0000E+00  0.0000E+00
     -1.005  0.0000E+00  0.0000E+00  0.0000E+00  0.0000E+00  0.0000E+00  0.0000E+00  0.0000E+00  0.0000E+00  0.0000E+00  0.0000E+00  0.0000E+00  0.0000E+00  0.0000E+00  0.0000E+00  0.0000E+00  0.0000E+00  0.0000E+00  0.0000E+00
     -0.861  0.0000E+00  0.1766E-13  0.0000E+00  0.4292E-29  0.0000E+00  0.1144E-26  0.0000E+00  0.4292E-29  0.0000E+00  0.2670E-26  0.0000E+00  0.5212E-32  0.0000E+00  0.2130E-18  0.0000E+00  0.5212E-32  0.0000E+00  0.2670E-26
     -0.716  0.3982E-08  0.7356E-05  0.3055E-24  0.1676E-19  0.4378E-20  0.8927E-14  0.3055E-24  0.1676E-19  0.9407E-22  0.1112E-17  0.7472E-30  0.2170E-23  0.5399E-13  0.8870E-10  0.7472E-30  0.2170E-23  0.9407E-22  0.1112E-17
     -0.572  0.5095E-03  0.1520E-02  0.6847E-13  0.1934E-08  0.7950E-09  0.6282E-06  0.6847E-13  0.1934E-08  0.1534E-14  0.2701E-10  0.7108E-23  0.4187E-19  0.6916E-08  0.2144E-07  0.7108E-23  0.4187E-19  0.1534E-14  0.2701E-10
     -0.427  0.2914E-02  0.7773E-02  0.2282E-05  0.4491E-04  0.1945E-04  0.3781E-04  0.2282E-05  0.4491E-04  0.5071E-07  0.6273E-06  0.1338E-12  0.8820E-09  0.2777E-06  0.1002E-05  0.1338E-12  0.8820E-09  0.5071E-07  0.6273E-06
     -0.283  0.1208E-01  0.1741E-01  0.9920E-04  0.1677E-03  0.3716E-04  0.1619E-03  0.9920E-04  0.1677E-03  0.2213E-05  0.2370E-05  0.6492E-06  0.3845E-05  0.2422E-05  0.8005E-06  0.6492E-06  0.3845E-05  0.2213E-05  0.2370E-05
     -0.138  0.1746E-01  0.6596E-02  0.1661E-03  0.5667E-04  0.2170E-03  0.1138E-03  0.1661E-03  0.5667E-04  0.3794E-05  0.8219E-06  0.8169E-05  0.1757E-05  0.1129E-06  0.1829E-05  0.8169E-05  0.1757E-05  0.3794E-05  0.8219E-06
      0.007  0.5443E-02  0.1089E-01  0.7241E-04  0.2459E-03  0.1435E-03  0.1368E-03  0.7241E-04  0.2459E-03  0.4846E-05  0.1003E-04  0.4000E-07  0.7570E-06  0.1527E-04  0.1449E-04  0.4000E-07  0.7570E-06  0.4846E-05  0.1003E-04
      0.151  0.2685E-01  0.3907E-01  0.5644E-03  0.8600E-03  0.6646E-03  0.1092E-02  0.5644E-03  0.8600E-03  0.3485E-04  0.3496E-04  0.3766E-04  0.3961E-04  0.4606E-04  0.4120E-04  0.3766E-04  0.3961E-04  0.3485E-04  0.3496E-04
      0.296  0.2690E-01  0.1780E-01  0.7374E-03  0.6852E-03  0.5056E-03  0.1855E-03  0.7374E-03  0.6852E-03  0.6348E-04  0.4243E-04  0.3569E-04  0.1933E-04  0.5436E-04  0.2196E-04  0.3569E-04  0.1933E-04  0.6348E-04  0.4243E-04
      0.440  0.1590E-01  0.1081E-01  0.6073E-03  0.3667E-03  0.2140E-03  0.3804E-03  0.6073E-03  0.3667E-03  0.6730E-04  0.2030E-04  0.4119E-04  0.3280E-04  0.2689E-04  0.8876E-05  0.4119E-04  0.3280E-04  0.6730E-04  0.2030E-04
      0.585  0.1887E-01  0.1494E-01  0.4857E-03  0.3778E-03  0.1105E-02  0.9549E-03  0.4857E-03  0.3778E-03  0.3952E-04  0.1847E-04  0.1255E-03  0.5664E-04  0.7319E-04  0.4471E-04  0.1255E-03  0.5664E-04  0.3952E-04  0.1847E-04
      0.729  0.2476E-01  0.4158E-01  0.8202E-03  0.1567E-02  0.1591E-02  0.2553E-02  0.8202E-03  0.1567E-02  0.1152E-03  0.1363E-03  0.2001E-03  0.1479E-03  0.2133E-03  0.2628E-03  0.2001E-03  0.1479E-03  0.1152E-03  0.1363E-03
      0.874  0.4150E-01  0.3583E-01  0.2173E-02  0.2413E-02  0.1447E-02  0.5942E-03  0.2173E-02  0.2413E-02  0.4333E-03  0.2790E-03  0.1736E-03  0.9766E-04  0.5139E-03  0.1858E-03  0.1736E-03  0.9766E-04  0.4333E-03  0.2790E-03
      1.018  0.1814E-01  0.7152E-02  0.1222E-02  0.3995E-03  0.2683E-03  0.4020E-03  0.1222E-02  0.3995E-03  0.2648E-03  0.4442E-04  0.1124E-03  0.4504E-04  0.1527E-03  0.4797E-04  0.1124E-03  0.4504E-04  0.2648E-03  0.4442E-04
      1.163  0.2720E-01  0.3443E-01  0.1436E-02  0.2141E-02  0.1951E-02  0.2190E-02  0.1436E-02  0.2141E-02  0.3981E-03  0.3061E-03  0.4071E-03  0.3087E-03  0.4277E-03  0.2386E-03  0.4071E-03  0.3087E-03  0.3981E-03  0.3061E-03
      1.308  0.5777E-01  0.4854E-01  0.3712E-02  0.3153E-02  0.3542E-02  0.3351E-02  0.3712E-02  0.3153E-02  0.1103E-02  0.4483E-03  0.1342E-02  0.5916E-03  0.6219E-03  0.3007E-03  0.1342E-02  0.5916E-03  0.1103E-02  0.4483E-03
      1.452  0.5584E-02  0.4283E-02  0.1254E-03  0.6964E-04  0.8892E-03  0.8127E-03  0.1254E-03  0.6964E-04  0.3609E-04  0.9140E-05  0.8901E-04  0.2743E-04  0.5550E-03  0.2469E-03  0.8901E-04  0.2743E-04  0.3609E-04  0.9140E-05
      1.597  0.2925E-01  0.3001E-01  0.1667E-02  0.1862E-02  0.3120E-02  0.3359E-02  0.1667E-02  0.1862E-02  0.7756E-03  0.3860E-03  0.7710E-03  0.3817E-03  0.1984E-02  0.9220E-03  0.7710E-03  0.3817E-03  0.7756E-03  0.3860E-03
      1.741  0.4302E-01  0.3505E-01  0.4248E-02  0.3673E-02  0.2416E-02  0.2023E-02  0.4248E-02  0.3673E-02  0.2077E-02  0.8119E-03  0.1637E-02  0.6292E-03  0.1212E-02  0.4735E-03  0.1637E-02  0.6292E-03  0.2077E-02  0.8119E-03
      1.886  0.5690E-01  0.5964E-01  0.5284E-02  0.5811E-02  0.4241E-02  0.4904E-02  0.5284E-02  0.5811E-02  0.3394E-02  0.1541E-02  0.2010E-02  0.1036E-02  0.3356E-02  0.1536E-02  0.2010E-02  0.1036E-02  0.3394E-02  0.1541E-02
      2.030  0.4089E-01  0.3033E-01  0.3441E-02  0.2775E-02  0.4884E-02  0.3624E-02  0.3441E-02  0.2775E-02  0.2232E-02  0.7090E-03  0.3752E-02  0.9384E-03  0.2111E-02  0.8608E-03  0.3752E-02  0.9384E-03  0.2232E-02  0.7090E-03
      2.175  0.3793E-01  0.3387E-01  0.4390E-02  0.3851E-02  0.1956E-02  0.2990E-02  0.4390E-02  0.3851E-02  0.5398E-02  0.1265E-02  0.2858E-02  0.1488E-02  0.3664E-02  0.4631E-03  0.2858E-02  0.1488E-02  0.5398E-02  0.1265E-02
      2.319  0.2210E-01  0.2607E-01  0.1480E-02  0.3514E-02  0.3500E-02  0.1351E-02  0.1480E-02  0.3514E-02  0.2296E-02  0.1695E-02  0.1741E-02  0.5807E-03  0.8247E-02  0.1314E-02  0.1741E-02  0.5807E-03  0.2296E-02  0.1695E-02
      2.464  0.5449E-01  0.2958E-01  0.5343E-02  0.2022E-02  0.8052E-02  0.6454E-02  0.5343E-02  0.2022E-02  0.6902E-02  0.7629E-03  0.1294E-01  0.1201E-02  0.2837E-02  0.3760E-02  0.1294E-01  0.1201E-02  0.6902E-02  0.7629E-03
      2.608  0.5985E-01  0.3723E-01  0.7520E-02  0.4290E-02  0.6519E-02  0.5640E-02  0.7520E-02  0.4290E-02  0.1368E-01  0.1868E-02  0.9624E-02  0.3161E-02  0.1780E-01  0.8477E-03  0.9624E-02  0.3161E-02  0.1368E-01  0.1868E-02
      2.753  0.7654E-01  0.5448E-01  0.9793E-02  0.7250E-02  0.4984E-02  0.7680E-02  0.9793E-02  0.7250E-02  0.3473E-01  0.3596E-02  0.2232E-01  0.3921E-02  0.4143E-01  0.3986E-02  0.2232E-01  0.3921E-02  0.3473E-01  0.3596E-02
      2.898  0.7771E-01  0.3706E-01  0.6898E-02  0.5488E-02  0.8020E-02  0.5043E-02  0.6898E-02  0.5488E-02  0.6118E-01  0.2867E-02  0.7789E-01  0.1718E-02  0.5591E-01  0.4508E-02  0.7789E-01  0.1718E-02  0.6118E-01  0.2867E-02
      3.042  0.7371E-01  0.5028E-01  0.6889E-02  0.9496E-02  0.1093E-01  0.2693E-02  0.6889E-02  0.9496E-02  0.6929E-01  0.8518E-02  0.7985E-01  0.3699E-02  0.7698E-01  0.4332E-02  0.7985E-01  0.3699E-02  0.6929E-01  0.8518E-02
      3.187  0.7230E-01  0.2905E-01  0.9668E-02  0.4798E-02  0.9070E-02  0.3758E-02  0.9668E-02  0.4798E-02  0.1406E+00  0.3700E-02  0.1213E+00  0.3996E-02  0.1139E+00  0.3374E-02  0.1213E+00  0.3996E-02  0.1406E+00  0.3700E-02
      3.331  0.6217E-01  0.6294E-01  0.1142E-01  0.7456E-02  0.1235E-01  0.1542E-01  0.1142E-01  0.7456E-02  0.1730E+00  0.6762E-02  0.1283E+00  0.1068E-01  0.1711E+00  0.1416E-01  0.1283E+00  0.1068E-01  0.1730E+00  0.6762E-02
      3.476  0.3664E-01  0.3834E-01  0.1043E-01  0.6960E-02  0.1203E-01  0.4659E-02  0.1043E-01  0.6960E-02  0.1777E+00  0.9826E-02  0.2447E+00  0.8384E-02  0.2026E+00  0.4266E-02  0.2447E+00  0.8384E-02  0.1777E+00  0.9826E-02
      3.620  0.2530E-01  0.4297E-01  0.1323E-01  0.5463E-02  0.1525E-01  0.9071E-02  0.1323E-01  0.5463E-02  0.1349E+00  0.1040E-01  0.2485E+00  0.1247E-01  0.1865E+00  0.1369E-01  0.2485E+00  0.1247E-01  0.1349E+00  0.1040E-01
      3.765  0.1510E-01  0.3022E-01  0.1428E-01  0.5475E-02  0.1185E-01  0.3964E-02  0.1428E-01  0.5475E-02  0.2043E+00  0.9770E-02  0.1910E+00  0.5149E-02  0.2997E+00  0.2299E-01  0.1910E+00  0.5149E-02  0.2043E+00  0.9770E-02
      3.909  0.9556E-02  0.1053E+00  0.1617E-01  0.1962E-01  0.1226E-01  0.1432E-01  0.1617E-01  0.1962E-01  0.3046E+00  0.5374E-01  0.1801E+00  0.4301E-01  0.2868E+00  0.3776E-01  0.1801E+00  0.4301E-01  0.3046E+00  0.5374E-01
      4.054  0.1150E-01  0.6698E-01  0.1960E-01  0.9295E-02  0.1364E-01  0.1184E-01  0.1960E-01  0.9295E-02  0.3611E+00  0.3775E-01  0.2057E+00  0.4103E-01  0.3009E+00  0.4588E-01  0.2057E+00  0.4103E-01  0.3611E+00  0.3775E-01
      4.199  0.8839E-02  0.4208E-01  0.1288E-01  0.6086E-02  0.1135E-01  0.7921E-02  0.1288E-01  0.6086E-02  0.2471E+00  0.2810E-01  0.1320E+00  0.3849E-01  0.2011E+00  0.4441E-01  0.1320E+00  0.3849E-01  0.2471E+00  0.2810E-01
      4.343  0.7347E-02  0.4529E-01  0.1187E-01  0.7648E-02  0.1419E-01  0.8396E-02  0.1187E-01  0.7648E-02  0.2381E+00  0.4835E-01  0.3461E+00  0.6299E-01  0.4015E+00  0.2802E-01  0.3461E+00  0.6299E-01  0.2381E+00  0.4835E-01
      4.488  0.1289E-01  0.4954E-01  0.1490E-01  0.1197E-01  0.1614E-01  0.1664E-01  0.1490E-01  0.1197E-01  0.3451E+00  0.6627E-01  0.4520E+00  0.6376E-01  0.4434E+00  0.6413E-01  0.4520E+00  0.6376E-01  0.3451E+00  0.6627E-01
      4.632  0.1455E-01  0.3801E-01  0.1284E-01  0.1103E-01  0.1943E-01  0.8135E-02  0.1284E-01  0.1103E-01  0.4450E+00  0.9554E-01  0.4775E+00  0.6807E-01  0.3191E+00  0.8367E-01  0.4775E+00  0.6807E-01  0.4450E+00  0.9554E-01