    2    2  100    2
  0.1439176E+02  0.2741503E-09  0.2741503E-09  0.4422174E-09  0.5000000E-15
  1.000000000000000E-004
  CAR 
 Co-hcc                                  
     18     95     24
 
  0.0000000E+00  0.0000000E+00  0.0000000E+00  0.8680556E-03
      1         -0.554701       -0.624193   1.000000   1.000000
      2          2.757100        3.791763   1.000000   1.000000
      3          4.459570        6.242906   1.000000   1.000000
      4          4.466807        6.261791   1.000000   1.000000
      5          4.466807        6.261792   1.000000   1.000000
      6          4.659031        6.502018   1.000000   1.000000
      7          4.659031        6.502019   1.000000   1.000000
      8          4.863127        6.782070   1.000000   0.853170
      9          4.863127        6.782070   1.000000   0.853167
     10          5.575876        6.800238   1.000000   0.704113
     11          5.575876        7.604694   1.000000   0.000000
     12          6.964424        7.604694   0.000020   0.000000
     13         11.013689       12.021432   0.000000   0.000000
     14         26.341843       25.941970   0.000000   0.000000
     15         26.533674       26.842502   0.000000   0.000000
     16         26.533676       26.842511   0.000000   0.000000
     17         28.141780       28.372835   0.000000   0.000000
     18         28.141787       28.372844   0.000000   0.000000
     19         28.623266       28.380916   0.000000   0.000000
     20         29.203365       28.920660   0.000000   0.000000
     21         32.928877       33.055369   0.000000   0.000000
     22         33.248561       33.064749   0.000000   0.000000
     23         33.248563       33.064751   0.000000   0.000000
     24         34.101699       33.889873   0.000000   0.000000
 
  0.8333333E-01 -0.1387779E-16  0.0000000E+00  0.5208333E-02
      1         -0.358017       -0.427000   1.000000   1.000000
      2          2.862946        3.922828   1.000000   1.000000
      3          4.322968        6.073482   1.000000   1.000000
      4          4.539587        6.300190   1.000000   1.000000
      5          4.582944        6.345407   1.000000   1.000000
      6          4.633138        6.394579   1.000000   1.000000
      7          4.723245        6.461042   1.000000   1.000000
      8          4.783945        6.575756   1.000000   1.000000
      9          4.819920        6.728466   1.000000   0.994860
     10          5.209704        6.744334   1.000000   0.982889
     11          5.593710        7.627194   1.000000   0.000000
     12          7.566207        8.286189   0.000000   0.000000
     13         11.072245       12.051493   0.000000   0.000000
     14         23.513905       23.667123   0.000000   0.000000
     15         24.950726       25.220419   0.000000   0.000000
     16         25.896049       25.801019   0.000000   0.000000
     17         29.162977       28.954181   0.000000   0.000000
     18         29.268540       28.981510   0.000000   0.000000
     19         29.965350       30.199969   0.000000   0.000000
     20         30.349054       30.232211   0.000000   0.000000
     21         30.589428       30.814733   0.000000   0.000000
     22         32.178810       32.418323   0.000000   0.000000
     23         32.502317       32.434782   0.000000   0.000000
     24         32.505850       32.660074   0.000000   0.000000
 
  0.1666667E+00 -0.2775558E-16  0.0000000E+00  0.5208333E-02
      1          0.215953        0.152384   1.000000   1.000000
      2          3.124757        4.265260   1.000000   1.000000
      3          4.159554        5.703938   1.000000   1.000000
      4          4.403854        5.839690   1.000000   1.000000
      5          4.528810        6.309673   1.000000   1.000000
      6          4.712277        6.582219   1.000000   1.000000
      7          4.744181        6.595927   1.000000   1.000000
      8          4.778525        6.614154   1.000000   1.000000
      9          4.898662        6.638594   1.000000   1.000000
     10          4.902306        6.781903   1.000000   0.854251
     11          5.632078        7.674899   1.000000   0.000000
     12          8.730989        9.424649   0.000000   0.000000
     13         11.270525       12.161415   0.000000   0.000000
     14         19.976763       20.243549   0.000000   0.000000
     15         23.030253       23.268742   0.000000   0.000000
     16         25.072228       25.055542   0.000000   0.000000
     17         26.790612       26.743398   0.000000   0.000000
     18         28.143471       28.504092   0.000000   0.000000
     19         29.383987       29.029151   0.000000   0.000000
     20         30.677737       30.616395   0.000000   0.000000
     21         31.125589       31.358537   0.000000   0.000000
     22         31.352791       31.555494   0.000000   0.000000
     23         31.536574       31.822124   0.000000   0.000000
     24         32.700181       32.906974   0.000000   0.000000
 
  0.2500000E+00  0.0000000E+00  0.0000000E+00  0.5208333E-02
      1          1.102581        1.070529   1.000000   1.000000
      2          3.338295        4.629563   1.000000   1.000000
      3          3.935278        5.250877   1.000000   1.000000
      4          4.075036        5.620224   1.000000   1.000000
      5          4.475483        6.198897   1.000000   1.000000
      6          4.581396        6.436040   1.000000   1.000000
      7          4.758026        6.494716   1.000000   1.000000
      8          5.038017        6.904192   1.000000   0.008108
      9          5.055353        6.927692   1.000000   0.001075
     10          5.158269        7.078119   1.000000   0.000000
     11          5.669144        7.720160   1.000000   0.000000
     12         10.141971       10.763970   0.000000   0.000000
     13         11.660516       12.398409   0.000000   0.000000
     14         16.673488       17.053915   0.000000   0.000000
     15         21.379028       21.575061   0.000000   0.000000
     16         23.726459       23.795238   0.000000   0.000000
     17         23.858275       23.969887   0.000000   0.000000
     18         25.591561       26.023041   0.000000   0.000000
     19         28.271034       27.997296   0.000000   0.000000
     20         29.573566       29.960331   0.000000   0.000000
     21         30.782990       30.865319   0.000000   0.000000
     22         31.430593       31.405826   0.000000   0.000000
     23         31.945259       32.068090   0.000000   0.000000
     24         34.656188       34.760317   0.000000   0.000000
 
  0.3333333E+00  0.0000000E+00  0.0000000E+00  0.5208333E-02
      1          2.108505        2.222641   1.000000   1.000000
      2          3.304105        4.721966   1.000000   1.000000
      3          3.585582        4.945238   1.000000   1.000000
      4          4.180845        5.504611   1.000000   1.000000
      5          4.462499        6.258300   1.000000   1.000000
      6          4.561621        6.291595   1.000000   1.000000
      7          4.645665        6.350824   1.000000   1.000000
      8          5.345910        7.298002   1.000000   0.000000
      9          5.434072        7.331725   1.000000   0.000000
     10          5.518332        7.399615   1.000000   0.000000
     11          5.695039        7.751247   1.000000   0.000000
     12         11.737364       12.266055   0.000000   0.000000
     13         12.070586       12.598467   0.000000   0.000000
     14         13.971949       14.517299   0.000000   0.000000
     15         20.093023       20.236145   0.000000   0.000000
     16         20.962103       21.144058   0.000000   0.000000
     17         21.342146       21.655736   0.000000   0.000000
     18         24.670338       25.005139   0.000000   0.000000
     19         27.250821       26.989237   0.000000   0.000000
     20         28.183417       28.516632   0.000000   0.000000
     21         30.263095       30.391349   0.000000   0.000000
     22         31.815038       31.897275   0.000000   0.000000
     23         33.516689       33.625909   0.000000   0.000000
     24         35.844991       35.890567   0.000000   0.000000
 
  0.4166667E+00  0.0000000E+00  0.0000000E+00  0.5208333E-02
      1          2.799542        3.354328   1.000000   1.000000
      2          3.181076        4.591767   1.000000   1.000000
      3          3.376728        4.772370   1.000000   1.000000
      4          4.380791        5.453071   1.000000   1.000000
      5          4.470823        6.192671   1.000000   1.000000
      6          4.567594        6.245012   1.000000   1.000000
      7          4.696720        6.413787   1.000000   1.000000
      8          5.572139        7.572549   1.000000   0.000000
      9          5.660007        7.670131   1.000000   0.000000
     10          5.708998        7.767751   1.000000   0.000000
     11          6.385063        7.965112   1.000000   0.000000
     12         10.496037       11.181007   0.000000   0.000000
     13         13.432921       13.845855   0.000000   0.000000
     14         14.011952       14.442610   0.000000   0.000000
     15         18.573124       18.881340   0.000000   0.000000
     16         18.801541       19.211099   0.000000   0.000000
     17         19.263803       19.358014   0.000000   0.000000
     18         24.368811       24.706255   0.000000   0.000000
     19         26.606971       26.338563   0.000000   0.000000
     20         27.299821       27.592970   0.000000   0.000000
     21         29.960727       30.117350   0.000000   0.000000
     22         32.029202       32.180611   0.000000   0.000000
     23         35.511132       35.641718   0.000000   0.000000
     24         36.629665       36.591274   0.000000   0.000000
 
  0.5000000E+00  0.0000000E+00  0.0000000E+00  0.2604167E-02
      1          3.007830        3.923786   1.000000   1.000000
      2          3.099671        4.455944   1.000000   1.000000
      3          3.307616        4.716869   1.000000   1.000000
      4          4.351821        5.452646   1.000000   1.000000
      5          4.539459        6.157658   1.000000   1.000000
      6          4.660325        6.206084   1.000000   1.000000
      7          4.743265        6.474253   1.000000   1.000000
      8          5.653834        7.670687   1.000000   0.000000
      9          5.713296        7.772785   1.000000   0.000000
     10          5.749955        7.781402   1.000000   0.000000
     11          7.475815        8.642389   0.000000   0.000000
     12          8.847437        9.867222   0.000000   0.000000
     13         14.561002       14.859186   0.000000   0.000000
     14         14.868546       15.143134   0.000000   0.000000
     15         17.215389       17.641797   0.000000   0.000000
     16         17.378554       17.890654   0.000000   0.000000
     17         18.975338       19.048799   0.000000   0.000000
     18         24.282861       24.627180   0.000000   0.000000
     19         26.388575       26.116318   0.000000   0.000000
     20         26.996104       27.273958   0.000000   0.000000
     21         29.861696       30.027938   0.000000   0.000000
     22         32.106618       32.283326   0.000000   0.000000
     23         36.910009       36.807529   0.000000   0.000000
     24         37.650422       37.961845   0.000000   0.000000
 
  0.8333333E-01  0.8333333E-01  0.0000000E+00  0.5208333E-02
      1          0.027836       -0.038458   1.000000   1.000000
      2          3.050680        4.162156   1.000000   1.000000
      3          4.192419        5.856707   1.000000   1.000000
      4          4.557995        5.898610   1.000000   1.000000
      5          4.569288        6.366183   1.000000   1.000000
      6          4.683613        6.511393   1.000000   1.000000
      7          4.688004        6.515567   1.000000   1.000000
      8          4.698714        6.571952   1.000000   1.000000
      9          4.865559        6.734574   1.000000   0.991656
     10          4.976775        6.735061   1.000000   0.991338
     11          5.616273        7.655118   1.000000   0.000000
     12          8.391405        9.100078   0.000000   0.000000
     13         11.201670       12.122574   0.000000   0.000000
     14         21.743574       21.908848   0.000000   0.000000
     15         21.857901       22.138854   0.000000   0.000000
     16         27.088219       27.038509   0.000000   0.000000
     17         28.317747       28.199506   0.000000   0.000000
     18         28.411097       28.271668   0.000000   0.000000
     19         28.481917       28.362813   0.000000   0.000000
     20         30.065312       30.513132   0.000000   0.000000
     21         30.397669       30.514320   0.000000   0.000000
     22         30.401479       30.887068   0.000000   0.000000
     23         33.680925       33.794040   0.000000   0.000000
     24         34.091000       34.092596   0.000000   0.000000
 
  0.1666667E+00  0.8333333E-01  0.0000000E+00  0.1041667E-01
      1          0.763593        0.712624   1.000000   1.000000
      2          3.318262        4.537161   1.000000   1.000000
      3          4.031460        5.408159   1.000000   1.000000
      4          4.112696        5.654680   1.000000   1.000000
      5          4.498469        6.245604   1.000000   1.000000
      6          4.563397        6.393035   1.000000   1.000000
      7          4.845576        6.640808   1.000000   1.000000
      8          4.854045        6.696507   1.000000   0.999740
      9          4.957504        6.824510   1.000000   0.440275
     10          5.132297        7.026048   1.000000   0.000000
     11          5.644430        7.689624   1.000000   0.000000
     12          9.623386       10.277257   0.000000   0.000000
     13         11.506628       12.307837   0.000000   0.000000
     14         18.380702       18.691909   0.000000   0.000000
     15         20.286912       20.533935   0.000000   0.000000
     16         25.326537       25.321075   0.000000   0.000000
     17         25.823705       25.928152   0.000000   0.000000
     18         27.135062       27.061396   0.000000   0.000000
     19         27.526480       27.780135   0.000000   0.000000
     20         28.191267       28.502182   0.000000   0.000000
     21         31.088970       31.026602   0.000000   0.000000
     22         31.359657       31.642581   0.000000   0.000000
     23         33.543465       33.608368   0.000000   0.000000
     24         33.896154       34.006797   0.000000   0.000000
 
  0.2500000E+00  0.8333333E-01  0.0000000E+00  0.1041667E-01
      1          1.737111        1.758221   1.000000   1.000000
      2          3.412958        4.788084   1.000000   1.000000
      3          3.729336        5.071325   1.000000   1.000000
      4          4.009916        5.471623   1.000000   1.000000
      5          4.447207        6.213583   1.000000   1.000000
      6          4.512252        6.240413   1.000000   1.000000
      7          4.729206        6.490627   1.000000   1.000000
      8          5.101389        6.979856   1.000000   0.000003
      9          5.272738        7.196164   1.000000   0.000000
     10          5.504266        7.399211   1.000000   0.000000
     11          5.668326        7.718554   1.000000   0.000000
     12         11.101225       11.675254   0.000000   0.000000
     13         12.022214       12.643456   0.000000   0.000000
     14         15.275030       15.714196   0.000000   0.000000
     15         19.030508       19.264197   0.000000   0.000000
     16         22.415268       22.533580   0.000000   0.000000
     17         22.976539       23.266300   0.000000   0.000000
     18         26.067089       25.987723   0.000000   0.000000
     19         26.669321       26.920734   0.000000   0.000000
     20         27.029902       27.332071   0.000000   0.000000
     21         31.863961       31.733605   0.000000   0.000000
     22         33.182008       33.299145   0.000000   0.000000
     23         33.348348       33.516177   0.000000   0.000000
     24         34.466656       34.589151   0.000000   0.000000
 
  0.3333333E+00  0.8333333E-01  0.0000000E+00  0.1041667E-01
      1          2.629451        2.933776   1.000000   1.000000
      2          3.303270        4.732472   1.000000   1.000000
      3          3.469388        4.857857   1.000000   1.000000
      4          4.197200        5.400823   1.000000   1.000000
      5          4.369630        6.144560   1.000000   1.000000
      6          4.610814        6.331509   1.000000   1.000000
      7          4.641080        6.351273   1.000000   1.000000
      8          5.417044        7.345422   1.000000   0.000000
      9          5.538166        7.513933   1.000000   0.000000
     10          5.683440        7.736544   1.000000   0.000000
     11          6.097654        7.854830   1.000000   0.000000
     12         11.716958       12.247419   0.000000   0.000000
     13         12.754638       13.229750   0.000000   0.000000
     14         13.697352       14.217009   0.000000   0.000000
     15         18.100968       18.302004   0.000000   0.000000
     16         19.819900       20.057182   0.000000   0.000000
     17         20.180972       20.545041   0.000000   0.000000
     18         25.329608       25.237182   0.000000   0.000000
     19         26.131891       26.423804   0.000000   0.000000
     20         26.176773       26.436777   0.000000   0.000000
     21         31.737261       31.682367   0.000000   0.000000
     22         33.533931       33.666593   0.000000   0.000000
     23         34.751513       34.896052   0.000000   0.000000
     24         36.222068       36.249330   0.000000   0.000000
 
  0.4166667E+00  0.8333333E-01  0.0000000E+00  0.1041667E-01
      1          3.035907        3.857011   1.000000   1.000000
      2          3.193335        4.574383   1.000000   1.000000
      3          3.340044        4.756557   1.000000   1.000000
      4          4.336200        5.377239   1.000000   1.000000
      5          4.478893        6.119922   1.000000   1.000000
      6          4.534097        6.210769   1.000000   1.000000
      7          4.741533        6.476466   1.000000   1.000000
      8          5.634027        7.633434   1.000000   0.000000
      9          5.679195        7.686325   1.000000   0.000000
     10          5.690218        7.744476   1.000000   0.000000
     11          7.233507        8.536070   0.000000   0.000000
     12          9.574337       10.428940   0.000000   0.000000
     13         14.373848       14.723576   0.000000   0.000000
     14         14.705193       15.035394   0.000000   0.000000
     15         17.498035       17.719624   0.000000   0.000000
     16         17.734716       18.106298   0.000000   0.000000
     17         18.054129       18.460820   0.000000   0.000000
     18         24.953278       24.852035   0.000000   0.000000
     19         25.643424       25.924779   0.000000   0.000000
     20         25.945440       26.213421   0.000000   0.000000
     21         31.541228       31.524211   0.000000   0.000000
     22         33.638700       33.804796   0.000000   0.000000
     23         36.842222       36.823393   0.000000   0.000000
     24         36.910786       36.993536   0.000000   0.000000
 
  0.1666667E+00  0.1666667E+00  0.0000000E+00  0.5208333E-02
      1          1.604222        1.598086   1.000000   1.000000
      2          3.531572        4.848679   1.000000   1.000000
      3          3.805559        5.137816   1.000000   1.000000
      4          3.852978        5.404425   1.000000   1.000000
      5          4.405977        6.191168   1.000000   1.000000
      6          4.509374        6.218468   1.000000   1.000000
      7          4.784265        6.563587   1.000000   1.000000
      8          4.951168        6.825040   1.000000   0.434370
      9          5.267841        7.180023   1.000000   0.000000
     10          5.518207        7.406713   1.000000   0.000000
     11          5.645653        7.690801   1.000000   0.000000
     12         10.884835       11.478085   0.000000   0.000000
     13         11.981708       12.640449   0.000000   0.000000
     14         17.045041       17.385532   0.000000   0.000000
     15         17.073224       17.398424   0.000000   0.000000
     16         24.103868       24.095331   0.000000   0.000000
     17         24.202572       24.294278   0.000000   0.000000
     18         24.710167       24.985377   0.000000   0.000000
     19         25.138815       25.432835   0.000000   0.000000
     20         29.433258       29.577907   0.000000   0.000000
     21         31.168819       31.444401   0.000000   0.000000
     22         32.130762       32.016992   0.000000   0.000000
     23         34.859493       34.952039   0.000000   0.000000
     24         36.009610       36.063147   0.000000   0.000000
 
  0.2500000E+00  0.1666667E+00  0.0000000E+00  0.1041667E-01
      1          2.543372        2.700469   1.000000   1.000000
      2          3.530479        4.946660   1.000000   1.000000
      3          3.562124        4.949309   1.000000   1.000000
      4          3.853203        5.247206   1.000000   1.000000
      5          4.310934        6.057731   1.000000   1.000000
      6          4.607473        6.311286   1.000000   1.000000
      7          4.665039        6.411204   1.000000   1.000000
      8          5.145887        7.048428   1.000000   0.000000
      9          5.541877        7.508371   1.000000   0.000000
     10          5.644326        7.689041   1.000000   0.000000
     11          6.089871        7.880394   1.000000   0.000000
     12         12.408219       12.923661   0.000000   0.000000
     13         12.596959       13.079249   0.000000   0.000000
     14         14.287098       14.760246   0.000000   0.000000
     15         16.045099       16.370971   0.000000   0.000000
     16         21.393367       21.564230   0.000000   0.000000
     17         21.894505       22.225804   0.000000   0.000000
     18         23.315738       23.347734   0.000000   0.000000
     19         23.993032       24.299262   0.000000   0.000000
     20         29.491613       29.673675   0.000000   0.000000
     21         33.421964       33.256275   0.000000   0.000000
     22         33.551806       33.737360   0.000000   0.000000
     23         35.459961       35.518440   0.000000   0.000000
     24         35.846244       35.945725   0.000000   0.000000
 
  0.3333333E+00  0.1666667E+00  0.0000000E+00  0.1041667E-01
      1          3.145018        3.759172   1.000000   1.000000
      2          3.402527        4.810754   1.000000   1.000000
      3          3.412483        4.845673   1.000000   1.000000
      4          4.086928        5.219254   1.000000   1.000000
      5          4.283648        6.016054   1.000000   1.000000
      6          4.538268        6.239835   1.000000   1.000000
      7          4.739017        6.477198   1.000000   1.000000
      8          5.401893        7.343873   1.000000   0.000000
      9          5.642654        7.675250   1.000000   0.000000
     10          5.674973        7.686757   1.000000   0.000000
     11          7.064094        8.517501   0.000000   0.000000
     12         11.061786       11.683981   0.000000   0.000000
     13         14.096503       14.515919   0.000000   0.000000
     14         14.395147       14.793201   0.000000   0.000000
     15         15.406266       15.709336   0.000000   0.000000
     16         18.980685       19.265826   0.000000   0.000000
     17         19.284753       19.668900   0.000000   0.000000
     18         22.802782       22.836905   0.000000   0.000000
     19         23.355899       23.656402   0.000000   0.000000
     20         29.161046       29.360017   0.000000   0.000000
     21         34.167534       33.971522   0.000000   0.000000
     22         35.986462       36.019789   0.000000   0.000000
     23         36.607394       36.750650   0.000000   0.000000
     24         36.613479       36.761720   0.000000   0.000000
 
  0.4166667E+00  0.1666667E+00  0.0000000E+00  0.5208333E-02
      1          3.282599        4.262593   1.000000   1.000000
      2          3.345871        4.712383   1.000000   1.000000
      3          3.362605        4.813619   1.000000   1.000000
      4          4.249686        5.204518   1.000000   1.000000
      5          4.291792        6.041537   1.000000   1.000000
      6          4.474047        6.135572   1.000000   1.000000
      7          4.793986        6.550524   1.000000   1.000000
      8          5.572001        7.550040   1.000000   0.000000
      9          5.641915        7.662925   1.000000   0.000000
     10          5.660918        7.685728   1.000000   0.000000
     11          8.310228        9.274594   0.000000   0.000000
     12          9.276122       10.253892   0.000000   0.000000
     13         15.055454       15.352339   0.000000   0.000000
     14         15.304845       15.625042   0.000000   0.000000
     15         15.488264       15.761855   0.000000   0.000000
     16         17.533022       17.922949   0.000000   0.000000
     17         17.799903       18.263404   0.000000   0.000000
     18         22.631062       22.665946   0.000000   0.000000
     19         23.136062       23.432174   0.000000   0.000000
     20         29.037915       29.241351   0.000000   0.000000
     21         34.242350       34.069287   0.000000   0.000000
     22         36.393696       36.528619   0.000000   0.000000
     23         37.163884       37.037901   0.000000   0.000000
     24         38.490941       38.457229   0.000000   0.000000
 
  0.2500000E+00  0.2500000E+00  0.0000000E+00  0.5208333E-02
      1          3.227597        3.719145   1.000000   1.000000
      2          3.454034        4.897079   1.000000   1.000000
      3          3.658572        5.027613   1.000000   1.000000
      4          3.731265        5.046281   1.000000   1.000000
      5          4.247202        5.955873   1.000000   1.000000
      6          4.546028        6.256562   1.000000   1.000000
      7          4.743551        6.479428   1.000000   1.000000
      8          5.257989        7.186132   1.000000   0.000000
      9          5.618215        7.657441   1.000000   0.000000
     10          5.679427        7.678311   1.000000   0.000000
     11          7.033542        8.534207   0.000000   0.000000
     12         12.661178       13.086093   0.000000   0.000000
     13         13.240963       13.705990   0.000000   0.000000
     14         13.985874       14.432081   0.000000   0.000000
     15         14.585588       15.002128   0.000000   0.000000
     16         20.305855       20.589529   0.000000   0.000000
     17         20.852617       21.194263   0.000000   0.000000
     18         21.171085       21.217434   0.000000   0.000000
     19         21.435651       21.761893   0.000000   0.000000
     20         32.358996       32.475310   0.000000   0.000000
     21         33.504093       33.720761   0.000000   0.000000
     22         35.106765       34.940786   0.000000   0.000000
     23         36.674286       36.672719   0.000000   0.000000
     24         38.623162       38.509960   0.000000   0.000000
 
  0.3333333E+00  0.2500000E+00  0.0000000E+00  0.1041667E-01
      1          3.403042        4.453915   1.000000   1.000000
      2          3.470443        4.887088   1.000000   1.000000
      3          3.577242        4.917809   1.000000   1.000000
      4          3.944080        5.040893   1.000000   1.000000
      5          4.260776        5.954582   1.000000   1.000000
      6          4.423257        6.096118   1.000000   1.000000
      7          4.850920        6.619358   1.000000   1.000000
      8          5.430216        7.386211   1.000000   0.000000
      9          5.602713        7.638656   1.000000   0.000000
     10          5.645100        7.641368   1.000000   0.000000
     11          8.492959        9.530832   0.000000   0.000000
     12         10.594835       11.279343   0.000000   0.000000
     13         12.669927       13.119679   0.000000   0.000000
     14         15.687107       16.051291   0.000000   0.000000
     15         15.810719       16.120211   0.000000   0.000000
     16         18.342706       18.663398   0.000000   0.000000
     17         18.773775       19.166309   0.000000   0.000000
     18         20.611184       20.730826   0.000000   0.000000
     19         20.807207       21.135573   0.000000   0.000000
     20         32.594037       32.746236   0.000000   0.000000
     21         36.313345       36.374047   0.000000   0.000000
     22         36.600170       36.378319   0.000000   0.000000
     23         37.911641       37.903418   0.000000   0.000000
     24         38.782726       38.750039   0.000000   0.000000
 
  0.3333333E+00  0.3333333E+00  0.0000000E+00  0.1736111E-02
      1          3.406411        4.812560   1.000000   1.000000
      2          3.620323        4.812562   1.000000   1.000000
      3          3.620323        4.915753   1.000000   1.000000
      4          3.877657        5.038508   1.000000   1.000000
      5          4.313973        5.981248   1.000000   1.000000
      6          4.313973        5.981248   1.000000   1.000000
      7          4.913937        6.693759   1.000000   0.999806
      8          5.520660        7.495073   1.000000   0.000000
      9          5.520661        7.495074   1.000000   0.000000
     10          5.586630        7.619354   1.000000   0.000000
     11         10.214337       10.870792   0.000000   0.000000
     12         10.495741       11.202163   0.000000   0.000000
     13         10.495745       11.202166   0.000000   0.000000
     14         16.771375       17.023498   0.000000   0.000000
     15         17.323508       17.652033   0.000000   0.000000