 vasp.6.3.2 27Jun22 (build Aug 12 2022 00:53:59) complex                        
  
 executed on               tv2STD date 2024.12.03  01:30:56
 running   24 mpi-ranks, with    1 threads/rank
 distrk:  each k-point on   24 cores,    1 groups
 distr:  one band on NCORE=   1 cores,   24 groups


--------------------------------------------------------------------------------------------------------


 INCAR:
   SYSTEM = Co-hcc
   NWRITE = 2    write-flag
   ISTART = 0    job   : 0-new, 1-cont, 2-samecut
   ICHARG = 2    charge: 0-wave, 1-file, 2-atom, >10-const
   INIWAV = 1    electr: 0-lowe 1-rand  2-diag
   ENCUT = 425.0     energy cutoff in eV
   PREC = Accurate      normal | accurate
   ADDGRID = .FALSE.  (use fine grid)
   NELM = 100     number of ELM steps
   EDIFF = 1E-06    energy stopping-criterion for ELM
   LREAL = .FALSE.      real-space projection (.FALSE., .TRUE., On, Auto)
   ALGO = Normal     Normal, Fast, Very_Fast
   LWAVE = .FALSE.
   LCHARG = .FALSE.
   NSW = 100       max number of geometry steps
   IBRION = 2     ionic relax: 0-MD, 1-quasi-Newton, 2-CG, 3-Damped MD
   EDIFFG = -0.02  force (eV/A) stopping-criterion for geometry steps
   ISIF = 2     (1:force\=y stress\=trace only ions\=y shape\=n volume\=n)
   ISYM = 1     (1-use symmetry, 0-no symmetry)
   ISMEAR = 0     (-1-Fermi, 1-Methfessel/Paxton)
   SIGMA = 0.05   broadening in eV
   LORBIT = 11
   ISPIN = 2
   MAGMOM = 2*3

 POTCAR:    PAW_PBE Co 02Aug2007                  
 POTCAR:    PAW_PBE Co 02Aug2007                  
   SHA256 =  0e690c60710354995174544f52f9f2c30879afabeffe3b3fbd4001cb294e56d4 Co/POTCAR             
   COPYR  = (c) Copyright 02Aug2007 Georg Kresse                                                    
   COPYR  = This file is part of the software VASP. Any use, copying, and all other rights are regul
   COPYR  = If you do not have a valid VASP license, you may not use, copy or distribute this file. 
   VRHFIN =Co: d8 s1                                                                                
   LEXCH  = PE                                                                                      
   EATOM  =   813.3670 eV,   59.7808 Ry                                                             
                                                                                                    
   TITEL  = PAW_PBE Co 02Aug2007                                                                    
   LULTRA =        F    use ultrasoft PP ?                                                          
   IUNSCR =        1    unscreen: 0-lin 1-nonlin 2-no                                               
   RPACOR =    2.000    partial core radius                                                         
   POMASS =   58.933; ZVAL   =    9.000    mass and valenz                                          
   RCORE  =    2.300    outmost cutoff radius                                                       
   RWIGS  =    2.460; RWIGS  =    1.302    wigner-seitz radius (au A)                               
   ENMAX  =  267.968; ENMIN  =  200.976 eV                                                          
   RCLOC  =    1.203    cutoff for local pot                                                        
   LCOR   =        T    correct aug charges                                                         
   LPAW   =        T    paw PP                                                                      
   EAUG   =  477.818                                                                                
   DEXC   =    0.000                                                                                
   RMAX   =    2.360    core radius for proj-oper                                                   
   RAUG   =    1.300    factor for augmentation sphere                                              
   RDEP   =    2.393    radius for radial grids                                                     
   RDEPT  =    1.864    core radius for aug-charge                                                  
                                                                                                    
   Atomic configuration                                                                             
    9 entries                                                                                       
     n  l   j            E        occ.                                                              
     1  0  0.50     -7587.6674   2.0000                                                             
     2  0  0.50      -893.6084   2.0000                                                             
     2  1  1.50      -764.5805   6.0000                                                             
     3  0  0.50       -97.5973   2.0000                                                             
     3  1  1.50       -60.9648   6.0000                                                             
     3  2  2.50        -4.2382   8.0000                                                             
     4  0  0.50        -4.3746   1.0000                                                             
     4  1  1.50        -4.0817   0.0000                                                             
     4  3  2.50        -1.3606   0.0000                                                             
   Description                                                                                      
     l       E           TYP  RCUT    TYP  RCUT                                                     
     2     -4.2382362     23  2.300                                                                 
     2     -5.5988188     23  2.300                                                                 
     0     -4.3745797     23  2.300                                                                 
     0      5.7660125     23  2.300                                                                 
     1     -2.7211652     23  2.300                                                                 
     1     16.9860234     23  2.300                                                                 
  local pseudopotential read in
  partial core-charges read in
  partial kinetic energy density read in
  atomic valenz-charges read in
  non local Contribution for L=           2  read in
    real space projection operators read in
  non local Contribution for L=           2  read in
    real space projection operators read in
  non local Contribution for L=           0  read in
    real space projection operators read in
  non local Contribution for L=           0  read in
    real space projection operators read in
  non local Contribution for L=           1  read in
    real space projection operators read in
  non local Contribution for L=           1  read in
    real space projection operators read in
    PAW grid and wavefunctions read in
 
   number of l-projection  operators is LMAX  =           6
   number of lm-projection operators is LMMAX =          18
 
  PAW_PBE Co 02Aug2007                  :
 energy of atom  1       EATOM= -813.3670
 kinetic energy error for atom=    0.0054 (will be added to EATOM!!)
 
 
 POSCAR: Co
  positions in cartesian coordinates
  No initial velocities read in
 exchange correlation table for  LEXCH =        8
   RHO(1)=    0.500       N(1)  =     2000
   RHO(2)=  100.500       N(2)  =     4000
 


--------------------------------------------------------------------------------------------------------


 ion  position               nearest neighbor table
   1  0.333  0.667  0.250-   2 2.72   2 2.72   2 2.72   2 2.72   2 2.72   2 2.72
   2  0.667  0.333  0.750-   1 2.72   1 2.72   1 2.72   1 2.72   1 2.72   1 2.72
 
  LATTYP: Found a hexagonal cell.
 ALAT       =     2.7415031709
 C/A-ratio  =     1.6130472937
  
  Lattice vectors:
  
 A1 = (   1.3707515854,  -2.3742113905,   0.0000000000)
 A2 = (   1.3707515854,   2.3742113905,   0.0000000000)
 A3 = (   0.0000000000,   0.0000000000,   4.4221742705)


Analysis of symmetry for initial positions (statically):
=====================================================================
 Subroutine PRICEL returns:
 Original cell was already a primitive cell.
 

 Routine SETGRP: Setting up the symmetry group for a 
 hexagonal supercell.


 Subroutine GETGRP returns: Found 24 space group operations
 (whereof 12 operations were pure point group operations)
 out of a pool of 24 trial point group operations.


The static configuration has the point symmetry D_3d.
 The point group associated with its full space group is D_6h.


Analysis of symmetry for dynamics (positions and initial velocities):
=====================================================================
 Subroutine PRICEL returns:
 Original cell was already a primitive cell.
 

 Routine SETGRP: Setting up the symmetry group for a 
 hexagonal supercell.


 Subroutine GETGRP returns: Found 24 space group operations
 (whereof 12 operations were pure point group operations)
 out of a pool of 24 trial point group operations.


The dynamic configuration has the point symmetry D_3d.
 The point group associated with its full space group is D_6h.


Analysis of structural, dynamic, and magnetic symmetry:
=====================================================================
 Subroutine PRICEL returns:
 Original cell was already a primitive cell.
 

 Routine SETGRP: Setting up the symmetry group for a 
 hexagonal supercell.


 Subroutine GETGRP returns: Found 24 space group operations
 (whereof 12 operations were pure point group operations)
 out of a pool of 24 trial point group operations.


The overall configuration has the point symmetry D_3d.
 The point group associated with its full space group is D_6h.


 Subroutine INISYM returns: Found 24 space group operations
 (whereof 12 operations are pure point group operations),
 and found     1 'primitive' translations


----------------------------------------------------------------------------------------

                                     Primitive cell                                     

  volume of cell :      28.7835

  direct lattice vectors                    reciprocal lattice vectors
     1.370751585 -2.374211391  0.000000000     0.364763394 -0.210596243  0.000000000
     1.370751585  2.374211391  0.000000000     0.364763394  0.210596243  0.000000000
     0.000000000  0.000000000  4.422174271     0.000000000  0.000000000  0.226133105

  length of vectors
     2.741503171  2.741503171  4.422174271     0.421192487  0.421192487  0.226133105

  position of ions in fractional coordinates (direct lattice)
     0.333333333  0.666666667  0.250000000
     0.666666667  0.333333333  0.750000000

  ion indices of the primitive-cell ions
   primitive index   ion index
                 1           1
                 2           2

----------------------------------------------------------------------------------------

 
 
 KPOINTS: Automatic mesh                          

Automatic generation of k-mesh.
 Grid dimensions read from file:
 generate k-points for:   12   12    8

 Generating k-lattice:

  Cartesian coordinates                     Fractional coordinates (reciprocal lattice)
     0.030396949 -0.017549687  0.000000000     0.083333333 -0.000000000  0.000000000
     0.030396949  0.017549687  0.000000000    -0.000000000  0.083333333  0.000000000
     0.000000000  0.000000000  0.028266638     0.000000000  0.000000000  0.125000000

  Length of vectors
     0.035099374  0.035099374  0.028266638

  Shift w.r.t. Gamma in fractional coordinates (k-lattice)
     0.000000000  0.000000000  0.000000000

 
 Subroutine IBZKPT returns following result:
 ===========================================
 
 Found     95 irreducible k-points:
 
 Following reciprocal coordinates:
            Coordinates               Weight
  0.000000  0.000000  0.000000      1.000000
  0.083333 -0.000000  0.000000      6.000000
  0.166667 -0.000000  0.000000      6.000000
  0.250000  0.000000  0.000000      6.000000
  0.333333  0.000000  0.000000      6.000000
  0.416667  0.000000  0.000000      6.000000
  0.500000  0.000000  0.000000      3.000000
  0.083333  0.083333  0.000000      6.000000
  0.166667  0.083333  0.000000     12.000000
  0.250000  0.083333  0.000000     12.000000
  0.333333  0.083333  0.000000     12.000000
  0.416667  0.083333  0.000000     12.000000
  0.166667  0.166667  0.000000      6.000000
  0.250000  0.166667  0.000000     12.000000
  0.333333  0.166667  0.000000     12.000000
  0.416667  0.166667  0.000000      6.000000
  0.250000  0.250000  0.000000      6.000000
  0.333333  0.250000  0.000000     12.000000
  0.333333  0.333333  0.000000      2.000000
  0.000000  0.000000  0.125000      2.000000
  0.083333 -0.000000  0.125000     12.000000
  0.166667 -0.000000  0.125000     12.000000
  0.250000  0.000000  0.125000     12.000000
  0.333333  0.000000  0.125000     12.000000
  0.416667  0.000000  0.125000     12.000000
  0.500000  0.000000  0.125000      6.000000
  0.083333  0.083333  0.125000     12.000000
  0.166667  0.083333  0.125000     24.000000
  0.250000  0.083333  0.125000     24.000000
  0.333333  0.083333  0.125000     24.000000
  0.416667  0.083333  0.125000     24.000000
  0.166667  0.166667  0.125000     12.000000
  0.250000  0.166667  0.125000     24.000000
  0.333333  0.166667  0.125000     24.000000
  0.416667  0.166667  0.125000     12.000000
  0.250000  0.250000  0.125000     12.000000
  0.333333  0.250000  0.125000     24.000000
  0.333333  0.333333  0.125000      4.000000
  0.000000  0.000000  0.250000      2.000000
  0.083333 -0.000000  0.250000     12.000000
  0.166667 -0.000000  0.250000     12.000000
  0.250000  0.000000  0.250000     12.000000
  0.333333  0.000000  0.250000     12.000000
  0.416667  0.000000  0.250000     12.000000
  0.500000  0.000000  0.250000      6.000000
  0.083333  0.083333  0.250000     12.000000
  0.166667  0.083333  0.250000     24.000000
  0.250000  0.083333  0.250000     24.000000
  0.333333  0.083333  0.250000     24.000000
  0.416667  0.083333  0.250000     24.000000
  0.166667  0.166667  0.250000     12.000000
  0.250000  0.166667  0.250000     24.000000
  0.333333  0.166667  0.250000     24.000000
  0.416667  0.166667  0.250000     12.000000
  0.250000  0.250000  0.250000     12.000000
  0.333333  0.250000  0.250000     24.000000
  0.333333  0.333333  0.250000      4.000000
  0.000000  0.000000  0.375000      2.000000
  0.083333 -0.000000  0.375000     12.000000
  0.166667 -0.000000  0.375000     12.000000
  0.250000  0.000000  0.375000     12.000000
  0.333333  0.000000  0.375000     12.000000
  0.416667  0.000000  0.375000     12.000000
  0.500000  0.000000  0.375000      6.000000
  0.083333  0.083333  0.375000     12.000000
  0.166667  0.083333  0.375000     24.000000
  0.250000  0.083333  0.375000     24.000000
  0.333333  0.083333  0.375000     24.000000
  0.416667  0.083333  0.375000     24.000000
  0.166667  0.166667  0.375000     12.000000
  0.250000  0.166667  0.375000     24.000000
  0.333333  0.166667  0.375000     24.000000
  0.416667  0.166667  0.375000     12.000000
  0.250000  0.250000  0.375000     12.000000
  0.333333  0.250000  0.375000     24.000000
  0.333333  0.333333  0.375000      4.000000
  0.000000  0.000000  0.500000      1.000000
  0.083333 -0.000000  0.500000      6.000000
  0.166667 -0.000000  0.500000      6.000000
  0.250000  0.000000  0.500000      6.000000
  0.333333  0.000000  0.500000      6.000000
  0.416667  0.000000  0.500000      6.000000
  0.500000  0.000000  0.500000      3.000000
  0.083333  0.083333  0.500000      6.000000
  0.166667  0.083333  0.500000     12.000000
  0.250000  0.083333  0.500000     12.000000
  0.333333  0.083333  0.500000     12.000000
  0.416667  0.083333  0.500000     12.000000
  0.166667  0.166667  0.500000      6.000000
  0.250000  0.166667  0.500000     12.000000
  0.333333  0.166667  0.500000     12.000000
  0.416667  0.166667  0.500000      6.000000
  0.250000  0.250000  0.500000      6.000000
  0.333333  0.250000  0.500000     12.000000
  0.333333  0.333333  0.500000      2.000000
 
 Following cartesian coordinates:
            Coordinates               Weight
  0.000000  0.000000  0.000000      1.000000
  0.030397 -0.017550  0.000000      6.000000
  0.060794 -0.035099  0.000000      6.000000
  0.091191 -0.052649  0.000000      6.000000
  0.121588 -0.070199  0.000000      6.000000
  0.151985 -0.087748  0.000000      6.000000
  0.182382 -0.105298  0.000000      3.000000
  0.060794  0.000000  0.000000      6.000000
  0.091191 -0.017550  0.000000     12.000000
  0.121588 -0.035099  0.000000     12.000000
  0.151985 -0.052649  0.000000     12.000000
  0.182382 -0.070199  0.000000     12.000000
  0.121588  0.000000  0.000000      6.000000
  0.151985 -0.017550  0.000000     12.000000
  0.182382 -0.035099  0.000000     12.000000
  0.212779 -0.052649  0.000000      6.000000
  0.182382  0.000000  0.000000      6.000000
  0.212779 -0.017550  0.000000     12.000000
  0.243176  0.000000  0.000000      2.000000
  0.000000  0.000000  0.028267      2.000000
  0.030397 -0.017550  0.028267     12.000000
  0.060794 -0.035099  0.028267     12.000000
  0.091191 -0.052649  0.028267     12.000000
  0.121588 -0.070199  0.028267     12.000000
  0.151985 -0.087748  0.028267     12.000000
  0.182382 -0.105298  0.028267      6.000000
  0.060794  0.000000  0.028267     12.000000
  0.091191 -0.017550  0.028267     24.000000
  0.121588 -0.035099  0.028267     24.000000
  0.151985 -0.052649  0.028267     24.000000
  0.182382 -0.070199  0.028267     24.000000
  0.121588  0.000000  0.028267     12.000000
  0.151985 -0.017550  0.028267     24.000000
  0.182382 -0.035099  0.028267     24.000000
  0.212779 -0.052649  0.028267     12.000000
  0.182382  0.000000  0.028267     12.000000
  0.212779 -0.017550  0.028267     24.000000
  0.243176  0.000000  0.028267      4.000000
  0.000000  0.000000  0.056533      2.000000
  0.030397 -0.017550  0.056533     12.000000
  0.060794 -0.035099  0.056533     12.000000
  0.091191 -0.052649  0.056533     12.000000
  0.121588 -0.070199  0.056533     12.000000
  0.151985 -0.087748  0.056533     12.000000
  0.182382 -0.105298  0.056533      6.000000
  0.060794  0.000000  0.056533     12.000000
  0.091191 -0.017550  0.056533     24.000000
  0.121588 -0.035099  0.056533     24.000000
  0.151985 -0.052649  0.056533     24.000000
  0.182382 -0.070199  0.056533     24.000000
  0.121588  0.000000  0.056533     12.000000
  0.151985 -0.017550  0.056533     24.000000
  0.182382 -0.035099  0.056533     24.000000
  0.212779 -0.052649  0.056533     12.000000
  0.182382  0.000000  0.056533     12.000000
  0.212779 -0.017550  0.056533     24.000000
  0.243176  0.000000  0.056533      4.000000
  0.000000  0.000000  0.084800      2.000000
  0.030397 -0.017550  0.084800     12.000000
  0.060794 -0.035099  0.084800     12.000000
  0.091191 -0.052649  0.084800     12.000000
  0.121588 -0.070199  0.084800     12.000000
  0.151985 -0.087748  0.084800     12.000000
  0.182382 -0.105298  0.084800      6.000000
  0.060794  0.000000  0.084800     12.000000
  0.091191 -0.017550  0.084800     24.000000
  0.121588 -0.035099  0.084800     24.000000
  0.151985 -0.052649  0.084800     24.000000
  0.182382 -0.070199  0.084800     24.000000
  0.121588  0.000000  0.084800     12.000000
  0.151985 -0.017550  0.084800     24.000000
  0.182382 -0.035099  0.084800     24.000000
  0.212779 -0.052649  0.084800     12.000000
  0.182382  0.000000  0.084800     12.000000
  0.212779 -0.017550  0.084800     24.000000
  0.243176  0.000000  0.084800      4.000000
  0.000000  0.000000  0.113067      1.000000
  0.030397 -0.017550  0.113067      6.000000
  0.060794 -0.035099  0.113067      6.000000
  0.091191 -0.052649  0.113067      6.000000
  0.121588 -0.070199  0.113067      6.000000
  0.151985 -0.087748  0.113067      6.000000
  0.182382 -0.105298  0.113067      3.000000
  0.060794  0.000000  0.113067      6.000000
  0.091191 -0.017550  0.113067     12.000000
  0.121588 -0.035099  0.113067     12.000000
  0.151985 -0.052649  0.113067     12.000000
  0.182382 -0.070199  0.113067     12.000000
  0.121588  0.000000  0.113067      6.000000
  0.151985 -0.017550  0.113067     12.000000
  0.182382 -0.035099  0.113067     12.000000
  0.212779 -0.052649  0.113067      6.000000
  0.182382  0.000000  0.113067      6.000000
  0.212779 -0.017550  0.113067     12.000000
  0.243176  0.000000  0.113067      2.000000
 


--------------------------------------------------------------------------------------------------------




 Dimension of arrays:
   k-points           NKPTS =     95   k-points in BZ     NKDIM =     95   number of bands    NBANDS=     24
   number of dos      NEDOS =    301   number of ions     NIONS =      2
   non local maximal  LDIM  =      6   non local SUM 2l+1 LMDIM =     18
   total plane-waves  NPLWV =   9720
   max r-space proj   IRMAX =      1   max aug-charges    IRDMAX=  13516
   dimension x,y,z NGX =    18 NGY =   18 NGZ =   30
   dimension x,y,z NGXF=    36 NGYF=   36 NGZF=   60
   support grid    NGXF=    36 NGYF=   36 NGZF=   60
   ions per type =               2
   NGX,Y,Z   is equivalent  to a cutoff of  10.92, 10.92, 11.28 a.u.
   NGXF,Y,Z  is equivalent  to a cutoff of  21.83, 21.83, 22.56 a.u.

 SYSTEM =  Co-hcc                                  
 POSCAR =  Co                                      

 Startparameter for this run:
   NWRITE =      2    write-flag & timer
   PREC   = accura    normal or accurate (medium, high low for compatibility)
   ISTART =      0    job   : 0-new  1-cont  2-samecut
   ICHARG =      2    charge: 1-file 2-atom 10-const
   ISPIN  =      2    spin polarized calculation?
   LNONCOLLINEAR =      F non collinear calculations
   LSORBIT =      F    spin-orbit coupling
   INIWAV =      1    electr: 0-lowe 1-rand  2-diag
   LASPH  =      F    aspherical Exc in radial PAW
 Electronic Relaxation 1
   ENCUT  =  425.0 eV  31.24 Ry    5.59 a.u.   4.61  4.61  7.43*2*pi/ulx,y,z
   ENINI  =  425.0     initial cutoff
   ENAUG  =  477.8 eV  augmentation charge cutoff
   NELM   =    100;   NELMIN=  2; NELMDL= -5     # of ELM steps 
   EDIFF  = 0.1E-05   stopping-criterion for ELM
   LREAL  =      F    real-space projection
   NLSPLINE    = F    spline interpolate recip. space projectors
   LCOMPAT=      F    compatible to vasp.4.4
   GGA_COMPAT  = T    GGA compatible to vasp.4.4-vasp.4.6
   LMAXPAW     = -100 max onsite density
   LMAXMIX     =    2 max onsite mixed and CHGCAR
   VOSKOWN=      0    Vosko Wilk Nusair interpolation
   ROPT   =    0.00000
 Ionic relaxation
   EDIFFG = -.2E-01   stopping-criterion for IOM
   NSW    =    100    number of steps for IOM
   NBLOCK =      1;   KBLOCK =    100    inner block; outer block 
   IBRION =      2    ionic relax: 0-MD 1-quasi-New 2-CG
   NFREE  =      1    steps in history (QN), initial steepest desc. (CG)
   ISIF   =      2    stress and relaxation
   IWAVPR =     11    prediction:  0-non 1-charg 2-wave 3-comb
   ISYM   =      1    0-nonsym 1-usesym 2-fastsym
   LCORR  =      T    Harris-Foulkes like correction to forces

   POTIM  = 0.5000    time-step for ionic-motion
   TEIN   =    0.0    initial temperature
   TEBEG  =    0.0;   TEEND  =   0.0 temperature during run
   SMASS  =  -3.00    Nose mass-parameter (am)
   estimated Nose-frequenzy (Omega)   =  0.10E-29 period in steps = 0.13E+47 mass=  -0.172E-27a.u.
   SCALEE = 1.0000    scale energy and forces
   NPACO  =    256;   APACO  = 10.0  distance and # of slots for P.C.
   PSTRESS=    0.0 pullay stress

  Mass of Ions in am
   POMASS =  58.93
  Ionic Valenz
   ZVAL   =   9.00
  Atomic Wigner-Seitz radii
   RWIGS  =  -1.00
  virtual crystal weights 
   VCA    =   1.00
   NELECT =      18.0000    total number of electrons
   NUPDOWN=      -1.0000    fix difference up-down

 DOS related values:
   EMIN   =  10.00;   EMAX   =-10.00  energy-range for DOS
   EFERMI =   0.00
   ISMEAR =     0;   SIGMA  =   0.05  broadening in eV -4-tet -1-fermi 0-gaus

 Electronic relaxation 2 (details)
   IALGO  =     38    algorithm
   LDIAG  =      T    sub-space diagonalisation (order eigenvalues)
   LSUBROT=      F    optimize rotation matrix (better conditioning)
   TURBO    =      0    0=normal 1=particle mesh
   IRESTART =      0    0=no restart 2=restart with 2 vectors
   NREBOOT  =      0    no. of reboots
   NMIN     =      0    reboot dimension
   EREF     =   0.00    reference energy to select bands
   IMIX   =      4    mixing-type and parameters
     AMIX     =   0.40;   BMIX     =  1.00
     AMIX_MAG =   1.60;   BMIX_MAG =  1.00
     AMIN     =   0.10
     WC   =   100.;   INIMIX=   1;  MIXPRE=   1;  MAXMIX= -45

 Intra band minimization:
   WEIMIN = 0.0010     energy-eigenvalue tresh-hold
   EBREAK =  0.10E-07  absolut break condition
   DEPER  =   0.30     relativ break condition  

   TIME   =   0.40     timestep for ELM

  volume/ion in A,a.u.               =      14.39        97.12
  Fermi-wavevector in a.u.,A,eV,Ry     =   1.399967  2.645553 26.666146  1.959906
  Thomas-Fermi vector in A             =   2.522974
 
 Write flags
   LWAVE        =      F    write WAVECAR
   LDOWNSAMPLE  =      F    k-point downsampling of WAVECAR
   LCHARG       =      F    write CHGCAR
   LVTOT        =      F    write LOCPOT, total local potential
   LVHAR        =      F    write LOCPOT, Hartree potential only
   LELF         =      F    write electronic localiz. function (ELF)
   LORBIT       =     11    0 simple, 1 ext, 2 COOP (PROOUT), +10 PAW based schemes


 Dipole corrections
   LMONO  =      F    monopole corrections only (constant potential shift)
   LDIPOL =      F    correct potential (dipole corrections)
   IDIPOL =      0    1-x, 2-y, 3-z, 4-all directions 
   EPSILON=  1.0000000 bulk dielectric constant

 Exchange correlation treatment:
   GGA     =    --    GGA type
   LEXCH   =     8    internal setting for exchange type
   LIBXC   =     F    Libxc                    
   VOSKOWN =     0    Vosko Wilk Nusair interpolation
   LHFCALC =     F    Hartree Fock is set to
   LHFONE  =     F    Hartree Fock one center treatment
   AEXX    =    0.0000 exact exchange contribution

 Linear response parameters
   LEPSILON=     F    determine dielectric tensor
   LRPA    =     F    only Hartree local field effects (RPA)
   LNABLA  =     F    use nabla operator in PAW spheres
   LVEL    =     F    velocity operator in full k-point grid
   CSHIFT  =0.1000    complex shift for real part using Kramers Kronig
   OMEGAMAX=  -1.0    maximum frequency
   DEG_THRESHOLD= 0.2000000E-02 threshold for treating states as degnerate
   RTIME   =   -0.100 relaxation time in fs
  (WPLASMAI=    0.000 imaginary part of plasma frequency in eV, 0.658/RTIME)
   DFIELD  = 0.0000000 0.0000000 0.0000000 field for delta impulse in time
 
  Optional k-point grid parameters
   LKPOINTS_OPT  =     F    use optional k-point grid
   KPOINTS_OPT_MODE=     1    mode for optional k-point grid
 
 Orbital magnetization related:
   ORBITALMAG=     F  switch on orbital magnetization
   LCHIMAG   =     F  perturbation theory with respect to B field
   DQ        =  0.001000  dq finite difference perturbation B field
   LLRAUG    =     F  two centre corrections for induced B field



--------------------------------------------------------------------------------------------------------


 conjugate gradient relaxation of ions
 charge density and potential will be updated during run
 spin polarized calculation
 Variant of blocked Davidson
 Davidson routine will perform the subspace rotation
 perform sub-space diagonalisation
    after iterative eigenvector-optimisation
 modified Broyden-mixing scheme, WC =      100.0
 initial mixing is a Kerker type mixing with AMIX =  0.4000 and BMIX =      1.0000
 Hartree-type preconditioning will be used
 using additional bands           15
 reciprocal scheme for non local part
 use partial core corrections
 calculate Harris-corrections to forces 
   (improved forces if not selfconsistent)
 use gradient corrections 
 use of overlap-Matrix (Vanderbilt PP)
 Gauss-broadening in eV      SIGMA  =   0.05


--------------------------------------------------------------------------------------------------------


  energy-cutoff  :      425.00
  volume of cell :       28.78
      direct lattice vectors                 reciprocal lattice vectors
     1.370751585 -2.374211391  0.000000000     0.364763394 -0.210596243  0.000000000
     1.370751585  2.374211391  0.000000000     0.364763394  0.210596243  0.000000000
     0.000000000  0.000000000  4.422174271     0.000000000  0.000000000  0.226133105

  length of vectors
     2.741503171  2.741503171  4.422174271     0.421192487  0.421192487  0.226133105


 
 k-points in units of 2pi/SCALE and weight: Automatic mesh                          
   0.00000000  0.00000000  0.00000000       0.001
   0.03039695 -0.01754969  0.00000000       0.005
   0.06079390 -0.03509937  0.00000000       0.005
   0.09119085 -0.05264906  0.00000000       0.005
   0.12158780 -0.07019875  0.00000000       0.005
   0.15198475 -0.08774843  0.00000000       0.005
   0.18238170 -0.10529812  0.00000000       0.003
   0.06079390  0.00000000  0.00000000       0.005
   0.09119085 -0.01754969  0.00000000       0.010
   0.12158780 -0.03509937  0.00000000       0.010
   0.15198475 -0.05264906  0.00000000       0.010
   0.18238170 -0.07019875  0.00000000       0.010
   0.12158780  0.00000000  0.00000000       0.005
   0.15198475 -0.01754969  0.00000000       0.010
   0.18238170 -0.03509937  0.00000000       0.010
   0.21277865 -0.05264906  0.00000000       0.005
   0.18238170  0.00000000  0.00000000       0.005
   0.21277865 -0.01754969  0.00000000       0.010
   0.24317560  0.00000000  0.00000000       0.002
   0.00000000  0.00000000  0.02826664       0.002
   0.03039695 -0.01754969  0.02826664       0.010
   0.06079390 -0.03509937  0.02826664       0.010
   0.09119085 -0.05264906  0.02826664       0.010
   0.12158780 -0.07019875  0.02826664       0.010
   0.15198475 -0.08774843  0.02826664       0.010
   0.18238170 -0.10529812  0.02826664       0.005
   0.06079390  0.00000000  0.02826664       0.010
   0.09119085 -0.01754969  0.02826664       0.021
   0.12158780 -0.03509937  0.02826664       0.021
   0.15198475 -0.05264906  0.02826664       0.021
   0.18238170 -0.07019875  0.02826664       0.021
   0.12158780  0.00000000  0.02826664       0.010
   0.15198475 -0.01754969  0.02826664       0.021
   0.18238170 -0.03509937  0.02826664       0.021
   0.21277865 -0.05264906  0.02826664       0.010
   0.18238170  0.00000000  0.02826664       0.010
   0.21277865 -0.01754969  0.02826664       0.021
   0.24317560  0.00000000  0.02826664       0.003
   0.00000000  0.00000000  0.05653328       0.002
   0.03039695 -0.01754969  0.05653328       0.010
   0.06079390 -0.03509937  0.05653328       0.010
   0.09119085 -0.05264906  0.05653328       0.010
   0.12158780 -0.07019875  0.05653328       0.010
   0.15198475 -0.08774843  0.05653328       0.010
   0.18238170 -0.10529812  0.05653328       0.005
   0.06079390  0.00000000  0.05653328       0.010
   0.09119085 -0.01754969  0.05653328       0.021
   0.12158780 -0.03509937  0.05653328       0.021
   0.15198475 -0.05264906  0.05653328       0.021
   0.18238170 -0.07019875  0.05653328       0.021
   0.12158780  0.00000000  0.05653328       0.010
   0.15198475 -0.01754969  0.05653328       0.021
   0.18238170 -0.03509937  0.05653328       0.021
   0.21277865 -0.05264906  0.05653328       0.010
   0.18238170  0.00000000  0.05653328       0.010
   0.21277865 -0.01754969  0.05653328       0.021
   0.24317560  0.00000000  0.05653328       0.003
   0.00000000  0.00000000  0.08479991       0.002
   0.03039695 -0.01754969  0.08479991       0.010
   0.06079390 -0.03509937  0.08479991       0.010
   0.09119085 -0.05264906  0.08479991       0.010
   0.12158780 -0.07019875  0.08479991       0.010
   0.15198475 -0.08774843  0.08479991       0.010
   0.18238170 -0.10529812  0.08479991       0.005
   0.06079390  0.00000000  0.08479991       0.010
   0.09119085 -0.01754969  0.08479991       0.021
   0.12158780 -0.03509937  0.08479991       0.021
   0.15198475 -0.05264906  0.08479991       0.021
   0.18238170 -0.07019875  0.08479991       0.021
   0.12158780  0.00000000  0.08479991       0.010
   0.15198475 -0.01754969  0.08479991       0.021
   0.18238170 -0.03509937  0.08479991       0.021
   0.21277865 -0.05264906  0.08479991       0.010
   0.18238170  0.00000000  0.08479991       0.010
   0.21277865 -0.01754969  0.08479991       0.021
   0.24317560  0.00000000  0.08479991       0.003
   0.00000000  0.00000000  0.11306655       0.001
   0.03039695 -0.01754969  0.11306655       0.005
   0.06079390 -0.03509937  0.11306655       0.005
   0.09119085 -0.05264906  0.11306655       0.005
   0.12158780 -0.07019875  0.11306655       0.005
   0.15198475 -0.08774843  0.11306655       0.005
   0.18238170 -0.10529812  0.11306655       0.003
   0.06079390  0.00000000  0.11306655       0.005
   0.09119085 -0.01754969  0.11306655       0.010
   0.12158780 -0.03509937  0.11306655       0.010
   0.15198475 -0.05264906  0.11306655       0.010
   0.18238170 -0.07019875  0.11306655       0.010
   0.12158780  0.00000000  0.11306655       0.005
   0.15198475 -0.01754969  0.11306655       0.010
   0.18238170 -0.03509937  0.11306655       0.010
   0.21277865 -0.05264906  0.11306655       0.005
   0.18238170  0.00000000  0.11306655       0.005
   0.21277865 -0.01754969  0.11306655       0.010
   0.24317560  0.00000000  0.11306655       0.002
 
 k-points in reciprocal lattice and weights: Automatic mesh                          
   0.00000000  0.00000000  0.00000000       0.001
   0.08333333 -0.00000000  0.00000000       0.005
   0.16666667 -0.00000000  0.00000000       0.005
   0.25000000  0.00000000  0.00000000       0.005
   0.33333333  0.00000000  0.00000000       0.005
   0.41666667  0.00000000  0.00000000       0.005
   0.50000000  0.00000000  0.00000000       0.003
   0.08333333  0.08333333  0.00000000       0.005
   0.16666667  0.08333333  0.00000000       0.010
   0.25000000  0.08333333  0.00000000       0.010
   0.33333333  0.08333333  0.00000000       0.010
   0.41666667  0.08333333  0.00000000       0.010
   0.16666667  0.16666667  0.00000000       0.005
   0.25000000  0.16666667  0.00000000       0.010
   0.33333333  0.16666667  0.00000000       0.010
   0.41666667  0.16666667  0.00000000       0.005
   0.25000000  0.25000000  0.00000000       0.005
   0.33333333  0.25000000  0.00000000       0.010
   0.33333333  0.33333333  0.00000000       0.002
   0.00000000  0.00000000  0.12500000       0.002
   0.08333333 -0.00000000  0.12500000       0.010
   0.16666667 -0.00000000  0.12500000       0.010
   0.25000000  0.00000000  0.12500000       0.010
   0.33333333  0.00000000  0.12500000       0.010
   0.41666667  0.00000000  0.12500000       0.010
   0.50000000  0.00000000  0.12500000       0.005
   0.08333333  0.08333333  0.12500000       0.010
   0.16666667  0.08333333  0.12500000       0.021
   0.25000000  0.08333333  0.12500000       0.021
   0.33333333  0.08333333  0.12500000       0.021
   0.41666667  0.08333333  0.12500000       0.021
   0.16666667  0.16666667  0.12500000       0.010
   0.25000000  0.16666667  0.12500000       0.021
   0.33333333  0.16666667  0.12500000       0.021
   0.41666667  0.16666667  0.12500000       0.010
   0.25000000  0.25000000  0.12500000       0.010
   0.33333333  0.25000000  0.12500000       0.021
   0.33333333  0.33333333  0.12500000       0.003
   0.00000000  0.00000000  0.25000000       0.002
   0.08333333 -0.00000000  0.25000000       0.010
   0.16666667 -0.00000000  0.25000000       0.010
   0.25000000  0.00000000  0.25000000       0.010
   0.33333333  0.00000000  0.25000000       0.010
   0.41666667  0.00000000  0.25000000       0.010
   0.50000000  0.00000000  0.25000000       0.005
   0.08333333  0.08333333  0.25000000       0.010
   0.16666667  0.08333333  0.25000000       0.021
   0.25000000  0.08333333  0.25000000       0.021
   0.33333333  0.08333333  0.25000000       0.021
   0.41666667  0.08333333  0.25000000       0.021
   0.16666667  0.16666667  0.25000000       0.010
   0.25000000  0.16666667  0.25000000       0.021
   0.33333333  0.16666667  0.25000000       0.021
   0.41666667  0.16666667  0.25000000       0.010
   0.25000000  0.25000000  0.25000000       0.010
   0.33333333  0.25000000  0.25000000       0.021
   0.33333333  0.33333333  0.25000000       0.003
   0.00000000  0.00000000  0.37500000       0.002
   0.08333333 -0.00000000  0.37500000       0.010
   0.16666667 -0.00000000  0.37500000       0.010
   0.25000000  0.00000000  0.37500000       0.010
   0.33333333  0.00000000  0.37500000       0.010
   0.41666667  0.00000000  0.37500000       0.010
   0.50000000  0.00000000  0.37500000       0.005
   0.08333333  0.08333333  0.37500000       0.010
   0.16666667  0.08333333  0.37500000       0.021
   0.25000000  0.08333333  0.37500000       0.021
   0.33333333  0.08333333  0.37500000       0.021
   0.41666667  0.08333333  0.37500000       0.021
   0.16666667  0.16666667  0.37500000       0.010
   0.25000000  0.16666667  0.37500000       0.021
   0.33333333  0.16666667  0.37500000       0.021
   0.41666667  0.16666667  0.37500000       0.010
   0.25000000  0.25000000  0.37500000       0.010
   0.33333333  0.25000000  0.37500000       0.021
   0.33333333  0.33333333  0.37500000       0.003
   0.00000000  0.00000000  0.50000000       0.001
   0.08333333 -0.00000000  0.50000000       0.005
   0.16666667 -0.00000000  0.50000000       0.005
   0.25000000  0.00000000  0.50000000       0.005
   0.33333333  0.00000000  0.50000000       0.005
   0.41666667  0.00000000  0.50000000       0.005
   0.50000000  0.00000000  0.50000000       0.003
   0.08333333  0.08333333  0.50000000       0.005
   0.16666667  0.08333333  0.50000000       0.010
   0.25000000  0.08333333  0.50000000       0.010
   0.33333333  0.08333333  0.50000000       0.010
   0.41666667  0.08333333  0.50000000       0.010
   0.16666667  0.16666667  0.50000000       0.005
   0.25000000  0.16666667  0.50000000       0.010
   0.33333333  0.16666667  0.50000000       0.010
   0.41666667  0.16666667  0.50000000       0.005
   0.25000000  0.25000000  0.50000000       0.005
   0.33333333  0.25000000  0.50000000       0.010
   0.33333333  0.33333333  0.50000000       0.002
 
 position of ions in fractional coordinates (direct lattice) 
   0.33333333  0.66666667  0.25000000
   0.66666667  0.33333333  0.75000000
 
 position of ions in cartesian coordinates  (Angst):
   1.37075159  0.79140380  1.10554357
   1.37075159 -0.79140380  3.31663070
 


--------------------------------------------------------------------------------------------------------


 k-point   1 :   0.0000 0.0000 0.0000  plane waves:     573
 k-point   2 :   0.0833-0.0000 0.0000  plane waves:     572
 k-point   3 :   0.1667-0.0000 0.0000  plane waves:     582
 k-point   4 :   0.2500 0.0000 0.0000  plane waves:     578
 k-point   5 :   0.3333 0.0000 0.0000  plane waves:     574
 k-point   6 :   0.4167 0.0000 0.0000  plane waves:     574
 k-point   7 :   0.5000 0.0000 0.0000  plane waves:     576
 k-point   8 :   0.0833 0.0833 0.0000  plane waves:     577
 k-point   9 :   0.1667 0.0833 0.0000  plane waves:     580
 k-point  10 :   0.2500 0.0833 0.0000  plane waves:     584
 k-point  11 :   0.3333 0.0833 0.0000  plane waves:     573
 k-point  12 :   0.4167 0.0833 0.0000  plane waves:     573
 k-point  13 :   0.1667 0.1667 0.0000  plane waves:     579
 k-point  14 :   0.2500 0.1667 0.0000  plane waves:     574
 k-point  15 :   0.3333 0.1667 0.0000  plane waves:     572
 k-point  16 :   0.4167 0.1667 0.0000  plane waves:     570
 k-point  17 :   0.2500 0.2500 0.0000  plane waves:     567
 k-point  18 :   0.3333 0.2500 0.0000  plane waves:     559
 k-point  19 :   0.3333 0.3333 0.0000  plane waves:     564
 k-point  20 :   0.0000 0.0000 0.1250  plane waves:     579
 k-point  21 :   0.0833-0.0000 0.1250  plane waves:     577
 k-point  22 :   0.1667-0.0000 0.1250  plane waves:     578
 k-point  23 :   0.2500 0.0000 0.1250  plane waves:     577
 k-point  24 :   0.3333 0.0000 0.1250  plane waves:     578
 k-point  25 :   0.4167 0.0000 0.1250  plane waves:     572
 k-point  26 :   0.5000 0.0000 0.1250  plane waves:     570
 k-point  27 :   0.0833 0.0833 0.1250  plane waves:     579
 k-point  28 :   0.1667 0.0833 0.1250  plane waves:     580
 k-point  29 :   0.2500 0.0833 0.1250  plane waves:     577
 k-point  30 :   0.3333 0.0833 0.1250  plane waves:     572
 k-point  31 :   0.4167 0.0833 0.1250  plane waves:     569
 k-point  32 :   0.1667 0.1667 0.1250  plane waves:     576
 k-point  33 :   0.2500 0.1667 0.1250  plane waves:     571
 k-point  34 :   0.3333 0.1667 0.1250  plane waves:     570
 k-point  35 :   0.4167 0.1667 0.1250  plane waves:     568
 k-point  36 :   0.2500 0.2500 0.1250  plane waves:     570
 k-point  37 :   0.3333 0.2500 0.1250  plane waves:     565
 k-point  38 :   0.3333 0.3333 0.1250  plane waves:     558
 k-point  39 :   0.0000 0.0000 0.2500  plane waves:     561
 k-point  40 :   0.0833-0.0000 0.2500  plane waves:     577
 k-point  41 :   0.1667-0.0000 0.2500  plane waves:     578
 k-point  42 :   0.2500 0.0000 0.2500  plane waves:     578
 k-point  43 :   0.3333 0.0000 0.2500  plane waves:     571
 k-point  44 :   0.4167 0.0000 0.2500  plane waves:     570
 k-point  45 :   0.5000 0.0000 0.2500  plane waves:     572
 k-point  46 :   0.0833 0.0833 0.2500  plane waves:     578
 k-point  47 :   0.1667 0.0833 0.2500  plane waves:     579
 k-point  48 :   0.2500 0.0833 0.2500  plane waves:     575
 k-point  49 :   0.3333 0.0833 0.2500  plane waves:     574
 k-point  50 :   0.4167 0.0833 0.2500  plane waves:     570
 k-point  51 :   0.1667 0.1667 0.2500  plane waves:     574
 k-point  52 :   0.2500 0.1667 0.2500  plane waves:     573
 k-point  53 :   0.3333 0.1667 0.2500  plane waves:     571
 k-point  54 :   0.4167 0.1667 0.2500  plane waves:     570
 k-point  55 :   0.2500 0.2500 0.2500  plane waves:     572
 k-point  56 :   0.3333 0.2500 0.2500  plane waves:     567
 k-point  57 :   0.3333 0.3333 0.2500  plane waves:     573
 k-point  58 :   0.0000 0.0000 0.3750  plane waves:     573
 k-point  59 :   0.0833-0.0000 0.3750  plane waves:     585
 k-point  60 :   0.1667-0.0000 0.3750  plane waves:     577
 k-point  61 :   0.2500 0.0000 0.3750  plane waves:     577
 k-point  62 :   0.3333 0.0000 0.3750  plane waves:     576
 k-point  63 :   0.4167 0.0000 0.3750  plane waves:     567
 k-point  64 :   0.5000 0.0000 0.3750  plane waves:     574
 k-point  65 :   0.0833 0.0833 0.3750  plane waves:     580
 k-point  66 :   0.1667 0.0833 0.3750  plane waves:     573
 k-point  67 :   0.2500 0.0833 0.3750  plane waves:     575
 k-point  68 :   0.3333 0.0833 0.3750  plane waves:     566
 k-point  69 :   0.4167 0.0833 0.3750  plane waves:     573
 k-point  70 :   0.1667 0.1667 0.3750  plane waves:     576
 k-point  71 :   0.2500 0.1667 0.3750  plane waves:     570
 k-point  72 :   0.3333 0.1667 0.3750  plane waves:     570
 k-point  73 :   0.4167 0.1667 0.3750  plane waves:     569
 k-point  74 :   0.2500 0.2500 0.3750  plane waves:     568
 k-point  75 :   0.3333 0.2500 0.3750  plane waves:     566
 k-point  76 :   0.3333 0.3333 0.3750  plane waves:     558
 k-point  77 :   0.0000 0.0000 0.5000  plane waves:     578
 k-point  78 :   0.0833-0.0000 0.5000  plane waves:     574
 k-point  79 :   0.1667-0.0000 0.5000  plane waves:     584
 k-point  80 :   0.2500 0.0000 0.5000  plane waves:     576
 k-point  81 :   0.3333 0.0000 0.5000  plane waves:     570
 k-point  82 :   0.4167 0.0000 0.5000  plane waves:     574
 k-point  83 :   0.5000 0.0000 0.5000  plane waves:     580
 k-point  84 :   0.0833 0.0833 0.5000  plane waves:     580
 k-point  85 :   0.1667 0.0833 0.5000  plane waves:     574
 k-point  86 :   0.2500 0.0833 0.5000  plane waves:     570
 k-point  87 :   0.3333 0.0833 0.5000  plane waves:     566
 k-point  88 :   0.4167 0.0833 0.5000  plane waves:     570
 k-point  89 :   0.1667 0.1667 0.5000  plane waves:     572
 k-point  90 :   0.2500 0.1667 0.5000  plane waves:     570
 k-point  91 :   0.3333 0.1667 0.5000  plane waves:     566
 k-point  92 :   0.4167 0.1667 0.5000  plane waves:     578
 k-point  93 :   0.2500 0.2500 0.5000  plane waves:     562
 k-point  94 :   0.3333 0.2500 0.5000  plane waves:     564
 k-point  95 :   0.3333 0.3333 0.5000  plane waves:     558

 maximum and minimum number of plane-waves per node :       585      558

 maximum number of plane-waves:       585
 maximum index in each direction: 
   IXMAX=    4   IYMAX=    4   IZMAX=    7
   IXMIN=   -5   IYMIN=   -4   IZMIN=   -7


 serial   3D FFT for wavefunctions
 parallel 3D FFT for charge:
    minimum data exchange during FFTs selected (reduces bandwidth)


 total amount of memory used by VASP MPI-rank0    41548. kBytes
=======================================================================

   base      :      30000. kBytes
   nonl-proj :       8227. kBytes
   fftplans  :        183. kBytes
   grid      :       1107. kBytes
   one-center:         62. kBytes
   wavefun   :       1969. kBytes
 
     INWAV:  cpu time      0.0000: real time      0.0004
 Broyden mixing: mesh for mixing (old mesh)
   NGX =  9   NGY =  9   NGZ = 15
  (NGX  = 36   NGY  = 36   NGZ  = 60)
  gives a total of   1215 points

 initial charge density was supplied:
 charge density of overlapping atoms calculated
 number of electron      18.0000000 magnetization       6.0000000
 keeping initial charge density in first step


--------------------------------------------------------------------------------------------------------


 Maximum index for augmentation-charges          870 (set IRDMAX)


--------------------------------------------------------------------------------------------------------


 First call to EWALD:  gamma=   0.578
 Maximum number of real-space cells 3x 3x 2
 Maximum number of reciprocal cells 3x 3x 4

    FEWALD:  cpu time      0.0015: real time      0.0015


--------------------------------------- Iteration      1(   1)  ---------------------------------------


    POTLOK:  cpu time      0.0072: real time      0.0073
    SETDIJ:  cpu time      0.0053: real time      0.0053
     EDDAV:  cpu time      0.7595: real time      0.7636
       DOS:  cpu time      0.0009: real time      0.0009
    --------------------------------------------
      LOOP:  cpu time      0.7730: real time      0.7771

 eigenvalue-minimisations  :  9168
 total energy-change (2. order) : 0.6537572E+01  (-0.8290170E+03)
 number of electron      18.0000000 magnetization       6.0000000
 augmentation part       18.0000000 magnetization       6.0000000

 Free energy of the ion-electron system (eV)
  ---------------------------------------------------
  alpha Z        PSCENC =        58.86379771
  Ewald energy   TEWEN  =     -1384.88595003
  -Hartree energ DENC   =      -361.53230742
  -exchange      EXHF   =         0.00000000
  -V(xc)+E(xc)   XCENC  =        34.02306031
  PAW double counting   =      1439.98163886    -1545.88690193
  entropy T*S    EENTRO =        -0.00417913
  eigenvalues    EBANDS =       139.25518351
  atomic energy  EATOM  =      1626.72322989
  Solvation  Ediel_sol  =         0.00000000
  ---------------------------------------------------
  free energy    TOTEN  =         6.53757176 eV

  energy without entropy =        6.54175090  energy(sigma->0) =        6.53966133


--------------------------------------------------------------------------------------------------------




--------------------------------------- Iteration      1(   2)  ---------------------------------------


     EDDAV:  cpu time      1.0118: real time      1.0176
       DOS:  cpu time      0.0009: real time      0.0009
    --------------------------------------------
      LOOP:  cpu time      1.0127: real time      1.0185

 eigenvalue-minimisations  : 10824
 total energy-change (2. order) :-0.2142712E+02  (-0.2102580E+02)
 number of electron      18.0000000 magnetization       6.0000000
 augmentation part       18.0000000 magnetization       6.0000000

 Free energy of the ion-electron system (eV)
  ---------------------------------------------------
  alpha Z        PSCENC =        58.86379771
  Ewald energy   TEWEN  =     -1384.88595003
  -Hartree energ DENC   =      -361.53230742
  -exchange      EXHF   =         0.00000000
  -V(xc)+E(xc)   XCENC  =        34.02306031
  PAW double counting   =      1439.98163886    -1545.88690193
  entropy T*S    EENTRO =        -0.00361872
  eigenvalues    EBANDS =       117.82750738
  atomic energy  EATOM  =      1626.72322989
  Solvation  Ediel_sol  =         0.00000000
  ---------------------------------------------------
  free energy    TOTEN  =       -14.88954395 eV

  energy without entropy =      -14.88592524  energy(sigma->0) =      -14.88773460


--------------------------------------------------------------------------------------------------------




--------------------------------------- Iteration      1(   3)  ---------------------------------------


     EDDAV:  cpu time      1.1565: real time      1.1623
       DOS:  cpu time      0.0008: real time      0.0008
    --------------------------------------------
      LOOP:  cpu time      1.1573: real time      1.1631

 eigenvalue-minimisations  : 11664
 total energy-change (2. order) :-0.1574248E+00  (-0.1573108E+00)
 number of electron      18.0000000 magnetization       6.0000000
 augmentation part       18.0000000 magnetization       6.0000000

 Free energy of the ion-electron system (eV)
  ---------------------------------------------------
  alpha Z        PSCENC =        58.86379771
  Ewald energy   TEWEN  =     -1384.88595003
  -Hartree energ DENC   =      -361.53230742
  -exchange      EXHF   =         0.00000000
  -V(xc)+E(xc)   XCENC  =        34.02306031
  PAW double counting   =      1439.98163886    -1545.88690193
  entropy T*S    EENTRO =        -0.00369558
  eigenvalues    EBANDS =       117.67015947
  atomic energy  EATOM  =      1626.72322989
  Solvation  Ediel_sol  =         0.00000000
  ---------------------------------------------------
  free energy    TOTEN  =       -15.04696873 eV

  energy without entropy =      -15.04327315  energy(sigma->0) =      -15.04512094


--------------------------------------------------------------------------------------------------------




--------------------------------------- Iteration      1(   4)  ---------------------------------------


     EDDAV:  cpu time      1.3746: real time      1.3816
       DOS:  cpu time      0.0009: real time      0.0009
    --------------------------------------------
      LOOP:  cpu time      1.3755: real time      1.3825

 eigenvalue-minimisations  : 12936
 total energy-change (2. order) :-0.1501602E-02  (-0.1501485E-02)
 number of electron      18.0000000 magnetization       6.0000000
 augmentation part       18.0000000 magnetization       6.0000000

 Free energy of the ion-electron system (eV)
  ---------------------------------------------------
  alpha Z        PSCENC =        58.86379771
  Ewald energy   TEWEN  =     -1384.88595003
  -Hartree energ DENC   =      -361.53230742
  -exchange      EXHF   =         0.00000000
  -V(xc)+E(xc)   XCENC  =        34.02306031
  PAW double counting   =      1439.98163886    -1545.88690193
  entropy T*S    EENTRO =        -0.00370018
  eigenvalues    EBANDS =       117.66866246
  atomic energy  EATOM  =      1626.72322989
  Solvation  Ediel_sol  =         0.00000000
  ---------------------------------------------------
  free energy    TOTEN  =       -15.04847033 eV

  energy without entropy =      -15.04477016  energy(sigma->0) =      -15.04662025


--------------------------------------------------------------------------------------------------------




--------------------------------------- Iteration      1(   5)  ---------------------------------------


     EDDAV:  cpu time      1.3308: real time      1.3372
       DOS:  cpu time      0.0008: real time      0.0008
    CHARGE:  cpu time      0.0356: real time      0.0357
    MIXING:  cpu time      0.0003: real time      0.0003
    --------------------------------------------
      LOOP:  cpu time      1.3675: real time      1.3740

 eigenvalue-minimisations  : 12432
 total energy-change (2. order) :-0.3859021E-05  (-0.3859709E-05)
 number of electron      18.0000002 magnetization       4.2835433
 augmentation part        9.0929481 magnetization       3.3049013

 Broyden mixing:
  rms(total) = 0.12822E+01    rms(broyden)= 0.12822E+01
  rms(prec ) = 0.25089E+01
  weight for this iteration     100.00

 Free energy of the ion-electron system (eV)
  ---------------------------------------------------
  alpha Z        PSCENC =        58.86379771
  Ewald energy   TEWEN  =     -1384.88595003
  -Hartree energ DENC   =      -361.53230742
  -exchange      EXHF   =         0.00000000
  -V(xc)+E(xc)   XCENC  =        34.02306031
  PAW double counting   =      1439.98163886    -1545.88690193
  entropy T*S    EENTRO =        -0.00370018
  eigenvalues    EBANDS =       117.66865860
  atomic energy  EATOM  =      1626.72322989
  Solvation  Ediel_sol  =         0.00000000
  ---------------------------------------------------
  free energy    TOTEN  =       -15.04847419 eV

  energy without entropy =      -15.04477402  energy(sigma->0) =      -15.04662410


--------------------------------------------------------------------------------------------------------




--------------------------------------- Iteration      1(   6)  ---------------------------------------


    POTLOK:  cpu time      0.0061: real time      0.0064
    SETDIJ:  cpu time      0.0051: real time      0.0052
     EDDAV:  cpu time      0.9633: real time      0.9683
       DOS:  cpu time      0.0009: real time      0.0009
    CHARGE:  cpu time      0.0346: real time      0.0347
    MIXING:  cpu time      0.0003: real time      0.0003
    --------------------------------------------
      LOOP:  cpu time      1.0103: real time      1.0157

 eigenvalue-minimisations  : 10440
 total energy-change (2. order) : 0.8655393E+00  (-0.4526064E+01)
 number of electron      18.0000003 magnetization       3.7262081
 augmentation part       11.1400024 magnetization       3.3076384

 Broyden mixing:
  rms(total) = 0.10622E+01    rms(broyden)= 0.10622E+01
  rms(prec ) = 0.15537E+01
  weight for this iteration     100.00

 eigenvalues of (default mixing * dielectric matrix)
  average eigenvalue GAMMA=   0.4975
  0.4975

 Free energy of the ion-electron system (eV)
  ---------------------------------------------------
  alpha Z        PSCENC =        58.86379771
  Ewald energy   TEWEN  =     -1384.88595003
  -Hartree energ DENC   =      -317.54091901
  -exchange      EXHF   =         0.00000000
  -V(xc)+E(xc)   XCENC  =        31.28571271
  PAW double counting   =      1462.28311144    -1555.77286526
  entropy T*S    EENTRO =        -0.00341483
  eigenvalues    EBANDS =        64.86436248
  atomic energy  EATOM  =      1626.72322989
  Solvation  Ediel_sol  =         0.00000000
  ---------------------------------------------------
  free energy    TOTEN  =       -14.18293491 eV

  energy without entropy =      -14.17952008  energy(sigma->0) =      -14.18122749


--------------------------------------------------------------------------------------------------------




--------------------------------------- Iteration      1(   7)  ---------------------------------------


    POTLOK:  cpu time      0.0060: real time      0.0061
    SETDIJ:  cpu time      0.0050: real time      0.0050
     EDDAV:  cpu time      0.9666: real time      0.9715
       DOS:  cpu time      0.0008: real time      0.0008
    CHARGE:  cpu time      0.0338: real time      0.0339
    MIXING:  cpu time      0.0003: real time      0.0003
    --------------------------------------------
      LOOP:  cpu time      1.0124: real time      1.0176

 eigenvalue-minimisations  : 10440
 total energy-change (2. order) : 0.9978963E+00  (-0.8012049E+00)
 number of electron      18.0000003 magnetization       3.5239257
 augmentation part       10.3172845 magnetization       3.1081099

 Broyden mixing:
  rms(total) = 0.32352E+00    rms(broyden)= 0.32351E+00
  rms(prec ) = 0.35400E+00
  weight for this iteration     100.00

 eigenvalues of (default mixing * dielectric matrix)
  average eigenvalue GAMMA=   0.6735
  0.8236  0.5234

 Free energy of the ion-electron system (eV)
  ---------------------------------------------------
  alpha Z        PSCENC =        58.86379771
  Ewald energy   TEWEN  =     -1384.88595003
  -Hartree energ DENC   =      -331.90408271
  -exchange      EXHF   =         0.00000000
  -V(xc)+E(xc)   XCENC  =        31.72966917
  PAW double counting   =      1512.30277277    -1613.68415225
  entropy T*S    EENTRO =        -0.00363895
  eigenvalues    EBANDS =        87.67331579
  atomic energy  EATOM  =      1626.72322989
  Solvation  Ediel_sol  =         0.00000000
  ---------------------------------------------------
  free energy    TOTEN  =       -13.18503862 eV

  energy without entropy =      -13.18139966  energy(sigma->0) =      -13.18321914


--------------------------------------------------------------------------------------------------------




--------------------------------------- Iteration      1(   8)  ---------------------------------------


    POTLOK:  cpu time      0.0057: real time      0.0058
    SETDIJ:  cpu time      0.0048: real time      0.0048
     EDDAV:  cpu time      0.9289: real time      0.9337
       DOS:  cpu time      0.0008: real time      0.0008
    CHARGE:  cpu time      0.0335: real time      0.0336
    MIXING:  cpu time      0.0003: real time      0.0003
    --------------------------------------------
      LOOP:  cpu time      0.9740: real time      0.9790

 eigenvalue-minimisations  : 10200
 total energy-change (2. order) :-0.5531650E-02  (-0.3126707E-02)
 number of electron      18.0000003 magnetization       3.4521659
 augmentation part       10.3132042 magnetization       3.0890307

 Broyden mixing:
  rms(total) = 0.11855E+00    rms(broyden)= 0.11855E+00
  rms(prec ) = 0.16714E+00
  weight for this iteration     100.00

 eigenvalues of (default mixing * dielectric matrix)
  average eigenvalue GAMMA=   0.8514
  1.3389  0.6076  0.6076

 Free energy of the ion-electron system (eV)
  ---------------------------------------------------
  alpha Z        PSCENC =        58.86379771
  Ewald energy   TEWEN  =     -1384.88595003
  -Hartree energ DENC   =      -330.48181590
  -exchange      EXHF   =         0.00000000
  -V(xc)+E(xc)   XCENC  =        31.69635063
  PAW double counting   =      1535.20713456    -1637.86211784
  entropy T*S    EENTRO =        -0.00360624
  eigenvalues    EBANDS =        87.55240696
  atomic energy  EATOM  =      1626.72322989
  Solvation  Ediel_sol  =         0.00000000
  ---------------------------------------------------
  free energy    TOTEN  =       -13.19057027 eV

  energy without entropy =      -13.18696402  energy(sigma->0) =      -13.18876715


--------------------------------------------------------------------------------------------------------




--------------------------------------- Iteration      1(   9)  ---------------------------------------


    POTLOK:  cpu time      0.0056: real time      0.0057
    SETDIJ:  cpu time      0.0048: real time      0.0048
     EDDAV:  cpu time      1.4437: real time      1.4505
       DOS:  cpu time      0.0008: real time      0.0008
    CHARGE:  cpu time      0.0334: real time      0.0335
    MIXING:  cpu time      0.0003: real time      0.0003
    --------------------------------------------
      LOOP:  cpu time      1.4886: real time      1.4957

 eigenvalue-minimisations  : 13368
 total energy-change (2. order) : 0.6882895E-02  (-0.1740101E-02)
 number of electron      18.0000003 magnetization       3.5104164
 augmentation part       10.3335602 magnetization       3.1769577

 Broyden mixing:
  rms(total) = 0.46149E-01    rms(broyden)= 0.46149E-01
  rms(prec ) = 0.73662E-01
  weight for this iteration     100.00

 eigenvalues of (default mixing * dielectric matrix)
  average eigenvalue GAMMA=   1.0894
  2.1046  1.0144  0.6193  0.6193

 Free energy of the ion-electron system (eV)
  ---------------------------------------------------
  alpha Z        PSCENC =        58.86379771
  Ewald energy   TEWEN  =     -1384.88595003
  -Hartree energ DENC   =      -328.64286661
  -exchange      EXHF   =         0.00000000
  -V(xc)+E(xc)   XCENC  =        31.65787189
  PAW double counting   =      1557.67397741    -1661.34359533
  entropy T*S    EENTRO =        -0.00358583
  eigenvalues    EBANDS =        86.77343355
  atomic energy  EATOM  =      1626.72322989
  Solvation  Ediel_sol  =         0.00000000
  ---------------------------------------------------
  free energy    TOTEN  =       -13.18368737 eV

  energy without entropy =      -13.18010154  energy(sigma->0) =      -13.18189446


--------------------------------------------------------------------------------------------------------




--------------------------------------- Iteration      1(  10)  ---------------------------------------


    POTLOK:  cpu time      0.0056: real time      0.0059
    SETDIJ:  cpu time      0.0047: real time      0.0047
     EDDAV:  cpu time      1.8440: real time      1.8527
       DOS:  cpu time      0.0009: real time      0.0010
    CHARGE:  cpu time      0.0341: real time      0.0342
    MIXING:  cpu time      0.0003: real time      0.0003
    --------------------------------------------
      LOOP:  cpu time      1.8896: real time      1.8988

 eigenvalue-minimisations  : 15600
 total energy-change (2. order) : 0.1955566E-02  (-0.4936268E-03)
 number of electron      18.0000003 magnetization       3.5026581
 augmentation part       10.3533987 magnetization       3.1671327

 Broyden mixing:
  rms(total) = 0.12299E-01    rms(broyden)= 0.12299E-01
  rms(prec ) = 0.12660E-01
  weight for this iteration     100.00

 eigenvalues of (default mixing * dielectric matrix)
  average eigenvalue GAMMA=   1.0711
  1.8344  0.6197  0.6197  1.1409  1.1409

 Free energy of the ion-electron system (eV)
  ---------------------------------------------------
  alpha Z        PSCENC =        58.86379771
  Ewald energy   TEWEN  =     -1384.88595003
  -Hartree energ DENC   =      -327.04271813
  -exchange      EXHF   =         0.00000000
  -V(xc)+E(xc)   XCENC  =        31.62137076
  PAW double counting   =      1578.76498535    -1683.30195328
  entropy T*S    EENTRO =        -0.00362089
  eigenvalues    EBANDS =        86.07912682
  atomic energy  EATOM  =      1626.72322989
  Solvation  Ediel_sol  =         0.00000000
  ---------------------------------------------------
  free energy    TOTEN  =       -13.18173181 eV

  energy without entropy =      -13.17811092  energy(sigma->0) =      -13.17992136


--------------------------------------------------------------------------------------------------------




--------------------------------------- Iteration      1(  11)  ---------------------------------------


    POTLOK:  cpu time      0.0057: real time      0.0059
    SETDIJ:  cpu time      0.0049: real time      0.0049
     EDDAV:  cpu time      1.2276: real time      1.2336
       DOS:  cpu time      0.0008: real time      0.0008
    CHARGE:  cpu time      0.0335: real time      0.0336
    MIXING:  cpu time      0.0003: real time      0.0003
    --------------------------------------------
      LOOP:  cpu time      1.2728: real time      1.2791

 eigenvalue-minimisations  : 11952
 total energy-change (2. order) :-0.2197975E-03  (-0.8887420E-04)
 number of electron      18.0000003 magnetization       3.5118589
 augmentation part       10.3514333 magnetization       3.1689483

 Broyden mixing:
  rms(total) = 0.43602E-02    rms(broyden)= 0.43601E-02
  rms(prec ) = 0.81507E-02
  weight for this iteration     100.00

 eigenvalues of (default mixing * dielectric matrix)
  average eigenvalue GAMMA=   1.0828
  2.1927  1.0999  1.0999  0.6028  0.6453  0.8563

 Free energy of the ion-electron system (eV)
  ---------------------------------------------------
  alpha Z        PSCENC =        58.86379771
  Ewald energy   TEWEN  =     -1384.88595003
  -Hartree energ DENC   =      -327.20302722
  -exchange      EXHF   =         0.00000000
  -V(xc)+E(xc)   XCENC  =        31.60428897
  PAW double counting   =      1577.73078912    -1682.20231882
  entropy T*S    EENTRO =        -0.00361819
  eigenvalues    EBANDS =        86.19085697
  atomic energy  EATOM  =      1626.72322989
  Solvation  Ediel_sol  =         0.00000000
  ---------------------------------------------------
  free energy    TOTEN  =       -13.18195160 eV

  energy without entropy =      -13.17833341  energy(sigma->0) =      -13.18014251


--------------------------------------------------------------------------------------------------------




--------------------------------------- Iteration      1(  12)  ---------------------------------------


    POTLOK:  cpu time      0.0055: real time      0.0056
    SETDIJ:  cpu time      0.0049: real time      0.0049
     EDDAV:  cpu time      1.0833: real time      1.0886
       DOS:  cpu time      0.0008: real time      0.0008
    CHARGE:  cpu time      0.0335: real time      0.0336
    MIXING:  cpu time      0.0003: real time      0.0003
    --------------------------------------------
      LOOP:  cpu time      1.1283: real time      1.1339

 eigenvalue-minimisations  : 11208
 total energy-change (2. order) : 0.1842514E-04  (-0.1066905E-04)
 number of electron      18.0000003 magnetization       3.5105215
 augmentation part       10.3537608 magnetization       3.1658000

 Broyden mixing:
  rms(total) = 0.32952E-02    rms(broyden)= 0.32952E-02
  rms(prec ) = 0.33524E-02
  weight for this iteration     100.00

 eigenvalues of (default mixing * dielectric matrix)
  average eigenvalue GAMMA=   1.1566
  2.3794  1.5912  1.0955  1.0955  0.6133  0.6276  0.6937

 Free energy of the ion-electron system (eV)
  ---------------------------------------------------
  alpha Z        PSCENC =        58.86379771
  Ewald energy   TEWEN  =     -1384.88595003
  -Hartree energ DENC   =      -327.01337345
  -exchange      EXHF   =         0.00000000
  -V(xc)+E(xc)   XCENC  =        31.59911660
  PAW double counting   =      1581.02862116    -1685.60942373
  entropy T*S    EENTRO =        -0.00361765
  eigenvalues    EBANDS =        86.11566632
  atomic energy  EATOM  =      1626.72322989
  Solvation  Ediel_sol  =         0.00000000
  ---------------------------------------------------
  free energy    TOTEN  =       -13.18193318 eV

  energy without entropy =      -13.17831553  energy(sigma->0) =      -13.18012435


--------------------------------------------------------------------------------------------------------




--------------------------------------- Iteration      1(  13)  ---------------------------------------


    POTLOK:  cpu time      0.0055: real time      0.0056
    SETDIJ:  cpu time      0.0047: real time      0.0047
     EDDAV:  cpu time      1.1409: real time      1.1469
       DOS:  cpu time      0.0009: real time      0.0009
    CHARGE:  cpu time      0.0346: real time      0.0347
    MIXING:  cpu time      0.0004: real time      0.0004
    --------------------------------------------
      LOOP:  cpu time      1.1869: real time      1.1931

 eigenvalue-minimisations  : 11544
 total energy-change (2. order) :-0.1772633E-05  (-0.3688137E-06)
 number of electron      18.0000003 magnetization       3.5090675
 augmentation part       10.3535544 magnetization       3.1641304

 Broyden mixing:
  rms(total) = 0.14317E-02    rms(broyden)= 0.14317E-02
  rms(prec ) = 0.14390E-02
  weight for this iteration     100.00

 eigenvalues of (default mixing * dielectric matrix)
  average eigenvalue GAMMA=   1.2428
  2.4307  2.4307  1.1034  1.1034  0.9592  0.6038  0.6557  0.6557

 Free energy of the ion-electron system (eV)
  ---------------------------------------------------
  alpha Z        PSCENC =        58.86379771
  Ewald energy   TEWEN  =     -1384.88595003
  -Hartree energ DENC   =      -327.00880276
  -exchange      EXHF   =         0.00000000
  -V(xc)+E(xc)   XCENC  =        31.59722144
  PAW double counting   =      1581.68153429    -1686.26825014
  entropy T*S    EENTRO =        -0.00361765
  eigenvalues    EBANDS =        86.11890230
  atomic energy  EATOM  =      1626.72322989
  Solvation  Ediel_sol  =         0.00000000
  ---------------------------------------------------
  free energy    TOTEN  =       -13.18193495 eV

  energy without entropy =      -13.17831730  energy(sigma->0) =      -13.18012613


--------------------------------------------------------------------------------------------------------




--------------------------------------- Iteration      1(  14)  ---------------------------------------


    POTLOK:  cpu time      0.0057: real time      0.0059
    SETDIJ:  cpu time      0.0049: real time      0.0050
     EDDAV:  cpu time      0.4671: real time      0.4694
       DOS:  cpu time      0.0008: real time      0.0008
    --------------------------------------------
      LOOP:  cpu time      0.4786: real time      0.4811

 eigenvalue-minimisations  :  5304
 total energy-change (2. order) : 0.3242810E-06  (-0.3783327E-07)
 number of electron      18.0000003 magnetization       3.5090675
 augmentation part       10.3535544 magnetization       3.1641304

 Free energy of the ion-electron system (eV)
  ---------------------------------------------------
  alpha Z        PSCENC =        58.86379771
  Ewald energy   TEWEN  =     -1384.88595003
  -Hartree energ DENC   =      -327.01260744
  -exchange      EXHF   =         0.00000000
  -V(xc)+E(xc)   XCENC  =        31.59734086
  PAW double counting   =      1581.88471547    -1686.46484112
  entropy T*S    EENTRO =        -0.00361887
  eigenvalues    EBANDS =        86.11599891
  atomic energy  EATOM  =      1626.72322989
  Solvation  Ediel_sol  =         0.00000000
  ---------------------------------------------------
  free energy    TOTEN  =       -13.18193463 eV

  energy without entropy =      -13.17831575  energy(sigma->0) =      -13.18012519


--------------------------------------------------------------------------------------------------------




 average (electrostatic) potential at core
  the test charge radii are     1.0452
  (the norm of the test charge is              1.0000)
       1 -81.6578       2 -81.6578
 
 
 
 E-fermi :   6.8192     XC(G=0): -11.8278     alpha+bet :-13.3649

 Fermi energy:         6.8191975340

 spin component 1

 k-point     1 :       0.0000    0.0000    0.0000
  band No.  band energies     occupation 
      1      -0.5547      1.00000
      2       2.7571      1.00000
      3       4.4596      1.00000
      4       4.4668      1.00000
      5       4.4668      1.00000
      6       4.6590      1.00000
      7       4.6590      1.00000
      8       4.8631      1.00000
      9       4.8631      1.00000
     10       5.5759      1.00000
     11       5.5759      1.00000
     12       6.9644      0.00002
     13      11.0137      0.00000
     14      26.3418      0.00000
     15      26.5337      0.00000
     16      26.5337      0.00000
     17      28.1418      0.00000
     18      28.1418      0.00000
     19      28.6233      0.00000
     20      29.2034      0.00000
     21      32.9289      0.00000
     22      33.2486      0.00000
     23      33.2486      0.00000
     24      34.1017      0.00000

 k-point     2 :       0.0833   -0.0000    0.0000
  band No.  band energies     occupation 
      1      -0.3580      1.00000
      2       2.8629      1.00000
      3       4.3230      1.00000
      4       4.5396      1.00000
      5       4.5829      1.00000
      6       4.6331      1.00000
      7       4.7232      1.00000
      8       4.7839      1.00000
      9       4.8199      1.00000
     10       5.2097      1.00000
     11       5.5937      1.00000
     12       7.5662      0.00000
     13      11.0722      0.00000
     14      23.5139      0.00000
     15      24.9507      0.00000
     16      25.8960      0.00000
     17      29.1630      0.00000
     18      29.2685      0.00000
     19      29.9654      0.00000
     20      30.3491      0.00000
     21      30.5894      0.00000
     22      32.1788      0.00000
     23      32.5023      0.00000
     24      32.5058      0.00000

 k-point     3 :       0.1667   -0.0000    0.0000
  band No.  band energies     occupation 
      1       0.2160      1.00000
      2       3.1248      1.00000
      3       4.1596      1.00000
      4       4.4039      1.00000
      5       4.5288      1.00000
      6       4.7123      1.00000
      7       4.7442      1.00000
      8       4.7785      1.00000
      9       4.8987      1.00000
     10       4.9023      1.00000
     11       5.6321      1.00000
     12       8.7310      0.00000
     13      11.2705      0.00000
     14      19.9768      0.00000
     15      23.0303      0.00000
     16      25.0722      0.00000
     17      26.7906      0.00000
     18      28.1435      0.00000
     19      29.3840      0.00000
     20      30.6777      0.00000
     21      31.1256      0.00000
     22      31.3528      0.00000
     23      31.5366      0.00000
     24      32.7002      0.00000

 k-point     4 :       0.2500    0.0000    0.0000
  band No.  band energies     occupation 
      1       1.1026      1.00000
      2       3.3383      1.00000
      3       3.9353      1.00000
      4       4.0750      1.00000
      5       4.4755      1.00000
      6       4.5814      1.00000
      7       4.7580      1.00000
      8       5.0380      1.00000
      9       5.0554      1.00000
     10       5.1583      1.00000
     11       5.6691      1.00000
     12      10.1420      0.00000
     13      11.6605      0.00000
     14      16.6735      0.00000
     15      21.3790      0.00000
     16      23.7265      0.00000
     17      23.8583      0.00000
     18      25.5916      0.00000
     19      28.2710      0.00000
     20      29.5736      0.00000
     21      30.7830      0.00000
     22      31.4306      0.00000
     23      31.9453      0.00000
     24      34.6562      0.00000

 k-point     5 :       0.3333    0.0000    0.0000
  band No.  band energies     occupation 
      1       2.1085      1.00000
      2       3.3041      1.00000
      3       3.5856      1.00000
      4       4.1808      1.00000
      5       4.4625      1.00000
      6       4.5616      1.00000
      7       4.6457      1.00000
      8       5.3459      1.00000
      9       5.4341      1.00000
     10       5.5183      1.00000
     11       5.6950      1.00000
     12      11.7374      0.00000
     13      12.0706      0.00000
     14      13.9719      0.00000
     15      20.0930      0.00000
     16      20.9621      0.00000
     17      21.3421      0.00000
     18      24.6703      0.00000
     19      27.2508      0.00000
     20      28.1834      0.00000
     21      30.2631      0.00000
     22      31.8150      0.00000
     23      33.5167      0.00000
     24      35.8450      0.00000

 k-point     6 :       0.4167    0.0000    0.0000
  band No.  band energies     occupation 
      1       2.7995      1.00000
      2       3.1811      1.00000
      3       3.3767      1.00000
      4       4.3808      1.00000
      5       4.4708      1.00000
      6       4.5676      1.00000
      7       4.6967      1.00000
      8       5.5721      1.00000
      9       5.6600      1.00000
     10       5.7090      1.00000
     11       6.3851      1.00000
     12      10.4960      0.00000
     13      13.4329      0.00000
     14      14.0120      0.00000
     15      18.5731      0.00000
     16      18.8015      0.00000
     17      19.2638      0.00000
     18      24.3688      0.00000
     19      26.6070      0.00000
     20      27.2998      0.00000
     21      29.9607      0.00000
     22      32.0292      0.00000
     23      35.5111      0.00000
     24      36.6297      0.00000

 k-point     7 :       0.5000    0.0000    0.0000
  band No.  band energies     occupation 
      1       3.0078      1.00000
      2       3.0997      1.00000
      3       3.3076      1.00000
      4       4.3518      1.00000
      5       4.5395      1.00000
      6       4.6603      1.00000
      7       4.7433      1.00000
      8       5.6538      1.00000
      9       5.7133      1.00000
     10       5.7500      1.00000
     11       7.4758      0.00000
     12       8.8474      0.00000
     13      14.5610      0.00000
     14      14.8685      0.00000
     15      17.2154      0.00000
     16      17.3786      0.00000
     17      18.9753      0.00000
     18      24.2829      0.00000
     19      26.3886      0.00000
     20      26.9961      0.00000
     21      29.8617      0.00000
     22      32.1066      0.00000
     23      36.9100      0.00000
     24      37.6504      0.00000

 k-point     8 :       0.0833    0.0833    0.0000
  band No.  band energies     occupation 
      1       0.0278      1.00000
      2       3.0507      1.00000
      3       4.1924      1.00000
      4       4.5580      1.00000
      5       4.5693      1.00000
      6       4.6836      1.00000
      7       4.6880      1.00000
      8       4.6987      1.00000
      9       4.8656      1.00000
     10       4.9768      1.00000
     11       5.6163      1.00000
     12       8.3914      0.00000
     13      11.2017      0.00000
     14      21.7436      0.00000
     15      21.8579      0.00000
     16      27.0882      0.00000
     17      28.3177      0.00000
     18      28.4111      0.00000
     19      28.4819      0.00000
     20      30.0653      0.00000
     21      30.3977      0.00000
     22      30.4015      0.00000
     23      33.6809      0.00000
     24      34.0910      0.00000

 k-point     9 :       0.1667    0.0833    0.0000
  band No.  band energies     occupation 
      1       0.7636      1.00000
      2       3.3183      1.00000
      3       4.0315      1.00000
      4       4.1127      1.00000
      5       4.4985      1.00000
      6       4.5634      1.00000
      7       4.8456      1.00000
      8       4.8540      1.00000
      9       4.9575      1.00000
     10       5.1323      1.00000
     11       5.6444      1.00000
     12       9.6234      0.00000
     13      11.5066      0.00000
     14      18.3807      0.00000
     15      20.2869      0.00000
     16      25.3265      0.00000
     17      25.8237      0.00000
     18      27.1351      0.00000
     19      27.5265      0.00000
     20      28.1913      0.00000
     21      31.0890      0.00000
     22      31.3597      0.00000
     23      33.5435      0.00000
     24      33.8962      0.00000

 k-point    10 :       0.2500    0.0833    0.0000
  band No.  band energies     occupation 
      1       1.7371      1.00000
      2       3.4130      1.00000
      3       3.7293      1.00000
      4       4.0099      1.00000
      5       4.4472      1.00000
      6       4.5123      1.00000
      7       4.7292      1.00000
      8       5.1014      1.00000
      9       5.2727      1.00000
     10       5.5043      1.00000
     11       5.6683      1.00000
     12      11.1012      0.00000
     13      12.0222      0.00000
     14      15.2750      0.00000
     15      19.0305      0.00000
     16      22.4153      0.00000
     17      22.9765      0.00000
     18      26.0671      0.00000
     19      26.6693      0.00000
     20      27.0299      0.00000
     21      31.8640      0.00000
     22      33.1820      0.00000
     23      33.3483      0.00000
     24      34.4667      0.00000

 k-point    11 :       0.3333    0.0833    0.0000
[...]
     22      31.5563      0.00000
     23      33.6864      0.00000
     24      33.6864      0.00000

 k-point    90 :       0.2500    0.1667    0.5000
  band No.  band energies     occupation 
      1       3.8609      1.00000
      2       3.8609      1.00000
      3       5.4478      1.00000
      4       5.4478      1.00000
      5       5.9206      1.00000
      6       5.9206      1.00000
      7       6.7508      0.97349
      8       6.7508      0.97349
      9       7.6957      0.00000
     10       7.6957      0.00000
     11       8.2966      0.00000
     12       8.2966      0.00000
     13      16.4376      0.00000
     14      16.4376      0.00000
     15      18.4054      0.00000
     16      18.4054      0.00000
     17      22.2630      0.00000
     18      22.2630      0.00000
     19      29.9652      0.00000
     20      29.9652      0.00000
     21      31.4494      0.00000
     22      31.4494      0.00000
     23      32.9555      0.00000
     24      32.9555      0.00000

 k-point    91 :       0.3333    0.1667    0.5000
  band No.  band energies     occupation 
      1       4.2929      1.00000
      2       4.2929      1.00000
      3       5.4295      1.00000
      4       5.4295      1.00000
      5       6.0103      1.00000
      6       6.0103      1.00000
      7       6.8416      0.26361
      8       6.8416      0.26361
      9       7.6935      0.00000
     10       7.6935      0.00000
     11       9.1581      0.00000
     12       9.1581      0.00000
     13      14.0747      0.00000
     14      14.0747      0.00000
     15      17.8322      0.00000
     16      17.8322      0.00000
     17      23.4402      0.00000
     18      23.4402      0.00000
     19      28.5101      0.00000
     20      28.5101      0.00000
     21      30.2185      0.00000
     22      30.2185      0.00000
     23      33.6041      0.00000
     24      33.6041      0.00000

 k-point    92 :       0.4167    0.1667    0.5000
  band No.  band energies     occupation 
      1       4.4079      1.00000
      2       4.4079      1.00000
      3       5.4335      1.00000
      4       5.4335      1.00000
      5       6.0470      1.00000
      6       6.0470      1.00000
      7       6.9526      0.00008
      8       6.9526      0.00008
      9       7.6515      0.00000
     10       7.6515      0.00000
     11       9.8178      0.00000
     12       9.8178      0.00000
     13      12.8900      0.00000
     14      12.8900      0.00000
     15      17.6331      0.00000
     16      17.6331      0.00000
     17      24.1657      0.00000
     18      24.1657      0.00000
     19      27.5873      0.00000
     20      27.5873      0.00000
     21      29.8845      0.00000
     22      29.8845      0.00000
     23      33.7152      0.00000
     24      33.7152      0.00000

 k-point    93 :       0.2500    0.2500    0.5000
  band No.  band energies     occupation 
      1       4.4099      1.00000
      2       4.4099      1.00000
      3       5.4487      1.00000
      4       5.4487      1.00000
      5       5.8009      1.00000
      6       5.8009      1.00000
      7       6.7348      0.99154
      8       6.7348      0.99154
      9       7.7084      0.00000
     10       7.7084      0.00000
     11       9.2880      0.00000
     12       9.2880      0.00000
     13      15.4971      0.00000
     14      15.4971      0.00000
     15      15.9594      0.00000
     16      15.9594      0.00000
     17      23.4447      0.00000
     18      23.4447      0.00000
     19      29.4742      0.00000
     20      29.4742      0.00000
     21      30.6201      0.00000
     22      30.6201      0.00000
     23      33.9513      0.00000
     24      33.9513      0.00000

 k-point    94 :       0.3333    0.2500    0.5000
  band No.  band energies     occupation 
      1       4.7267      1.00000
      2       4.7267      1.00000
      3       5.4523      1.00000
      4       5.4523      1.00000
      5       5.7047      1.00000
      6       5.7047      1.00000
      7       6.8056      0.65004
      8       6.8056      0.65004
      9       7.6429      0.00000
     10       7.6429      0.00000
     11      10.5443      0.00000
     12      10.5443      0.00000
     13      13.5460      0.00000
     14      13.5460      0.00000
     15      15.4278      0.00000
     16      15.4278      0.00000
     17      24.7246      0.00000
     18      24.7246      0.00000
     19      27.8268      0.00000
     20      27.8268      0.00000
     21      30.1656      0.00000
     22      30.1656      0.00000
     23      35.0364      0.00000
     24      35.0364      0.00000

 k-point    95 :       0.3333    0.3333    0.5000
  band No.  band energies     occupation 
      1       5.1370      1.00000
      2       5.1370      1.00000
      3       5.1449      1.00000
      4       5.1449      1.00000
      5       5.6661      1.00000
      6       5.6661      1.00000
      7       6.7898      0.79717
      8       6.7898      0.79717
      9       7.6070      0.00000
     10       7.6070      0.00000
     11      11.6676      0.00000
     12      11.6676      0.00000
     13      13.0964      0.00000
     14      13.0964      0.00000
     15      14.2421      0.00000
     16      14.2421      0.00000
     17      25.8064      0.00000
     18      25.8064      0.00000
     19      26.8823      0.00000
     20      26.8823      0.00000
     21      29.7860      0.00000
     22      29.7860      0.00000
     23      38.1014      0.00000
     24      38.1115      0.00000


--------------------------------------------------------------------------------------------------------


 soft charge-density along one line, spin component           1
         0         1         2         3         4         5         6         7         8         9
 total charge-density along one line
 
 soft charge-density along one line, spin component           2
         0         1         2         3         4         5         6         7         8         9
 total charge-density along one line
 
 pseudopotential strength for first ion, spin component:           1
 -2.968  -0.000  -0.000   0.000   0.000  -3.517  -0.000  -0.000
 -0.000  -2.978   0.000  -0.000  -0.000  -0.000  -3.526   0.000
 -0.000   0.000  -2.964  -0.000  -0.000  -0.000   0.000  -3.513
  0.000  -0.000  -0.000  -2.978  -0.000   0.000  -0.000  -0.000
  0.000  -0.000  -0.000  -0.000  -2.968   0.000  -0.000  -0.000
 -3.517  -0.000  -0.000   0.000   0.000  -4.010  -0.000  -0.000
 -0.000  -3.526   0.000  -0.000  -0.000  -0.000  -4.018   0.000
 -0.000   0.000  -3.513  -0.000  -0.000  -0.000   0.000  -4.005
  0.000  -0.000  -0.000  -3.526  -0.000   0.000  -0.000  -0.000
  0.000  -0.000  -0.000  -0.000  -3.517   0.000  -0.000  -0.000
  0.000  -0.000   0.000   0.000   0.000   0.000  -0.000   0.000
 -0.000  -0.000   0.001   0.000   0.000  -0.000  -0.000   0.001
 -0.000  -0.000   0.000  -0.000   0.001  -0.000  -0.000   0.000
 -0.000   0.000   0.000  -0.000   0.000  -0.000   0.000   0.000
  0.001  -0.000   0.000   0.000  -0.000   0.001  -0.000   0.000
 -0.000  -0.000   0.000  -0.000   0.001  -0.000  -0.000   0.000
 -0.000   0.000   0.000  -0.000   0.000  -0.000   0.000   0.000
  0.001  -0.000   0.000   0.000  -0.000   0.001  -0.000   0.000
 pseudopotential strength for first ion, spin component:           2
 -1.520  -0.000  -0.000   0.000   0.000  -2.130  -0.000  -0.000
 -0.000  -1.508   0.000  -0.000  -0.000  -0.000  -2.119   0.000
 -0.000   0.000  -1.529  -0.000   0.000  -0.000   0.000  -2.139
  0.000  -0.000  -0.000  -1.508  -0.000   0.000  -0.000  -0.000
  0.000  -0.000   0.000  -0.000  -1.520   0.000  -0.000   0.000
 -2.130  -0.000  -0.000   0.000   0.000  -2.681  -0.000  -0.000
 -0.000  -2.119   0.000  -0.000  -0.000  -0.000  -2.671   0.000
 -0.000   0.000  -2.139  -0.000   0.000  -0.000   0.000  -2.691
  0.000  -0.000  -0.000  -2.119  -0.000   0.000  -0.000  -0.000
  0.000  -0.000   0.000  -0.000  -2.130   0.000  -0.000   0.000
  0.000  -0.000  -0.000   0.000   0.000   0.000  -0.000  -0.000
  0.000  -0.000  -0.000   0.000   0.000  -0.000  -0.000  -0.000
 -0.000  -0.000   0.000  -0.000   0.000  -0.000  -0.000   0.000
 -0.000  -0.000   0.000  -0.000   0.000  -0.000  -0.000   0.000
  0.000  -0.000   0.000   0.000  -0.000   0.000  -0.000   0.000
 -0.000  -0.000   0.000  -0.000  -0.000  -0.000  -0.000   0.000
 -0.000  -0.000   0.000  -0.000   0.000  -0.000  -0.000   0.000
 -0.000  -0.000   0.000   0.000  -0.000  -0.000  -0.000   0.000
 total augmentation occupancy for first ion, spin component:           1
  2.666   0.000   0.000  -0.000  -0.000  -1.019   0.000   0.000   0.000   0.000   0.000   0.000   0.000   0.000  -0.024   0.000
 -0.000   2.760  -0.000   0.000   0.000  -0.000  -1.072   0.000   0.000   0.000   0.000   0.000  -0.000   0.000  -0.000   0.000
  0.000  -0.000   2.564   0.000   0.000   0.000   0.000  -0.976   0.000  -0.000  -0.009   0.001   0.000   0.000  -0.000   0.000
  0.000   0.000   0.000   2.760   0.000   0.000   0.000   0.000  -1.072   0.000   0.000   0.000   0.000  -0.000   0.000  -0.000
  0.000   0.000   0.000  -0.000   2.666   0.000   0.000  -0.000   0.000  -1.019  -0.000   0.000  -0.024   0.000  -0.000   0.001
 -1.019  -0.000  -0.000  -0.000   0.000   0.911  -0.000   0.000   0.000   0.000   0.000   0.000  -0.000  -0.000   0.037   0.000
 -0.000  -1.072  -0.000   0.000   0.000   0.000   0.920  -0.000   0.000   0.000  -0.000  -0.000   0.000   0.000  -0.000   0.000
 -0.000   0.000  -0.976   0.000  -0.000   0.000   0.000   0.929   0.000   0.000   0.014  -0.002   0.000  -0.000  -0.000  -0.000
  0.000  -0.000   0.000  -1.072   0.000   0.000   0.000   0.000   0.920   0.000   0.000   0.000   0.000   0.000   0.000   0.000
  0.000  -0.000  -0.000   0.000  -1.019   0.000   0.000   0.000   0.000   0.911   0.000  -0.000   0.037   0.000  -0.000  -0.003
 -0.000  -0.000  -0.009   0.000  -0.000  -0.000   0.000   0.014   0.000   0.000   1.650  -0.149   0.000   0.000   0.000  -0.000
  0.000  -0.000   0.001   0.000   0.000   0.000   0.000  -0.002   0.000  -0.000  -0.149   0.020  -0.000   0.000  -0.000  -0.000
  0.000  -0.000  -0.000  -0.000  -0.024  -0.000  -0.000   0.000   0.000   0.037   0.000   0.000   0.189   0.000  -0.000  -0.017
  0.000  -0.000   0.000   0.000  -0.000   0.000  -0.000  -0.000  -0.000   0.000  -0.000  -0.000   0.000   0.195   0.000  -0.000
 -0.024  -0.000  -0.000  -0.000   0.000   0.037  -0.000   0.000  -0.000   0.000   0.000   0.000  -0.000   0.000   0.189   0.000
 -0.000  -0.000   0.000   0.000   0.001   0.000  -0.000  -0.000   0.000  -0.003   0.000   0.000  -0.017   0.000   0.000   0.002
  0.000   0.000  -0.000  -0.000   0.000   0.000   0.000  -0.000   0.000   0.000   0.000  -0.000   0.000  -0.017   0.000  -0.000
  0.001   0.000  -0.000   0.000   0.000  -0.003  -0.000   0.000   0.000  -0.000   0.000  -0.000  -0.000   0.000  -0.017   0.000
 total augmentation occupancy for first ion, spin component:           2
  1.978   0.000   0.000   0.000   0.000  -0.905  -0.000   0.000   0.000   0.000   0.000  -0.000   0.000   0.000   0.003  -0.000
  0.000   2.036  -0.000   0.000   0.000   0.000  -0.938   0.000   0.000  -0.000   0.000   0.000   0.000   0.000   0.000   0.000
  0.000   0.000   1.983   0.000   0.000   0.000  -0.000  -0.910   0.000  -0.000   0.006   0.000   0.000  -0.000   0.000  -0.000
  0.000   0.000   0.000   2.036   0.000   0.000   0.000   0.000  -0.938  -0.000   0.000   0.000   0.000   0.000   0.000   0.000
  0.000   0.000   0.000  -0.000   1.978  -0.000   0.000  -0.000   0.000  -0.905   0.000  -0.000   0.003   0.000  -0.000  -0.001
 -0.905  -0.000  -0.000  -0.000   0.000   0.244   0.000   0.000   0.000   0.000   0.000   0.000  -0.000   0.000  -0.007   0.000
 -0.000  -0.938   0.000   0.000   0.000  -0.000   0.270  -0.000  -0.000   0.000   0.000   0.000   0.000  -0.000   0.000  -0.000
  0.000  -0.000  -0.910  -0.000  -0.000  -0.000  -0.000   0.236   0.000   0.000  -0.006   0.000  -0.000  -0.000  -0.000   0.000
  0.000  -0.000   0.000  -0.938  -0.000   0.000   0.000  -0.000   0.270   0.000   0.000   0.000  -0.000   0.000  -0.000  -0.000
 -0.000   0.000  -0.000   0.000  -0.905   0.000   0.000   0.000   0.000   0.244  -0.000   0.000  -0.007   0.000  -0.000   0.001
  0.000   0.000   0.006   0.000   0.000  -0.000  -0.000  -0.006  -0.000  -0.000  -0.246   0.071   0.000   0.000   0.000  -0.000
 -0.000   0.000   0.000  -0.000  -0.000   0.000  -0.000   0.000   0.000   0.000   0.071  -0.010  -0.000   0.000  -0.000   0.000
 -0.000   0.000   0.000  -0.000   0.003   0.000  -0.000  -0.000  -0.000  -0.007   0.000   0.000  -0.030   0.000  -0.000   0.004
  0.000  -0.000  -0.000  -0.000  -0.000  -0.000  -0.000   0.000   0.000   0.000  -0.000   0.000   0.000  -0.033   0.000   0.000
  0.003   0.000  -0.000   0.000   0.000  -0.007  -0.000   0.000   0.000   0.000  -0.000   0.000  -0.000   0.000  -0.030   0.000
  0.000   0.000  -0.000  -0.000  -0.001   0.000   0.000   0.000  -0.000   0.001   0.000  -0.000   0.004   0.000   0.000  -0.000
  0.000  -0.000   0.000   0.000   0.000   0.000  -0.000  -0.000   0.000   0.000  -0.000   0.000  -0.000   0.004   0.000  -0.000
 -0.001  -0.000  -0.000   0.000   0.000   0.001   0.000   0.000   0.000   0.000   0.000   0.000  -0.000   0.000   0.004  -0.000


------------------------ aborting loop because EDIFF is reached ----------------------------------------





 total charge

# of ion       s       p       d       tot
------------------------------------------
    1        0.391   0.322   7.141   7.854
    2        0.391   0.322   7.141   7.854
--------------------------------------------------
tot          0.782   0.644  14.282  15.709



 magnetization (x)

# of ion       s       p       d       tot
------------------------------------------
    1       -0.012  -0.048   1.892   1.832
    2       -0.012  -0.048   1.892   1.832
--------------------------------------------------
tot         -0.025  -0.096   3.784   3.663
 
    CHARGE:  cpu time      0.0336: real time      0.0337
    FORLOC:  cpu time      0.0001: real time      0.0001
    FORNL :  cpu time      0.0335: real time      0.0336
    STRESS:  cpu time      0.2349: real time      0.2357
    FORCOR:  cpu time      0.0050: real time      0.0050
    FORHAR:  cpu time      0.0005: real time      0.0005
    MIXING:  cpu time      0.0004: real time      0.0006
    OFIELD:  cpu time      0.0000: real time      0.0000

  FORCE on cell =-STRESS in cart. coord.  units (eV):
  Direction    XX          YY          ZZ          XY          YZ          ZX
  --------------------------------------------------------------------------------------
  Alpha Z    58.86380    58.86380    58.86380
  Ewald    -464.27982  -464.27982  -456.32728     0.00000     0.00000     0.00000
  Hartree   107.61318   107.61318   111.79334    -0.00000    -0.00000    -0.00000
  E(xc)     -90.96088   -90.96091   -90.96109     0.00000     0.00000    -0.00000
  Local     -59.90428   -59.90408   -71.97337    -0.00000     0.00000    -0.00000
  n-local   -21.61491   -12.99347   -17.08921     2.92853    -0.51334     1.99578
  augment   313.78046   313.78029   313.67888    -0.00000    -0.00000    -0.00000
  Kinetic   149.21842   143.99253   146.52357    -2.86410    -0.62027     0.45392
  Fock        0.00000     0.00000     0.00000     0.00000     0.00000     0.00000
  -------------------------------------------------------------------------------------
  Total      -5.58626    -5.58626    -5.49136     0.00000     0.00000     0.00000
  in kB    -310.94779  -310.94779  -305.66536     0.00000     0.00000     0.00000
  external pressure =     -309.19 kB  Pullay stress =        0.00 kB


 VOLUME and BASIS-vectors are now :
 -----------------------------------------------------------------------------
  energy-cutoff  :      425.00
  volume of cell :       28.78
      direct lattice vectors                 reciprocal lattice vectors
     1.370751585 -2.374211391  0.000000000     0.364763394 -0.210596243  0.000000000
     1.370751585  2.374211391  0.000000000     0.364763394  0.210596243  0.000000000
     0.000000000  0.000000000  4.422174271     0.000000000  0.000000000  0.226133105

  length of vectors
     2.741503171  2.741503171  4.422174271     0.421192487  0.421192487  0.226133105


 FORCES acting on ions
    electron-ion (+dipol)            ewald-force                    non-local-force                 convergence-correction
 -----------------------------------------------------------------------------------------------
   0.327E-12 -.871E-08 -.980E-12   -.204E-14 0.205E-11 -.195E-13   0.173E-17 -.173E-17 0.217E-18   -.245E-13 -.197E-10 0.113E-13
   0.657E-12 0.874E-08 -.577E-11   0.257E-15 -.205E-11 0.195E-13   0.867E-18 0.000E+00 -.651E-18   0.117E-13 0.197E-10 -.567E-13
 -----------------------------------------------------------------------------------------------
   0.983E-12 0.387E-10 -.675E-11   -.179E-14 -.240E-14 0.000E+00   0.260E-17 -.173E-17 -.434E-18   -.128E-13 -.191E-13 -.454E-13
 
 
 POSITION                                       TOTAL-FORCE (eV/Angst)
 -----------------------------------------------------------------------------------
      1.37075      0.79140      1.10554         0.000000      0.000000      0.000000
      1.37075     -0.79140      3.31663        -0.000000     -0.000000     -0.000000
 -----------------------------------------------------------------------------------
    total drift:                                0.000000      0.000000     -0.000000


--------------------------------------------------------------------------------------------------------



  FREE ENERGIE OF THE ION-ELECTRON SYSTEM (eV)
  ---------------------------------------------------
  free  energy   TOTEN  =       -13.18193463 eV

  energy  without entropy=      -13.17831575  energy(sigma->0) =      -13.18012519
 


--------------------------------------------------------------------------------------------------------


    POTLOK:  cpu time      0.0104: real time      0.0105


--------------------------------------------------------------------------------------------------------




--------------------------------------------------------------------------------------------------------


  
 reached required accuracy - stopping structural energy minimisation
     LOOP+:  cpu time     16.4637: real time     16.5506
    4ORBIT:  cpu time      0.0000: real time      0.0000



 total charge

# of ion       s       p       d       tot
------------------------------------------
    1        0.391   0.322   7.141   7.854
    2        0.391   0.322   7.141   7.854
--------------------------------------------------
tot          0.782   0.644  14.282  15.709



 magnetization (x)

# of ion       s       p       d       tot
------------------------------------------
    1       -0.012  -0.048   1.892   1.832
    2       -0.012  -0.048   1.892   1.832
--------------------------------------------------
tot         -0.025  -0.096   3.784   3.663
 

 total amount of memory used by VASP MPI-rank0    41548. kBytes
=======================================================================

   base      :      30000. kBytes
   nonl-proj :       8227. kBytes
   fftplans  :        183. kBytes
   grid      :       1107. kBytes
   one-center:         62. kBytes
   wavefun   :       1969. kBytes
 
  
  
 General timing and accounting informations for this job:
 ========================================================
  
                  Total CPU time used (sec):       17.526
                            User time (sec):       17.012
                          System time (sec):        0.514
                         Elapsed time (sec):       19.130
  
                   Maximum memory used (kb):      238524.
                   Average memory used (kb):          N/A
  
                          Minor page faults:        43432
                          Major page faults:           80
                 Voluntary context switches:         2222
