PROCAR lm decomposed
# of k-points:   95         # of bands:   24         # of ions:    2

 k-point     1 :    0.00000000 0.00000000 0.00000000     weight = 0.00086806

band     1 # energy   -0.55470135 # occ.  1.00000000
 
ion      s     py     pz     px    dxy    dyz    dz2    dxz  x2-y2    tot
    1  0.268  0.000  0.000  0.000  0.000  0.000  0.000  0.000  0.000  0.268
    2  0.268  0.000  0.000  0.000  0.000  0.000  0.000  0.000  0.000  0.268
tot    0.537  0.000  0.000  0.000  0.000  0.000  0.000  0.000  0.000  0.537
 
band     2 # energy    2.75710040 # occ.  1.00000000
 
ion      s     py     pz     px    dxy    dyz    dz2    dxz  x2-y2    tot
    1  0.058  0.000  0.000  0.000  0.000  0.000  0.353  0.000  0.000  0.410
    2  0.058  0.000  0.000  0.000  0.000  0.000  0.353  0.000  0.000  0.410
tot    0.115  0.000  0.000  0.000  0.000  0.000  0.705  0.000  0.000  0.821
 
band     3 # energy    4.45956992 # occ.  1.00000000
 
ion      s     py     pz     px    dxy    dyz    dz2    dxz  x2-y2    tot
    1  0.000  0.000  0.000  0.000  0.000  0.000  0.477  0.000  0.000  0.477
    2  0.000  0.000  0.000  0.000  0.000  0.000  0.477  0.000  0.000  0.477
tot    0.000  0.000  0.000  0.000  0.000  0.000  0.955  0.000  0.000  0.955
 
band     4 # energy    4.46680671 # occ.  1.00000000
 
ion      s     py     pz     px    dxy    dyz    dz2    dxz  x2-y2    tot
    1  0.000  0.000  0.000  0.000  0.000  0.000  0.000  0.000  0.475  0.475
    2  0.000  0.000  0.000  0.000  0.000  0.000  0.000  0.000  0.475  0.475
tot    0.000  0.001  0.000  0.000  0.000  0.000  0.000  0.000  0.950  0.950
 
band     5 # energy    4.46680737 # occ.  1.00000000
 
ion      s     py     pz     px    dxy    dyz    dz2    dxz  x2-y2    tot
    1  0.000  0.000  0.000  0.000  0.475  0.000  0.000  0.000  0.000  0.475
    2  0.000  0.000  0.000  0.000  0.475  0.000  0.000  0.000  0.000  0.475
tot    0.000  0.000  0.000  0.001  0.950  0.000  0.000  0.000  0.000  0.950
 
band     6 # energy    4.65903086 # occ.  1.00000000
 
ion      s     py     pz     px    dxy    dyz    dz2    dxz  x2-y2    tot
    1  0.000  0.000  0.000  0.000  0.000  0.000  0.000  0.000  0.480  0.480
    2  0.000  0.000  0.000  0.000  0.000  0.000  0.000  0.000  0.480  0.480
tot    0.000  0.001  0.000  0.000  0.000  0.000  0.000  0.000  0.960  0.960
 
band     7 # energy    4.65903141 # occ.  1.00000000
 
ion      s     py     pz     px    dxy    dyz    dz2    dxz  x2-y2    tot
    1  0.000  0.000  0.000  0.000  0.480  0.000  0.000  0.000  0.000  0.480
    2  0.000  0.000  0.000  0.000  0.480  0.000  0.000  0.000  0.000  0.480
tot    0.000  0.000  0.000  0.001  0.960  0.000  0.000  0.000  0.000  0.960
 
band     8 # energy    4.86312672 # occ.  1.00000000
 
ion      s     py     pz     px    dxy    dyz    dz2    dxz  x2-y2    tot
    1  0.000  0.000  0.000  0.000  0.000  0.484  0.000  0.000  0.000  0.484
    2  0.000  0.000  0.000  0.000  0.000  0.484  0.000  0.000  0.000  0.484
tot    0.000  0.000  0.000  0.000  0.000  0.968  0.000  0.000  0.000  0.968
 
band     9 # energy    4.86312699 # occ.  1.00000000
 
ion      s     py     pz     px    dxy    dyz    dz2    dxz  x2-y2    tot
    1  0.000  0.000  0.000  0.000  0.000  0.000  0.000  0.484  0.000  0.484
    2  0.000  0.000  0.000  0.000  0.000  0.000  0.000  0.484  0.000  0.484
tot    0.000  0.000  0.000  0.000  0.000  0.000  0.000  0.968  0.000  0.968
 
band    10 # energy    5.57587560 # occ.  1.00000000
 
ion      s     py     pz     px    dxy    dyz    dz2    dxz  x2-y2    tot
    1  0.000  0.000  0.000  0.000  0.000  0.491  0.000  0.000  0.000  0.491
    2  0.000  0.000  0.000  0.000  0.000  0.491  0.000  0.000  0.000  0.491
tot    0.000  0.000  0.000  0.000  0.000  0.982  0.000  0.000  0.000  0.982
 
band    11 # energy    5.57587586 # occ.  1.00000000
 
ion      s     py     pz     px    dxy    dyz    dz2    dxz  x2-y2    tot
    1  0.000  0.000  0.000  0.000  0.000  0.000  0.000  0.491  0.000  0.491
    2  0.000  0.000  0.000  0.000  0.000  0.000  0.000  0.491  0.000  0.491
tot    0.000  0.000  0.000  0.000  0.000  0.000  0.000  0.982  0.000  0.982
 
band    12 # energy    6.96442443 # occ.  0.00001999
 
ion      s     py     pz     px    dxy    dyz    dz2    dxz  x2-y2    tot
    1  0.000  0.000  0.244  0.000  0.000  0.000  0.000  0.000  0.000  0.244
    2  0.000  0.000  0.244  0.000  0.000  0.000  0.000  0.000  0.000  0.244
tot    0.000  0.000  0.488  0.000  0.000  0.000  0.000  0.000  0.000  0.488
 
band    13 # energy   11.01368900 # occ.  0.00000000
 
ion      s     py     pz     px    dxy    dyz    dz2    dxz  x2-y2    tot
    1  0.208  0.000  0.000  0.000  0.000  0.000  0.183  0.000  0.000  0.391
    2  0.208  0.000  0.000  0.000  0.000  0.000  0.183  0.000  0.000  0.391
tot    0.415  0.000  0.000  0.000  0.000  0.000  0.366  0.000  0.000  0.782
 
band    14 # energy   26.34184289 # occ.  0.00000000
 
ion      s     py     pz     px    dxy    dyz    dz2    dxz  x2-y2    tot
    1  0.007  0.000  0.000  0.000  0.000  0.000  0.031  0.000  0.000  0.038
    2  0.007  0.000  0.000  0.000  0.000  0.000  0.031  0.000  0.000  0.038
tot    0.014  0.000  0.000  0.000  0.000  0.000  0.062  0.000  0.000  0.076
 
band    15 # energy   26.53367353 # occ.  0.00000000
 
ion      s     py     pz     px    dxy    dyz    dz2    dxz  x2-y2    tot
    1  0.000  0.274  0.000  0.000  0.000  0.000  0.000  0.000  0.061  0.335
    2  0.000  0.274  0.000  0.000  0.000  0.000  0.000  0.000  0.061  0.335
tot    0.000  0.549  0.000  0.000  0.000  0.000  0.000  0.000  0.121  0.670
 
band    16 # energy   26.53367563 # occ.  0.00000000
 
ion      s     py     pz     px    dxy    dyz    dz2    dxz  x2-y2    tot
    1  0.000  0.000  0.000  0.274  0.061  0.000  0.000  0.000  0.000  0.335
    2  0.000  0.000  0.000  0.274  0.061  0.000  0.000  0.000  0.000  0.335
tot    0.000  0.000  0.000  0.549  0.121  0.000  0.000  0.000  0.000  0.670
 
band    17 # energy   28.14177972 # occ.  0.00000000
 
ion      s     py     pz     px    dxy    dyz    dz2    dxz  x2-y2    tot
    1  0.000  0.112  0.000  0.000  0.000  0.000  0.000  0.000  0.224  0.336
    2  0.000  0.112  0.000  0.000  0.000  0.000  0.000  0.000  0.224  0.336
tot    0.000  0.225  0.000  0.000  0.000  0.000  0.000  0.000  0.448  0.673
 
band    18 # energy   28.14178653 # occ.  0.00000000
 
ion      s     py     pz     px    dxy    dyz    dz2    dxz  x2-y2    tot
    1  0.000  0.000  0.000  0.112  0.224  0.000  0.000  0.000  0.000  0.336
    2  0.000  0.000  0.000  0.112  0.224  0.000  0.000  0.000  0.000  0.336
tot    0.000  0.000  0.000  0.225  0.448  0.000  0.000  0.000  0.000  0.673
 
band    19 # energy   28.62326564 # occ.  0.00000000
 
ion      s     py     pz     px    dxy    dyz    dz2    dxz  x2-y2    tot
    1  0.030  0.000  0.000  0.000  0.000  0.000  0.071  0.000  0.000  0.101
    2  0.030  0.000  0.000  0.000  0.000  0.000  0.071  0.000  0.000  0.101
tot    0.061  0.000  0.000  0.000  0.000  0.000  0.142  0.000  0.000  0.202
 
band    20 # energy   29.20336469 # occ.  0.00000000
 
ion      s     py     pz     px    dxy    dyz    dz2    dxz  x2-y2    tot
    1  0.000  0.000  0.063  0.000  0.000  0.000  0.000  0.000  0.000  0.063
    2  0.000  0.000  0.063  0.000  0.000  0.000  0.000  0.000  0.000  0.063
tot    0.000  0.000  0.126  0.000  0.000  0.000  0.000  0.000  0.000  0.126
 
band    21 # energy   32.92887747 # occ.  0.00000000
 
ion      s     py     pz     px    dxy    dyz    dz2    dxz  x2-y2    tot
    1  0.002  0.000  0.000  0.000  0.000  0.000  0.404  0.000  0.000  0.407
    2  0.002  0.000  0.000  0.000  0.000  0.000  0.404  0.000  0.000  0.407
tot    0.005  0.000  0.000  0.000  0.000  0.000  0.809  0.000  0.000  0.814
 
band    22 # energy   33.24856063 # occ.  0.00000000
 
ion      s     py     pz     px    dxy    dyz    dz2    dxz  x2-y2    tot
    1  0.000  0.000  0.000  0.000  0.000  0.101  0.000  0.000  0.000  0.101
    2  0.000  0.000  0.000  0.000  0.000  0.101  0.000  0.000  0.000  0.101
tot    0.000  0.000  0.000  0.000  0.000  0.202  0.000  0.000  0.000  0.202
 
band    23 # energy   33.24856350 # occ.  0.00000000
 
ion      s     py     pz     px    dxy    dyz    dz2    dxz  x2-y2    tot
    1  0.000  0.000  0.000  0.000  0.000  0.000  0.000  0.101  0.000  0.101
    2  0.000  0.000  0.000  0.000  0.000  0.000  0.000  0.101  0.000  0.101
tot    0.000  0.000  0.000  0.000  0.000  0.000  0.000  0.202  0.000  0.202
 
band    24 # energy   34.10169884 # occ.  0.00000000
 
ion      s     py     pz     px    dxy    dyz    dz2    dxz  x2-y2    tot
    1  0.000  0.000  0.320  0.000  0.000  0.000  0.000  0.000  0.000  0.320
    2  0.000  0.000  0.321  0.000  0.000  0.000  0.000  0.000  0.000  0.321
tot    0.000  0.000  0.641  0.000  0.000  0.000  0.000  0.000  0.000  0.641
 

 k-point     2 :    0.08333333-0.00000000 0.00000000     weight = 0.00520833

band     1 # energy   -0.35801739 # occ.  1.00000000
 
ion      s     py     pz     px    dxy    dyz    dz2    dxz  x2-y2    tot
    1  0.263  0.001  0.000  0.004  0.000  0.000  0.000  0.000  0.000  0.269
    2  0.263  0.001  0.000  0.004  0.000  0.000  0.000  0.000  0.000  0.269
tot    0.527  0.002  0.000  0.007  0.000  0.000  0.000  0.000  0.000  0.537
 
band     2 # energy    2.86294647 # occ.  1.00000000
 
ion      s     py     pz     px    dxy    dyz    dz2    dxz  x2-y2    tot
    1  0.052  0.001  0.000  0.002  0.002  0.000  0.355  0.000  0.001  0.413
    2  0.052  0.001  0.000  0.002  0.002  0.000  0.355  0.000  0.001  0.413
tot    0.104  0.001  0.000  0.004  0.003  0.000  0.711  0.000  0.001  0.826
 
band     3 # energy    4.32296823 # occ.  1.00000000
 
ion      s     py     pz     px    dxy    dyz    dz2    dxz  x2-y2    tot
    1  0.000  0.000  0.000  0.000  0.231  0.000  0.163  0.000  0.077  0.472
    2  0.000  0.000  0.000  0.000  0.231  0.000  0.163  0.000  0.077  0.472
tot    0.000  0.000  0.000  0.001  0.462  0.000  0.326  0.000  0.154  0.944
 
band     4 # energy    4.53958725 # occ.  1.00000000
 
ion      s     py     pz     px    dxy    dyz    dz2    dxz  x2-y2    tot
    1  0.000  0.000  0.000  0.000  0.119  0.000  0.000  0.000  0.356  0.476
    2  0.000  0.000  0.000  0.000  0.119  0.000  0.000  0.000  0.356  0.476
tot    0.000  0.001  0.000  0.000  0.238  0.000  0.000  0.000  0.713  0.952
 
band     5 # energy    4.58294408 # occ.  1.00000000
 
ion      s     py     pz     px    dxy    dyz    dz2    dxz  x2-y2    tot
    1  0.000  0.000  0.000  0.000  0.157  0.000  0.268  0.000  0.052  0.478
    2  0.000  0.000  0.000  0.000  0.157  0.000  0.268  0.000  0.052  0.478
tot    0.000  0.000  0.000  0.000  0.314  0.000  0.537  0.000  0.105  0.957
 
band     6 # energy    4.63313815 # occ.  1.00000000
 
ion      s     py     pz     px    dxy    dyz    dz2    dxz  x2-y2    tot
    1  0.001  0.000  0.000  0.000  0.323  0.000  0.048  0.000  0.108  0.479
    2  0.001  0.000  0.000  0.000  0.323  0.000  0.048  0.000  0.108  0.479
tot    0.001  0.000  0.000  0.001  0.645  0.000  0.095  0.000  0.215  0.958
 
band     7 # energy    4.72324545 # occ.  1.00000000
 
ion      s     py     pz     px    dxy    dyz    dz2    dxz  x2-y2    tot
    1  0.000  0.000  0.000  0.000  0.120  0.000  0.000  0.000  0.360  0.481
    2  0.000  0.000  0.000  0.000  0.120  0.000  0.000  0.000  0.360  0.481
tot    0.000  0.001  0.000  0.000  0.240  0.000  0.000  0.000  0.720  0.961
 
band     8 # energy    4.78394525 # occ.  1.00000000
 
ion      s     py     pz     px    dxy    dyz    dz2    dxz  x2-y2    tot
    1  0.000  0.000  0.002  0.000  0.000  0.119  0.000  0.357  0.000  0.479
    2  0.000  0.000  0.002  0.000  0.000  0.119  0.000  0.357  0.000  0.479
tot    0.000  0.000  0.005  0.000  0.000  0.238  0.000  0.715  0.000  0.958
 
band     9 # energy    4.81992027 # occ.  1.00000000
 
ion      s     py     pz     px    dxy    dyz    dz2    dxz  x2-y2    tot
    1  0.000  0.000  0.000  0.000  0.000  0.362  0.000  0.121  0.000  0.483
    2  0.000  0.000  0.000  0.000  0.000  0.362  0.000  0.121  0.000  0.483
tot    0.000  0.000  0.000  0.000  0.000  0.724  0.000  0.241  0.000  0.966
 
band    10 # energy    5.20970359 # occ.  1.00000000
 
ion      s     py     pz     px    dxy    dyz    dz2    dxz  x2-y2    tot
    1  0.000  0.000  0.033  0.000  0.000  0.104  0.000  0.313  0.000  0.450
    2  0.000  0.000  0.033  0.000  0.000  0.104  0.000  0.313  0.000  0.450
tot    0.000  0.000  0.067  0.000  0.000  0.208  0.000  0.625  0.000  0.900
 
band    11 # energy    5.59370982 # occ.  1.00000000
 
ion      s     py     pz     px    dxy    dyz    dz2    dxz  x2-y2    tot
    1  0.000  0.000  0.000  0.000  0.000  0.368  0.000  0.123  0.000  0.491
    2  0.000  0.000  0.000  0.000  0.000  0.368  0.000  0.123  0.000  0.491
tot    0.000  0.000  0.000  0.000  0.000  0.737  0.000  0.246  0.000  0.983
 
band    12 # energy    7.56620719 # occ.  0.00000000
 
ion      s     py     pz     px    dxy    dyz    dz2    dxz  x2-y2    tot
    1  0.000  0.000  0.207  0.000  0.000  0.021  0.000  0.062  0.000  0.289
    2  0.000  0.000  0.207  0.000  0.000  0.021  0.000  0.062  0.000  0.289
tot    0.000  0.000  0.413  0.000  0.000  0.041  0.000  0.123  0.000  0.578
 
band    13 # energy   11.07224529 # occ.  0.00000000
 
ion      s     py     pz     px    dxy    dyz    dz2    dxz  x2-y2    tot
    1  0.205  0.001  0.000  0.004  0.000  0.000  0.177  0.000  0.000  0.387
    2  0.205  0.001  0.000  0.004  0.000  0.000  0.177  0.000  0.000  0.387
tot    0.411  0.002  0.000  0.007  0.000  0.000  0.354  0.000  0.000  0.775
 
band    14 # energy   23.51390477 # occ.  0.00000000
 
ion      s     py     pz     px    dxy    dyz    dz2    dxz  x2-y2    tot
    1  0.018  0.038  0.000  0.114  0.071  0.000  0.016  0.000  0.024  0.281
    2  0.018  0.038  0.000  0.114  0.071  0.000  0.016  0.000  0.024  0.281
tot    0.037  0.076  0.000  0.229  0.141  0.000  0.032  0.000  0.047  0.562
 
band    15 # energy   24.95072612 # occ.  0.00000000
 
ion      s     py     pz     px    dxy    dyz    dz2    dxz  x2-y2    tot
    1  0.000  0.176  0.000  0.059  0.023  0.000  0.000  0.000  0.068  0.325
    2  0.000  0.176  0.000  0.059  0.023  0.000  0.000  0.000  0.068  0.325
tot    0.000  0.352  0.000  0.117  0.045  0.000  0.000  0.000  0.136  0.651
 
band    16 # energy   25.89604915 # occ.  0.00000000
 
ion      s     py     pz     px    dxy    dyz    dz2    dxz  x2-y2    tot
    1  0.020  0.014  0.000  0.043  0.048  0.000  0.033  0.000  0.016  0.173
    2  0.020  0.014  0.000  0.043  0.048  0.000  0.033  0.000  0.016  0.173
tot    0.039  0.028  0.000  0.085  0.095  0.000  0.066  0.000  0.032  0.346
 
band    17 # energy   29.16297653 # occ.  0.00000000
 
ion      s     py     pz     px    dxy    dyz    dz2    dxz  x2-y2    tot
    1  0.007  0.012  0.000  0.036  0.025  0.000  0.037  0.000  0.008  0.126
    2  0.007  0.012  0.000  0.036  0.025  0.000  0.037  0.000  0.008  0.126
tot    0.014  0.024  0.000  0.072  0.050  0.000  0.075  0.000  0.017  0.251
 
band    18 # energy   29.26854011 # occ.  0.00000000
 
ion      s     py     pz     px    dxy    dyz    dz2    dxz  x2-y2    tot
    1  0.000  0.000  0.022  0.000  0.000  0.010  0.000  0.030  0.000  0.062
    2  0.000  0.000  0.022  0.000  0.000  0.010  0.000  0.030  0.000  0.062
tot    0.000  0.000  0.044  0.000  0.000  0.020  0.000  0.060  0.000  0.125
 
band    19 # energy   29.96535012 # occ.  0.00000000
 
ion      s     py     pz     px    dxy    dyz    dz2    dxz  x2-y2    tot
    1  0.000  0.121  0.000  0.040  0.046  0.000  0.000  0.000  0.137  0.344
    2  0.000  0.121  0.000  0.040  0.046  0.000  0.000  0.000  0.137  0.344
tot    0.000  0.241  0.000  0.080  0.091  0.000  0.000  0.000  0.274  0.687
 
band    20 # energy   30.34905365 # occ.  0.00000000
 
ion      s     py     pz     px    dxy    dyz    dz2    dxz  x2-y2    tot
    1  0.000  0.000  0.067  0.000  0.000  0.024  0.000  0.071  0.000  0.163
    2  0.000  0.000  0.067  0.000  0.000  0.024  0.000  0.071  0.000  0.163
tot    0.000  0.000  0.135  0.000  0.000  0.048  0.000  0.143  0.000  0.325
 
band    21 # energy   30.58942815 # occ.  0.00000000
 
ion      s     py     pz     px    dxy    dyz    dz2    dxz  x2-y2    tot
    1  0.006  0.055  0.000  0.165  0.033  0.000  0.006  0.000  0.011  0.276
    2  0.006  0.055  0.000  0.165  0.033  0.000  0.006  0.000  0.011  0.276
tot    0.012  0.110  0.000  0.330  0.067  0.000  0.012  0.000  0.022  0.553
 
band    22 # energy   32.17881040 # occ.  0.00000000
 
ion      s     py     pz     px    dxy    dyz    dz2    dxz  x2-y2    tot
    1  0.000  0.000  0.214  0.000  0.000  0.015  0.000  0.046  0.000  0.275
    2  0.000  0.000  0.214  0.000  0.000  0.015  0.000  0.046  0.000  0.275
tot    0.000  0.000  0.427  0.000  0.000  0.031  0.000  0.092  0.000  0.550
 
band    23 # energy   32.50231682 # occ.  0.00000000
 
ion      s     py     pz     px    dxy    dyz    dz2    dxz  x2-y2    tot
    1  0.001  0.006  0.000  0.018  0.071  0.000  0.269  0.000  0.024  0.389
    2  0.001  0.006  0.000  0.018  0.071  0.000  0.269  0.000  0.024  0.389
tot    0.002  0.012  0.000  0.036  0.142  0.000  0.538  0.000  0.047  0.777
 
band    24 # energy   32.50584976 # occ.  0.00000000
 
ion      s     py     pz     px    dxy    dyz    dz2    dxz  x2-y2    tot
    1  0.000  0.000  0.000  0.000  0.000  0.154  0.000  0.051  0.000  0.206
    2  0.000  0.000  0.000  0.000  0.000  0.154  0.000  0.051  0.000  0.206
tot    0.000  0.000  0.000  0.000  0.000  0.309  0.000  0.103  0.000  0.412
 

 k-point     3 :    0.16666667-0.00000000 0.00000000     weight = 0.00520833

band     1 # energy    0.21595312 # occ.  1.00000000
 
ion      s     py     pz     px    dxy    dyz    dz2    dxz  x2-y2    tot
    1  0.248  0.005  0.000  0.014  0.002  0.000  0.001  0.000  0.001  0.270
    2  0.248  0.005  0.000  0.014  0.002  0.000  0.001  0.000  0.001  0.270
tot    0.496  0.009  0.000  0.028  0.003  0.000  0.002  0.000  0.001  0.539
 
band     2 # energy    3.12475734 # occ.  1.00000000
 
ion      s     py     pz     px    dxy    dyz    dz2    dxz  x2-y2    tot
    1  0.037  0.002  0.000  0.007  0.018  0.000  0.351  0.000  0.006  0.421
    2  0.037  0.002  0.000  0.007  0.018  0.000  0.351  0.000  0.006  0.421
tot    0.074  0.004  0.000  0.013  0.035  0.000  0.703  0.000  0.012  0.841
 
band     3 # energy    4.15955362 # occ.  1.00000000
 
ion      s     py     pz     px    dxy    dyz    dz2    dxz  x2-y2    tot
    1  0.000  0.001  0.000  0.002  0.258  0.000  0.117  0.000  0.086  0.465
    2  0.000  0.001  0.000  0.002  0.258  0.000  0.117  0.000  0.086  0.465
tot    0.000  0.002  0.000  0.005  0.517  0.000  0.233  0.000  0.172  0.929
 
band     4 # energy    4.40385419 # occ.  1.00000000
 
ion      s     py     pz     px    dxy    dyz    dz2    dxz  x2-y2    tot
    1  0.000  0.000  0.025  0.000  0.000  0.105  0.000  0.315  0.000  0.445
    2  0.000  0.000  0.025  0.000  0.000  0.105  0.000  0.315  0.000  0.445
tot    0.000  0.000  0.049  0.000  0.000  0.210  0.000  0.631  0.000  0.890
 
band     5 # energy    4.52880954 # occ.  1.00000000
 
ion      s     py     pz     px    dxy    dyz    dz2    dxz  x2-y2    tot
    1  0.003  0.000  0.000  0.001  0.313  0.000  0.054  0.000  0.104  0.474
    2  0.003  0.000  0.000  0.001  0.313  0.000  0.054  0.000  0.104  0.474
tot    0.005  0.001  0.000  0.002  0.626  0.000  0.107  0.000  0.209  0.949
 
band     6 # energy    4.71227691 # occ.  1.00000000
 
ion      s     py     pz     px    dxy    dyz    dz2    dxz  x2-y2    tot
    1  0.000  0.000  0.000  0.000  0.000  0.360  0.000  0.120  0.000  0.481
    2  0.000  0.000  0.000  0.000  0.000  0.360  0.000  0.120  0.000  0.481
tot    0.000  0.000  0.000  0.000  0.000  0.721  0.000  0.240  0.000  0.961
 
band     7 # energy    4.74418087 # occ.  1.00000000
 
ion      s     py     pz     px    dxy    dyz    dz2    dxz  x2-y2    tot
    1  0.000  0.001  0.000  0.000  0.119  0.000  0.000  0.000  0.358  0.478
    2  0.000  0.001  0.000  0.000  0.119  0.000  0.000  0.000  0.358  0.478
tot    0.000  0.001  0.000  0.000  0.239  0.000  0.000  0.000  0.716  0.956
 
band     8 # energy    4.77852513 # occ.  1.00000000
 
ion      s     py     pz     px    dxy    dyz    dz2    dxz  x2-y2    tot
    1  0.001  0.000  0.000  0.001  0.113  0.000  0.327  0.000  0.038  0.480
    2  0.001  0.000  0.000  0.001  0.113  0.000  0.327  0.000  0.038  0.480
tot    0.002  0.000  0.000  0.001  0.227  0.000  0.654  0.000  0.076  0.960
 
band     9 # energy    4.89866249 # occ.  1.00000000
 
ion      s     py     pz     px    dxy    dyz    dz2    dxz  x2-y2    tot
    1  0.000  0.000  0.021  0.000  0.000  0.110  0.000  0.330  0.000  0.461
    2  0.000  0.000  0.021  0.000  0.000  0.110  0.000  0.330  0.000  0.461
tot    0.000  0.000  0.042  0.000  0.000  0.220  0.000  0.661  0.000  0.922
 
band    10 # energy    4.90230638 # occ.  1.00000000
 
ion      s     py     pz     px    dxy    dyz    dz2    dxz  x2-y2    tot
    1  0.000  0.001  0.000  0.000  0.120  0.000  0.000  0.000  0.361  0.483
    2  0.000  0.001  0.000  0.000  0.120  0.000  0.000  0.000  0.361  0.483
tot    0.000  0.002  0.000  0.001  0.241  0.000  0.000  0.000  0.722  0.965
 
band    11 # energy    5.63207758 # occ.  1.00000000
 
ion      s     py     pz     px    dxy    dyz    dz2    dxz  x2-y2    tot
    1  0.000  0.000  0.000  0.000  0.000  0.369  0.000  0.123  0.000  0.492
    2  0.000  0.000  0.000  0.000  0.000  0.369  0.000  0.123  0.000  0.492
tot    0.000  0.000  0.000  0.000  0.000  0.739  0.000  0.246  0.000  0.985
 
band    12 # energy    8.73098945 # occ.  0.00000000
 
ion      s     py     pz     px    dxy    dyz    dz2    dxz  x2-y2    tot
    1  0.000  0.000  0.193  0.000  0.000  0.029  0.000  0.088  0.000  0.310
    2  0.000  0.000  0.193  0.000  0.000  0.029  0.000  0.088  0.000  0.310
tot    0.000  0.000  0.385  0.000  0.000  0.059  0.000  0.177  0.000  0.621
 
band    13 # energy   11.27052477 # occ.  0.00000000
 
ion      s     py     pz     px    dxy    dyz    dz2    dxz  x2-y2    tot
    1  0.197  0.005  0.000  0.016  0.001  0.000  0.158  0.000  0.000  0.377
    2  0.197  0.005  0.000  0.016  0.001  0.000  0.158  0.000  0.000  0.377
tot    0.393  0.011  0.000  0.032  0.001  0.000  0.316  0.000  0.000  0.754
 
band    14 # energy   19.97676332 # occ.  0.00000000
 
ion      s     py     pz     px    dxy    dyz    dz2    dxz  x2-y2    tot
    1  0.044  0.038  0.000  0.113  0.067  0.000  0.017  0.000  0.022  0.302
    2  0.044  0.038  0.000  0.113  0.067  0.000  0.017  0.000  0.022  0.302
tot    0.089  0.075  0.000  0.226  0.135  0.000  0.035  0.000  0.045  0.604
 
band    15 # energy   23.03025323 # occ.  0.00000000
 
ion      s     py     pz     px    dxy    dyz    dz2    dxz  x2-y2    tot
    1  0.000  0.179  0.000  0.060  0.018  0.000  0.000  0.000  0.055  0.313
    2  0.000  0.179  0.000  0.060  0.018  0.000  0.000  0.000  0.055  0.313
tot    0.000  0.358  0.000  0.119  0.037  0.000  0.000  0.000  0.111  0.625
 
band    16 # energy   25.07222776 # occ.  0.00000000
 
ion      s     py     pz     px    dxy    dyz    dz2    dxz  x2-y2    tot
    1  0.025  0.004  0.000  0.012  0.101  0.000  0.040  0.000  0.034  0.216
    2  0.025  0.004  0.000  0.012  0.101  0.000  0.040  0.000  0.034  0.216
tot    0.051  0.008  0.000  0.025  0.202  0.000  0.079  0.000  0.067  0.432
 
band    17 # energy   26.79061155 # occ.  0.00000000
 
ion      s     py     pz     px    dxy    dyz    dz2    dxz  x2-y2    tot
    1  0.000  0.000  0.058  0.000  0.000  0.039  0.000  0.118  0.000  0.215
    2  0.000  0.000  0.058  0.000  0.000  0.039  0.000  0.118  0.000  0.215
tot    0.000  0.000  0.116  0.000  0.000  0.079  0.000  0.236  0.000  0.430
 
band    18 # energy   28.14347125 # occ.  0.00000000
 
ion      s     py     pz     px    dxy    dyz    dz2    dxz  x2-y2    tot
    1  0.047  0.056  0.000  0.169  0.039  0.000  0.024  0.000  0.013  0.348
    2  0.047  0.056  0.000  0.169  0.039  0.000  0.024  0.000  0.013  0.348
tot    0.095  0.113  0.000  0.338  0.077  0.000  0.048  0.000  0.026  0.696
 
band    19 # energy   29.38398653 # occ.  0.00000000
 
ion      s     py     pz     px    dxy    dyz    dz2    dxz  x2-y2    tot
    1  0.000  0.000  0.011  0.000  0.000  0.010  0.000  0.030  0.000  0.051
    2  0.000  0.000  0.011  0.000  0.000  0.010  0.000  0.030  0.000  0.051
tot    0.000  0.000  0.021  0.000  0.000  0.020  0.000  0.061  0.000  0.102
 
band    20 # energy   30.67773655 # occ.  0.00000000
 
ion      s     py     pz     px    dxy    dyz    dz2    dxz  x2-y2    tot
    1  0.010  0.025  0.000  0.075  0.012  0.000  0.033  0.000  0.004  0.159
    2  0.010  0.025  0.000  0.075  0.012  0.000  0.033  0.000  0.004  0.159
tot    0.019  0.050  0.000  0.150  0.024  0.000  0.066  0.000  0.008  0.317
 
band    21 # energy   31.12558854 # occ.  0.00000000
 
ion      s     py     pz     px    dxy    dyz    dz2    dxz  x2-y2    tot
    1  0.000  0.000  0.250  0.000  0.000  0.001  0.000  0.002  0.000  0.253
    2  0.000  0.000  0.250  0.000  0.000  0.001  0.000  0.002  0.000  0.253
tot    0.000  0.000  0.500  0.000  0.000  0.001  0.000  0.004  0.000  0.506
 
band    22 # energy   31.35279114 # occ.  0.00000000
 
ion      s     py     pz     px    dxy    dyz    dz2    dxz  x2-y2    tot
    1  0.000  0.229  0.000  0.076  0.022  0.000  0.000  0.000  0.067  0.394
    2  0.000  0.229  0.000  0.076  0.022  0.000  0.000  0.000  0.067  0.394
tot    0.000  0.457  0.000  0.152  0.045  0.000  0.000  0.000  0.134  0.788
 
band    23 # energy   31.53657421 # occ.  0.00000000
 
ion      s     py     pz     px    dxy    dyz    dz2    dxz  x2-y2    tot
    1  0.000  0.000  0.000  0.000  0.000  0.207  0.000  0.069  0.000  0.277
    2  0.000  0.000  0.000  0.000  0.000  0.207  0.000  0.069  0.000  0.277
tot    0.000  0.000  0.000  0.000  0.000  0.415  0.000  0.138  0.000  0.553
 
band    24 # energy   32.70018127 # occ.  0.00000000
 
ion      s     py     pz     px    dxy    dyz    dz2    dxz  x2-y2    tot
    1  0.000  0.055  0.000  0.018  0.067  0.000  0.000  0.000  0.201  0.341
    2  0.000  0.055  0.000  0.018  0.067  0.000  0.000  0.000  0.201  0.341
tot    0.000  0.110  0.000  0.037  0.134  0.000  0.000  0.000  0.401  0.682
 

 k-point     4 :    0.25000000 0.00000000 0.00000000     weight = 0.00520833

band     1 # energy    1.10258108 # occ.  1.00000000
 
ion      s     py     pz     px    dxy    dyz    dz2    dxz  x2-y2    tot
    1  0.220  0.009  0.000  0.028  0.011  0.000  0.004  0.000  0.004  0.276
    2  0.220  0.009  0.000  0.028  0.011  0.000  0.004  0.000  0.004  0.276
tot    0.439  0.019  0.000  0.057  0.021  0.000  0.009  0.000  0.007  0.552
 
band     2 # energy    3.33829463 # occ.  1.00000000
 
ion      s     py     pz     px    dxy    dyz    dz2    dxz  x2-y2    tot
    1  0.018  0.002  0.000  0.006  0.100  0.000  0.275  0.000  0.033  0.435
    2  0.018  0.002  0.000  0.006  0.100  0.000  0.275  0.000  0.033  0.435
tot    0.035  0.004  0.000  0.013  0.201  0.000  0.549  0.000  0.067  0.869
 
band     3 # energy    3.93527774 # occ.  1.00000000
 
ion      s     py     pz     px    dxy    dyz    dz2    dxz  x2-y2    tot
    1  0.000  0.000  0.025  0.000  0.000  0.102  0.000  0.306  0.000  0.433
    2  0.000  0.000  0.025  0.000  0.000  0.102  0.000  0.306  0.000  0.433
tot    0.000  0.000  0.050  0.000  0.000  0.204  0.000  0.612  0.000  0.866
 
band     4 # energy    4.07503604 # occ.  1.00000000
 
ion      s     py     pz     px    dxy    dyz    dz2    dxz  x2-y2    tot
    1  0.001  0.004  0.000  0.011  0.226  0.000  0.133  0.000  0.075  0.450
    2  0.001  0.004  0.000  0.011  0.226  0.000  0.133  0.000  0.075  0.450
tot    0.002  0.007  0.000  0.021  0.453  0.000  0.266  0.000  0.151  0.900
 
band     5 # energy    4.47548272 # occ.  1.00000000
 
ion      s     py     pz     px    dxy    dyz    dz2    dxz  x2-y2    tot
    1  0.007  0.001  0.000  0.002  0.250  0.000  0.126  0.000  0.083  0.469
    2  0.007  0.001  0.000  0.002  0.250  0.000  0.126  0.000  0.083  0.469
tot    0.013  0.001  0.000  0.004  0.500  0.000  0.253  0.000  0.167  0.938
 
band     6 # energy    4.58139572 # occ.  1.00000000
 
ion      s     py     pz     px    dxy    dyz    dz2    dxz  x2-y2    tot
    1  0.000  0.000  0.000  0.000  0.000  0.359  0.000  0.120  0.000  0.478
    2  0.000  0.000  0.000  0.000  0.000  0.359  0.000  0.120  0.000  0.478
tot    0.000  0.000  0.000  0.000  0.000  0.717  0.000  0.239  0.000  0.956
 
band     7 # energy    4.75802600 # occ.  1.00000000
 
ion      s     py     pz     px    dxy    dyz    dz2    dxz  x2-y2    tot
    1  0.000  0.000  0.015  0.000  0.000  0.113  0.000  0.338  0.000  0.466
    2  0.000  0.000  0.015  0.000  0.000  0.113  0.000  0.338  0.000  0.466
tot    0.000  0.000  0.030  0.000  0.000  0.225  0.000  0.676  0.000  0.932
 
band     8 # energy    5.03801687 # occ.  1.00000000
 
ion      s     py     pz     px    dxy    dyz    dz2    dxz  x2-y2    tot
    1  0.000  0.001  0.000  0.000  0.120  0.000  0.000  0.000  0.361  0.482
    2  0.000  0.001  0.000  0.000  0.120  0.000  0.000  0.000  0.361  0.482
tot    0.000  0.002  0.000  0.001  0.241  0.000  0.000  0.000  0.722  0.964
 
band     9 # energy    5.05535331 # occ.  1.00000000
 
ion      s     py     pz     px    dxy    dyz    dz2    dxz  x2-y2    tot
    1  0.004  0.001  0.000  0.003  0.103  0.000  0.334  0.000  0.034  0.479
    2  0.004  0.001  0.000  0.003  0.103  0.000  0.334  0.000  0.034  0.479
tot    0.008  0.002  0.000  0.005  0.207  0.000  0.668  0.000  0.069  0.959
 
band    10 # energy    5.15826933 # occ.  1.00000000
 
ion      s     py     pz     px    dxy    dyz    dz2    dxz  x2-y2    tot
    1  0.000  0.001  0.000  0.000  0.121  0.000  0.000  0.000  0.363  0.486
    2  0.000  0.001  0.000  0.000  0.121  0.000  0.000  0.000  0.363  0.486
tot    0.000  0.002  0.000  0.001  0.242  0.000  0.000  0.000  0.726  0.971
 
band    11 # energy    5.66914382 # occ.  1.00000000
 
ion      s     py     pz     px    dxy    dyz    dz2    dxz  x2-y2    tot