<?xml version="1.0" encoding="ISO-8859-1"?>
<modeling>
 <generator>
  <i name="program" type="string">vasp </i>
  <i name="version" type="string">6.3.2  </i>
  <i name="subversion" type="string">27Jun22 (build Aug 12 2022 00:53:59) complex                          parallel </i>
  <i name="platform" type="string">tv2STD </i>
  <i name="date" type="string">2024 12 03 </i>
  <i name="time" type="string">01:30:56 </i>
 </generator>
 <incar>
  <i type="string" name="SYSTEM">Co-hcc</i>
  <i type="int" name="ISTART">     0</i>
  <i type="string" name="PREC">Accurate      normal | accurate</i>
  <i type="string" name="ALGO">Normal     Normal, Fast, Very_Fast</i>
  <i type="logical" name="ADDGRID"> F  </i>
  <i type="int" name="ISPIN">     2</i>
  <i type="int" name="ICHARG">     2</i>
  <i type="int" name="INIWAV">     1</i>
  <i type="int" name="NELM">   100</i>
  <i type="int" name="IBRION">     2</i>
  <i name="EDIFF">      0.00000100</i>
  <i name="EDIFFG">     -0.02000000</i>
  <i type="int" name="NSW">   100</i>
  <i type="int" name="ISIF">     2</i>
  <i type="int" name="ISYM">     1</i>
  <i name="ENCUT">    425.00000000</i>
  <v name="MAGMOM">      3.00000000      3.00000000</v>
  <i type="logical" name="LREAL"> F  </i>
  <i type="int" name="ISMEAR">     0</i>
  <i name="SIGMA">      0.05000000</i>
  <i type="int" name="NWRITE">     2</i>
  <i type="logical" name="LWAVE"> F  </i>
  <i type="logical" name="LCHARG"> F  </i>
  <i type="int" name="LORBIT">    11</i>
 </incar>
 <primitive_cell>
  <structure name="primitive_cell" >
   <crystal>
    <varray name="basis" >
     <v>       1.37075159      -2.37421139       0.00000000 </v>
     <v>       1.37075159       2.37421139       0.00000000 </v>
     <v>       0.00000000       0.00000000       4.42217427 </v>
    </varray>
    <i name="volume">     28.78352573 </i>
    <varray name="rec_basis" >
     <v>       0.36476339      -0.21059624       0.00000000 </v>
     <v>       0.36476339       0.21059624       0.00000000 </v>
     <v>       0.00000000       0.00000000       0.22613311 </v>
    </varray>
   </crystal>
   <varray name="positions" >
    <v>       0.33333333       0.66666667       0.25000000 </v>
    <v>       0.66666667       0.33333333       0.75000000 </v>
   </varray>
  </structure>
  <varray name="primitive_index" >
   <v type="int" >        1 </v>
   <v type="int" >        2 </v>
  </varray>
 </primitive_cell>
 <kpoints>
  <generation param="Gamma">
   <v type="int" name="divisions">      12       12        8 </v>
   <v name="usershift">      0.00000000       0.00000000       0.00000000 </v>
   <v name="genvec1">      0.08333333      -0.00000000       0.00000000 </v>
   <v name="genvec2">     -0.00000000       0.08333333       0.00000000 </v>
   <v name="genvec3">      0.00000000       0.00000000       0.12500000 </v>
   <v name="shift">      0.00000000       0.00000000       0.00000000 </v>
  </generation>
  <varray name="kpointlist" >
   <v>       0.00000000       0.00000000       0.00000000 </v>
   <v>       0.08333333      -0.00000000       0.00000000 </v>
   <v>       0.16666667      -0.00000000       0.00000000 </v>
   <v>       0.25000000       0.00000000       0.00000000 </v>
   <v>       0.33333333       0.00000000       0.00000000 </v>
   <v>       0.41666667       0.00000000       0.00000000 </v>
   <v>       0.50000000       0.00000000       0.00000000 </v>
   <v>       0.08333333       0.08333333       0.00000000 </v>
   <v>       0.16666667       0.08333333       0.00000000 </v>
   <v>       0.25000000       0.08333333       0.00000000 </v>
   <v>       0.33333333       0.08333333       0.00000000 </v>
   <v>       0.41666667       0.08333333       0.00000000 </v>
   <v>       0.16666667       0.16666667       0.00000000 </v>
   <v>       0.25000000       0.16666667       0.00000000 </v>
   <v>       0.33333333       0.16666667       0.00000000 </v>
   <v>       0.41666667       0.16666667       0.00000000 </v>
   <v>       0.25000000       0.25000000       0.00000000 </v>
   <v>       0.33333333       0.25000000       0.00000000 </v>
   <v>       0.33333333       0.33333333       0.00000000 </v>
   <v>       0.00000000       0.00000000       0.12500000 </v>
   <v>       0.08333333      -0.00000000       0.12500000 </v>
   <v>       0.16666667      -0.00000000       0.12500000 </v>
   <v>       0.25000000       0.00000000       0.12500000 </v>
   <v>       0.33333333       0.00000000       0.12500000 </v>
   <v>       0.41666667       0.00000000       0.12500000 </v>
   <v>       0.50000000       0.00000000       0.12500000 </v>
   <v>       0.08333333       0.08333333       0.12500000 </v>
   <v>       0.16666667       0.08333333       0.12500000 </v>
   <v>       0.25000000       0.08333333       0.12500000 </v>
   <v>       0.33333333       0.08333333       0.12500000 </v>
   <v>       0.41666667       0.08333333       0.12500000 </v>
   <v>       0.16666667       0.16666667       0.12500000 </v>
   <v>       0.25000000       0.16666667       0.12500000 </v>
   <v>       0.33333333       0.16666667       0.12500000 </v>
   <v>       0.41666667       0.16666667       0.12500000 </v>
   <v>       0.25000000       0.25000000       0.12500000 </v>
   <v>       0.33333333       0.25000000       0.12500000 </v>
   <v>       0.33333333       0.33333333       0.12500000 </v>
   <v>       0.00000000       0.00000000       0.25000000 </v>
   <v>       0.08333333      -0.00000000       0.25000000 </v>
   <v>       0.16666667      -0.00000000       0.25000000 </v>
   <v>       0.25000000       0.00000000       0.25000000 </v>
   <v>       0.33333333       0.00000000       0.25000000 </v>
   <v>       0.41666667       0.00000000       0.25000000 </v>
   <v>       0.50000000       0.00000000       0.25000000 </v>
   <v>       0.08333333       0.08333333       0.25000000 </v>
   <v>       0.16666667       0.08333333       0.25000000 </v>
   <v>       0.25000000       0.08333333       0.25000000 </v>
   <v>       0.33333333       0.08333333       0.25000000 </v>
   <v>       0.41666667       0.08333333       0.25000000 </v>
   <v>       0.16666667       0.16666667       0.25000000 </v>
   <v>       0.25000000       0.16666667       0.25000000 </v>
   <v>       0.33333333       0.16666667       0.25000000 </v>
   <v>       0.41666667       0.16666667       0.25000000 </v>
   <v>       0.25000000       0.25000000       0.25000000 </v>
   <v>       0.33333333       0.25000000       0.25000000 </v>
   <v>       0.33333333       0.33333333       0.25000000 </v>
   <v>       0.00000000       0.00000000       0.37500000 </v>
   <v>       0.08333333      -0.00000000       0.37500000 </v>
   <v>       0.16666667      -0.00000000       0.37500000 </v>
   <v>       0.25000000       0.00000000       0.37500000 </v>
   <v>       0.33333333       0.00000000       0.37500000 </v>
   <v>       0.41666667       0.00000000       0.37500000 </v>
   <v>       0.50000000       0.00000000       0.37500000 </v>
   <v>       0.08333333       0.08333333       0.37500000 </v>
   <v>       0.16666667       0.08333333       0.37500000 </v>
   <v>       0.25000000       0.08333333       0.37500000 </v>
   <v>       0.33333333       0.08333333       0.37500000 </v>
   <v>       0.41666667       0.08333333       0.37500000 </v>
   <v>       0.16666667       0.16666667       0.37500000 </v>
   <v>       0.25000000       0.16666667       0.37500000 </v>
   <v>       0.33333333       0.16666667       0.37500000 </v>
   <v>       0.41666667       0.16666667       0.37500000 </v>
   <v>       0.25000000       0.25000000       0.37500000 </v>
   <v>       0.33333333       0.25000000       0.37500000 </v>
   <v>       0.33333333       0.33333333       0.37500000 </v>
   <v>       0.00000000       0.00000000       0.50000000 </v>
   <v>       0.08333333      -0.00000000       0.50000000 </v>
   <v>       0.16666667      -0.00000000       0.50000000 </v>
   <v>       0.25000000       0.00000000       0.50000000 </v>
   <v>       0.33333333       0.00000000       0.50000000 </v>
   <v>       0.41666667       0.00000000       0.50000000 </v>
   <v>       0.50000000       0.00000000       0.50000000 </v>
   <v>       0.08333333       0.08333333       0.50000000 </v>
   <v>       0.16666667       0.08333333       0.50000000 </v>
   <v>       0.25000000       0.08333333       0.50000000 </v>
   <v>       0.33333333       0.08333333       0.50000000 </v>
   <v>       0.41666667       0.08333333       0.50000000 </v>
   <v>       0.16666667       0.16666667       0.50000000 </v>
   <v>       0.25000000       0.16666667       0.50000000 </v>
   <v>       0.33333333       0.16666667       0.50000000 </v>
   <v>       0.41666667       0.16666667       0.50000000 </v>
   <v>       0.25000000       0.25000000       0.50000000 </v>
   <v>       0.33333333       0.25000000       0.50000000 </v>
   <v>       0.33333333       0.33333333       0.50000000 </v>
  </varray>
  <varray name="weights" >
   <v>       0.00086806 </v>
   <v>       0.00520833 </v>
   <v>       0.00520833 </v>
   <v>       0.00520833 </v>
   <v>       0.00520833 </v>
   <v>       0.00520833 </v>
   <v>       0.00260417 </v>
   <v>       0.00520833 </v>
   <v>       0.01041667 </v>
   <v>       0.01041667 </v>
   <v>       0.01041667 </v>
   <v>       0.01041667 </v>
   <v>       0.00520833 </v>
   <v>       0.01041667 </v>
   <v>       0.01041667 </v>
   <v>       0.00520833 </v>
   <v>       0.00520833 </v>
   <v>       0.01041667 </v>
   <v>       0.00173611 </v>
   <v>       0.00173611 </v>
   <v>       0.01041667 </v>
   <v>       0.01041667 </v>
   <v>       0.01041667 </v>
   <v>       0.01041667 </v>
   <v>       0.01041667 </v>
   <v>       0.00520833 </v>
   <v>       0.01041667 </v>
   <v>       0.02083333 </v>
   <v>       0.02083333 </v>
   <v>       0.02083333 </v>
   <v>       0.02083333 </v>
   <v>       0.01041667 </v>
   <v>       0.02083333 </v>
   <v>       0.02083333 </v>
   <v>       0.01041667 </v>
   <v>       0.01041667 </v>
   <v>       0.02083333 </v>
   <v>       0.00347222 </v>
   <v>       0.00173611 </v>
   <v>       0.01041667 </v>
   <v>       0.01041667 </v>
   <v>       0.01041667 </v>
   <v>       0.01041667 </v>
   <v>       0.01041667 </v>
   <v>       0.00520833 </v>
   <v>       0.01041667 </v>
   <v>       0.02083333 </v>
   <v>       0.02083333 </v>
   <v>       0.02083333 </v>
   <v>       0.02083333 </v>
   <v>       0.01041667 </v>
   <v>       0.02083333 </v>
   <v>       0.02083333 </v>
   <v>       0.01041667 </v>
   <v>       0.01041667 </v>
   <v>       0.02083333 </v>
   <v>       0.00347222 </v>
   <v>       0.00173611 </v>
   <v>       0.01041667 </v>
   <v>       0.01041667 </v>
   <v>       0.01041667 </v>
   <v>       0.01041667 </v>
   <v>       0.01041667 </v>
   <v>       0.00520833 </v>
   <v>       0.01041667 </v>
   <v>       0.02083333 </v>
   <v>       0.02083333 </v>
   <v>       0.02083333 </v>
   <v>       0.02083333 </v>
   <v>       0.01041667 </v>
   <v>       0.02083333 </v>
   <v>       0.02083333 </v>
   <v>       0.01041667 </v>
   <v>       0.01041667 </v>
   <v>       0.02083333 </v>
   <v>       0.00347222 </v>
   <v>       0.00086806 </v>
   <v>       0.00520833 </v>
   <v>       0.00520833 </v>
   <v>       0.00520833 </v>
   <v>       0.00520833 </v>
   <v>       0.00520833 </v>
   <v>       0.00260417 </v>
   <v>       0.00520833 </v>
   <v>       0.01041667 </v>
   <v>       0.01041667 </v>
   <v>       0.01041667 </v>
   <v>       0.01041667 </v>
   <v>       0.00520833 </v>
   <v>       0.01041667 </v>
   <v>       0.01041667 </v>
   <v>       0.00520833 </v>
   <v>       0.00520833 </v>
   <v>       0.01041667 </v>
   <v>       0.00173611 </v>
  </varray>
 </kpoints>
 <parameters>
  <separator name="general" >
   <i type="string" name="SYSTEM">Co-hcc</i>
   <i type="logical" name="LCOMPAT"> F  </i>
  </separator>
  <separator name="electronic" >
   <i type="string" name="PREC">accura</i>
   <i name="ENMAX">    425.00000000</i>
   <i name="ENAUG">    477.81800000</i>
   <i name="EDIFF">      0.00000100</i>
   <i type="int" name="IALGO">    38</i>
   <i type="int" name="IWAVPR">    11</i>
   <i type="int" name="NBANDS">    24</i>
   <i type="int" name="NBANDSLOW">    -1</i>
   <i type="int" name="NBANDSHIGH">    -1</i>
   <i name="NELECT">     18.00000000</i>
   <i type="int" name="TURBO">     0</i>
   <i type="int" name="IRESTART">     0</i>
   <i type="int" name="NREBOOT">     0</i>
   <i type="int" name="NMIN">     0</i>
   <i name="EREF">      0.00000000</i>
   <separator name="electronic smearing" >
    <i type="int" name="ISMEAR">     0</i>
    <i name="SIGMA">      0.05000000</i>
    <i name="KSPACING">      0.50000000</i>
    <i type="logical" name="KGAMMA"> T  </i>
    <i type="logical" name="KBLOWUP"> T  </i>
   </separator>
   <separator name="electronic projectors" >
    <i type="logical" name="LREAL"> F  </i>
    <v name="ROPT">      0.00000000</v>
    <i type="int" name="LMAXPAW">  -100</i>
    <i type="int" name="LMAXMIX">     2</i>
    <i type="logical" name="NLSPLINE"> F  </i>
   </separator>
   <separator name="electronic startup" >
    <i type="int" name="ISTART">     0</i>
    <i type="int" name="ICHARG">     2</i>
    <i type="int" name="INIWAV">     1</i>
   </separator>
   <separator name="electronic spin" >
    <i type="int" name="ISPIN">     2</i>
    <i type="logical" name="LNONCOLLINEAR"> F  </i>
    <v name="MAGMOM">      3.00000000      3.00000000</v>
    <i name="NUPDOWN">     -1.00000000</i>
    <i type="logical" name="LSORBIT"> F  </i>
    <v name="SAXIS">      0.00000000      0.00000000      1.00000000</v>
    <i type="logical" name="LSPIRAL"> F  </i>
    <v name="QSPIRAL">      0.00000000      0.00000000      0.00000000</v>
    <i type="logical" name="LZEROZ"> F  </i>
   </separator>
   <separator name="electronic exchange-correlation" >
    <i type="logical" name="LASPH"> F  </i>
    <i type="logical" name="LMETAGGA"> F  </i>
   </separator>
   <separator name="electronic convergence" >
    <i type="int" name="NELM">   100</i>
    <i type="int" name="NELMDL">    -5</i>
    <i type="int" name="NELMIN">     2</i>
    <i name="ENINI">    425.00000000</i>
    <separator name="electronic convergence detail" >
     <i type="logical" name="LDIAG"> T  </i>
     <i type="logical" name="LSUBROT"> F  </i>
     <i name="WEIMIN">      0.00100000</i>
     <i name="EBREAK">      0.00000001</i>
     <i name="DEPER">      0.30000000</i>
     <i type="int" name="NRMM">     4</i>
     <i name="TIME">      0.40000000</i>
    </separator>
   </separator>
   <separator name="electronic mixer" >
    <i name="AMIX">      0.40000000</i>
    <i name="BMIX">      1.00000000</i>
    <i name="AMIN">      0.10000000</i>
    <i name="AMIX_MAG">      1.60000000</i>
    <i name="BMIX_MAG">      1.00000000</i>
    <separator name="electronic mixer details" >
     <i type="int" name="IMIX">     4</i>
     <i type="logical" name="MIXFIRST"> F  </i>
     <i type="int" name="MAXMIX">   -45</i>
     <i name="WC">    100.00000000</i>
     <i type="int" name="INIMIX">     1</i>
     <i type="int" name="MIXPRE">     1</i>
     <i type="int" name="MREMOVE">     5</i>
    </separator>
   </separator>
   <separator name="electronic dipolcorrection" >
    <i type="logical" name="LDIPOL"> F  </i>
    <i type="logical" name="LMONO"> F  </i>
    <i type="int" name="IDIPOL">     0</i>
    <i name="EPSILON">      1.00000000</i>
    <v name="DIPOL">   -100.00000000   -100.00000000   -100.00000000</v>
    <i name="EFIELD">      0.00000000</i>
   </separator>
  </separator>
  <separator name="grids" >
   <i type="int" name="NGX">    18</i>
   <i type="int" name="NGY">    18</i>
   <i type="int" name="NGZ">    30</i>
   <i type="int" name="NGXF">    36</i>
   <i type="int" name="NGYF">    36</i>
   <i type="int" name="NGZF">    60</i>
   <i type="logical" name="ADDGRID"> F  </i>
  </separator>
  <separator name="ionic" >
   <i type="int" name="NSW">   100</i>
   <i type="int" name="IBRION">     2</i>
   <i type="int" name="MDALGO">     0</i>
   <i type="int" name="ISIF">     2</i>
   <i name="PSTRESS">      0.00000000</i>
   <i name="EDIFFG">     -0.02000000</i>
   <i type="int" name="NFREE">     1</i>
   <i name="POTIM">      0.50000000</i>
   <i name="SMASS">     -3.00000000</i>
   <i name="SCALEE">      1.00000000</i>
  </separator>
  <separator name="ionic md" >
   <i name="TEBEG">      0.00010000</i>
   <i name="TEEND">      0.00010000</i>
   <i type="int" name="NBLOCK">     1</i>
   <i type="int" name="KBLOCK">   100</i>
   <i type="int" name="NPACO">   256</i>
   <i name="APACO">     10.00000000</i>
  </separator>
  <separator name="symmetry" >
   <i type="int" name="ISYM">     1</i>
   <i name="SYMPREC">      0.00001000</i>
  </separator>
  <separator name="dos" >
   <i type="int" name="LORBIT">    11</i>
   <v name="RWIGS">     -1.00000000</v>
   <i type="int" name="NEDOS">   301</i>
   <i name="EMIN">     10.00000000</i>
   <i name="EMAX">    -10.00000000</i>
   <i name="EFERMI">      0.00000000</i>
  </separator>
  <separator name="writing" >
   <i type="int" name="NWRITE">     2</i>
   <i type="logical" name="LWAVE"> F  </i>
   <i type="logical" name="LDOWNSAMPLE"> F  </i>
   <i type="logical" name="LCHARG"> F  </i>
   <i type="logical" name="LPARD"> F  </i>
   <i type="logical" name="LVTOT"> F  </i>
   <i type="logical" name="LVHAR"> F  </i>
   <i type="logical" name="LELF"> F  </i>
   <i type="logical" name="LOPTICS"> F  </i>
   <v name="STM">      0.00000000      0.00000000      0.00000000      0.00000000      0.00000000      0.00000000      0.00000000</v>
  </separator>
  <separator name="performance" >
   <i type="int" name="NPAR">    24</i>
   <i type="int" name="NSIM">     4</i>
   <i type="int" name="NBLK">    -1</i>
   <i type="logical" name="LPLANE"> T  </i>
   <i type="logical" name="LSCALAPACK"> T  </i>
   <i type="logical" name="LSCAAWARE"> F  </i>
   <i type="logical" name="LSCALU"> F  </i>
   <i type="logical" name="LASYNC"> F  </i>
   <i type="logical" name="LORBITALREAL"> F  </i>
  </separator>
  <separator name="miscellaneous" >
   <i type="int" name="IDIOT">     3</i>
   <i type="int" name="PHON_NSTRUCT">    -1</i>
   <i type="logical" name="LMUSIC"> F  </i>
   <v name="POMASS">     58.93300000</v>
   <v name="DARWINR">      0.00000000</v>
   <v name="DARWINV">      1.00000000</v>
   <i type="logical" name="LCORR"> T  </i>
  </separator>
  <i type="logical" name="GGA_COMPAT"> T  </i>
  <i type="logical" name="LBERRY"> F  </i>
  <i type="int" name="ICORELEVEL">     0</i>
  <i type="logical" name="LDAU"> F  </i>
  <i type="int" name="I_CONSTRAINED_M">     0</i>
  <separator name="electronic exchange-correlation" >
   <i type="string" name="GGA">--</i>
   <i type="int" name="VOSKOWN">     0</i>
   <i type="logical" name="LHFCALC"> F  </i>
   <i type="string" name="PRECFOCK"></i>
   <i type="logical" name="LSYMGRAD"> F  </i>
   <i type="logical" name="LHFONE"> F  </i>
   <i type="logical" name="LRHFCALC"> F  </i>
   <i type="logical" name="LTHOMAS"> F  </i>
   <i type="logical" name="LMODELHF"> F  </i>
   <i type="logical" name="LFOCKACE"> F  </i>
   <i name="ENCUT4O">     -1.00000000</i>
   <i type="int" name="EXXOEP">     0</i>
   <i type="int" name="FOURORBIT">     0</i>
   <i name="AEXX">      0.00000000</i>
   <i name="HFALPHA">      0.00000000</i>
   <i name="MCALPHA">      0.00000000</i>
   <i name="ALDAX">      1.00000000</i>
   <i name="AGGAX">      1.00000000</i>
   <i name="ALDAC">      1.00000000</i>
   <i name="AGGAC">      1.00000000</i>
   <i type="int" name="NKREDX">     1</i>
   <i type="int" name="NKREDY">     1</i>
   <i type="int" name="NKREDZ">     1</i>
   <i type="logical" name="SHIFTRED"> F  </i>
   <i type="logical" name="ODDONLY"> F  </i>
   <i type="logical" name="EVENONLY"> F  </i>
   <i type="int" name="LMAXFOCK">     0</i>
   <i type="int" name="NMAXFOCKAE">     0</i>
   <i type="logical" name="LFOCKAEDFT"> F  </i>
   <i name="HFSCREEN">      0.00000000</i>
   <i name="HFSCREENC">      0.00000000</i>
   <i type="int" name="NBANDSGWLOW">     0</i>
  </separator>
  <separator name="vdW DFT" >
   <i type="logical" name="LUSE_VDW"> F  </i>
   <i name="Zab_VDW">     -0.84910000</i>
   <i name="PARAM1">      0.12340000</i>
   <i name="PARAM2">      1.00000000</i>
   <i name="PARAM3">      0.00000000</i>
  </separator>
  <separator name="model GW" >
   <i type="int" name="MODEL_GW">     0</i>
   <i name="MODEL_EPS0">      8.63505772</i>
   <i name="MODEL_ALPHA">      1.00000000</i>
  </separator>
  <separator name="linear response parameters" >
   <i type="logical" name="LEPSILON"> F  </i>
   <i type="logical" name="LRPA"> F  </i>
   <i type="logical" name="LNABLA"> F  </i>
   <i type="logical" name="LVEL"> F  </i>
   <i name="CSHIFT">      0.10000000</i>
   <i name="OMEGAMAX">     -1.00000000</i>
   <i name="DEG_THRESHOLD">      0.00200000</i>
   <i name="RTIME">     -0.10000000</i>
   <i name="WPLASMAI">      0.00000000</i>
   <v name="DFIELD">      0.00000000      0.00000000      0.00000000</v>
   <v name="WPLASMA">      0.00000000      0.00000000      0.00000000      0.00000000      0.00000000      0.00000000      0.00000000      0.00000000      0.00000000</v>
  </separator>
  <separator name="orbital magnetization" >
   <i type="logical" name="NUCIND"> F  </i>
   <v name="MAGPOS">      0.00000000      0.00000000      0.00000000</v>
   <i type="logical" name="LNICSALL"> T  </i>
   <i type="logical" name="ORBITALMAG"> F  </i>
   <i type="logical" name="LMAGBLOCH"> F  </i>
   <i type="logical" name="LCHIMAG"> F  </i>
   <i type="logical" name="LGAUGE"> T  </i>
   <i type="int" name="MAGATOM">     0</i>
   <v name="MAGDIPOL">      0.00000000      0.00000000      0.00000000</v>
   <v name="AVECCONST">      0.00000000      0.00000000      0.00000000</v>
  </separator>
  <separator name="response functions" >
   <i type="logical" name="LFINITE_TEMPERATURE"> F  </i>
   <i type="logical" name="LADDER"> F  </i>
   <i type="logical" name="LRPAFORCE"> F  </i>
   <i type="logical" name="LFXC"> F  </i>
   <i type="logical" name="LHARTREE"> T  </i>
   <i type="int" name="IBSE">     0</i>
   <v type="int" name="KPOINT">    -1     0     0     0</v>
   <i type="logical" name="LTCTC"> F  </i>
   <i type="logical" name="LTCTE"> F  </i>
   <i type="logical" name="LTETE"> F  </i>
   <i type="logical" name="LTRIPLET"> F  </i>
   <i type="logical" name="LFXCEPS"> F  </i>
   <i type="logical" name="LFXHEG"> F  </i>
   <i type="int" name="NATURALO">     2</i>
   <i type="logical" name="LHOLEGF"> F  </i>
   <i type="logical" name="L2ORDER"> F  </i>
   <i type="logical" name="LDMP1"> F  </i>
   <i type="logical" name="LMP2LT"> F  </i>
   <i type="logical" name="LSMP2LT"> F  </i>
   <i type="logical" name="LGWLF"> F  </i>
   <i name="ENCUTGW">     -2.00000000</i>
   <i name="ENCUTGWSOFT">     -2.00000000</i>
   <i name="ENCUTLF">     -1.00000000</i>
   <i type="logical" name="LESF_SPLINES"> F  </i>
   <i type="int" name="LMAXMP2">    -1</i>
   <i name="SCISSOR">      0.00000000</i>
   <i type="int" name="NOMEGA">     0</i>
   <i type="int" name="NOMEGAR">     0</i>
   <i type="int" name="NBANDSGW">    -1</i>
   <i type="int" name="NBANDSO">    -1</i>
   <i type="int" name="NBANDSV">    -1</i>
   <i type="int" name="NELMGW">     1</i>
   <i type="int" name="NELMHF">     1</i>
   <i type="int" name="DIM">     3</i>
   <i type="int" name="IESPILON">     4</i>
   <i type="int" name="ANTIRES">     0</i>
   <i name="OMEGAMAX">    -30.00000000</i>
   <i name="OMEGAMIN">    -30.00000000</i>
   <i name="OMEGATL">   -200.00000000</i>
   <i type="int" name="OMEGAGRID">     0</i>
   <i name="CSHIFT">     -0.10000000</i>
   <i type="logical" name="LSELFENERGY"> F  </i>
   <i type="logical" name="LSPECTRAL"> F  </i>
   <i type="logical" name="LSPECTRALGW"> F  </i>
   <i type="logical" name="LSINGLES"> F  </i>
   <i type="logical" name="LFERMIGW"> F  </i>
   <i type="logical" name="ODDONLYGW"> F  </i>
   <i type="logical" name="EVENONLYGW"> F  </i>
   <i type="int" name="NKREDLFX">     1</i>
   <i type="int" name="NKREDLFY">     1</i>
   <i type="int" name="NKREDLFZ">     1</i>
   <i type="int" name="MAXMEM">  2800</i>
   <i type="int" name="TELESCOPE">     0</i>
   <i type="int" name="NTAUPAR">    -1</i>
   <i type="int" name="NOMEGAPAR">    -1</i>
   <i name="DAMP_NEWTON">      0.80000001</i>
   <i name="LAMBDA">      1.00000000</i>
  </separator>
  <separator name="External order field" >
   <i name="OFIELD_KAPPA">      0.00000000</i>
   <v name="OFIELD_K">      0.00000000      0.00000000      0.00000000</v>
   <i name="OFIELD_Q6_NEAR">      0.00000000</i>
   <i name="OFIELD_Q6_FAR">      0.00000000</i>
   <i name="OFIELD_A">      0.00000000</i>
  </separator>
  <separator name="optional k-points parameters" >
   <i type="int" name="KPOINTS_OPT_MODE">     1</i>
   <i type="logical" name="LKPOINTS_OPT"> F  </i>
  </separator>
 </parameters>
 <atominfo>
  <atoms>       2 </atoms>
  <types>       1 </types>
  <array name="atoms" >
   <dimension dim="1">ion</dimension>
   <field type="string">element</field>
   <field type="int">atomtype</field>
   <set>
    <rc><c>Co</c><c>   1</c></rc>
    <rc><c>Co</c><c>   1</c></rc>
   </set>
  </array>
  <array name="atomtypes" >
   <dimension dim="1">type</dimension>
   <field type="int">atomspertype</field>
   <field type="string">element</field>
   <field>mass</field>
   <field>valence</field>
   <field type="string">pseudopotential</field>
   <set>
    <rc><c>   2</c><c>Co</c><c>     58.93300000</c><c>      9.00000000</c><c>  PAW_PBE Co 02Aug2007                  </c></rc>
   </set>
  </array>
 </atominfo>
 <structure name="initialpos" >
  <crystal>
   <varray name="basis" >
    <v>       1.37075159      -2.37421139       0.00000000 </v>
    <v>       1.37075159       2.37421139       0.00000000 </v>
    <v>       0.00000000       0.00000000       4.42217427 </v>
   </varray>
   <i name="volume">     28.78352573 </i>
   <varray name="rec_basis" >
    <v>       0.36476339      -0.21059624       0.00000000 </v>
    <v>       0.36476339       0.21059624       0.00000000 </v>
    <v>       0.00000000       0.00000000       0.22613311 </v>
   </varray>
  </crystal>
  <varray name="positions" >
   <v>       0.33333333       0.66666667       0.25000000 </v>
   <v>       0.66666667       0.33333333       0.75000000 </v>
  </varray>
 </structure>
 <calculation>
  <scstep>
   <time name="dav">    0.76    0.76</time>
   <time name="total">    0.77    0.78</time>
   <energy>
    <i name="alphaZ">     58.86379771 </i>
    <i name="ewald">  -1384.88595003 </i>
    <i name="hartreedc">   -361.53230742 </i>
    <i name="XCdc">     34.02306031 </i>
    <i name="pawpsdc">   1439.98163886 </i>
    <i name="pawaedc">  -1545.88690193 </i>
    <i name="eentropy">     -0.00417913 </i>
    <i name="bandstr">    139.25518351 </i>
    <i name="atom">   1626.72322989 </i>
    <i name="e_fr_energy">      6.53757176 </i>
    <i name="e_wo_entrp">      6.54175090 </i>
    <i name="e_0_energy">      6.53966133 </i>
   </energy>
  </scstep>
  <scstep>
   <time name="dav">    1.01    1.02</time>
   <time name="total">    1.01    1.02</time>
   <energy>
    <i name="e_fr_energy">    -14.88954395 </i>
    <i name="e_wo_entrp">    -14.88592524 </i>
    <i name="e_0_energy">    -14.88773460 </i>
   </energy>
  </scstep>
  <scstep>
   <time name="dav">    1.16    1.16</time>
   <time name="total">    1.16    1.16</time>
   <energy>
    <i name="e_fr_energy">    -15.04696873 </i>
    <i name="e_wo_entrp">    -15.04327315 </i>
    <i name="e_0_energy">    -15.04512094 </i>
   </energy>
  </scstep>
  <scstep>
   <time name="dav">    1.37    1.38</time>
   <time name="total">    1.38    1.38</time>
   <energy>
    <i name="e_fr_energy">    -15.04847033 </i>
    <i name="e_wo_entrp">    -15.04477016 </i>
    <i name="e_0_energy">    -15.04662025 </i>
   </energy>
  </scstep>
  <scstep>
   <time name="dav">    1.33    1.34</time>
   <time name="total">    1.37    1.37</time>
   <energy>
    <i name="e_fr_energy">    -15.04847419 </i>
    <i name="e_wo_entrp">    -15.04477402 </i>
    <i name="e_0_energy">    -15.04662410 </i>
   </energy>
  </scstep>
  <scstep>
   <time name="dav">    0.96    0.97</time>
   <time name="total">    1.01    1.02</time>
   <energy>
    <i name="e_fr_energy">    -14.18293491 </i>
    <i name="e_wo_entrp">    -14.17952008 </i>
    <i name="e_0_energy">    -14.18122749 </i>
   </energy>
  </scstep>
  <scstep>
   <time name="dav">    0.97    0.97</time>
   <time name="total">    1.01    1.02</time>
   <energy>
    <i name="e_fr_energy">    -13.18503862 </i>
    <i name="e_wo_entrp">    -13.18139966 </i>
    <i name="e_0_energy">    -13.18321914 </i>
   </energy>
  </scstep>
  <scstep>
   <time name="dav">    0.93    0.93</time>
   <time name="total">    0.97    0.98</time>
   <energy>
    <i name="e_fr_energy">    -13.19057027 </i>
    <i name="e_wo_entrp">    -13.18696402 </i>
    <i name="e_0_energy">    -13.18876715 </i>
   </energy>
  </scstep>
  <scstep>
   <time name="dav">    1.44    1.45</time>
   <time name="total">    1.49    1.50</time>
   <energy>
    <i name="e_fr_energy">    -13.18368737 </i>
    <i name="e_wo_entrp">    -13.18010154 </i>
    <i name="e_0_energy">    -13.18189446 </i>
   </energy>
  </scstep>
  <scstep>
   <time name="dav">    1.84    1.85</time>
   <time name="total">    1.89    1.90</time>
   <energy>
    <i name="e_fr_energy">    -13.18173181 </i>
    <i name="e_wo_entrp">    -13.17811092 </i>
    <i name="e_0_energy">    -13.17992136 </i>
   </energy>
  </scstep>
  <scstep>
   <time name="dav">    1.23    1.23</time>
   <time name="total">    1.27    1.28</time>
   <energy>
    <i name="e_fr_energy">    -13.18195160 </i>
    <i name="e_wo_entrp">    -13.17833341 </i>
    <i name="e_0_energy">    -13.18014251 </i>
   </energy>
  </scstep>
  <scstep>
   <time name="dav">    1.08    1.09</time>
   <time name="total">    1.13    1.13</time>
   <energy>
    <i name="e_fr_energy">    -13.18193318 </i>
    <i name="e_wo_entrp">    -13.17831553 </i>
    <i name="e_0_energy">    -13.18012435 </i>
   </energy>
  </scstep>
  <scstep>
   <time name="dav">    1.14    1.15</time>
   <time name="total">    1.19    1.19</time>
   <energy>
    <i name="e_fr_energy">    -13.18193495 </i>
    <i name="e_wo_entrp">    -13.17831730 </i>
    <i name="e_0_energy">    -13.18012613 </i>
   </energy>
  </scstep>
  <scstep>
   <time name="dav">    0.47    0.47</time>
   <time name="total">    0.48    0.48</time>
   <energy>
    <i name="alphaZ">     58.86379771 </i>
    <i name="ewald">  -1384.88595003 </i>
    <i name="hartreedc">   -327.01260744 </i>
    <i name="XCdc">     31.59734086 </i>
    <i name="pawpsdc">   1581.88471547 </i>
    <i name="pawaedc">  -1686.46484112 </i>
    <i name="eentropy">     -0.00361887 </i>
    <i name="bandstr">     86.11599891 </i>
    <i name="atom">   1626.72322989 </i>
    <i name="e_fr_energy">    -13.18193463 </i>
    <i name="e_wo_entrp">    -13.17831575 </i>
    <i name="e_0_energy">    -13.18012519 </i>
   </energy>
  </scstep>
  <structure>
   <crystal>
    <varray name="basis" >
     <v>       1.37075159      -2.37421139       0.00000000 </v>
     <v>       1.37075159       2.37421139       0.00000000 </v>
     <v>       0.00000000       0.00000000       4.42217427 </v>
    </varray>
    <i name="volume">     28.78352573 </i>
    <varray name="rec_basis" >
     <v>       0.36476339      -0.21059624       0.00000000 </v>
     <v>       0.36476339       0.21059624       0.00000000 </v>
     <v>       0.00000000       0.00000000       0.22613311 </v>
    </varray>
   </crystal>
   <varray name="positions" >
    <v>       0.33333333       0.66666667       0.25000000 </v>
    <v>       0.66666667       0.33333333       0.75000000 </v>
   </varray>
  </structure>
  <varray name="forces" >
   <v>       0.00000000       0.00000000       0.00000000 </v>
   <v>      -0.00000000      -0.00000000      -0.00000000 </v>
  </varray>
  <varray name="stress" >
   <v>    -310.94778924       0.00000000       0.00000000 </v>
   <v>       0.00000000    -310.94778924      -0.00000000 </v>
   <v>       0.00000000       0.00000000    -305.66535831 </v>
  </varray>
  <energy>
   <i name="e_fr_energy">    -13.18193463 </i>
   <i name="e_wo_entrp">    -13.17831575 </i>
   <i name="e_0_energy">    -13.18012519 </i>
  </energy>
  <time name="totalsc">   16.46   16.55</time>
  <eigenvalues>
   <array>
    <dimension dim="1">band</dimension>
    <dimension dim="2">kpoint</dimension>
    <dimension dim="3">spin</dimension>
    <field>eigene</field>
    <field>occ</field>
    <set>
     <set comment="spin 1">
      <set comment="kpoint 1">
       <r>   -0.5547    1.0000 </r>
       <r>    2.7571    1.0000 </r>
       <r>    4.4596    1.0000 </r>
       <r>    4.4668    1.0000 </r>
       <r>    4.4668    1.0000 </r>
       <r>    4.6590    1.0000 </r>
       <r>    4.6590    1.0000 </r>
       <r>    4.8631    1.0000 </r>
       <r>    4.8631    1.0000 </r>
       <r>    5.5759    1.0000 </r>
       <r>    5.5759    1.0000 </r>
       <r>    6.9644    0.0000 </r>
       <r>   11.0137    0.0000 </r>
       <r>   26.3418    0.0000 </r>
       <r>   26.5337    0.0000 </r>
       <r>   26.5337    0.0000 </r>
       <r>   28.1418    0.0000 </r>
       <r>   28.1418    0.0000 </r>
       <r>   28.6233    0.0000 </r>
       <r>   29.2034    0.0000 </r>
       <r>   32.9289    0.0000 </r>
       <r>   33.2486    0.0000 </r>
       <r>   33.2486    0.0000 </r>
       <r>   34.1017    0.0000 </r>
      </set>
      <set comment="kpoint 2">
       <r>   -0.3580    1.0000 </r>
       <r>    2.8629    1.0000 </r>
       <r>    4.3230    1.0000 </r>
       <r>    4.5396    1.0000 </r>
       <r>    4.5829    1.0000 </r>
       <r>    4.6331    1.0000 </r>
       <r>    4.7232    1.0000 </r>
       <r>    4.7839    1.0000 </r>
       <r>    4.8199    1.0000 </r>
       <r>    5.2097    1.0000 </r>
       <r>    5.5937    1.0000 </r>
       <r>    7.5662    0.0000 </r>
       <r>   11.0722    0.0000 </r>
       <r>   23.5139    0.0000 </r>
       <r>   24.9507    0.0000 </r>
       <r>   25.8960    0.0000 </r>
       <r>   29.1630    0.0000 </r>
       <r>   29.2685    0.0000 </r>
       <r>   29.9654    0.0000 </r>
       <r>   30.3491    0.0000 </r>
       <r>   30.5894    0.0000 </r>
       <r>   32.1788    0.0000 </r>
       <r>   32.5023    0.0000 </r>
       <r>   32.5058    0.0000 </r>
      </set>
      <set comment="kpoint 3">
       <r>    0.2160    1.0000 </r>
       <r>    3.1248    1.0000 </r>
       <r>    4.1596    1.0000 </r>
       <r>    4.4039    1.0000 </r>
       <r>    4.5288    1.0000 </r>
       <r>    4.7123    1.0000 </r>
       <r>    4.7442    1.0000 </r>
       <r>    4.7785    1.0000 </r>
       <r>    4.8987    1.0000 </r>
       <r>    4.9023    1.0000 </r>
       <r>    5.6321    1.0000 </r>
       <r>    8.7310    0.0000 </r>
       <r>   11.2705    0.0000 </r>
       <r>   19.9768    0.0000 </r>
       <r>   23.0303    0.0000 </r>
       <r>   25.0722    0.0000 </r>
       <r>   26.7906    0.0000 </r>
       <r>   28.1435    0.0000 </r>
       <r>   29.3840    0.0000 </r>
       <r>   30.6777    0.0000 </r>
       <r>   31.1256    0.0000 </r>
       <r>   31.3528    0.0000 </r>
       <r>   31.5366    0.0000 </r>
       <r>   32.7002    0.0000 </r>
      </set>
      <set comment="kpoint 4">
       <r>    1.1026    1.0000 </r>
       <r>    3.3383    1.0000 </r>
       <r>    3.9353    1.0000 </r>
       <r>    4.0750    1.0000 </r>
       <r>    4.4755    1.0000 </r>
       <r>    4.5814    1.0000 </r>
       <r>    4.7580    1.0000 </r>
       <r>    5.0380    1.0000 </r>
       <r>    5.0554    1.0000 </r>
       <r>    5.1583    1.0000 </r>
       <r>    5.6691    1.0000 </r>
       <r>   10.1420    0.0000 </r>
       <r>   11.6605    0.0000 </r>
       <r>   16.6735    0.0000 </r>
       <r>   21.3790    0.0000 </r>
       <r>   23.7265    0.0000 </r>
       <r>   23.8583    0.0000 </r>
       <r>   25.5916    0.0000 </r>
       <r>   28.2710    0.0000 </r>
       <r>   29.5736    0.0000 </r>
       <r>   30.7830    0.0000 </r>
       <r>   31.4306    0.0000 </r>
       <r>   31.9453    0.0000 </r>
       <r>   34.6562    0.0000 </r>
      </set>
      <set comment="kpoint 5">
       <r>    2.1085    1.0000 </r>
       <r>    3.3041    1.0000 </r>
       <r>    3.5856    1.0000 </r>
       <r>    4.1808    1.0000 </r>
       <r>    4.4625    1.0000 </r>
       <r>    4.5616    1.0000 </r>
       <r>    4.6457    1.0000 </r>
       <r>    5.3459    1.0000 </r>
       <r>    5.4341    1.0000 </r>
       <r>    5.5183    1.0000 </r>
       <r>    5.6950    1.0000 </r>
       <r>   11.7374    0.0000 </r>
       <r>   12.0706    0.0000 </r>
       <r>   13.9719    0.0000 </r>
       <r>   20.0930    0.0000 </r>
       <r>   20.9621    0.0000 </r>
       <r>   21.3421    0.0000 </r>
       <r>   24.6703    0.0000 </r>
       <r>   27.2508    0.0000 </r>
       <r>   28.1834    0.0000 </r>
       <r>   30.2631    0.0000 </r>
       <r>   31.8150    0.0000 </r>
       <r>   33.5167    0.0000 </r>
       <r>   35.8450    0.0000 </r>
      </set>
      <set comment="kpoint 6">
       <r>    2.7995    1.0000 </r>
       <r>    3.1811    1.0000 </r>
       <r>    3.3767    1.0000 </r>
       <r>    4.3808    1.0000 </r>
       <r>    4.4708    1.0000 </r>
       <r>    4.5676    1.0000 </r>
       <r>    4.6967    1.0000 </r>
       <r>    5.5721    1.0000 </r>
       <r>    5.6600    1.0000 </r>
       <r>    5.7090    1.0000 </r>
       <r>    6.3851    1.0000 </r>
       <r>   10.4960    0.0000 </r>
       <r>   13.4329    0.0000 </r>
       <r>   14.0120    0.0000 </r>
       <r>   18.5731    0.0000 </r>
       <r>   18.8015    0.0000 </r>
       <r>   19.2638    0.0000 </r>
       <r>   24.3688    0.0000 </r>
       <r>   26.6070    0.0000 </r>
       <r>   27.2998    0.0000 </r>
       <r>   29.9607    0.0000 </r>
       <r>   32.0292    0.0000 </r>
       <r>   35.5111    0.0000 </r>
       <r>   36.6297    0.0000 </r>
      </set>
      <set comment="kpoint 7">
       <r>    3.0078    1.0000 </r>
       <r>    3.0997    1.0000 </r>
       <r>    3.3076    1.0000 </r>
       <r>    4.3518    1.0000 </r>
       <r>    4.5395    1.0000 </r>
       <r>    4.6603    1.0000 </r>
       <r>    4.7433    1.0000 </r>
       <r>    5.6538    1.0000 </r>
       <r>    5.7133    1.0000 </r>
       <r>    5.7500    1.0000 </r>
       <r>    7.4758    0.0000 </r>
       <r>    8.8474    0.0000 </r>
       <r>   14.5610    0.0000 </r>
       <r>   14.8685    0.0000 </r>
       <r>   17.2154    0.0000 </r>
       <r>   17.3786    0.0000 </r>
       <r>   18.9753    0.0000 </r>
       <r>   24.2829    0.0000 </r>
       <r>   26.3886    0.0000 </r>
       <r>   26.9961    0.0000 </r>
       <r>   29.8617    0.0000 </r>
       <r>   32.1066    0.0000 </r>
       <r>   36.9100    0.0000 </r>
       <r>   37.6504    0.0000 </r>
      </set>
      <set comment="kpoint 8">
       <r>    0.0278    1.0000 </r>
       <r>    3.0507    1.0000 </r>
       <r>    4.1924    1.0000 </r>
       <r>    4.5580    1.0000 </r>
       <r>    4.5693    1.0000 </r>
       <r>    4.6836    1.0000 </r>
       <r>    4.6880    1.0000 </r>
       <r>    4.6987    1.0000 </r>
       <r>    4.8656    1.0000 </r>
       <r>    4.9768    1.0000 </r>
       <r>    5.6163    1.0000 </r>
       <r>    8.3914    0.0000 </r>
       <r>   11.2017    0.0000 </r>
       <r>   21.7436    0.0000 </r>
       <r>   21.8579    0.0000 </r>
       <r>   27.0882    0.0000 </r>
       <r>   28.3177    0.0000 </r>
       <r>   28.4111    0.0000 </r>
       <r>   28.4819    0.0000 </r>
       <r>   30.0653    0.0000 </r>
       <r>   30.3977    0.0000 </r>
       <r>   30.4015    0.0000 </r>
       <r>   33.6809    0.0000 </r>
       <r>   34.0910    0.0000 </r>
      </set>
      <set comment="kpoint 9">
       <r>    0.7636    1.0000 </r>
       <r>    3.3183    1.0000 </r>
       <r>    4.0315    1.0000 </r>
       <r>    4.1127    1.0000 </r>
       <r>    4.4985    1.0000 </r>
       <r>    4.5634    1.0000 </r>
       <r>    4.8456    1.0000 </r>
       <r>    4.8540    1.0000 </r>
       <r>    4.9575    1.0000 </r>
       <r>    5.1323    1.0000 </r>
       <r>    5.6444    1.0000 </r>
       <r>    9.6234    0.0000 </r>
       <r>   11.5066    0.0000 </r>
       <r>   18.3807    0.0000 </r>
       <r>   20.2869    0.0000 </r>
       <r>   25.3265    0.0000 </r>
       <r>   25.8237    0.0000 </r>
       <r>   27.1351    0.0000 </r>
       <r>   27.5265    0.0000 </r>
       <r>   28.1913    0.0000 </r>
       <r>   31.0890    0.0000 </r>
       <r>   31.3597    0.0000 </r>
       <r>   33.5435    0.0000 </r>
       <r>   33.8962    0.0000 </r>
      </set>
      <set comment="kpoint 10">
       <r>    1.7371    1.0000 </r>
       <r>    3.4130    1.0000 </r>
       <r>    3.7293    1.0000 </r>
       <r>    4.0099    1.0000 </r>
       <r>    4.4472    1.0000 </r>
       <r>    4.5123    1.0000 </r>
       <r>    4.7292    1.0000 </r>
       <r>    5.1014    1.0000 </r>
       <r>    5.2727    1.0000 </r>
       <r>    5.5043    1.0000 </r>
       <r>    5.6683    1.0000 </r>
       <r>   11.1012    0.0000 </r>
       <r>   12.0222    0.0000 </r>
       <r>   15.2750    0.0000 </r>
       <r>   19.0305    0.0000 </r>
       <r>   22.4153    0.0000 </r>
       <r>   22.9765    0.0000 </r>
       <r>   26.0671    0.0000 </r>
       <r>   26.6693    0.0000 </r>
       <r>   27.0299    0.0000 </r>
       <r>   31.8640    0.0000 </r>
       <r>   33.1820    0.0000 </r>
       <r>   33.3483    0.0000 </r>
       <r>   34.4667    0.0000 </r>
      </set>
      <set comment="kpoint 11">
       <r>    2.6295    1.0000 </r>
       <r>    3.3033    1.0000 </r>
       <r>    3.4694    1.0000 </r>
       <r>    4.1972    1.0000 </r>
       <r>    4.3696    1.0000 </r>
       <r>    4.6108    1.0000 </r>
       <r>    4.6411    1.0000 </r>
       <r>    5.4170    1.0000 </r>
       <r>    5.5382    1.0000 </r>
       <r>    5.6834    1.0000 </r>
       <r>    6.0977    1.0000 </r>
       <r>   11.7170    0.0000 </r>
       <r>   12.7546    0.0000 </r>
       <r>   13.6974    0.0000 </r>
       <r>   18.1010    0.0000 </r>
       <r>   19.8199    0.0000 </r>
       <r>   20.1810    0.0000 </r>
       <r>   25.3296    0.0000 </r>
       <r>   26.1319    0.0000 </r>
       <r>   26.1768    0.0000 </r>
       <r>   31.7373    0.0000 </r>
       <r>   33.5339    0.0000 </r>
       <r>   34.7515    0.0000 </r>
       <r>   36.2221    0.0000 </r>
      </set>
      <set comment="kpoint 12">
       <r>    3.0359    1.0000 </r>
       <r>    3.1933    1.0000 </r>
       <r>    3.3400    1.0000 </r>
       <r>    4.3362    1.0000 </r>
       <r>    4.4789    1.0000 </r>
       <r>    4.5341    1.0000 </r>
       <r>    4.7415    1.0000 </r>
       <r>    5.6340    1.0000 </r>
       <r>    5.6792    1.0000 </r>
       <r>    5.6902    1.0000 </r>
       <r>    7.2335    0.0000 </r>
       <r>    9.5743    0.0000 </r>
       <r>   14.3738    0.0000 </r>
       <r>   14.7052    0.0000 </r>
       <r>   17.4980    0.0000 </r>
       <r>   17.7347    0.0000 </r>
       <r>   18.0541    0.0000 </r>
       <r>   24.9533    0.0000 </r>
       <r>   25.6434    0.0000 </r>
       <r>   25.9454    0.0000 </r>
       <r>   31.5412    0.0000 </r>
       <r>   33.6387    0.0000 </r>
       <r>   36.8422    0.0000 </r>
       <r>   36.9108    0.0000 </r>
      </set>
      <set comment="kpoint 13">
       <r>    1.6042    1.0000 </r>
       <r>    3.5316    1.0000 </r>
       <r>    3.8056    1.0000 </r>
       <r>    3.8530    1.0000 </r>
       <r>    4.4060    1.0000 </r>
       <r>    4.5094    1.0000 </r>
       <r>    4.7843    1.0000 </r>
       <r>    4.9512    1.0000 </r>
       <r>    5.2678    1.0000 </r>
       <r>    5.5182    1.0000 </r>
       <r>    5.6457    1.0000 </r>
       <r>   10.8848    0.0000 </r>
       <r>   11.9817    0.0000 </r>
       <r>   17.0450    0.0000 </r>
       <r>   17.0732    0.0000 </r>
       <r>   24.1039    0.0000 </r>
       <r>   24.2026    0.0000 </r>
       <r>   24.7102    0.0000 </r>
       <r>   25.1388    0.0000 </r>
       <r>   29.4333    0.0000 </r>
       <r>   31.1688    0.0000 </r>
       <r>   32.1308    0.0000 </r>
       <r>   34.8595    0.0000 </r>
       <r>   36.0096    0.0000 </r>
      </set>
      <set comment="kpoint 14">
       <r>    2.5434    1.0000 </r>
       <r>    3.5305    1.0000 </r>
       <r>    3.5621    1.0000 </r>
       <r>    3.8532    1.0000 </r>
       <r>    4.3109    1.0000 </r>
       <r>    4.6075    1.0000 </r>
       <r>    4.6650    1.0000 </r>
       <r>    5.1459    1.0000 </r>
       <r>    5.5419    1.0000 </r>
       <r>    5.6443    1.0000 </r>
       <r>    6.0899    1.0000 </r>
       <r>   12.4082    0.0000 </r>
       <r>   12.5970    0.0000 </r>
       <r>   14.2871    0.0000 </r>
       <r>   16.0451    0.0000 </r>
       <r>   21.3934    0.0000 </r>
       <r>   21.8945    0.0000 </r>
       <r>   23.3157    0.0000 </r>
       <r>   23.9930    0.0000 </r>
       <r>   29.4916    0.0000 </r>
       <r>   33.4220    0.0000 </r>
       <r>   33.5518    0.0000 </r>
       <r>   35.4600    0.0000 </r>
       <r>   35.8462    0.0000 </r>
      </set>
      <set comment="kpoint 15">
       <r>    3.1450    1.0000 </r>
       <r>    3.4025    1.0000 </r>
       <r>    3.4125    1.0000 </r>
       <r>    4.0869    1.0000 </r>
       <r>    4.2836    1.0000 </r>
       <r>    4.5383    1.0000 </r>
       <r>    4.7390    1.0000 </r>
       <r>    5.4019    1.0000 </r>
       <r>    5.6427    1.0000 </r>
       <r>    5.6750    1.0000 </r>
       <r>    7.0641    0.0000 </r>
       <r>   11.0618    0.0000 </r>
       <r>   14.0965    0.0000 </r>
       <r>   14.3951    0.0000 </r>
       <r>   15.4063    0.0000 </r>
       <r>   18.9807    0.0000 </r>
       <r>   19.2848    0.0000 </r>
       <r>   22.8028    0.0000 </r>
       <r>   23.3559    0.0000 </r>
       <r>   29.1610    0.0000 </r>
       <r>   34.1675    0.0000 </r>
       <r>   35.9865    0.0000 </r>
       <r>   36.6074    0.0000 </r>
       <r>   36.6135    0.0000 </r>
      </set>
      <set comment="kpoint 16">
       <r>    3.2826    1.0000 </r>
       <r>    3.3459    1.0000 </r>
       <r>    3.3626    1.0000 </r>
       <r>    4.2497    1.0000 </r>
       <r>    4.2918    1.0000 </r>
       <r>    4.4740    1.0000 </r>
       <r>    4.7940    1.0000 </r>
       <r>    5.5720    1.0000 </r>
       <r>    5.6419    1.0000 </r>
       <r>    5.6609    1.0000 </r>
       <r>    8.3102    0.0000 </r>
       <r>    9.2761    0.0000 </r>
       <r>   15.0555    0.0000 </r>
       <r>   15.3048    0.0000 </r>
       <r>   15.4883    0.0000 </r>
       <r>   17.5330    0.0000 </r>
       <r>   17.7999    0.0000 </r>
       <r>   22.6311    0.0000 </r>
       <r>   23.1361    0.0000 </r>
       <r>   29.0379    0.0000 </r>
       <r>   34.2424    0.0000 </r>
       <r>   36.3937    0.0000 </r>
       <r>   37.1639    0.0000 </r>
       <r>   38.4909    0.0000 </r>
      </set>
      <set comment="kpoint 17">
       <r>    3.2276    1.0000 </r>
       <r>    3.4540    1.0000 </r>
       <r>    3.6586    1.0000 </r>
       <r>    3.7313    1.0000 </r>
       <r>    4.2472    1.0000 </r>
       <r>    4.5460    1.0000 </r>
       <r>    4.7436    1.0000 </r>
       <r>    5.2580    1.0000 </r>
       <r>    5.6182    1.0000 </r>
       <r>    5.6794    1.0000 </r>
       <r>    7.0335    0.0000 </r>
       <r>   12.6612    0.0000 </r>
       <r>   13.2410    0.0000 </r>
       <r>   13.9859    0.0000 </r>
       <r>   14.5856    0.0000 </r>
       <r>   20.3059    0.0000 </r>
       <r>   20.8526    0.0000 </r>
       <r>   21.1711    0.0000 </r>
       <r>   21.4357    0.0000 </r>
       <r>   32.3590    0.0000 </r>
       <r>   33.5041    0.0000 </r>
       <r>   35.1068    0.0000 </r>
       <r>   36.6743    0.0000 </r>
       <r>   38.6232    0.0000 </r>
      </set>
      <set comment="kpoint 18">
       <r>    3.4030    1.0000 </r>
       <r>    3.4704    1.0000 </r>
       <r>    3.5772    1.0000 </r>
       <r>    3.9441    1.0000 </r>
       <r>    4.2608    1.0000 </r>
       <r>    4.4233    1.0000 </r>
       <r>    4.8509    1.0000 </r>
       <r>    5.4302    1.0000 </r>
       <r>    5.6027    1.0000 </r>
       <r>    5.6451    1.0000 </r>
       <r>    8.4930    0.0000 </r>
       <r>   10.5948    0.0000 </r>
       <r>   12.6699    0.0000 </r>
       <r>   15.6871    0.0000 </r>
       <r>   15.8107    0.0000 </r>
       <r>   18.3427    0.0000 </r>
       <r>   18.7738    0.0000 </r>
       <r>   20.6112    0.0000 </r>
       <r>   20.8072    0.0000 </r>
       <r>   32.5940    0.0000 </r>
       <r>   36.3133    0.0000 </r>
       <r>   36.6002    0.0000 </r>
       <r>   37.9116    0.0000 </r>
       <r>   38.7827    0.0000 </r>
      </set>
      <set comment="kpoint 19">
       <r>    3.4064    1.0000 </r>
       <r>    3.6203    1.0000 </r>
       <r>    3.6203    1.0000 </r>
       <r>    3.8777    1.0000 </r>
       <r>    4.3140    1.0000 </r>
       <r>    4.3140    1.0000 </r>
       <r>    4.9139    1.0000 </r>
       <r>    5.5207    1.0000 </r>
       <r>    5.5207    1.0000 </r>
       <r>    5.5866    1.0000 </r>
       <r>   10.2143    0.0000 </r>
       <r>   10.4957    0.0000 </r>
       <r>   10.4957    0.0000 </r>
       <r>   16.7714    0.0000 </r>
       <r>   17.3235    0.0000 </r>
       <r>   17.3235    0.0000 </r>
       <r>   19.0084    0.0000 </r>
       <r>   19.0085    0.0000 </r>
       <r>   19.5817    0.0000 </r>
       <r>   35.5206    0.0000 </r>
       <r>   36.6285    0.0000 </r>
       <r>   36.6285    0.0000 </r>
       <r>   38.6870    0.0000 </r>
       <r>   38.7988    0.0000 </r>
      </set>
      <set comment="kpoint 20">
       <r>   -0.4265    1.0000 </r>
       <r>    2.7220    1.0000 </r>
       <r>    4.4351    1.0000 </r>
       <r>    4.4376    1.0000 </r>
       <r>    4.4376    1.0000 </r>
       <r>    4.6319    1.0000 </r>
       <r>    4.6319    1.0000 </r>
       <r>    4.9275    1.0000 </r>
       <r>    4.9275    1.0000 </r>
       <r>    5.5695    1.0000 </r>
       <r>    5.5695    1.0000 </r>
       <r>    6.3082    1.0000 </r>
       <r>   11.9509    0.0000 </r>
       <r>   26.3508    0.0000 </r>
       <r>   26.6606    0.0000 </r>
       <r>   26.6606    0.0000 </r>
       <r>   27.4880    0.0000 </r>
       <r>   28.1930    0.0000 </r>
       <r>   28.1930    0.0000 </r>
       <r>   28.4203    0.0000 </r>
       <r>   32.6741    0.0000 </r>
       <r>   32.6741    0.0000 </r>
       <r>   33.4097    0.0000 </r>
       <r>   33.6107    0.0000 </r>
      </set>
      <set comment="kpoint 21">
       <r>   -0.2312    1.0000 </r>
       <r>    2.8353    1.0000 </r>
       <r>    4.3204    1.0000 </r>
       <r>    4.5018    1.0000 </r>
       <r>    4.5132    1.0000 </r>
       <r>    4.5751    1.0000 </r>
       <r>    4.6930    1.0000 </r>
       <r>    4.8779    1.0000 </r>
       <r>    4.8974    1.0000 </r>
       <r>    5.1535    1.0000 </r>
       <r>    5.5848    1.0000 </r>
       <r>    6.9237    0.0016 </r>
       <r>   12.0584    0.0000 </r>
       <r>   23.6220    0.0000 </r>
       <r>   25.0833    0.0000 </r>
       <r>   25.9381    0.0000 </r>
       <r>   27.5714    0.0000 </r>
       <r>   28.5765    0.0000 </r>
       <r>   29.4970    0.0000 </r>
       <r>   29.8847    0.0000 </r>
       <r>   31.5009    0.0000 </r>
       <r>   31.6602    0.0000 </r>
       <r>   32.0101    0.0000 </r>
       <r>   33.2795    0.0000 </r>
      </set>
      <set comment="kpoint 22">
       <r>    0.3373    1.0000 </r>
       <r>    3.1187    1.0000 </r>
       <r>    4.1692    1.0000 </r>
       <r>    4.2971    1.0000 </r>
       <r>    4.4931    1.0000 </r>
       <r>    4.6326    1.0000 </r>
       <r>    4.7513    1.0000 </r>
       <r>    4.8333    1.0000 </r>
       <r>    4.9053    1.0000 </r>
       <r>    4.9728    1.0000 </r>
       <r>    5.6177    1.0000 </r>
       <r>    7.9089    0.0000 </r>
       <r>   12.4088    0.0000 </r>
       <r>   20.0953    0.0000 </r>
       <r>   23.1790    0.0000 </r>
       <r>   24.9157    0.0000 </r>
       <r>   25.9489    0.0000 </r>
       <r>   27.9541    0.0000 </r>
       <r>   28.9541    0.0000 </r>
       <r>   29.6227    0.0000 </r>
       <r>   30.1625    0.0000 </r>
       <r>   31.6415    0.0000 </r>
       <r>   32.7723    0.0000 </r>
       <r>   33.4627    0.0000 </r>
      </set>
      <set comment="kpoint 23">
       <r>    1.2087    1.0000 </r>
       <r>    3.3564    1.0000 </r>
       <r>    3.8786    1.0000 </r>
       <r>    4.0917    1.0000 </r>
       <r>    4.4138    1.0000 </r>
       <r>    4.5955    1.0000 </r>
       <r>    4.7707    1.0000 </r>
       <r>    5.0595    1.0000 </r>
       <r>    5.0928    1.0000 </r>
       <r>    5.1362    1.0000 </r>
       <r>    5.6494    1.0000 </r>
       <r>    9.0064    0.0000 </r>
       <r>   13.0569    0.0000 </r>
       <r>   16.7966    0.0000 </r>
       <r>   21.5422    0.0000 </r>
       <r>   22.3588    0.0000 </r>
       <r>   24.6428    0.0000 </r>
       <r>   26.2782    0.0000 </r>
       <r>   27.7359    0.0000 </r>
       <r>   28.2484    0.0000 </r>
       <r>   29.9276    0.0000 </r>
       <r>   32.2176    0.0000 </r>
       <r>   32.4116    0.0000 </r>
       <r>   35.7612    0.0000 </r>
      </set>
      <set comment="kpoint 24">
       <r>    2.1699    1.0000 </r>
       <r>    3.3225    1.0000 </r>
       <r>    3.5956    1.0000 </r>
       <r>    4.0919    1.0000 </r>
       <r>    4.4962    1.0000 </r>
       <r>    4.5301    1.0000 </r>
       <r>    4.8167    1.0000 </r>
       <r>    5.3569    1.0000 </r>
       <r>    5.3981    1.0000 </r>
       <r>    5.4875    1.0000 </r>
       <r>    5.6748    1.0000 </r>
       <r>   10.1607    0.0000 </r>
       <r>   13.5173    0.0000 </r>
       <r>   14.4046    0.0000 </r>
       <r>   19.5739    0.0000 </r>
       <r>   20.2683    0.0000 </r>
       <r>   22.8426    0.0000 </r>
       <r>   24.7808    0.0000 </r>
       <r>   26.9318    0.0000 </r>
       <r>   27.0987    0.0000 </r>
       <r>   30.8655    0.0000 </r>
       <r>   31.4736    0.0000 </r>
       <r>   33.0314    0.0000 </r>
       <r>   37.7497    0.0000 </r>
      </set>
      <set comment="kpoint 25">
       <r>    2.7662    1.0000 </r>
       <r>    3.1866    1.0000 </r>
       <r>    3.4967    1.0000 </r>
       <r>    4.1025    1.0000 </r>
       <r>    4.4221    1.0000 </r>
       <r>    4.6986    1.0000 </r>
       <r>    5.0103    1.0000 </r>
       <r>    5.5646    1.0000 </r>
       <r>    5.6119    1.0000 </r>
       <r>    5.7079    1.0000 </r>
       <r>    6.3476    1.0000 </r>
       <r>   10.2522    0.0000 </r>
       <r>   12.5040    0.0000 </r>
       <r>   15.0682    0.0000 </r>
       <r>   17.5657    0.0000 </r>
       <r>   19.4478    0.0000 </r>
       <r>   20.3942    0.0000 </r>
       <r>   24.4229    0.0000 </r>
       <r>   26.3380    0.0000 </r>
       <r>   26.3678    0.0000 </r>
       <r>   31.0521    0.0000 </r>
       <r>   31.9094    0.0000 </r>
       <r>   33.6186    0.0000 </r>
       <r>   37.0943    0.0000 </r>
      </set>
      <set comment="kpoint 26">
       <r>    2.8999    1.0000 </r>
       <r>    3.1198    1.0000 </r>
       <r>    3.4889    1.0000 </r>
       <r>    4.1163    1.0000 </r>
       <r>    4.3953    1.0000 </r>
       <r>    4.7498    1.0000 </r>
       <r>    5.1347    1.0000 </r>
       <r>    5.6183    1.0000 </r>
       <r>    5.6909    1.0000 </r>
       <r>    5.7472    1.0000 </r>
       <r>    7.4582    0.0000 </r>
       <r>    8.8215    0.0000 </r>
       <r>   13.8489    0.0000 </r>
       <r>   14.0829    0.0000 </r>
       <r>   18.2254    0.0000 </r>
       <r>   18.3698    0.0000 </r>
       <r>   19.1625    0.0000 </r>
       <r>   24.3299    0.0000 </r>
       <r>   26.0718    0.0000 </r>
       <r>   26.1717    0.0000 </r>
       <r>   30.9161    0.0000 </r>
       <r>   32.3491    0.0000 </r>
       <r>   34.2013    0.0000 </r>
       <r>   36.0473    0.0000 </r>
      </set>
      <set comment="kpoint 27">
       <r>    0.1513    1.0000 </r>
       <r>    3.0378    1.0000 </r>
       <r>    4.1999    1.0000 </r>
       <r>    4.4036    1.0000 </r>
       <r>    4.5384    1.0000 </r>
       <r>    4.6038    1.0000 </r>
       <r>    4.7177    1.0000 </r>
       <r>    4.7866    1.0000 </r>
       <r>    4.9079    1.0000 </r>
       <r>    4.9935    1.0000 </r>
       <r>    5.6046    1.0000 </r>
       <r>    7.6329    0.0000 </r>
       <r>   12.2885    0.0000 </r>
       <r>   21.8545    0.0000 </r>
       <r>   21.9856    0.0000 </r>
       <r>   26.8756    0.0000 </r>
       <r>   27.0218    0.0000 </r>
       <r>   27.5842    0.0000 </r>
       <r>   28.6138    0.0000 </r>
       <r>   29.0976    0.0000 </r>
       <r>   31.1552    0.0000 </r>
       <r>   31.1942    0.0000 </r>
       <r>   33.4642    0.0000 </r>
       <r>   33.5898    0.0000 </r>
      </set>
      <set comment="kpoint 28">
       <r>    0.8774    1.0000 </r>
       <r>    3.3320    1.0000 </r>
       <r>    4.0206    1.0000 </r>
       <r>    4.0551    1.0000 </r>
       <r>    4.4542    1.0000 </r>
       <r>    4.5818    1.0000 </r>
       <r>    4.7603    1.0000 </r>
       <r>    4.8968    1.0000 </r>
       <r>    5.0435    1.0000 </r>
       <r>    5.1202    1.0000 </r>
       <r>    5.6312    1.0000 </r>
       <r>    8.6149    0.0000 </r>
       <r>   12.7988    0.0000 </r>
       <r>   18.5042    0.0000 </r>
       <r>   20.4181    0.0000 </r>
       <r>   24.0405    0.0000 </r>
       <r>   25.9699    0.0000 </r>
       <r>   26.7693    0.0000 </r>
       <r>   27.8889    0.0000 </r>
       <r>   29.0551    0.0000 </r>
       <r>   29.7241    0.0000 </r>
       <r>   31.0375    0.0000 </r>
       <r>   33.5456    0.0000 </r>
       <r>   35.1410    0.0000 </r>
      </set>
      <set comment="kpoint 29">
       <r>    1.8242    1.0000 </r>
       <r>    3.4410    1.0000 </r>
       <r>    3.6912    1.0000 </r>
       <r>    4.0216    1.0000 </r>
       <r>    4.3995    1.0000 </r>
       <r>    4.5654    1.0000 </r>
       <r>    4.7289    1.0000 </r>
       <r>    5.1060    1.0000 </r>
       <r>    5.3071    1.0000 </r>
       <r>    5.4469    1.0000 </r>
       <r>    5.6774    1.0000 </r>
       <r>    9.7384    0.0000 </r>
       <r>   13.6030    0.0000 </r>
       <r>   15.4079    0.0000 </r>
       <r>   19.1716    0.0000 </r>
       <r>   21.0693    0.0000 </r>
       <r>   24.4123    0.0000 </r>
       <r>   24.9409    0.0000 </r>
       <r>   26.7669    0.0000 </r>
       <r>   28.1402    0.0000 </r>
       <r>   30.1197    0.0000 </r>
       <r>   32.0994    0.0000 </r>
       <r>   34.3718    0.0000 </r>
       <r>   35.6387    0.0000 </r>
      </set>
      <set comment="kpoint 30">
       <r>    2.6446    1.0000 </r>
       <r>    3.3208    1.0000 </r>
       <r>    3.5234    1.0000 </r>
       <r>    4.0473    1.0000 </r>
       <r>    4.4183    1.0000 </r>
       <r>    4.6409    1.0000 </r>
       <r>    4.7869    1.0000 </r>
       <r>    5.3981    1.0000 </r>
       <r>    5.5608    1.0000 </r>
       <r>    5.6205    1.0000 </r>
       <r>    6.1005    1.0000 </r>
       <r>   10.7532    0.0000 </r>
       <r>   12.7421    0.0000 </r>
       <r>   14.8855    0.0000 </r>
       <r>   18.1925    0.0000 </r>
       <r>   18.5651    0.0000 </r>
       <r>   21.7642    0.0000 </r>
       <r>   24.1801    0.0000 </r>
       <r>   26.2484    0.0000 </r>
       <r>   27.2289    0.0000 </r>
       <r>   30.7751    0.0000 </r>
       <r>   32.6471    0.0000 </r>
       <r>   34.8129    0.0000 </r>
       <r>   37.8381    0.0000 </r>
      </set>
      <set comment="kpoint 31">
       <r>    2.9472    1.0000 </r>
       <r>    3.2071    1.0000 </r>
       <r>    3.5128    1.0000 </r>
       <r>    4.0840    1.0000 </r>
       <r>    4.3623    1.0000 </r>
       <r>    4.7605    1.0000 </r>
       <r>    4.9435    1.0000 </r>
       <r>    5.5939    1.0000 </r>
       <r>    5.6630    1.0000 </r>
       <r>    5.6900    1.0000 </r>
       <r>    7.2458    0.0000 </r>
       <r>    9.5320    0.0000 </r>
       <r>   13.2552    0.0000 </r>
       <r>   14.9207    0.0000 </r>
       <r>   17.5643    0.0000 </r>
       <r>   17.8952    0.0000 </r>
       <r>   19.4162    0.0000 </r>
       <r>   23.7815    0.0000 </r>
       <r>   26.0115    0.0000 </r>
       <r>   26.7450    0.0000 </r>
       <r>   30.9585    0.0000 </r>
       <r>   33.7496    0.0000 </r>
       <r>   34.6750    0.0000 </r>
       <r>   36.6432    0.0000 </r>
      </set>
      <set comment="kpoint 32">
       <r>    1.6994    1.0000 </r>
       <r>    3.5674    1.0000 </r>
       <r>    3.7525    1.0000 </r>
       <r>    3.8700    1.0000 </r>
       <r>    4.4033    1.0000 </r>
       <r>    4.5144    1.0000 </r>
       <r>    4.7305    1.0000 </r>
       <r>    4.9789    1.0000 </r>
       <r>    5.3142    1.0000 </r>
       <r>    5.4437    1.0000 </r>
       <r>    5.6795    1.0000 </r>
       <r>    9.5939    0.0000 </r>
       <r>   13.5133    0.0000 </r>
       <r>   17.1817    0.0000 </r>
       <r>   17.1981    0.0000 </r>
       <r>   22.8244    0.0000 </r>
       <r>   22.9081    0.0000 </r>
       <r>   26.2859    0.0000 </r>
       <r>   26.3343    0.0000 </r>
       <r>   29.3932    0.0000 </r>
       <r>   30.3651    0.0000 </r>
       <r>   31.1766    0.0000 </r>
       <r>   35.4582    0.0000 </r>
       <r>   35.5340    0.0000 </r>
      </set>
      <set comment="kpoint 33">
       <r>    2.5930    1.0000 </r>
       <r>    3.5242    1.0000 </r>
       <r>    3.5808    1.0000 </r>
       <r>    3.8766    1.0000 </r>
       <r>    4.3457    1.0000 </r>
       <r>    4.6172    1.0000 </r>
       <r>    4.6281    1.0000 </r>
       <r>    5.1555    1.0000 </r>
       <r>    5.5647    1.0000 </r>
       <r>    5.5751    1.0000 </r>
       <r>    6.1271    1.0000 </r>
       <r>   10.7668    0.0000 </r>
       <r>   14.0386    0.0000 </r>
       <r>   14.7949    0.0000 </r>
       <r>   16.1850    0.0000 </r>
       <r>   20.0299    0.0000 </r>
       <r>   21.9454    0.0000 </r>
       <r>   23.5064    0.0000 </r>
       <r>   25.4507    0.0000 </r>
       <r>   29.5379    0.0000 </r>
       <r>   31.4061    0.0000 </r>
       <r>   33.4051    0.0000 </r>
       <r>   35.1546    0.0000 </r>
       <r>   37.3048    0.0000 </r>
      </set>
      <set comment="kpoint 34">
       <r>    3.0915    1.0000 </r>
       <r>    3.4335    1.0000 </r>
       <r>    3.5156    1.0000 </r>
       <r>    3.9653    1.0000 </r>
       <r>    4.3278    1.0000 </r>
       <r>    4.6141    1.0000 </r>
       <r>    4.7634    1.0000 </r>
       <r>    5.3969    1.0000 </r>
       <r>    5.5707    1.0000 </r>
       <r>    5.6985    1.0000 </r>
       <r>    7.1139    0.0000 </r>
       <r>   10.9275    0.0000 </r>
       <r>   12.9141    0.0000 </r>
       <r>   15.4755    0.0000 </r>
       <r>   15.7193    0.0000 </r>
       <r>   17.9359    0.0000 </r>
       <r>   20.7746    0.0000 </r>
       <r>   21.5666    0.0000 </r>
       <r>   24.8858    0.0000 </r>
       <r>   29.2265    0.0000 </r>
       <r>   32.5589    0.0000 </r>
       <r>   34.4224    0.0000 </r>
       <r>   37.1158    0.0000 </r>
       <r>   37.4645    0.0000 </r>
      </set>
      <set comment="kpoint 35">
       <r>    3.1500    1.0000 </r>
       <r>    3.3763    1.0000 </r>
       <r>    3.5728    1.0000 </r>
       <r>    4.0179    1.0000 </r>
       <r>    4.2801    1.0000 </r>
       <r>    4.6794    1.0000 </r>
       <r>    4.8205    1.0000 </r>
       <r>    5.5603    1.0000 </r>
       <r>    5.5706    1.0000 </r>
       <r>    5.6836    1.0000 </r>
       <r>    8.3874    0.0000 </r>
       <r>    9.2944    0.0000 </r>
       <r>   14.3870    0.0000 </r>
       <r>   14.6228    0.0000 </r>
       <r>   15.3223    0.0000 </r>
       <r>   18.5589    0.0000 </r>
       <r>   18.8590    0.0000 </r>
       <r>   21.3016    0.0000 </r>
       <r>   24.6910    0.0000 </r>
       <r>   29.1053    0.0000 </r>
       <r>   33.1228    0.0000 </r>
       <r>   34.6109    0.0000 </r>
       <r>   36.5480    0.0000 </r>
       <r>   38.0166    0.0000 </r>
      </set>
      <set comment="kpoint 36">
       <r>    3.2372    1.0000 </r>
       <r>    3.4292    1.0000 </r>
       <r>    3.7244    1.0000 </r>
       <r>    3.7336    1.0000 </r>
       <r>    4.3232    1.0000 </r>
       <r>    4.4924    1.0000 </r>
       <r>    4.7389    1.0000 </r>
       <r>    5.2702    1.0000 </r>
       <r>    5.5420    1.0000 </r>
       <r>    5.7036    1.0000 </r>
       <r>    7.0953    0.0000 </r>
       <r>   11.8869    0.0000 </r>
       <r>   13.3765    0.0000 </r>
       <r>   13.6382    0.0000 </r>
       <r>   15.9129    0.0000 </r>
       <r>   19.0956    0.0000 </r>
       <r>   19.5423    0.0000 </r>
       <r>   22.8041    0.0000 </r>
       <r>   22.8177    0.0000 </r>
       <r>   32.1414    0.0000 </r>
       <r>   33.1678    0.0000 </r>
       <r>   33.5220    0.0000 </r>
       <r>   36.9997    0.0000 </r>
       <r>   37.3563    0.0000 </r>
      </set>
      <set comment="kpoint 37">
       <r>    3.3561    1.0000 </r>
       <r>    3.5447    1.0000 </r>
       <r>    3.6285    1.0000 </r>
       <r>    3.8832    1.0000 </r>
       <r>    4.2876    1.0000 </r>
       <r>    4.4327    1.0000 </r>
       <r>    4.8522    1.0000 </r>
       <r>    5.4380    1.0000 </r>
       <r>    5.5227    1.0000 </r>
       <r>    5.6622    1.0000 </r>
       <r>    8.5858    0.0000 </r>
       <r>   10.6522    0.0000 </r>
       <r>   12.7430    0.0000 </r>
       <r>   14.4014    0.0000 </r>
       <r>   16.1494    0.0000 </r>
       <r>   17.9687    0.0000 </r>
       <r>   19.2183    0.0000 </r>
       <r>   20.5627    0.0000 </r>
       <r>   22.4562    0.0000 </r>
       <r>   32.5898    0.0000 </r>
       <r>   34.3682    0.0000 </r>
       <r>   35.8441    0.0000 </r>
       <r>   36.6136    0.0000 </r>
       <r>   38.2027    0.0000 </r>
      </set>
      <set comment="kpoint 38">
       <r>    3.4435    1.0000 </r>
       <r>    3.6267    1.0000 </r>
       <r>    3.6267    1.0000 </r>
       <r>    3.8857    1.0000 </r>
       <r>    4.3094    1.0000 </r>
       <r>    4.3094    1.0000 </r>
       <r>    4.9028    1.0000 </r>
       <r>    5.5021    1.0000 </r>
       <r>    5.5356    1.0000 </r>
       <r>    5.5356    1.0000 </r>
       <r>   10.3896    0.0000 </r>
       <r>   10.5619    0.0000 </r>
       <r>   10.5619    0.0000 </r>
       <r>   16.0338    0.0000 </r>
       <r>   16.2908    0.0000 </r>
       <r>   16.2908    0.0000 </r>
       <r>   20.2760    0.0000 </r>
       <r>   20.2760    0.0000 </r>
       <r>   20.5142    0.0000 </r>
       <r>   34.9078    0.0000 </r>
       <r>   35.9089    0.0000 </r>
       <r>   35.9089    0.0000 </r>
       <r>   36.8142    0.0000 </r>
       <r>   37.5575    0.0000 </r>
      </set>
      <set comment="kpoint 39">
       <r>   -0.0485    1.0000 </r>
       <r>    2.5509    1.0000 </r>
       <r>    4.3717    1.0000 </r>
       <r>    4.3956    1.0000 </r>
       <r>    4.3956    1.0000 </r>
       <r>    4.5637    1.0000 </r>
       <r>    4.5637    1.0000 </r>
       <r>    5.0697    1.0000 </r>
       <r>    5.0697    1.0000 </r>
       <r>    5.2351    1.0000 </r>
       <r>    5.5422    1.0000 </r>
       <r>    5.5422    1.0000 </r>
       <r>   13.9274    0.0000 </r>
       <r>   24.6352    0.0000 </r>
       <r>   26.4394    0.0000 </r>
       <r>   27.0305    0.0000 </r>
       <r>   27.0305    0.0000 </r>
       <r>   27.9372    0.0000 </r>
       <r>   28.3251    0.0000 </r>
       <r>   28.3251    0.0000 </r>
       <r>   31.7275    0.0000 </r>
       <r>   31.7275    0.0000 </r>
       <r>   32.0871    0.0000 </r>
       <r>   32.0872    0.0000 </r>
      </set>
      <set comment="kpoint 40">
       <r>    0.1423    1.0000 </r>
       <r>    2.6848    1.0000 </r>
       <r>    4.3249    1.0000 </r>
       <r>    4.3868    1.0000 </r>
       <r>    4.4379    1.0000 </r>
       <r>    4.4535    1.0000 </r>
       <r>    4.6238    1.0000 </r>
       <r>    4.8767    1.0000 </r>
       <r>    5.0506    1.0000 </r>
       <r>    5.0858    1.0000 </r>
       <r>    5.5511    1.0000 </r>
       <r>    6.0666    1.0000 </r>
       <r>   14.0681    0.0000 </r>
       <r>   23.9376    0.0000 </r>
       <r>   24.7812    0.0000 </r>
       <r>   25.4776    0.0000 </r>
       <r>   26.0535    0.0000 </r>
       <r>   27.4947    0.0000 </r>
       <r>   28.6191    0.0000 </r>
       <r>   29.2040    0.0000 </r>
       <r>   31.0079    0.0000 </r>
       <r>   32.0609    0.0000 </r>
       <r>   32.4773    0.0000 </r>
       <r>   33.9148    0.0000 </r>
      </set>
      <set comment="kpoint 41">
       <r>    0.6937    1.0000 </r>
       <r>    3.0297    1.0000 </r>
       <r>    4.0811    1.0000 </r>
       <r>    4.2038    1.0000 </r>
       <r>    4.3641    1.0000 </r>
       <r>    4.5847    1.0000 </r>
       <r>    4.6917    1.0000 </r>
       <r>    4.7904    1.0000 </r>
       <r>    5.0391    1.0000 </r>
       <r>    5.1271    1.0000 </r>
       <r>    5.5702    1.0000 </r>
       <r>    6.8027    0.6792 </r>
       <r>   14.4986    0.0000 </r>
       <r>   20.4462    0.0000 </r>
       <r>   23.6204    0.0000 </r>
       <r>   23.9637    0.0000 </r>
       <r>   25.2617    0.0000 </r>
       <r>   25.7563    0.0000 </r>
       <r>   27.9845    0.0000 </r>
       <r>   28.0753    0.0000 </r>
       <r>   31.6740    0.0000 </r>
       <r>   32.9035    0.0000 </r>
       <r>   33.0862    0.0000 </r>
       <r>   35.4092    0.0000 </r>
      </set>
      <set comment="kpoint 42">
       <r>    1.5158    1.0000 </r>
       <r>    3.3400    1.0000 </r>
       <r>    3.7538    1.0000 </r>
       <r>    4.1285    1.0000 </r>
       <r>    4.3204    1.0000 </r>
       <r>    4.6394    1.0000 </r>
       <r>    4.7349    1.0000 </r>
       <r>    5.0345    1.0000 </r>
       <r>    5.1603    1.0000 </r>
       <r>    5.2255    1.0000 </r>
       <r>    5.5914    1.0000 </r>
       <r>    7.6418    0.0000 </r>
       <r>   15.2079    0.0000 </r>
       <r>   17.1630    0.0000 </r>
       <r>   20.9696    0.0000 </r>
       <r>   22.0238    0.0000 </r>
       <r>   24.9628    0.0000 </r>
       <r>   25.7147    0.0000 </r>
       <r>   26.6132    0.0000 </r>
       <r>   27.1774    0.0000 </r>
       <r>   29.1992    0.0000 </r>
       <r>   33.8414    0.0000 </r>
       <r>   34.0919    0.0000 </r>
       <r>   36.3353    0.0000 </r>
      </set>
      <set comment="kpoint 43">
       <r>    2.3397    1.0000 </r>
       <r>    3.3082    1.0000 </r>
       <r>    3.6103    1.0000 </r>
       <r>    4.0144    1.0000 </r>
       <r>    4.5421    1.0000 </r>
       <r>    4.5939    1.0000 </r>
       <r>    5.0990    1.0000 </r>
       <r>    5.2889    1.0000 </r>
       <r>    5.3909    1.0000 </r>
       <r>    5.4279    1.0000 </r>
       <r>    5.6257    1.0000 </r>
       <r>    8.6281    0.0000 </r>
       <r>   14.1632    0.0000 </r>
       <r>   16.0481    0.0000 </r>
       <r>   18.3979    0.0000 </r>
       <r>   20.7828    0.0000 </r>
       <r>   24.1505    0.0000 </r>
       <r>   25.1297    0.0000 </r>
       <r>   25.5101    0.0000 </r>
       <r>   26.2467    0.0000 </r>
       <r>   28.6964    0.0000 </r>
       <r>   33.4335    0.0000 </r>
       <r>   34.2201    0.0000 </r>
       <r>   36.5859    0.0000 </r>
      </set>
      <set comment="kpoint 44">
       <r>    2.7402    1.0000 </r>
       <r>    3.1906    1.0000 </r>
       <r>    3.6463    1.0000 </r>
       <r>    3.8721    1.0000 </r>
       <r>    4.5420    1.0000 </r>
       <r>    4.7613    1.0000 </r>
       <r>    5.4295    1.0000 </r>
       <r>    5.4973    1.0000 </r>
       <r>    5.6026    1.0000 </r>
       <r>    5.6956    1.0000 </r>
       <r>    6.2849    1.0000 </r>
       <r>    9.4042    0.0000 </r>
       <r>   12.1659    0.0000 </r>
       <r>   14.8716    0.0000 </r>
       <r>   18.4439    0.0000 </r>
       <r>   19.9850    0.0000 </r>
       <r>   22.2252    0.0000 </r>
       <r>   24.5856    0.0000 </r>
       <r>   24.7923    0.0000 </r>
       <r>   25.8195    0.0000 </r>
       <r>   29.8079    0.0000 </r>
       <r>   32.9884    0.0000 </r>
       <r>   33.3436    0.0000 </r>
       <r>   35.3126    0.0000 </r>
      </set>
      <set comment="kpoint 45">
       <r>    2.8057    1.0000 </r>
       <r>    3.1447    1.0000 </r>
       <r>    3.7352    1.0000 </r>
       <r>    3.7695    1.0000 </r>
       <r>    4.5217    1.0000 </r>
       <r>    4.8306    1.0000 </r>
       <r>    5.4605    1.0000 </r>
       <r>    5.5916    1.0000 </r>
       <r>    5.6892    1.0000 </r>
       <r>    5.7393    1.0000 </r>
       <r>    7.4606    0.0000 </r>
       <r>    8.7231    0.0000 </r>
       <r>   12.8010    0.0000 </r>
       <r>   12.9487    0.0000 </r>
       <r>   19.7081    0.0000 </r>
       <r>   20.0478    0.0000 </r>
       <r>   20.2395    0.0000 </r>
       <r>   24.4717    0.0000 </r>
       <r>   24.5424    0.0000 </r>
       <r>   25.6701    0.0000 </r>
       <r>   31.2650    0.0000 </r>
       <r>   31.7173    0.0000 </r>
       <r>   32.8394    0.0000 </r>
       <r>   35.1707    0.0000 </r>
      </set>
      <set comment="kpoint 46">
       <r>    0.5143    1.0000 </r>
       <r>    2.9288    1.0000 </r>
       <r>    4.1820    1.0000 </r>
       <r>    4.2279    1.0000 </r>
       <r>    4.3801    1.0000 </r>
       <r>    4.5607    1.0000 </r>
       <r>    4.6965    1.0000 </r>
       <r>    4.7369    1.0000 </r>
       <r>    5.0771    1.0000 </r>
       <r>    5.0819    1.0000 </r>
       <r>    5.5642    1.0000 </r>
       <r>    6.5987    1.0000 </r>
       <r>   14.3549    0.0000 </r>
       <r>   22.1796    0.0000 </r>
       <r>   22.3635    0.0000 </r>
       <r>   24.9622    0.0000 </r>
       <r>   25.7002    0.0000 </r>
       <r>   26.3563    0.0000 </r>
       <r>   27.6793    0.0000 </r>
       <r>   29.1400    0.0000 </r>
       <r>   32.0535    0.0000 </r>
       <r>   32.1742    0.0000 </r>
       <r>   33.3035    0.0000 </r>
       <r>   34.0877    0.0000 </r>
      </set>
      <set comment="kpoint 47">
       <r>    1.2097    1.0000 </r>
       <r>    3.3006    1.0000 </r>
       <r>    3.8474    1.0000 </r>
       <r>    4.0931    1.0000 </r>
       <r>    4.3442    1.0000 </r>
       <r>    4.6026    1.0000 </r>
       <r>    4.6630    1.0000 </r>
       <r>    4.9309    1.0000 </r>
       <r>    5.1475    1.0000 </r>
       <r>    5.1848    1.0000 </r>
       <r>    5.5892    1.0000 </r>
       <r>    7.3411    0.0000 </r>
       <r>   14.9394    0.0000 </r>
       <r>   18.8690    0.0000 </r>
       <r>   20.8006    0.0000 </r>
       <r>   22.6429    0.0000 </r>
       <r>   24.5458    0.0000 </r>
       <r>   25.8798    0.0000 </r>
       <r>   27.2848    0.0000 </r>
       <r>   29.7845    0.0000 </r>
       <r>   30.3718    0.0000 </r>
       <r>   31.1791    0.0000 </r>
       <r>   34.0010    0.0000 </r>
       <r>   35.2652    0.0000 </r>
      </set>
      <set comment="kpoint 48">
       <r>    2.0705    1.0000 </r>
       <r>    3.4409    1.0000 </r>
       <r>    3.6302    1.0000 </r>
       <r>    4.0638    1.0000 </r>
       <r>    4.3411    1.0000 </r>
       <r>    4.6351    1.0000 </r>
       <r>    4.7252    1.0000 </r>
       <r>    5.1392    1.0000 </r>
       <r>    5.3455    1.0000 </r>
       <r>    5.3969    1.0000 </r>
       <r>    5.6762    1.0000 </r>
       <r>    8.2599    0.0000 </r>
       <r>   15.5343    0.0000 </r>
       <r>   15.9799    0.0000 </r>
       <r>   19.4813    0.0000 </r>
       <r>   19.8068    0.0000 </r>
       <r>   23.5412    0.0000 </r>
       <r>   25.5961    0.0000 </r>
       <r>   26.6789    0.0000 </r>
       <r>   28.4560    0.0000 </r>
       <r>   28.9437    0.0000 </r>
       <r>   31.8396    0.0000 </r>
       <r>   35.4095    0.0000 </r>
       <r>   36.7450    0.0000 </r>
      </set>
      <set comment="kpoint 49">
       <r>    2.7012    1.0000 </r>
       <r>    3.3185    1.0000 </r>
       <r>    3.5976    1.0000 </r>
       <r>    3.9609    1.0000 </r>
       <r>    4.4532    1.0000 </r>
       <r>    4.7084    1.0000 </r>
       <r>    5.0643    1.0000 </r>
       <r>    5.3304    1.0000 </r>
       <r>    5.4901    1.0000 </r>
       <r>    5.6285    1.0000 </r>
       <r>    6.1301    1.0000 </r>
       <r>    9.3160    0.0000 </r>
       <r>   13.0480    0.0000 </r>
       <r>   15.9510    0.0000 </r>
       <r>   18.0416    0.0000 </r>
       <r>   18.7664    0.0000 </r>
       <r>   22.7727    0.0000 </r>
       <r>   23.5719    0.0000 </r>
       <r>   26.4176    0.0000 </r>
       <r>   27.9690    0.0000 </r>
       <r>   28.9206    0.0000 </r>
       <r>   31.8386    0.0000 </r>
       <r>   35.3661    0.0000 </r>
       <r>   36.7605    0.0000 </r>
      </set>
      <set comment="kpoint 50">
       <r>    2.8689    1.0000 </r>
       <r>    3.2352    1.0000 </r>
       <r>    3.7095    1.0000 </r>
       <r>    3.8352    1.0000 </r>
       <r>    4.4115    1.0000 </r>
       <r>    4.8639    1.0000 </r>
       <r>    5.2866    1.0000 </r>
       <r>    5.4246    1.0000 </r>
       <r>    5.6422    1.0000 </r>
       <r>    5.7307    1.0000 </r>
       <r>    7.3315    0.0000 </r>
       <r>    9.3247    0.0000 </r>
       <r>   12.2838    0.0000 </r>
       <r>   13.9564    0.0000 </r>
       <r>   18.2387    0.0000 </r>
       <r>   19.3453    0.0000 </r>
       <r>   21.2963    0.0000 </r>
       <r>   22.4299    0.0000 </r>
       <r>   26.1993    0.0000 </r>
       <r>   27.5007    0.0000 </r>
       <r>   30.0892    0.0000 </r>
       <r>   31.5327    0.0000 </r>
       <r>   33.7340    0.0000 </r>
       <r>   36.8081    0.0000 </r>
      </set>
      <set comment="kpoint 51">
       <r>    1.9716    1.0000 </r>
       <r>    3.5762    1.0000 </r>
       <r>    3.6692    1.0000 </r>
       <r>    3.9235    1.0000 </r>
       <r>    4.3595    1.0000 </r>
       <r>    4.5083    1.0000 </r>
       <r>    4.6541    1.0000 </r>
       <r>    5.0733    1.0000 </r>
       <r>    5.3342    1.0000 </r>
       <r>    5.4062    1.0000 </r>
       <r>    5.7108    1.0000 </r>
       <r>    8.1487    0.0000 </r>
       <r>   15.6746    0.0000 </r>
       <r>   17.5637    0.0000 </r>
       <r>   17.5872    0.0000 </r>
       <r>   21.4396    0.0000 </r>
       <r>   21.4648    0.0000 </r>
       <r>   26.2189    0.0000 </r>
       <r>   28.2489    0.0000 </r>
       <r>   29.0481    0.0000 </r>
       <r>   30.0206    0.0000 </r>
       <r>   31.1723    0.0000 </r>
       <r>   34.2447    0.0000 </r>
       <r>   34.8896    0.0000 </r>
      </set>
      <set comment="kpoint 52">
       <r>    2.7281    1.0000 </r>
       <r>    3.4529    1.0000 </r>
       <r>    3.6628    1.0000 </r>
       <r>    3.9701    1.0000 </r>
       <r>    4.3558    1.0000 </r>
       <r>    4.5557    1.0000 </r>
       <r>    4.6680    1.0000 </r>
       <r>    5.2044    1.0000 </r>
       <r>    5.4142    1.0000 </r>
       <r>    5.6463    1.0000 </r>
       <r>    6.2183    1.0000 </r>
       <r>    9.2349    0.0000 </r>
       <r>   14.5912    0.0000 </r>
       <r>   16.4861    0.0000 </r>
       <r>   16.6637    0.0000 </r>
       <r>   18.7905    0.0000 </r>
       <r>   20.5698    0.0000 </r>
       <r>   25.1625    0.0000 </r>
       <r>   27.0870    0.0000 </r>
       <r>   28.9047    0.0000 </r>
       <r>   30.0556    0.0000 </r>
       <r>   32.8147    0.0000 </r>
       <r>   34.5239    0.0000 </r>
       <r>   36.4383    0.0000 </r>
[...]
       </set>
       <set comment="band 12">
        <r>  0.0058  0.0338  0.0300  0.0983  0.0574  0.0145  0.0073  0.0150  0.1286 </r>
        <r>  0.0043  0.0253  0.0401  0.0736  0.0429  0.0194  0.0055  0.0200  0.0963 </r>
       </set>
       <set comment="band 13">
        <r>  0.2883  0.0252  0.0014  0.0202  0.1189  0.0045  0.0129  0.0130  0.0424 </r>
        <r>  0.0290  0.0025  0.0137  0.0020  0.0120  0.0442  0.0013  0.1287  0.0043 </r>
       </set>
       <set comment="band 14">
        <r>  0.0290  0.0025  0.0137  0.0020  0.0120  0.0442  0.0013  0.1287  0.0043 </r>
        <r>  0.2883  0.0252  0.0014  0.0202  0.1189  0.0045  0.0129  0.0130  0.0424 </r>
       </set>
       <set comment="band 15">
        <r>  0.1061  0.1563  0.0049  0.0526  0.0498  0.0155  0.0182  0.0056  0.0166 </r>
        <r>  0.0282  0.0415  0.0185  0.0140  0.0132  0.0582  0.0048  0.0212  0.0044 </r>
       </set>
       <set comment="band 16">
        <r>  0.0282  0.0415  0.0185  0.0140  0.0132  0.0582  0.0048  0.0212  0.0044 </r>
        <r>  0.1061  0.1563  0.0049  0.0526  0.0498  0.0155  0.0182  0.0056  0.0166 </r>
       </set>
       <set comment="band 17">
        <r>  0.0047  0.0240  0.0371  0.0712  0.0064  0.0026  0.0057  0.0044  0.0076 </r>
        <r>  0.0007  0.0036  0.2495  0.0106  0.0009  0.0174  0.0008  0.0294  0.0011 </r>
       </set>
       <set comment="band 18">
        <r>  0.0007  0.0036  0.2495  0.0106  0.0009  0.0174  0.0008  0.0294  0.0011 </r>
        <r>  0.0047  0.0240  0.0371  0.0712  0.0064  0.0026  0.0057  0.0044  0.0076 </r>
       </set>
       <set comment="band 19">
        <r>  0.0593  0.0013  0.0005  0.0024  0.0666  0.0009  0.1720  0.0025  0.0223 </r>
        <r>  0.0008  0.0000  0.0361  0.0000  0.0009  0.0668  0.0024  0.1774  0.0003 </r>
       </set>
       <set comment="band 20">
        <r>  0.0008  0.0000  0.0361  0.0000  0.0009  0.0668  0.0024  0.1774  0.0003 </r>
        <r>  0.0593  0.0013  0.0005  0.0024  0.0666  0.0009  0.1720  0.0025  0.0223 </r>
       </set>
       <set comment="band 21">
        <r>  0.0158  0.1291  0.0266  0.0432  0.0247  0.0009  0.0368  0.0009  0.0083 </r>
        <r>  0.0043  0.0352  0.0975  0.0118  0.0067  0.0033  0.0100  0.0034  0.0023 </r>
       </set>
       <set comment="band 22">
        <r>  0.0043  0.0352  0.0975  0.0118  0.0067  0.0033  0.0100  0.0034  0.0023 </r>
        <r>  0.0158  0.1291  0.0266  0.0432  0.0247  0.0009  0.0368  0.0009  0.0083 </r>
       </set>
       <set comment="band 23">
        <r>  0.1115  0.0011  0.0002  0.0004  0.0918  0.0406  0.0333  0.0154  0.0306 </r>
        <r>  0.0274  0.0003  0.0009  0.0001  0.0226  0.1650  0.0082  0.0625  0.0075 </r>
       </set>
       <set comment="band 24">
        <r>  0.0274  0.0003  0.0009  0.0001  0.0226  0.1650  0.0082  0.0625  0.0075 </r>
        <r>  0.1115  0.0011  0.0002  0.0004  0.0918  0.0406  0.0333  0.0154  0.0306 </r>
       </set>
      </set>
      <set comment="kpoint 93">
       <set comment="band 1">
        <r>  0.0920  0.0032  0.0028  0.0471  0.0170  0.0001  0.0337  0.0541  0.0685 </r>
        <r>  0.0142  0.0005  0.0184  0.0073  0.0026  0.0007  0.0052  0.3501  0.0106 </r>
       </set>
       <set comment="band 2">
        <r>  0.0142  0.0005  0.0184  0.0073  0.0026  0.0007  0.0052  0.3501  0.0106 </r>
        <r>  0.0920  0.0032  0.0028  0.0471  0.0170  0.0001  0.0337  0.0541  0.0685 </r>
       </set>
       <set comment="band 3">
        <r>  0.0015  0.0043  0.0181  0.0011  0.0736  0.0419  0.0000  0.0060  0.0048 </r>
        <r>  0.0122  0.0343  0.0023  0.0092  0.5873  0.0052  0.0000  0.0008  0.0385 </r>
       </set>
       <set comment="band 4">
        <r>  0.0122  0.0343  0.0023  0.0092  0.5873  0.0052  0.0000  0.0008  0.0385 </r>
        <r>  0.0015  0.0043  0.0181  0.0011  0.0736  0.0419  0.0000  0.0060  0.0048 </r>
       </set>
       <set comment="band 5">
        <r>  0.0001  0.0002  0.0022  0.0232  0.0006  0.1508  0.1556  0.0202  0.0626 </r>
        <r>  0.0002  0.0002  0.0017  0.0304  0.0007  0.1153  0.2037  0.0154  0.0819 </r>
       </set>
       <set comment="band 6">
        <r>  0.0002  0.0002  0.0017  0.0304  0.0007  0.1153  0.2037  0.0154  0.0819 </r>
        <r>  0.0001  0.0002  0.0022  0.0232  0.0006  0.1508  0.1556  0.0202  0.0626 </r>
       </set>
       <set comment="band 7">
        <r>  0.0063  0.0000  0.0000  0.0005  0.1252  0.0004  0.0390  0.0001  0.1871 </r>
        <r>  0.0000  0.0000  0.0000  0.0000  0.0001  0.4952  0.0000  0.0963  0.0002 </r>
       </set>
       <set comment="band 8">
        <r>  0.0000  0.0000  0.0000  0.0000  0.0001  0.4952  0.0000  0.0963  0.0002 </r>
        <r>  0.0063  0.0000  0.0000  0.0005  0.1252  0.0004  0.0390  0.0001  0.1871 </r>
       </set>
       <set comment="band 9">
        <r>  0.0000  0.0000  0.0015  0.0003  0.0015  0.0777  0.0804  0.1761  0.0266 </r>
        <r>  0.0000  0.0000  0.0003  0.0014  0.0078  0.0148  0.4225  0.0335  0.1396 </r>
       </set>
       <set comment="band 10">
        <r>  0.0000  0.0000  0.0003  0.0014  0.0078  0.0148  0.4225  0.0335  0.1396 </r>
        <r>  0.0000  0.0000  0.0015  0.0003  0.0015  0.0777  0.0804  0.1761  0.0266 </r>
       </set>
       <set comment="band 11">
        <r>  0.0484  0.0014  0.0174  0.0770  0.0133  0.0015  0.0006  0.0577  0.2401 </r>
        <r>  0.0268  0.0008  0.0314  0.0427  0.0074  0.0028  0.0004  0.1041  0.1332 </r>
       </set>
       <set comment="band 12">
        <r>  0.0268  0.0008  0.0314  0.0427  0.0074  0.0028  0.0004  0.1041  0.1332 </r>
        <r>  0.0484  0.0014  0.0174  0.0770  0.0133  0.0015  0.0006  0.0577  0.2401 </r>
       </set>
       <set comment="band 13">
        <r>  0.0069  0.1401  0.0261  0.0004  0.1313  0.0074  0.0000  0.0295  0.0005 </r>
        <r>  0.0057  0.1154  0.0317  0.0004  0.1082  0.0090  0.0000  0.0358  0.0004 </r>
       </set>
       <set comment="band 14">
        <r>  0.0057  0.1154  0.0317  0.0004  0.1082  0.0090  0.0000  0.0358  0.0004 </r>
        <r>  0.0069  0.1401  0.0261  0.0004  0.1313  0.0074  0.0000  0.0295  0.0005 </r>
       </set>
       <set comment="band 15">
        <r>  0.3280  0.0022  0.0001  0.1487  0.0020  0.0031  0.0421  0.0012  0.0001 </r>
        <r>  0.0107  0.0001  0.0021  0.0049  0.0001  0.0962  0.0014  0.0382  0.0000 </r>
       </set>
       <set comment="band 16">
        <r>  0.0107  0.0001  0.0021  0.0049  0.0001  0.0962  0.0014  0.0382  0.0000 </r>
        <r>  0.3280  0.0022  0.0001  0.1487  0.0020  0.0031  0.0421  0.0012  0.0001 </r>
       </set>
       <set comment="band 17">
        <r>  0.0444  0.0026  0.0006  0.0641  0.0033  0.0000  0.0640  0.0001  0.0136 </r>
        <r>  0.0001  0.0000  0.2599  0.0001  0.0000  0.0124  0.0001  0.0651  0.0000 </r>
       </set>
       <set comment="band 18">
        <r>  0.0001  0.0000  0.2599  0.0001  0.0000  0.0124  0.0001  0.0651  0.0000 </r>
        <r>  0.0444  0.0026  0.0006  0.0641  0.0033  0.0000  0.0640  0.0001  0.0136 </r>
       </set>
       <set comment="band 19">
        <r>  0.0017  0.0689  0.0231  0.0046  0.0499  0.0179  0.0070  0.0233  0.0015 </r>
        <r>  0.0005  0.0188  0.0848  0.0013  0.0136  0.0656  0.0019  0.0853  0.0004 </r>
       </set>
       <set comment="band 20">
        <r>  0.0005  0.0188  0.0848  0.0013  0.0136  0.0656  0.0019  0.0853  0.0004 </r>
        <r>  0.0017  0.0689  0.0231  0.0046  0.0499  0.0179  0.0070  0.0233  0.0015 </r>
       </set>
       <set comment="band 21">
        <r>  0.0407  0.0046  0.0004  0.0593  0.0066  0.0002  0.2091  0.0008  0.0252 </r>
        <r>  0.0003  0.0000  0.0509  0.0005  0.0001  0.0276  0.0017  0.1028  0.0002 </r>
       </set>
       <set comment="band 22">
        <r>  0.0003  0.0000  0.0509  0.0005  0.0001  0.0276  0.0017  0.1028  0.0002 </r>
        <r>  0.0407  0.0046  0.0004  0.0593  0.0066  0.0002  0.2091  0.0008  0.0252 </r>
       </set>
       <set comment="band 23">
        <r>  0.0001  0.0243  0.0279  0.0001  0.0196  0.0174  0.0000  0.0138  0.0000 </r>
        <r>  0.0007  0.2137  0.0032  0.0006  0.1724  0.0020  0.0000  0.0016  0.0001 </r>
       </set>
       <set comment="band 24">
        <r>  0.0007  0.2137  0.0032  0.0006  0.1724  0.0020  0.0000  0.0016  0.0001 </r>
        <r>  0.0001  0.0243  0.0279  0.0001  0.0196  0.0174  0.0000  0.0138  0.0000 </r>
       </set>
      </set>
      <set comment="kpoint 94">
       <set comment="band 1">
        <r>  0.0522  0.0121  0.0002  0.0241  0.0892  0.0026  0.0662  0.0287  0.0653 </r>
        <r>  0.0038  0.0009  0.0032  0.0018  0.0065  0.0357  0.0049  0.3907  0.0048 </r>
       </set>
       <set comment="band 2">
        <r>  0.0038  0.0009  0.0032  0.0018  0.0065  0.0357  0.0049  0.3907  0.0048 </r>
        <r>  0.0522  0.0121  0.0002  0.0241  0.0892  0.0026  0.0662  0.0287  0.0653 </r>
       </set>
       <set comment="band 3">
        <r>  0.0049  0.0159  0.0040  0.0001  0.1659  0.1127  0.0618  0.0396  0.0060 </r>
        <r>  0.0063  0.0203  0.0032  0.0001  0.2115  0.0884  0.0787  0.0310  0.0077 </r>
       </set>
       <set comment="band 4">
        <r>  0.0063  0.0203  0.0032  0.0001  0.2115  0.0884  0.0787  0.0310  0.0077 </r>
        <r>  0.0049  0.0159  0.0040  0.0001  0.1659  0.1127  0.0618  0.0396  0.0060 </r>
       </set>
       <set comment="band 5">
        <r>  0.0004  0.0009  0.0217  0.0059  0.0106  0.1876  0.0064  0.0017  0.0220 </r>
        <r>  0.0043  0.0106  0.0019  0.0692  0.1245  0.0160  0.0745  0.0001  0.2574 </r>
       </set>
       <set comment="band 6">
        <r>  0.0043  0.0106  0.0019  0.0692  0.1245  0.0160  0.0745  0.0001  0.2574 </r>
        <r>  0.0004  0.0009  0.0217  0.0059  0.0106  0.1876  0.0064  0.0017  0.0220 </r>
       </set>
       <set comment="band 7">
        <r>  0.0020  0.0012  0.0001  0.0050  0.1429  0.0438  0.0189  0.0183  0.2515 </r>
        <r>  0.0003  0.0002  0.0006  0.0008  0.0223  0.2812  0.0029  0.1178  0.0392 </r>
       </set>
       <set comment="band 8">
        <r>  0.0003  0.0002  0.0006  0.0008  0.0223  0.2812  0.0029  0.1178  0.0392 </r>
        <r>  0.0020  0.0012  0.0001  0.0050  0.1429  0.0438  0.0189  0.0183  0.2515 </r>
       </set>
       <set comment="band 9">
        <r>  0.0000  0.0000  0.0006  0.0000  0.0002  0.1030  0.0137  0.1779  0.0011 </r>
        <r>  0.0010  0.0001  0.0000  0.0009  0.0100  0.0023  0.6177  0.0039  0.0497 </r>
       </set>
       <set comment="band 10">
        <r>  0.0010  0.0001  0.0000  0.0009  0.0100  0.0023  0.6177  0.0039  0.0497 </r>
        <r>  0.0000  0.0000  0.0006  0.0000  0.0002  0.1030  0.0137  0.1779  0.0011 </r>
       </set>
       <set comment="band 11">
        <r>  0.0168  0.0080  0.0449  0.0773  0.0155  0.0039  0.0007  0.0407  0.1193 </r>
        <r>  0.0239  0.0115  0.0315  0.1101  0.0221  0.0027  0.0010  0.0286  0.1699 </r>
       </set>
       <set comment="band 12">
        <r>  0.0239  0.0115  0.0315  0.1101  0.0221  0.0027  0.0010  0.0286  0.1699 </r>
        <r>  0.0168  0.0080  0.0449  0.0773  0.0155  0.0039  0.0007  0.0407  0.1193 </r>
       </set>
       <set comment="band 13">
        <r>  0.1038  0.0826  0.0110  0.0087  0.0991  0.0213  0.0056  0.0414  0.0049 </r>
        <r>  0.0787  0.0626  0.0145  0.0066  0.0751  0.0281  0.0042  0.0546  0.0038 </r>
       </set>
       <set comment="band 14">
        <r>  0.0787  0.0626  0.0145  0.0066  0.0751  0.0281  0.0042  0.0546  0.0038 </r>
        <r>  0.1038  0.0826  0.0110  0.0087  0.0991  0.0213  0.0056  0.0414  0.0049 </r>
       </set>
       <set comment="band 15">
        <r>  0.2107  0.0825  0.0035  0.0505  0.0448  0.0191  0.0209  0.0087  0.0067 </r>
        <r>  0.0557  0.0218  0.0133  0.0133  0.0118  0.0723  0.0055  0.0328  0.0018 </r>
       </set>
       <set comment="band 16">
        <r>  0.0557  0.0218  0.0133  0.0133  0.0118  0.0723  0.0055  0.0328  0.0018 </r>
        <r>  0.2107  0.0825  0.0035  0.0505  0.0448  0.0191  0.0209  0.0087  0.0067 </r>
       </set>
       <set comment="band 17">
        <r>  0.0129  0.0107  0.0018  0.0887  0.0051  0.0001  0.0193  0.0003  0.0196 </r>
        <r>  0.0001  0.0001  0.2912  0.0005  0.0000  0.0175  0.0001  0.0499  0.0001 </r>
       </set>
       <set comment="band 18">
        <r>  0.0001  0.0001  0.2912  0.0005  0.0000  0.0175  0.0001  0.0499  0.0001 </r>
        <r>  0.0129  0.0107  0.0018  0.0887  0.0051  0.0001  0.0193  0.0003  0.0196 </r>
       </set>
       <set comment="band 19">
        <r>  0.0208  0.0718  0.0001  0.0028  0.0475  0.0001  0.0400  0.0001  0.0036 </r>
        <r>  0.0000  0.0001  0.1015  0.0000  0.0000  0.0800  0.0000  0.1405  0.0000 </r>
       </set>
       <set comment="band 20">
        <r>  0.0000  0.0001  0.1015  0.0000  0.0000  0.0800  0.0000  0.1405  0.0000 </r>
        <r>  0.0208  0.0718  0.0001  0.0028  0.0475  0.0001  0.0400  0.0001  0.0036 </r>
       </set>
       <set comment="band 21">
        <r>  0.0574  0.0352  0.0000  0.0293  0.0005  0.0000  0.2226  0.0000  0.0039 </r>
        <r>  0.0000  0.0000  0.0345  0.0000  0.0000  0.0690  0.0001  0.0609  0.0000 </r>
       </set>
       <set comment="band 22">
        <r>  0.0000  0.0000  0.0345  0.0000  0.0000  0.0690  0.0001  0.0609  0.0000 </r>
        <r>  0.0574  0.0352  0.0000  0.0293  0.0005  0.0000  0.2226  0.0000  0.0039 </r>
       </set>
       <set comment="band 23">
        <r>  0.0328  0.0608  0.0105  0.0044  0.0898  0.0464  0.0002  0.0194  0.0169 </r>
        <r>  0.0384  0.0712  0.0090  0.0051  0.1051  0.0397  0.0003  0.0166  0.0198 </r>
       </set>
       <set comment="band 24">
        <r>  0.0384  0.0712  0.0090  0.0051  0.1051  0.0397  0.0003  0.0166  0.0198 </r>
        <r>  0.0328  0.0608  0.0105  0.0044  0.0898  0.0464  0.0002  0.0194  0.0169 </r>
       </set>
      </set>
      <set comment="kpoint 95">
       <set comment="band 1">
        <r>  0.0000  0.0396  0.0000  0.0396  0.1490  0.0029  0.0000  0.0029  0.1490 </r>
        <r>  0.0000  0.0006  0.0000  0.0006  0.0021  0.1980  0.0000  0.1981  0.0021 </r>
       </set>
       <set comment="band 2">
        <r>  0.0000  0.0006  0.0000  0.0006  0.0021  0.1980  0.0000  0.1981  0.0021 </r>
        <r>  0.0000  0.0396  0.0000  0.0396  0.1490  0.0029  0.0000  0.0029  0.1490 </r>
       </set>
       <set comment="band 3">
        <r>  0.0524  0.0000  0.0000  0.0000  0.0000  0.0151  0.2384  0.0151  0.0000 </r>
        <r>  0.0030  0.0000  0.0000  0.0000  0.0000  0.2655  0.0136  0.2655  0.0000 </r>
       </set>
       <set comment="band 4">
        <r>  0.0030  0.0000  0.0000  0.0000  0.0000  0.2655  0.0136  0.2655  0.0000 </r>
        <r>  0.0524  0.0000  0.0000  0.0000  0.0000  0.0151  0.2384  0.0151  0.0000 </r>
       </set>
       <set comment="band 5">
        <r>  0.0000  0.0093  0.0243  0.0093  0.0742  0.0000  0.0000  0.0000  0.0742 </r>
        <r>  0.0000  0.0346  0.0065  0.0346  0.2770  0.0000  0.0000  0.0000  0.2770 </r>
       </set>
       <set comment="band 6">
        <r>  0.0000  0.0346  0.0065  0.0346  0.2770  0.0000  0.0000  0.0000  0.2770 </r>
        <r>  0.0000  0.0093  0.0243  0.0093  0.0742  0.0000  0.0000  0.0000  0.0742 </r>
       </set>
       <set comment="band 7">
        <r>  0.0000  0.0020  0.0000  0.0020  0.2508  0.0019  0.0000  0.0019  0.2508 </r>
        <r>  0.0000  0.0000  0.0000  0.0000  0.0021  0.2195  0.0000  0.2195  0.0021 </r>
       </set>
       <set comment="band 8">
        <r>  0.0000  0.0000  0.0000  0.0000  0.0021  0.2195  0.0000  0.2195  0.0021 </r>
        <r>  0.0000  0.0020  0.0000  0.0020  0.2508  0.0019  0.0000  0.0019  0.2508 </r>
       </set>
       <set comment="band 9">
        <r>  0.0001  0.0000  0.0000  0.0000  0.0000  0.1374  0.0188  0.1374  0.0000 </r>
        <r>  0.0027  0.0000  0.0000  0.0000  0.0000  0.0038  0.6771  0.0038  0.0000 </r>
       </set>
       <set comment="band 10">
        <r>  0.0027  0.0000  0.0000  0.0000  0.0000  0.0038  0.6771  0.0038  0.0000 </r>
        <r>  0.0001  0.0000  0.0000  0.0000  0.0000  0.1374  0.0188  0.1374  0.0000 </r>
       </set>
       <set comment="band 11">
        <r>  0.0000  0.0469  0.0770  0.0469  0.0613  0.0000  0.0000  0.0000  0.0613 </r>
        <r>  0.0000  0.0768  0.0470  0.0768  0.1005  0.0000  0.0000  0.0000  0.1005 </r>
       </set>
       <set comment="band 12">
        <r>  0.0000  0.0768  0.0470  0.0768  0.1005  0.0000  0.0000  0.0000  0.1005 </r>
        <r>  0.0000  0.0469  0.0770  0.0469  0.0613  0.0000  0.0000  0.0000  0.0613 </r>
       </set>
       <set comment="band 13">
        <r>  0.0000  0.1417  0.0000  0.1417  0.1118  0.0009  0.0000  0.0009  0.1118 </r>
        <r>  0.0000  0.0017  0.0000  0.0017  0.0013  0.0744  0.0000  0.0744  0.0013 </r>
       </set>
       <set comment="band 14">
        <r>  0.0000  0.0017  0.0000  0.0017  0.0013  0.0744  0.0000  0.0744  0.0013 </r>
        <r>  0.0000  0.1417  0.0000  0.1417  0.1118  0.0009  0.0000  0.0009  0.1118 </r>
       </set>
       <set comment="band 15">
        <r>  0.1073  0.0000  0.0000  0.0000  0.0000  0.0778  0.0074  0.0778  0.0000 </r>
        <r>  0.4062  0.0000  0.0000  0.0000  0.0000  0.0206  0.0278  0.0206  0.0000 </r>
       </set>
       <set comment="band 16">
        <r>  0.4062  0.0000  0.0000  0.0000  0.0000  0.0206  0.0278  0.0206  0.0000 </r>
        <r>  0.1073  0.0000  0.0000  0.0000  0.0000  0.0778  0.0074  0.0778  0.0000 </r>
       </set>
       <set comment="band 17">
        <r>  0.0000  0.0238  0.2528  0.0238  0.0089  0.0000  0.0000  0.0000  0.0089 </r>
        <r>  0.0000  0.0348  0.1729  0.0348  0.0130  0.0000  0.0000  0.0000  0.0130 </r>
       </set>
       <set comment="band 18">
        <r>  0.0000  0.0348  0.1729  0.0348  0.0130  0.0000  0.0000  0.0000  0.0130 </r>
        <r>  0.0000  0.0238  0.2528  0.0238  0.0089  0.0000  0.0000  0.0000  0.0089 </r>
       </set>
       <set comment="band 19">
        <r>  0.0000  0.0492  0.0000  0.0492  0.0130  0.0008  0.0000  0.0008  0.0130 </r>
        <r>  0.0000  0.0003  0.0000  0.0003  0.0001  0.1362  0.0000  0.1362  0.0001 </r>
       </set>
       <set comment="band 20">
        <r>  0.0000  0.0003  0.0000  0.0003  0.0001  0.1362  0.0000  0.1362  0.0001 </r>
        <r>  0.0000  0.0492  0.0000  0.0492  0.0130  0.0008  0.0000  0.0008  0.0130 </r>
       </set>
       <set comment="band 21">
        <r>  0.1098  0.0000  0.0000  0.0000  0.0000  0.0003  0.2851  0.0003  0.0000 </r>
        <r>  0.0004  0.0000  0.0000  0.0000  0.0000  0.0888  0.0010  0.0888  0.0000 </r>
       </set>
       <set comment="band 22">
        <r>  0.0004  0.0000  0.0000  0.0000  0.0000  0.0888  0.0010  0.0888  0.0000 </r>
        <r>  0.1098  0.0000  0.0000  0.0000  0.0000  0.0003  0.2851  0.0003  0.0000 </r>
       </set>
       <set comment="band 23">
        <r>  0.0000  0.0104  0.0072  0.0112  0.0146  0.0335  0.0000  0.0335  0.0159 </r>
        <r>  0.0000  0.1295  0.0048  0.0208  0.2269  0.0005  0.0000  0.0005  0.0493 </r>
       </set>
       <set comment="band 24">
        <r>  0.0000  0.0641  0.0192  0.0577  0.0888  0.0000  0.0000  0.0000  0.0783 </r>
        <r>  0.0000  0.0403  0.0291  0.0400  0.0553  0.0000  0.0000  0.0000  0.0549 </r>
       </set>
      </set>
     </set>
    </set>
   </array>
  </projected>
 </calculation>
 <structure name="finalpos" >
  <crystal>
   <varray name="basis" >
    <v>       1.37075159      -2.37421139       0.00000000 </v>
    <v>       1.37075159       2.37421139       0.00000000 </v>
    <v>       0.00000000       0.00000000       4.42217427 </v>
   </varray>
   <i name="volume">     28.78352573 </i>
   <varray name="rec_basis" >
    <v>       0.36476339      -0.21059624       0.00000000 </v>
    <v>       0.36476339       0.21059624       0.00000000 </v>
    <v>       0.00000000       0.00000000       0.22613311 </v>
   </varray>
  </crystal>
  <varray name="positions" >
   <v>       0.33333333       0.66666667       0.25000000 </v>
   <v>       0.66666667       0.33333333       0.75000000 </v>
  </varray>
 </structure>
</modeling>
