Co-hcc                                  
           1
     1.370752   -2.374211    0.000000
     1.370752    2.374211    0.000000
     0.000000    0.000000    4.422174
   Co
     2
Direct configuration=     1
   0.33333333  0.66666667  0.25000000
   0.66666667  0.33333333  0.75000000
