 vasp.6.3.2 27Jun22 (build Aug 12 2022 00:53:59) complex                        
  
 executed on               tv2STD date 2024.11.30  15:14:38
 running   24 mpi-ranks, with    1 threads/rank
 distrk:  each k-point on   24 cores,    1 groups
 distr:  one band on NCORE=   6 cores,    4 groups


--------------------------------------------------------------------------------------------------------


 INCAR:
   SYSTEM = Co-fcc
   NWRITE = 2    write-flag
   ISTART = 0    job   : 0-new, 1-cont, 2-samecut
   ICHARG = 2    charge: 0-wave, 1-file, 2-atom, >10-const
   INIWAV = 1    electr: 0-lowe 1-rand  2-diag
   ENCUT = 400.0     energy cutoff in eV
   PREC = Accurate      normal | accurate
   ADDGRID = .FALSE.  (use fine grid)
   NELM = 100     number of ELM steps
   EDIFF = 1E-06    energy stopping-criterion for ELM
   LREAL = .FALSE.      real-space projection (.FALSE., .TRUE., On, Auto)
   ALGO = Normal     Normal, Fast, Very_Fast
   LWAVE = .FALSE.
   LCHARG = .FALSE.
   NSW = 0       max number of geometry steps
   IBRION = -1     ionic relax: 0-MD, 1-quasi-Newton, 2-CG, 3-Damped MD
   EDIFFG = -0.02  force (eV/A) stopping-criterion for geometry steps
   ISIF = 2     (1:force\=y stress\=trace only ions\=y shape\=n volume\=n)
   ISYM = 1     (1-use symmetry, 0-no symmetry)
   ISMEAR = 0     (-1-Fermi, 1-Methfessel/Paxton)
   SIGMA = 0.05   broadening in eV
   NPAR = 4
   ISPIN = 2
   MAGMOM = 1*3

 POTCAR:    PAW_PBE Co 02Aug2007                  
 POTCAR:    PAW_PBE Co 02Aug2007                  
   SHA256 =  0e690c60710354995174544f52f9f2c30879afabeffe3b3fbd4001cb294e56d4 Co/POTCAR             
   COPYR  = (c) Copyright 02Aug2007 Georg Kresse                                                    
   COPYR  = This file is part of the software VASP. Any use, copying, and all other rights are regul
   COPYR  = If you do not have a valid VASP license, you may not use, copy or distribute this file. 
   VRHFIN =Co: d8 s1                                                                                
   LEXCH  = PE                                                                                      
   EATOM  =   813.3670 eV,   59.7808 Ry                                                             
                                                                                                    
   TITEL  = PAW_PBE Co 02Aug2007                                                                    
   LULTRA =        F    use ultrasoft PP ?                                                          
   IUNSCR =        1    unscreen: 0-lin 1-nonlin 2-no                                               
   RPACOR =    2.000    partial core radius                                                         
   POMASS =   58.933; ZVAL   =    9.000    mass and valenz                                          
   RCORE  =    2.300    outmost cutoff radius                                                       
   RWIGS  =    2.460; RWIGS  =    1.302    wigner-seitz radius (au A)                               
   ENMAX  =  267.968; ENMIN  =  200.976 eV                                                          
   RCLOC  =    1.203    cutoff for local pot                                                        
   LCOR   =        T    correct aug charges                                                         
   LPAW   =        T    paw PP                                                                      
   EAUG   =  477.818                                                                                
   DEXC   =    0.000                                                                                
   RMAX   =    2.360    core radius for proj-oper                                                   
   RAUG   =    1.300    factor for augmentation sphere                                              
   RDEP   =    2.393    radius for radial grids                                                     
   RDEPT  =    1.864    core radius for aug-charge                                                  
                                                                                                    
   Atomic configuration                                                                             
    9 entries                                                                                       
     n  l   j            E        occ.                                                              
     1  0  0.50     -7587.6674   2.0000                                                             
     2  0  0.50      -893.6084   2.0000                                                             
     2  1  1.50      -764.5805   6.0000                                                             
     3  0  0.50       -97.5973   2.0000                                                             
     3  1  1.50       -60.9648   6.0000                                                             
     3  2  2.50        -4.2382   8.0000                                                             
     4  0  0.50        -4.3746   1.0000                                                             
     4  1  1.50        -4.0817   0.0000                                                             
     4  3  2.50        -1.3606   0.0000                                                             
   Description                                                                                      
     l       E           TYP  RCUT    TYP  RCUT                                                     
     2     -4.2382362     23  2.300                                                                 
     2     -5.5988188     23  2.300                                                                 
     0     -4.3745797     23  2.300                                                                 
     0      5.7660125     23  2.300                                                                 
     1     -2.7211652     23  2.300                                                                 
     1     16.9860234     23  2.300                                                                 
  local pseudopotential read in
  partial core-charges read in
  partial kinetic energy density read in
  atomic valenz-charges read in
  non local Contribution for L=           2  read in
    real space projection operators read in
  non local Contribution for L=           2  read in
    real space projection operators read in
  non local Contribution for L=           0  read in
    real space projection operators read in
  non local Contribution for L=           0  read in
    real space projection operators read in
  non local Contribution for L=           1  read in
    real space projection operators read in
  non local Contribution for L=           1  read in
    real space projection operators read in
    PAW grid and wavefunctions read in
 
   number of l-projection  operators is LMAX  =           6
   number of lm-projection operators is LMMAX =          18
 
  PAW_PBE Co 02Aug2007                  :
 energy of atom  1       EATOM= -813.3670
 kinetic energy error for atom=    0.0093 (will be added to EATOM!!)
 
 
 POSCAR: Co
  positions in cartesian coordinates
  No initial velocities read in
 exchange correlation table for  LEXCH =        8
   RHO(1)=    0.500       N(1)  =     2000
   RHO(2)=  100.500       N(2)  =     4000
 


--------------------------------------------------------------------------------------------------------


 ion  position               nearest neighbor table
   1  0.000  0.000  0.000-
 
  LATTYP: Found a face centered cubic cell.
 ALAT       =     3.5100000000
  
  Lattice vectors:
  
 A1 = (   0.0000000000,   1.7550000000,   1.7550000000)
 A2 = (   1.7550000000,   0.0000000000,   1.7550000000)
 A3 = (   1.7550000000,   1.7550000000,   0.0000000000)


Analysis of symmetry for initial positions (statically):
=====================================================================
 Subroutine PRICEL returns:
 Original cell was already a primitive cell.
 

 Routine SETGRP: Setting up the symmetry group for a 
 face centered cubic supercell.


 Subroutine GETGRP returns: Found 48 space group operations
 (whereof 48 operations were pure point group operations)
 out of a pool of 48 trial point group operations.


The static configuration has the point symmetry O_h .


Analysis of symmetry for dynamics (positions and initial velocities):
=====================================================================
 Subroutine PRICEL returns:
 Original cell was already a primitive cell.
 

 Routine SETGRP: Setting up the symmetry group for a 
 face centered cubic supercell.


 Subroutine GETGRP returns: Found 48 space group operations
 (whereof 48 operations were pure point group operations)
 out of a pool of 48 trial point group operations.


The dynamic configuration has the point symmetry O_h .


Analysis of structural, dynamic, and magnetic symmetry:
=====================================================================
 Subroutine PRICEL returns:
 Original cell was already a primitive cell.
 

 Routine SETGRP: Setting up the symmetry group for a 
 face centered cubic supercell.


 Subroutine GETGRP returns: Found 48 space group operations
 (whereof 48 operations were pure point group operations)
 out of a pool of 48 trial point group operations.


The overall configuration has the point symmetry O_h .


 Subroutine INISYM returns: Found 48 space group operations
 (whereof 48 operations are pure point group operations),
 and found     1 'primitive' translations


----------------------------------------------------------------------------------------

                                     Primitive cell                                     

  volume of cell :      10.8109

  direct lattice vectors                    reciprocal lattice vectors
     0.000000000  1.755000000  1.755000000    -0.284900285  0.284900285  0.284900285
     1.755000000  0.000000000  1.755000000     0.284900285 -0.284900285  0.284900285
     1.755000000  1.755000000  0.000000000     0.284900285  0.284900285 -0.284900285

  length of vectors
     2.481944802  2.481944802  2.481944802     0.493461769  0.493461769  0.493461769

  position of ions in fractional coordinates (direct lattice)
     0.000000000  0.000000000  0.000000000

  ion indices of the primitive-cell ions
   primitive index   ion index
                 1           1

----------------------------------------------------------------------------------------

 
 
 KPOINTS: Automatic mesh                          

Automatic generation of k-mesh.
 Grid dimensions read from file:
 generate k-points for:    4    4    4

 Generating k-lattice:

  Cartesian coordinates                     Fractional coordinates (reciprocal lattice)
    -0.071225071  0.071225071  0.071225071     0.250000000  0.000000000  0.000000000
     0.071225071 -0.071225071  0.071225071     0.000000000  0.250000000  0.000000000
     0.071225071  0.071225071 -0.071225071     0.000000000  0.000000000  0.250000000

  Length of vectors
     0.123365442  0.123365442  0.123365442

  Shift w.r.t. Gamma in fractional coordinates (k-lattice)
     0.500000000  0.500000000  0.500000000

 
 Subroutine IBZKPT returns following result:
 ===========================================
 
 Found     10 irreducible k-points:
 
 Following reciprocal coordinates:
            Coordinates               Weight
  0.125000  0.125000  0.125000      8.000000
  0.375000  0.125000  0.125000     24.000000
 -0.375000  0.125000  0.125000     24.000000
 -0.125000  0.125000  0.125000     24.000000
  0.375000  0.375000  0.125000     24.000000
 -0.375000  0.375000  0.125000     48.000000
 -0.125000  0.375000  0.125000     48.000000
 -0.375000 -0.375000  0.125000     24.000000
  0.375000  0.375000  0.375000      8.000000
 -0.375000  0.375000  0.375000     24.000000
 
 Following cartesian coordinates:
            Coordinates               Weight
  0.035613  0.035613  0.035613      8.000000
 -0.035613  0.106838  0.106838     24.000000
  0.178063 -0.106838 -0.106838     24.000000
  0.106838 -0.035613 -0.035613     24.000000
  0.035613  0.035613  0.178063     24.000000
  0.249288 -0.178063 -0.035613     48.000000
  0.178063 -0.106838  0.035613     48.000000
  0.035613  0.035613 -0.249288     24.000000
  0.106838  0.106838  0.106838      8.000000
  0.320513 -0.106838 -0.106838     24.000000
 


--------------------------------------------------------------------------------------------------------




 Dimension of arrays:
   k-points           NKPTS =     10   k-points in BZ     NKDIM =     10   number of bands    NBANDS=     12
   number of dos      NEDOS =    301   number of ions     NIONS =      1
   non local maximal  LDIM  =      6   non local SUM 2l+1 LMDIM =     18
   total plane-waves  NPLWV =   4096
   max r-space proj   IRMAX =      1   max aug-charges    IRDMAX=  15140
   dimension x,y,z NGX =    16 NGY =   16 NGZ =   16
   dimension x,y,z NGXF=    32 NGYF=   32 NGZF=   32
   support grid    NGXF=    32 NGYF=   32 NGZF=   32
   ions per type =               1
   NGX,Y,Z   is equivalent  to a cutoff of  10.72, 10.72, 10.72 a.u.
   NGXF,Y,Z  is equivalent  to a cutoff of  21.43, 21.43, 21.43 a.u.

 SYSTEM =  Co-fcc                                  
 POSCAR =  Co                                      

 Startparameter for this run:
   NWRITE =      2    write-flag & timer
   PREC   = accura    normal or accurate (medium, high low for compatibility)
   ISTART =      0    job   : 0-new  1-cont  2-samecut
   ICHARG =      2    charge: 1-file 2-atom 10-const
   ISPIN  =      2    spin polarized calculation?
   LNONCOLLINEAR =      F non collinear calculations
   LSORBIT =      F    spin-orbit coupling
   INIWAV =      1    electr: 0-lowe 1-rand  2-diag
   LASPH  =      F    aspherical Exc in radial PAW
 Electronic Relaxation 1
   ENCUT  =  400.0 eV  29.40 Ry    5.42 a.u.   4.05  4.05  4.05*2*pi/ulx,y,z
   ENINI  =  400.0     initial cutoff
   ENAUG  =  477.8 eV  augmentation charge cutoff
   NELM   =    100;   NELMIN=  2; NELMDL= -5     # of ELM steps 
   EDIFF  = 0.1E-05   stopping-criterion for ELM
   LREAL  =      F    real-space projection
   NLSPLINE    = F    spline interpolate recip. space projectors
   LCOMPAT=      F    compatible to vasp.4.4
   GGA_COMPAT  = T    GGA compatible to vasp.4.4-vasp.4.6
   LMAXPAW     = -100 max onsite density
   LMAXMIX     =    2 max onsite mixed and CHGCAR
   VOSKOWN=      0    Vosko Wilk Nusair interpolation
   ROPT   =    0.00000
 Ionic relaxation
   EDIFFG = -.2E-01   stopping-criterion for IOM
   NSW    =      0    number of steps for IOM
   NBLOCK =      1;   KBLOCK =      1    inner block; outer block 
   IBRION =     -1    ionic relax: 0-MD 1-quasi-New 2-CG
   NFREE  =      0    steps in history (QN), initial steepest desc. (CG)
   ISIF   =      2    stress and relaxation
   IWAVPR =     10    prediction:  0-non 1-charg 2-wave 3-comb
   ISYM   =      1    0-nonsym 1-usesym 2-fastsym
   LCORR  =      T    Harris-Foulkes like correction to forces

   POTIM  = 0.5000    time-step for ionic-motion
   TEIN   =    0.0    initial temperature
   TEBEG  =    0.0;   TEEND  =   0.0 temperature during run
   SMASS  =  -3.00    Nose mass-parameter (am)
   estimated Nose-frequenzy (Omega)   =  0.10E-29 period in steps = 0.13E+47 mass=  -0.141E-27a.u.
   SCALEE = 1.0000    scale energy and forces
   NPACO  =    256;   APACO  = 10.0  distance and # of slots for P.C.
   PSTRESS=    0.0 pullay stress

  Mass of Ions in am
   POMASS =  58.93
  Ionic Valenz
   ZVAL   =   9.00
  Atomic Wigner-Seitz radii
   RWIGS  =  -1.00
  virtual crystal weights 
   VCA    =   1.00
   NELECT =       9.0000    total number of electrons
   NUPDOWN=      -1.0000    fix difference up-down

 DOS related values:
   EMIN   =  10.00;   EMAX   =-10.00  energy-range for DOS
   EFERMI =   0.00
   ISMEAR =     0;   SIGMA  =   0.05  broadening in eV -4-tet -1-fermi 0-gaus

 Electronic relaxation 2 (details)
   IALGO  =     38    algorithm
   LDIAG  =      T    sub-space diagonalisation (order eigenvalues)
   LSUBROT=      F    optimize rotation matrix (better conditioning)
   TURBO    =      0    0=normal 1=particle mesh
   IRESTART =      0    0=no restart 2=restart with 2 vectors
   NREBOOT  =      0    no. of reboots
   NMIN     =      0    reboot dimension
   EREF     =   0.00    reference energy to select bands
   IMIX   =      4    mixing-type and parameters
     AMIX     =   0.40;   BMIX     =  1.00
     AMIX_MAG =   1.60;   BMIX_MAG =  1.00
     AMIN     =   0.10
     WC   =   100.;   INIMIX=   1;  MIXPRE=   1;  MAXMIX= -45

 Intra band minimization:
   WEIMIN = 0.0000     energy-eigenvalue tresh-hold
   EBREAK =  0.21E-07  absolut break condition
   DEPER  =   0.30     relativ break condition  

   TIME   =   0.40     timestep for ELM

  volume/ion in A,a.u.               =      10.81        72.96
  Fermi-wavevector in a.u.,A,eV,Ry     =   1.540051  2.910275 32.269731  2.371758
  Thomas-Fermi vector in A             =   2.646193
 
 Write flags
   LWAVE        =      F    write WAVECAR
   LDOWNSAMPLE  =      F    k-point downsampling of WAVECAR
   LCHARG       =      F    write CHGCAR
   LVTOT        =      F    write LOCPOT, total local potential
   LVHAR        =      F    write LOCPOT, Hartree potential only
   LELF         =      F    write electronic localiz. function (ELF)
   LORBIT       =      0    0 simple, 1 ext, 2 COOP (PROOUT), +10 PAW based schemes


 Dipole corrections
   LMONO  =      F    monopole corrections only (constant potential shift)
   LDIPOL =      F    correct potential (dipole corrections)
   IDIPOL =      0    1-x, 2-y, 3-z, 4-all directions 
   EPSILON=  1.0000000 bulk dielectric constant

 Exchange correlation treatment:
   GGA     =    --    GGA type
   LEXCH   =     8    internal setting for exchange type
   LIBXC   =     F    Libxc                    
   VOSKOWN =     0    Vosko Wilk Nusair interpolation
   LHFCALC =     F    Hartree Fock is set to
   LHFONE  =     F    Hartree Fock one center treatment
   AEXX    =    0.0000 exact exchange contribution

 Linear response parameters
   LEPSILON=     F    determine dielectric tensor
   LRPA    =     F    only Hartree local field effects (RPA)
   LNABLA  =     F    use nabla operator in PAW spheres
   LVEL    =     F    velocity operator in full k-point grid
   CSHIFT  =0.1000    complex shift for real part using Kramers Kronig
   OMEGAMAX=  -1.0    maximum frequency
   DEG_THRESHOLD= 0.2000000E-02 threshold for treating states as degnerate
   RTIME   =   -0.100 relaxation time in fs
  (WPLASMAI=    0.000 imaginary part of plasma frequency in eV, 0.658/RTIME)
   DFIELD  = 0.0000000 0.0000000 0.0000000 field for delta impulse in time
 
  Optional k-point grid parameters
   LKPOINTS_OPT  =     F    use optional k-point grid
   KPOINTS_OPT_MODE=     1    mode for optional k-point grid
 
 Orbital magnetization related:
   ORBITALMAG=     F  switch on orbital magnetization
   LCHIMAG   =     F  perturbation theory with respect to B field
   DQ        =  0.001000  dq finite difference perturbation B field
   LLRAUG    =     F  two centre corrections for induced B field



--------------------------------------------------------------------------------------------------------


 Static calculation
 charge density and potential will be updated during run
 spin polarized calculation
 Variant of blocked Davidson
 Davidson routine will perform the subspace rotation
 perform sub-space diagonalisation
    after iterative eigenvector-optimisation
 modified Broyden-mixing scheme, WC =      100.0
 initial mixing is a Kerker type mixing with AMIX =  0.4000 and BMIX =      1.0000
 Hartree-type preconditioning will be used
 using additional bands            7
 reciprocal scheme for non local part
 use partial core corrections
 calculate Harris-corrections to forces 
   (improved forces if not selfconsistent)
 use gradient corrections 
 use of overlap-Matrix (Vanderbilt PP)
 Gauss-broadening in eV      SIGMA  =   0.05


--------------------------------------------------------------------------------------------------------


  energy-cutoff  :      400.00
  volume of cell :       10.81
      direct lattice vectors                 reciprocal lattice vectors
     0.000000000  1.755000000  1.755000000    -0.284900285  0.284900285  0.284900285
     1.755000000  0.000000000  1.755000000     0.284900285 -0.284900285  0.284900285
     1.755000000  1.755000000  0.000000000     0.284900285  0.284900285 -0.284900285

  length of vectors
     2.481944802  2.481944802  2.481944802     0.493461769  0.493461769  0.493461769


 
 k-points in units of 2pi/SCALE and weight: Automatic mesh                          
   0.03561254  0.03561254  0.03561254       0.031
  -0.03561254  0.10683761  0.10683761       0.094
   0.17806268 -0.10683761 -0.10683761       0.094
   0.10683761 -0.03561254 -0.03561254       0.094
   0.03561254  0.03561254  0.17806268       0.094
   0.24928775 -0.17806268 -0.03561254       0.188
   0.17806268 -0.10683761  0.03561254       0.188
   0.03561254  0.03561254 -0.24928775       0.094
   0.10683761  0.10683761  0.10683761       0.031
   0.32051282 -0.10683761 -0.10683761       0.094
 
 k-points in reciprocal lattice and weights: Automatic mesh                          
   0.12500000  0.12500000  0.12500000       0.031
   0.37500000  0.12500000  0.12500000       0.094
  -0.37500000  0.12500000  0.12500000       0.094
  -0.12500000  0.12500000  0.12500000       0.094
   0.37500000  0.37500000  0.12500000       0.094
  -0.37500000  0.37500000  0.12500000       0.188
  -0.12500000  0.37500000  0.12500000       0.188
  -0.37500000 -0.37500000  0.12500000       0.094
   0.37500000  0.37500000  0.37500000       0.031
  -0.37500000  0.37500000  0.37500000       0.094
 
 position of ions in fractional coordinates (direct lattice) 
   0.00000000  0.00000000  0.00000000
 
 position of ions in cartesian coordinates  (Angst):
   0.00000000  0.00000000  0.00000000
 


--------------------------------------------------------------------------------------------------------


 k-point   1 :   0.1250 0.1250 0.1250  plane waves:     178
 k-point   2 :   0.3750 0.1250 0.1250  plane waves:     196
 k-point   3 :  -0.3750 0.1250 0.1250  plane waves:     196
 k-point   4 :  -0.1250 0.1250 0.1250  plane waves:     196
 k-point   5 :   0.3750 0.3750 0.1250  plane waves:     198
 k-point   6 :  -0.3750 0.3750 0.1250  plane waves:     199
 k-point   7 :  -0.1250 0.3750 0.1250  plane waves:     196
 k-point   8 :  -0.3750-0.3750 0.1250  plane waves:     198
 k-point   9 :   0.3750 0.3750 0.3750  plane waves:     198
 k-point  10 :  -0.3750 0.3750 0.3750  plane waves:     192

 maximum and minimum number of plane-waves per node :        38       22

 maximum number of plane-waves:       199
 maximum index in each direction: 
   IXMAX=    4   IYMAX=    4   IZMAX=    3
   IXMIN=   -4   IYMIN=   -4   IZMIN=   -4


 parallel 3D FFT for wavefunctions:
    minimum data exchange during FFTs selected (reduces bandwidth)
 parallel 3D FFT for charge:
    minimum data exchange during FFTs selected (reduces bandwidth)


 total amount of memory used by VASP MPI-rank0    30455. kBytes
=======================================================================

   base      :      30000. kBytes
   nonl-proj :         58. kBytes
   fftplans  :         92. kBytes
   grid      :        217. kBytes
   one-center:         31. kBytes
   wavefun   :         57. kBytes
 
     INWAV:  cpu time      0.0000: real time      0.0017
 Broyden mixing: mesh for mixing (old mesh)
   NGX =  9   NGY =  9   NGZ =  9
  (NGX  = 32   NGY  = 32   NGZ  = 32)
  gives a total of    729 points

 initial charge density was supplied:
 charge density of overlapping atoms calculated
 number of electron       9.0000000 magnetization       3.0000000
 keeping initial charge density in first step


--------------------------------------------------------------------------------------------------------


 Maximum index for augmentation-charges         1165 (set IRDMAX)


--------------------------------------------------------------------------------------------------------


 First call to EWALD:  gamma=   0.802
 Maximum number of real-space cells 3x 3x 3
 Maximum number of reciprocal cells 3x 3x 3

    FEWALD:  cpu time      0.0014: real time      0.0014


--------------------------------------- Iteration      1(   1)  ---------------------------------------


    POTLOK:  cpu time      0.0050: real time      0.0061
    SETDIJ:  cpu time      0.0053: real time      0.0053
     EDDAV:  cpu time      0.0504: real time      0.0508
       DOS:  cpu time      0.0010: real time      0.0010
    --------------------------------------------
      LOOP:  cpu time      0.0616: real time      0.0633

 eigenvalue-minimisations  :   496
 total energy-change (2. order) : 0.2334504E+02  (-0.3554138E+03)
 number of electron       9.0000000 magnetization       3.0000000
 augmentation part        9.0000000 magnetization       3.0000000

 Free energy of the ion-electron system (eV)
  ---------------------------------------------------
  alpha Z        PSCENC =        39.18058524
  Ewald energy   TEWEN  =      -761.78120824
  -Hartree energ DENC   =      -149.59159932
  -exchange      EXHF   =         0.00000000
  -V(xc)+E(xc)   XCENC  =        17.82600435
  PAW double counting   =       719.99081943     -772.94345096
  entropy T*S    EENTRO =        -0.00406811
  eigenvalues    EBANDS =       117.31022084
  atomic energy  EATOM  =       813.35773410
  Solvation  Ediel_sol  =         0.00000000
  ---------------------------------------------------
  free energy    TOTEN  =        23.34503733 eV

  energy without entropy =       23.34910545  energy(sigma->0) =       23.34707139


--------------------------------------------------------------------------------------------------------




--------------------------------------- Iteration      1(   2)  ---------------------------------------


     EDDAV:  cpu time      0.0475: real time      0.0482
       DOS:  cpu time      0.0002: real time      0.0002
    --------------------------------------------
      LOOP:  cpu time      0.0477: real time      0.0485

 eigenvalue-minimisations  :   532
 total energy-change (2. order) :-0.3024059E+02  (-0.2785878E+02)
 number of electron       9.0000000 magnetization       3.0000000
 augmentation part        9.0000000 magnetization       3.0000000

 Free energy of the ion-electron system (eV)
  ---------------------------------------------------
  alpha Z        PSCENC =        39.18058524
  Ewald energy   TEWEN  =      -761.78120824
  -Hartree energ DENC   =      -149.59159932
  -exchange      EXHF   =         0.00000000
  -V(xc)+E(xc)   XCENC  =        17.82600435
  PAW double counting   =       719.99081943     -772.94345096
  entropy T*S    EENTRO =        -0.00183532
  eigenvalues    EBANDS =        87.06740291
  atomic energy  EATOM  =       813.35773410
  Solvation  Ediel_sol  =         0.00000000
  ---------------------------------------------------
  free energy    TOTEN  =        -6.89554780 eV

  energy without entropy =       -6.89371248  energy(sigma->0) =       -6.89463014


--------------------------------------------------------------------------------------------------------




--------------------------------------- Iteration      1(   3)  ---------------------------------------


     EDDAV:  cpu time      0.0463: real time      0.0467
       DOS:  cpu time      0.0002: real time      0.0002
    --------------------------------------------
      LOOP:  cpu time      0.0466: real time      0.0469

 eigenvalue-minimisations  :   540
 total energy-change (2. order) :-0.8771648E+00  (-0.8762626E+00)
 number of electron       9.0000000 magnetization       3.0000000
 augmentation part        9.0000000 magnetization       3.0000000

 Free energy of the ion-electron system (eV)
  ---------------------------------------------------
  alpha Z        PSCENC =        39.18058524
  Ewald energy   TEWEN  =      -761.78120824
  -Hartree energ DENC   =      -149.59159932
  -exchange      EXHF   =         0.00000000
  -V(xc)+E(xc)   XCENC  =        17.82600435
  PAW double counting   =       719.99081943     -772.94345096
  entropy T*S    EENTRO =        -0.00143898
  eigenvalues    EBANDS =        86.18984179
  atomic energy  EATOM  =       813.35773410
  Solvation  Ediel_sol  =         0.00000000
  ---------------------------------------------------
  free energy    TOTEN  =        -7.77271258 eV

  energy without entropy =       -7.77127360  energy(sigma->0) =       -7.77199309


--------------------------------------------------------------------------------------------------------




--------------------------------------- Iteration      1(   4)  ---------------------------------------


     EDDAV:  cpu time      0.0498: real time      0.0502
       DOS:  cpu time      0.0002: real time      0.0002
    --------------------------------------------
      LOOP:  cpu time      0.0500: real time      0.0505

 eigenvalue-minimisations  :   588
 total energy-change (2. order) :-0.1007306E-01  (-0.1006809E-01)
 number of electron       9.0000000 magnetization       3.0000000
 augmentation part        9.0000000 magnetization       3.0000000

 Free energy of the ion-electron system (eV)
  ---------------------------------------------------
  alpha Z        PSCENC =        39.18058524
  Ewald energy   TEWEN  =      -761.78120824
  -Hartree energ DENC   =      -149.59159932
  -exchange      EXHF   =         0.00000000
  -V(xc)+E(xc)   XCENC  =        17.82600435
  PAW double counting   =       719.99081943     -772.94345096
  entropy T*S    EENTRO =        -0.00144479
  eigenvalues    EBANDS =        86.17977453
  atomic energy  EATOM  =       813.35773410
  Solvation  Ediel_sol  =         0.00000000
  ---------------------------------------------------
  free energy    TOTEN  =        -7.78278565 eV

  energy without entropy =       -7.78134086  energy(sigma->0) =       -7.78206325


--------------------------------------------------------------------------------------------------------




--------------------------------------- Iteration      1(   5)  ---------------------------------------


     EDDAV:  cpu time      0.0496: real time      0.0501
       DOS:  cpu time      0.0002: real time      0.0002
    CHARGE:  cpu time      0.0072: real time      0.0072
    MIXING:  cpu time      0.0002: real time      0.0002
    --------------------------------------------
      LOOP:  cpu time      0.0573: real time      0.0577

 eigenvalue-minimisations  :   596
 total energy-change (2. order) :-0.2612979E-03  (-0.2612952E-03)
 number of electron       9.0000000 magnetization       1.1949896
 augmentation part        4.5843078 magnetization       0.8491406

 Broyden mixing:
  rms(total) = 0.11574E+01    rms(broyden)= 0.11574E+01
  rms(prec ) = 0.32426E+01
  weight for this iteration     100.00

 Free energy of the ion-electron system (eV)
  ---------------------------------------------------
  alpha Z        PSCENC =        39.18058524
  Ewald energy   TEWEN  =      -761.78120824
  -Hartree energ DENC   =      -149.59159932
  -exchange      EXHF   =         0.00000000
  -V(xc)+E(xc)   XCENC  =        17.82600435
  PAW double counting   =       719.99081943     -772.94345096
  entropy T*S    EENTRO =        -0.00144468
  eigenvalues    EBANDS =        86.17951313
  atomic energy  EATOM  =       813.35773410
  Solvation  Ediel_sol  =         0.00000000
  ---------------------------------------------------
  free energy    TOTEN  =        -7.78304695 eV

  energy without entropy =       -7.78160227  energy(sigma->0) =       -7.78232461


--------------------------------------------------------------------------------------------------------




--------------------------------------- Iteration      1(   6)  ---------------------------------------


    POTLOK:  cpu time      0.0032: real time      0.0033
    SETDIJ:  cpu time      0.0047: real time      0.0047
     EDDAV:  cpu time      0.0505: real time      0.0508
       DOS:  cpu time      0.0002: real time      0.0002
    CHARGE:  cpu time      0.0069: real time      0.0069
    MIXING:  cpu time      0.0002: real time      0.0002
    --------------------------------------------
      LOOP:  cpu time      0.0657: real time      0.0662

 eigenvalue-minimisations  :   616
 total energy-change (2. order) : 0.5978612E+00  (-0.1241068E+01)
 number of electron       9.0000000 magnetization       1.7060876
 augmentation part        5.3383333 magnetization       1.5259597

 Broyden mixing:
  rms(total) = 0.52738E+00    rms(broyden)= 0.52737E+00
  rms(prec ) = 0.97834E+00
  weight for this iteration     100.00

 eigenvalues of (default mixing * dielectric matrix)
  average eigenvalue GAMMA=   0.7313
  0.7313

 Free energy of the ion-electron system (eV)
  ---------------------------------------------------
  alpha Z        PSCENC =        39.18058524
  Ewald energy   TEWEN  =      -761.78120824
  -Hartree energ DENC   =      -131.12794295
  -exchange      EXHF   =         0.00000000
  -V(xc)+E(xc)   XCENC  =        16.19303444
  PAW double counting   =       793.12814616     -840.96788811
  entropy T*S    EENTRO =        -0.00394988
  eigenvalues    EBANDS =        64.83630349
  atomic energy  EATOM  =       813.35773410
  Solvation  Ediel_sol  =         0.00000000
  ---------------------------------------------------
  free energy    TOTEN  =        -7.18518574 eV

  energy without entropy =       -7.18123585  energy(sigma->0) =       -7.18321079


--------------------------------------------------------------------------------------------------------




--------------------------------------- Iteration      1(   7)  ---------------------------------------


    POTLOK:  cpu time      0.0033: real time      0.0035
    SETDIJ:  cpu time      0.0047: real time      0.0047
     EDDAV:  cpu time      0.0601: real time      0.0604
       DOS:  cpu time      0.0003: real time      0.0003
    CHARGE:  cpu time      0.0071: real time      0.0071
    MIXING:  cpu time      0.0002: real time      0.0002
    --------------------------------------------
      LOOP:  cpu time      0.0757: real time      0.0762

 eigenvalue-minimisations  :   592
 total energy-change (2. order) : 0.1380792E+00  (-0.1358803E+00)
 number of electron       9.0000000 magnetization       1.7338716
 augmentation part        5.0830613 magnetization       1.5467876

 Broyden mixing:
  rms(total) = 0.26452E+00    rms(broyden)= 0.26452E+00
  rms(prec ) = 0.43824E+00
  weight for this iteration     100.00

 eigenvalues of (default mixing * dielectric matrix)
  average eigenvalue GAMMA=   0.7374
  0.8866  0.5883

 Free energy of the ion-electron system (eV)
  ---------------------------------------------------
  alpha Z        PSCENC =        39.18058524
  Ewald energy   TEWEN  =      -761.78120824
  -Hartree energ DENC   =      -134.96371175
  -exchange      EXHF   =         0.00000000
  -V(xc)+E(xc)   XCENC  =        16.60447860
  PAW double counting   =       826.77454575     -877.95886272
  entropy T*S    EENTRO =        -0.00139176
  eigenvalues    EBANDS =        71.74072425
  atomic energy  EATOM  =       813.35773410
  Solvation  Ediel_sol  =         0.00000000
  ---------------------------------------------------
  free energy    TOTEN  =        -7.04710652 eV

  energy without entropy =       -7.04571477  energy(sigma->0) =       -7.04641065


--------------------------------------------------------------------------------------------------------




--------------------------------------- Iteration      1(   8)  ---------------------------------------


    POTLOK:  cpu time      0.0031: real time      0.0033
    SETDIJ:  cpu time      0.0048: real time      0.0048
     EDDAV:  cpu time      0.0507: real time      0.0510
       DOS:  cpu time      0.0003: real time      0.0003
    CHARGE:  cpu time      0.0068: real time      0.0068
    MIXING:  cpu time      0.0002: real time      0.0002
    --------------------------------------------
      LOOP:  cpu time      0.0658: real time      0.0664

 eigenvalue-minimisations  :   620
 total energy-change (2. order) : 0.1224223E-01  (-0.2278244E-02)
 number of electron       9.0000000 magnetization       1.6982489
 augmentation part        5.1031121 magnetization       1.5207712

 Broyden mixing:
  rms(total) = 0.12686E+00    rms(broyden)= 0.12686E+00
  rms(prec ) = 0.22815E+00
  weight for this iteration     100.00

 eigenvalues of (default mixing * dielectric matrix)
  average eigenvalue GAMMA=   1.0878
  1.9627  0.6503  0.6503

 Free energy of the ion-electron system (eV)
  ---------------------------------------------------
  alpha Z        PSCENC =        39.18058524
  Ewald energy   TEWEN  =      -761.78120824
  -Hartree energ DENC   =      -133.52395549
  -exchange      EXHF   =         0.00000000
  -V(xc)+E(xc)   XCENC  =        16.56496815
  PAW double counting   =       856.12559679     -908.05390137
  entropy T*S    EENTRO =        -0.00139051
  eigenvalues    EBANDS =        71.09670704
  atomic energy  EATOM  =       813.35773410
  Solvation  Ediel_sol  =         0.00000000
  ---------------------------------------------------
  free energy    TOTEN  =        -7.03486429 eV

  energy without entropy =       -7.03347378  energy(sigma->0) =       -7.03416904


--------------------------------------------------------------------------------------------------------




--------------------------------------- Iteration      1(   9)  ---------------------------------------


    POTLOK:  cpu time      0.0029: real time      0.0031
    SETDIJ:  cpu time      0.0046: real time      0.0046
     EDDAV:  cpu time      0.0532: real time      0.0535
       DOS:  cpu time      0.0002: real time      0.0002
    CHARGE:  cpu time      0.0067: real time      0.0067
    MIXING:  cpu time      0.0002: real time      0.0002
    --------------------------------------------
      LOOP:  cpu time      0.0678: real time      0.0683

 eigenvalue-minimisations  :   664
 total energy-change (2. order) : 0.6673731E-02  (-0.9272811E-03)
 number of electron       9.0000000 magnetization       1.6806900
 augmentation part        5.1216958 magnetization       1.5064840

 Broyden mixing:
  rms(total) = 0.25811E-01    rms(broyden)= 0.25811E-01
  rms(prec ) = 0.39873E-01
  weight for this iteration     100.00

 eigenvalues of (default mixing * dielectric matrix)
  average eigenvalue GAMMA=   1.1957
  2.3926  1.0422  0.7441  0.6040

 Free energy of the ion-electron system (eV)
  ---------------------------------------------------
  alpha Z        PSCENC =        39.18058524
  Ewald energy   TEWEN  =      -761.78120824
  -Hartree energ DENC   =      -132.06059765
  -exchange      EXHF   =         0.00000000
  -V(xc)+E(xc)   XCENC  =        16.49419414
  PAW double counting   =       891.00775293     -943.78823497
  entropy T*S    EENTRO =        -0.00156250
  eigenvalues    EBANDS =        70.56314638
  atomic energy  EATOM  =       813.35773410
  Solvation  Ediel_sol  =         0.00000000
  ---------------------------------------------------
  free energy    TOTEN  =        -7.02819056 eV

  energy without entropy =       -7.02662806  energy(sigma->0) =       -7.02740931


--------------------------------------------------------------------------------------------------------




--------------------------------------- Iteration      1(  10)  ---------------------------------------


    POTLOK:  cpu time      0.0029: real time      0.0030
    SETDIJ:  cpu time      0.0045: real time      0.0045
     EDDAV:  cpu time      0.0510: real time      0.0513
       DOS:  cpu time      0.0002: real time      0.0002
    CHARGE:  cpu time      0.0067: real time      0.0067
    MIXING:  cpu time      0.0002: real time      0.0002
    --------------------------------------------
      LOOP:  cpu time      0.0655: real time      0.0660

 eigenvalue-minimisations  :   628
 total energy-change (2. order) : 0.2557277E-03  (-0.9449213E-04)
 number of electron       9.0000000 magnetization       1.6875781
 augmentation part        5.1224225 magnetization       1.5081404

 Broyden mixing:
  rms(total) = 0.62991E-02    rms(broyden)= 0.62990E-02
  rms(prec ) = 0.66728E-02
  weight for this iteration     100.00

 eigenvalues of (default mixing * dielectric matrix)
  average eigenvalue GAMMA=   1.1665
  2.5209  1.2854  0.7299  0.6483  0.6483

 Free energy of the ion-electron system (eV)
  ---------------------------------------------------
  alpha Z        PSCENC =        39.18058524
  Ewald energy   TEWEN  =      -761.78120824
  -Hartree energ DENC   =      -131.70161857
  -exchange      EXHF   =         0.00000000
  -V(xc)+E(xc)   XCENC  =        16.46167967
  PAW double counting   =       904.30073960     -957.42241515
  entropy T*S    EENTRO =        -0.00171634
  eigenvalues    EBANDS =        70.57828484
  atomic energy  EATOM  =       813.35773410
  Solvation  Ediel_sol  =         0.00000000
  ---------------------------------------------------
  free energy    TOTEN  =        -7.02793483 eV

  energy without entropy =       -7.02621850  energy(sigma->0) =       -7.02707666


--------------------------------------------------------------------------------------------------------




--------------------------------------- Iteration      1(  11)  ---------------------------------------


    POTLOK:  cpu time      0.0029: real time      0.0030
    SETDIJ:  cpu time      0.0045: real time      0.0046
     EDDAV:  cpu time      0.0476: real time      0.0481
       DOS:  cpu time      0.0002: real time      0.0002
    CHARGE:  cpu time      0.0067: real time      0.0067
    MIXING:  cpu time      0.0002: real time      0.0002
    --------------------------------------------
      LOOP:  cpu time      0.0622: real time      0.0628

 eigenvalue-minimisations  :   580
 total energy-change (2. order) :-0.2444799E-04  (-0.1697601E-05)
 number of electron       9.0000000 magnetization       1.6863263
 augmentation part        5.1225273 magnetization       1.5066365

 Broyden mixing:
  rms(total) = 0.48246E-02    rms(broyden)= 0.48245E-02
  rms(prec ) = 0.49984E-02
  weight for this iteration     100.00

 eigenvalues of (default mixing * dielectric matrix)
  average eigenvalue GAMMA=   1.0877
  2.4038  1.2336  0.6200  0.7331  0.7679  0.7679

 Free energy of the ion-electron system (eV)
  ---------------------------------------------------
  alpha Z        PSCENC =        39.18058524
  Ewald energy   TEWEN  =      -761.78120824
  -Hartree energ DENC   =      -131.69229677
  -exchange      EXHF   =         0.00000000
  -V(xc)+E(xc)   XCENC  =        16.46308158
  PAW double counting   =       905.34230931     -958.46830548
  entropy T*S    EENTRO =        -0.00170964
  eigenvalues    EBANDS =        70.57185062
  atomic energy  EATOM  =       813.35773410
  Solvation  Ediel_sol  =         0.00000000
  ---------------------------------------------------
  free energy    TOTEN  =        -7.02795928 eV

  energy without entropy =       -7.02624964  energy(sigma->0) =       -7.02710446


--------------------------------------------------------------------------------------------------------




--------------------------------------- Iteration      1(  12)  ---------------------------------------


    POTLOK:  cpu time      0.0029: real time      0.0030
    SETDIJ:  cpu time      0.0045: real time      0.0045
     EDDAV:  cpu time      0.0394: real time      0.0396
       DOS:  cpu time      0.0002: real time      0.0002
    --------------------------------------------
      LOOP:  cpu time      0.0470: real time      0.0474

 eigenvalue-minimisations  :   424
 total energy-change (2. order) :-0.5780255E-06  (-0.1943698E-06)
 number of electron       9.0000000 magnetization       1.6863263
 augmentation part        5.1225273 magnetization       1.5066365

 Free energy of the ion-electron system (eV)
  ---------------------------------------------------
  alpha Z        PSCENC =        39.18058524
  Ewald energy   TEWEN  =      -761.78120824
  -Hartree energ DENC   =      -131.70602204
  -exchange      EXHF   =         0.00000000
  -V(xc)+E(xc)   XCENC  =        16.46382349
  PAW double counting   =       905.36818111     -958.47822685
  entropy T*S    EENTRO =        -0.00170413
  eigenvalues    EBANDS =        70.56887745
  atomic energy  EATOM  =       813.35773410
  Solvation  Ediel_sol  =         0.00000000
  ---------------------------------------------------
  free energy    TOTEN  =        -7.02795986 eV

  energy without entropy =       -7.02625573  energy(sigma->0) =       -7.02710780


--------------------------------------------------------------------------------------------------------




 average (electrostatic) potential at core
  the test charge radii are     1.0452
  (the norm of the test charge is              1.0000)
       1 -78.2665
 
 
 
 E-fermi :  10.3899     XC(G=0): -13.4288     alpha+bet :-17.7917

 Fermi energy:        10.3899357660

 spin component 1

 k-point     1 :       0.1250    0.1250    0.1250
  band No.  band energies     occupation 
      1       1.9789      1.00000
      2       7.4779      1.00000
      3       7.7623      1.00000
      4       7.7623      1.00000
      5       8.6514      1.00000
      6       8.6514      1.00000
      7      31.1905      0.00000
      8      34.7321      0.00000
      9      37.0249      0.00000
     10      37.0249      0.00000
     11      41.8940      0.00000
     12      42.2875      0.00000

 k-point     2 :       0.3750    0.1250    0.1250
  band No.  band energies     occupation 
      1       4.6156      1.00000
      2       7.1366      1.00000
      3       7.6301      1.00000
      4       7.9578      1.00000
      5       8.6675      1.00000
      6       9.7200      1.00000
      7      23.5183      0.00000
      8      28.8297      0.00000
      9      35.4979      0.00000
     10      37.3617      0.00000
     11      39.8678      0.00000
     12      40.3732      0.00000

 k-point     3 :      -0.3750    0.1250    0.1250
  band No.  band energies     occupation 
      1       5.4706      1.00000
      2       7.2183      1.00000
      3       7.7732      1.00000
      4       8.1791      1.00000
      5       9.6004      1.00000
      6      11.6544      0.00000
      7      17.1157      0.00000
      8      29.7146      0.00000
      9      32.2629      0.00000
     10      33.3279      0.00000
     11      41.5086      0.00000
     12      41.5160      0.00000

 k-point     4 :      -0.1250    0.1250    0.1250
  band No.  band energies     occupation 
      1       3.4594      1.00000
      2       7.0313      1.00000
      3       7.8693      1.00000
      4       8.0708      1.00000
      5       8.5895      1.00000
      6       8.9967      1.00000
      7      27.5319      0.00000
      8      32.4681      0.00000
      9      32.5356      0.00000
     10      35.9158      0.00000
     11      40.4962      0.00000
     12      43.2162      0.00000

 k-point     5 :       0.3750    0.3750    0.1250
  band No.  band energies     occupation 
      1       5.2220      1.00000
      2       6.3651      1.00000
      3       7.9492      1.00000
      4       8.6556      1.00000
      5       9.4460      1.00000
      6       9.9209      1.00000
      7      24.4822      0.00000
      8      27.6934      0.00000
      9      28.5636      0.00000
     10      32.3370      0.00000
     11      37.8650      0.00000
     12      47.0264      0.00000

 k-point     6 :      -0.3750    0.3750    0.1250
  band No.  band energies     occupation 
      1       5.9856      1.00000
      2       6.4374      1.00000
      3       7.5539      1.00000
      4       8.7278      1.00000
      5       9.6589      1.00000
      6      15.3746      0.00000
      7      18.7304      0.00000
      8      22.4170      0.00000
      9      24.7127      0.00000
     10      35.9660      0.00000
     11      42.3187      0.00000
     12      44.4106      0.00000

 k-point     7 :      -0.1250    0.3750    0.1250
  band No.  band energies     occupation 
      1       5.8708      1.00000
      2       6.8246      1.00000
      3       7.2549      1.00000
      4       8.3305      1.00000
      5       9.2571      1.00000
      6      11.5652      0.00000
      7      20.5506      0.00000
      8      26.0250      0.00000
      9      29.1814      0.00000
     10      36.5108      0.00000
     11      40.1824      0.00000
     12      44.7051      0.00000

 k-point     8 :      -0.3750   -0.3750    0.1250
  band No.  band energies     occupation 
      1       5.3294      1.00000
      2       5.9087      1.00000
      3       8.9437      1.00000
      4       9.2066      1.00000
      5       9.7307      1.00000
      6      13.0372      0.00000
      7      21.3905      0.00000
      8      22.7534      0.00000
      9      26.2702      0.00000
     10      31.6185      0.00000
     11      36.8408      0.00000
     12      47.2417      0.00000

 k-point     9 :       0.3750    0.3750    0.3750
  band No.  band energies     occupation 
      1       4.9303      1.00000
      2       7.6140      1.00000
      3       7.6140      1.00000
      4       8.3960      1.00000
      5       9.3385      1.00000
      6       9.3385      1.00000
      7      19.5441      0.00000
      8      32.5473      0.00000
      9      35.5223      0.00000
     10      35.5223      0.00000
     11      38.9270      0.00000
     12      38.9270      0.00000

 k-point    10 :      -0.3750    0.3750    0.3750
  band No.  band energies     occupation 
      1       6.1916      1.00000
      2       6.6610      1.00000
      3       7.4838      1.00000
      4       8.2966      1.00000
      5       9.3371      1.00000
      6      14.0592      0.00000
      7      17.7442      0.00000
      8      23.6249      0.00000
      9      30.5764      0.00000
     10      32.7728      0.00000
     11      44.9533      0.00000
     12      44.9563      0.00000
 Fermi energy:        10.3899357660

 spin component 2

 k-point     1 :       0.1250    0.1250    0.1250
  band No.  band energies     occupation 
      1       2.0013      1.00000
      2       9.0682      1.00000
      3       9.4229      1.00000
      4       9.4229      1.00000
      5      10.6486      0.00000
      6      10.6486      0.00000
      7      31.3212      0.00000
      8      34.5866      0.00000
      9      37.3007      0.00000
     10      37.3007      0.00000
     11      41.8099      0.00000
     12      42.4542      0.00000

 k-point     2 :       0.3750    0.1250    0.1250
  band No.  band energies     occupation 
      1       4.8155      1.00000
      2       8.4743      1.00000
      3       9.3213      1.00000
      4       9.7487      1.00000
      5      10.5271      0.00005
      6      11.5815      0.00000
      7      24.0196      0.00000
      8      29.1022      0.00000
      9      35.4751      0.00000
     10      37.6852      0.00000
     11      39.8853      0.00000
     12      40.7037      0.00000

 k-point     3 :      -0.3750    0.1250    0.1250
  band No.  band energies     occupation 
      1       6.4329      1.00000
      2       8.7127      1.00000
      3       9.3022      1.00000
      4       9.5424      1.00000
      5      11.5704      0.00000
      6      12.7367      0.00000
      7      18.0336      0.00000
      8      29.8257      0.00000
      9      32.6079      0.00000
     10      33.5109      0.00000
     11      41.6527      0.00000
     12      41.7628      0.00000

 k-point     4 :      -0.1250    0.1250    0.1250
  band No.  band energies     occupation 
      1       3.5241      1.00000
      2       8.5215      1.00000
      3       9.6116      1.00000
      4       9.7829      1.00000
      5      10.4002      0.38598
      6      11.0031      0.00000
      7      27.8871      0.00000
      8      32.5050      0.00000
      9      32.8286      0.00000
     10      36.0619      0.00000
     11      41.0785      0.00000
     12      43.3255      0.00000

 k-point     5 :       0.3750    0.3750    0.1250
  band No.  band energies     occupation 
      1       5.7527      1.00000
      2       7.7444      1.00000
      3       9.3960      1.00000
      4      10.4802      0.00534
      5      11.4436      0.00000
      6      11.4520      0.00000
      7      24.8919      0.00000
      8      28.0316      0.00000
      9      28.8729      0.00000
     10      32.6231      0.00000
     11      38.3066      0.00000
     12      48.3482      0.00000

 k-point     6 :      -0.3750    0.3750    0.1250
  band No.  band energies     occupation 
      1       7.2713      1.00000
      2       7.7013      1.00000
      3       8.8640      1.00000
      4      10.6588      0.00000
      5      11.5480      0.00000
      6      16.1289      0.00000
      7      19.3171      0.00000
      8      22.9927      0.00000
      9      25.1122      0.00000
     10      36.1502      0.00000
     11      42.5416      0.00000
     12      44.7820      0.00000

 k-point     7 :      -0.1250    0.3750    0.1250
  band No.  band energies     occupation 
      1       6.5989      1.00000
      2       8.1141      1.00000
      3       8.7682      1.00000
      4      10.1481      1.00000
      5      11.1289      0.00000
      6      12.9499      0.00000
      7      21.1448      0.00000
      8      26.3873      0.00000
      9      29.5166      0.00000
     10      36.6475      0.00000
     11      40.3360      0.00000
     12      45.2956      0.00000

 k-point     8 :      -0.3750   -0.3750    0.1250
  band No.  band energies     occupation 
      1       6.5128      1.00000
      2       7.2233      1.00000
      3      10.3344      0.94196
      4      11.2100      0.00000
      5      11.6684      0.00000
      6      13.7427      0.00000
      7      22.0887      0.00000
      8      23.1293      0.00000
      9      26.4981      0.00000
     10      31.9708      0.00000
     11      37.2526      0.00000
     12      50.9707      0.00000

 k-point     9 :       0.3750    0.3750    0.3750
  band No.  band energies     occupation 
      1       5.5241      1.00000
      2       9.0391      1.00000
      3       9.3592      1.00000
      4       9.3592      1.00000
      5      11.2874      0.00000
      6      11.2874      0.00000
      7      20.2606      0.00000
      8      32.2575      0.00000
      9      35.8859      0.00000
     10      35.8859      0.00000
     11      39.1936      0.00000
     12      39.1936      0.00000

 k-point    10 :      -0.3750    0.3750    0.3750
  band No.  band energies     occupation 
      1       7.2953      1.00000
      2       7.9839      1.00000
      3       8.7903      1.00000
      4      10.1676      1.00000
      5      11.2208      0.00000
      6      14.9788      0.00000
      7      18.4970      0.00000
      8      24.1048      0.00000
      9      30.9282      0.00000
     10      32.9139      0.00000
     11      44.9932      0.00000
     12      45.1345      0.00000


--------------------------------------------------------------------------------------------------------


 soft charge-density along one line, spin component           1
         0         1         2         3         4         5         6         7         8         9
 total charge-density along one line
 
 soft charge-density along one line, spin component           2
         0         1         2         3         4         5         6         7         8         9
 total charge-density along one line
 
 pseudopotential strength for first ion, spin component:           1
 -0.603  -0.000  -0.000  -0.000   0.000  -1.238  -0.000  -0.000
 -0.000  -0.603   0.000  -0.000  -0.000  -0.000  -1.238   0.000
 -0.000   0.000  -0.679   0.000   0.000  -0.000   0.000  -1.311
 -0.000  -0.000   0.000  -0.603   0.000  -0.000  -0.000   0.000
  0.000  -0.000   0.000   0.000  -0.679   0.000  -0.000   0.000
 -1.238  -0.000  -0.000  -0.000   0.000  -1.813  -0.000  -0.000
 -0.000  -1.238   0.000  -0.000  -0.000  -0.000  -1.813   0.000
 -0.000   0.000  -1.311   0.000   0.000  -0.000   0.000  -1.883
 -0.000  -0.000   0.000  -1.238   0.000  -0.000  -0.000   0.000
  0.000  -0.000   0.000   0.000  -1.311   0.000  -0.000   0.000
 -0.000  -0.000   0.000  -0.000   0.000  -0.000  -0.000   0.000
 -0.000  -0.000   0.000  -0.000   0.000  -0.000  -0.000   0.000
 -0.000  -0.000   0.000  -0.000   0.000  -0.000  -0.000   0.000
 -0.000  -0.000  -0.000  -0.000  -0.000   0.000  -0.000  -0.000
 -0.000  -0.000   0.000  -0.000   0.000  -0.000  -0.000   0.000
 -0.000  -0.000   0.000   0.000   0.000  -0.000  -0.000   0.000
 -0.000  -0.000  -0.000  -0.000  -0.000  -0.000  -0.000  -0.000
 -0.000   0.000   0.000  -0.000  -0.000  -0.000   0.000   0.000
 pseudopotential strength for first ion, spin component:           2
  0.729   0.000  -0.000   0.000  -0.000   0.038  -0.000  -0.000
  0.000   0.729   0.000   0.000  -0.000  -0.000   0.038   0.000
 -0.000   0.000   0.800   0.000   0.000  -0.000   0.000   0.107
  0.000   0.000   0.000   0.729   0.000  -0.000  -0.000   0.000
 -0.000  -0.000   0.000   0.000   0.800  -0.000  -0.000   0.000
  0.038  -0.000  -0.000  -0.000  -0.000  -0.591  -0.000  -0.000
 -0.000   0.038   0.000  -0.000  -0.000  -0.000  -0.591   0.000
 -0.000   0.000   0.107   0.000   0.000  -0.000   0.000  -0.524
 -0.000  -0.000   0.000   0.038   0.000  -0.000  -0.000   0.000
 -0.000  -0.000   0.000   0.000   0.107  -0.000  -0.000   0.000
 -0.000  -0.000   0.000  -0.000   0.000  -0.000  -0.000   0.000
 -0.000  -0.000   0.000  -0.000   0.000  -0.000  -0.000   0.000
 -0.000  -0.000   0.000  -0.000   0.000  -0.000  -0.000   0.000
 -0.000  -0.000  -0.000  -0.000  -0.000  -0.000  -0.000  -0.000
 -0.000  -0.000   0.000  -0.000   0.000  -0.000  -0.000   0.000
 -0.000  -0.000   0.000  -0.000   0.000  -0.000  -0.000   0.000
 -0.000  -0.000  -0.000   0.000  -0.000  -0.000  -0.000  -0.000
 -0.000  -0.000   0.000  -0.000  -0.000  -0.000   0.000   0.000
 total augmentation occupancy for first ion, spin component:           1
  2.874   0.000  -0.000   0.000  -0.000  -1.563   0.000   0.000  -0.000  -0.000  -0.000  -0.000   0.000   0.000   0.000   0.000
  0.000   2.874   0.000  -0.000  -0.000  -0.000  -1.563   0.000  -0.000  -0.000   0.000  -0.000   0.000   0.000   0.000   0.000
 -0.000  -0.000   3.195  -0.000   0.000   0.000   0.000  -1.740   0.000   0.000   0.000  -0.000   0.000   0.000   0.000   0.000
  0.000   0.000   0.000   2.874   0.000   0.000   0.000   0.000  -1.563  -0.000   0.000   0.000   0.000   0.000   0.000   0.000
  0.000   0.000   0.000   0.000   3.195  -0.000  -0.000   0.000   0.000  -1.740   0.000   0.000   0.000   0.000   0.000   0.000
 -1.563   0.000   0.000   0.000   0.000   1.832   0.000   0.000   0.000  -0.000   0.000   0.000   0.000   0.000   0.000   0.000
  0.000  -1.563   0.000   0.000  -0.000   0.000   1.832   0.000   0.000   0.000   0.000  -0.000   0.000   0.000   0.000   0.000
  0.000   0.000  -1.740  -0.000   0.000  -0.000   0.000   1.784  -0.000   0.000  -0.000   0.000   0.000   0.000   0.000   0.000
  0.000   0.000  -0.000  -1.563   0.000  -0.000   0.000  -0.000   1.832  -0.000  -0.000   0.000   0.000   0.000   0.000   0.000
  0.000   0.000   0.000  -0.000  -1.740  -0.000   0.000   0.000   0.000   1.784   0.000   0.000   0.000   0.000   0.000   0.000
  0.000   0.000   0.000  -0.000   0.000   0.000   0.000  -0.000   0.000   0.000   2.314  -0.270   0.000   0.000   0.000   0.000
 -0.000  -0.000   0.000  -0.000  -0.000   0.000   0.000   0.000   0.000   0.000  -0.270   0.040   0.000   0.000   0.000   0.000
  0.000   0.000   0.000   0.000   0.000   0.000   0.000   0.000   0.000   0.000   0.000   0.000   0.319   0.000  -0.000  -0.030
  0.000   0.000   0.000   0.000   0.000   0.000   0.000   0.000   0.000   0.000   0.000   0.000   0.000   0.319  -0.000   0.000
  0.000   0.000   0.000   0.000   0.000   0.000   0.000   0.000   0.000   0.000   0.000   0.000   0.000  -0.000   0.319   0.000
  0.000   0.000   0.000   0.000   0.000   0.000   0.000   0.000   0.000   0.000   0.000   0.000  -0.030  -0.000   0.000   0.003
  0.000   0.000   0.000   0.000   0.000   0.000   0.000   0.000   0.000   0.000   0.000   0.000  -0.000  -0.030  -0.000   0.000
  0.000   0.000   0.000   0.000   0.000   0.000   0.000   0.000   0.000   0.000   0.000   0.000   0.000  -0.000  -0.030   0.000
 total augmentation occupancy for first ion, spin component:           2
  2.070   0.000   0.000  -0.000  -0.000  -1.008   0.000  -0.000  -0.000   0.000   0.000  -0.000   0.000   0.000   0.000   0.000
  0.000   2.070   0.000  -0.000   0.000  -0.000  -1.008  -0.000   0.000   0.000   0.000   0.000   0.000   0.000   0.000   0.000
  0.000   0.000   2.257  -0.000   0.000   0.000   0.000  -1.051   0.000   0.000   0.000  -0.000   0.000   0.000   0.000   0.000
 -0.000  -0.000   0.000   2.070  -0.000   0.000   0.000   0.000  -1.008   0.000   0.000  -0.000   0.000   0.000   0.000   0.000
  0.000  -0.000   0.000   0.000   2.257   0.000  -0.000   0.000  -0.000  -1.051   0.000   0.000   0.000   0.000   0.000   0.000
 -1.008  -0.000   0.000   0.000  -0.000   0.287  -0.000  -0.000  -0.000   0.000   0.000   0.000   0.000   0.000   0.000   0.000
 -0.000  -1.008  -0.000   0.000  -0.000  -0.000   0.287   0.000   0.000  -0.000   0.000  -0.000   0.000   0.000   0.000   0.000
 -0.000   0.000  -1.051  -0.000   0.000   0.000  -0.000   0.309  -0.000  -0.000   0.000  -0.000   0.000   0.000   0.000   0.000
  0.000   0.000  -0.000  -1.008  -0.000   0.000  -0.000  -0.000   0.287  -0.000   0.000   0.000   0.000   0.000   0.000   0.000
 -0.000  -0.000   0.000   0.000  -1.051   0.000  -0.000   0.000  -0.000   0.309   0.000   0.000   0.000   0.000   0.000   0.000
  0.000   0.000   0.000   0.000   0.000   0.000  -0.000   0.000  -0.000   0.000  -0.302   0.094   0.000   0.000   0.000   0.000
  0.000   0.000   0.000  -0.000   0.000   0.000   0.000  -0.000   0.000   0.000   0.094  -0.016   0.000   0.000   0.000   0.000
  0.000   0.000   0.000   0.000   0.000   0.000   0.000   0.000   0.000   0.000   0.000   0.000  -0.036   0.000   0.000   0.005
  0.000   0.000   0.000   0.000   0.000   0.000   0.000   0.000   0.000   0.000   0.000   0.000   0.000  -0.036   0.000   0.000
  0.000   0.000   0.000   0.000   0.000   0.000   0.000   0.000   0.000   0.000   0.000   0.000   0.000   0.000  -0.036   0.000
  0.000   0.000   0.000   0.000   0.000   0.000   0.000   0.000   0.000   0.000   0.000   0.000   0.005   0.000   0.000  -0.001
  0.000   0.000   0.000   0.000   0.000   0.000   0.000   0.000   0.000   0.000   0.000   0.000   0.000   0.005  -0.000   0.000
  0.000   0.000   0.000   0.000   0.000   0.000   0.000   0.000   0.000   0.000   0.000   0.000  -0.000   0.000   0.005  -0.000


------------------------ aborting loop because EDIFF is reached ----------------------------------------


    CHARGE:  cpu time      0.0067: real time      0.0068
    FORLOC:  cpu time      0.0000: real time      0.0000
    FORNL :  cpu time      0.0031: real time      0.0031
    STRESS:  cpu time      0.0103: real time      0.0103
    FORCOR:  cpu time      0.0026: real time      0.0027
    FORHAR:  cpu time      0.0003: real time      0.0003
    MIXING:  cpu time      0.0002: real time      0.0002
    OFIELD:  cpu time      0.0000: real time      0.0000

  FORCE on cell =-STRESS in cart. coord.  units (eV):
  Direction    XX          YY          ZZ          XY          YZ          ZX
  --------------------------------------------------------------------------------------
  Alpha Z    39.18059    39.18059    39.18059
  Ewald    -253.92708  -253.92708  -253.92708     0.00000     0.00000     0.00000
  Hartree    43.90074    43.90074    43.90074     0.00000     0.00000     0.00000
  E(xc)     -46.29324   -46.29324   -46.29324    -0.00000    -0.00000    -0.00000
  Local      -9.66775    -9.66775    -9.66775     0.00006     0.00006     0.00006
  n-local    -4.84016    -3.22942    -5.38438     2.38741    -1.89441     0.30264
  augment   155.45159   155.45159   155.45159    -0.00006    -0.00006    -0.00006
  Kinetic    75.28784    74.33167    78.11739    -0.42150     1.48197    -0.22857
  Fock        0.00000     0.00000     0.00000     0.00000     0.00000     0.00000
  -------------------------------------------------------------------------------------
  Total       0.07249     0.07249     0.07249    -0.00000    -0.00000     0.00000
  in kB      10.74275    10.74275    10.74275    -0.00000    -0.00000     0.00000
  external pressure =       10.74 kB  Pullay stress =        0.00 kB


 VOLUME and BASIS-vectors are now :
 -----------------------------------------------------------------------------
  energy-cutoff  :      400.00
  volume of cell :       10.81
      direct lattice vectors                 reciprocal lattice vectors
     0.000000000  1.755000000  1.755000000    -0.284900285  0.284900285  0.284900285
     1.755000000  0.000000000  1.755000000     0.284900285 -0.284900285  0.284900285
     1.755000000  1.755000000  0.000000000     0.284900285  0.284900285 -0.284900285

  length of vectors
     2.481944802  2.481944802  2.481944802     0.493461769  0.493461769  0.493461769


 FORCES acting on ions
    electron-ion (+dipol)            ewald-force                    non-local-force                 convergence-correction
 -----------------------------------------------------------------------------------------------
   0.134E-14 0.103E-14 0.132E-16   0.813E-15 0.404E-15 -.279E-14   -.993E-23 -.662E-23 -.662E-23   0.279E-14 0.859E-14 0.704E-14
 -----------------------------------------------------------------------------------------------
   0.134E-14 0.103E-14 0.132E-16   0.813E-15 0.404E-15 -.279E-14   -.993E-23 -.662E-23 -.662E-23   0.279E-14 0.859E-14 0.704E-14
 
 
 POSITION                                       TOTAL-FORCE (eV/Angst)
 -----------------------------------------------------------------------------------
      0.00000      0.00000      0.00000         0.000000      0.000000     -0.000000
 -----------------------------------------------------------------------------------
    total drift:                                0.000000      0.000000      0.000000


--------------------------------------------------------------------------------------------------------



  FREE ENERGIE OF THE ION-ELECTRON SYSTEM (eV)
  ---------------------------------------------------
  free  energy   TOTEN  =        -7.02795986 eV

  energy  without entropy=       -7.02625573  energy(sigma->0) =       -7.02710780
 


--------------------------------------------------------------------------------------------------------


    POTLOK:  cpu time      0.0079: real time      0.0079


--------------------------------------------------------------------------------------------------------


     LOOP+:  cpu time      0.7512: real time      0.7634
    4ORBIT:  cpu time      0.0000: real time      0.0000

 total amount of memory used by VASP MPI-rank0    30455. kBytes
=======================================================================

   base      :      30000. kBytes
   nonl-proj :         58. kBytes
   fftplans  :         92. kBytes
   grid      :        217. kBytes
   one-center:         31. kBytes
   wavefun   :         57. kBytes
 
  
  
 General timing and accounting informations for this job:
 ========================================================
  
                  Total CPU time used (sec):        1.501
                            User time (sec):        0.988
                          System time (sec):        0.513
                         Elapsed time (sec):        2.988
  
                   Maximum memory used (kb):      217392.
                   Average memory used (kb):          N/A
  
                          Minor page faults:        16548
                          Major page faults:           96
                 Voluntary context switches:         2284
