   2   2   0   0
  0.2137190E+02  0.2470000E-09  0.2470000E-09  0.8090000E-09  0.5000000E-15
  1.000000000000000E-004
  CAR 
 Co fcc                                  
     21.97593049     -5.00641560  301      3.02376456      1.00000000
     -5.006  0.0000E+00  0.0000E+00  0.0000E+00  0.0000E+00
     -4.916  0.0000E+00  0.0000E+00  0.0000E+00  0.0000E+00
     -4.827  0.0000E+00  0.0000E+00  0.0000E+00  0.0000E+00
     -4.737  0.0000E+00  0.0000E+00  0.0000E+00  0.0000E+00
     -4.647 -0.1101E-29  0.0000E+00 -0.9898E-31  0.0000E+00
     -4.557 -0.1373E-26  0.0000E+00 -0.1236E-27  0.0000E+00
     -4.467 -0.1131E-23 -0.1993E-31 -0.1018E-24 -0.1793E-32
     -4.377 -0.6198E-21 -0.3070E-28 -0.5585E-22 -0.2763E-29
     -4.287 -0.2261E-18 -0.3142E-25 -0.2039E-19 -0.2828E-26
     -4.197 -0.5487E-16 -0.2139E-22 -0.4956E-17 -0.1926E-23
     -4.107 -0.8568E-14 -0.9682E-20 -0.7756E-15 -0.8727E-21
     -4.017 -0.9150E-12 -0.2914E-17 -0.8307E-13 -0.2629E-18
     -3.927 -0.6480E-10 -0.5655E-15 -0.5911E-11 -0.5113E-16
     -3.837 -0.3040E-08 -0.7469E-13 -0.2793E-09 -0.6768E-14
     -3.747 -0.9424E-07 -0.6541E-11 -0.8755E-08 -0.5951E-12
     -3.657 -0.1921E-05 -0.3792E-09 -0.1815E-06 -0.3470E-10
     -3.567 -0.2553E-04 -0.1453E-07 -0.2478E-05 -0.1341E-08
     -3.477 -0.2175E-03 -0.3665E-06 -0.2204E-04 -0.3430E-07
     -3.387 -0.1145E-02 -0.6058E-05 -0.1251E-03 -0.5792E-06
     -3.298 -0.3371E-02 -0.6493E-04 -0.4283E-03 -0.6419E-05
     -3.208 -0.3279E-02 -0.4414E-03 -0.7232E-03 -0.4612E-04
     -3.118  0.1145E-01 -0.1803E-02  0.3066E-03 -0.2083E-03
     -3.028  0.4802E-01 -0.3666E-02  0.4626E-02 -0.5380E-03
     -2.938  0.8599E-01  0.8211E-03  0.1236E-01 -0.4641E-03
     -2.848  0.9924E-01  0.2375E-01  0.2129E-01  0.1672E-02
     -2.758  0.9543E-01  0.6072E-01  0.2987E-01  0.7133E-02
     -2.668  0.9576E-01  0.8293E-01  0.3848E-01  0.1459E-01
     -2.578  0.9413E-01  0.7855E-01  0.4695E-01  0.2166E-01
     -2.488  0.6782E-01  0.6643E-01  0.5305E-01  0.2763E-01
     -2.398  0.1944E-01  0.5851E-01  0.5480E-01  0.3289E-01
     -2.308 -0.2278E-01  0.6063E-01  0.5275E-01  0.3835E-01
     -2.218 -0.1423E-01  0.7062E-01  0.5147E-01  0.4470E-01
     -2.128  0.1178E+00  0.5985E-01  0.6206E-01  0.5008E-01
     -2.038  0.3756E+00  0.1991E-01  0.9585E-01  0.5187E-01
     -1.948  0.6030E+00  0.1306E-01  0.1501E+00  0.5305E-01
     -1.858  0.6872E+00  0.1314E+00  0.2119E+00  0.6486E-01
     -1.769  0.6965E+00  0.3525E+00  0.2745E+00  0.9656E-01
     -1.679  0.6511E+00  0.4969E+00  0.3331E+00  0.1413E+00
     -1.589  0.4626E+00  0.4786E+00  0.3747E+00  0.1843E+00
     -1.499  0.1861E+00  0.4050E+00  0.3914E+00  0.2207E+00
     -1.409 -0.7776E-02  0.3557E+00  0.3907E+00  0.2527E+00
     -1.319 -0.7632E-01  0.3700E+00  0.3839E+00  0.2860E+00
     -1.229 -0.3381E-01  0.4408E+00  0.3808E+00  0.3256E+00
     -1.139  0.2170E+00  0.4203E+00  0.4004E+00  0.3635E+00
     -1.049  0.7405E+00  0.2489E+00  0.4670E+00  0.3858E+00
     -0.959  0.1342E+01  0.6862E-01  0.5876E+00  0.3920E+00
     -0.869  0.1558E+01 -0.1056E-01  0.7278E+00  0.3911E+00
     -0.779  0.1058E+01 -0.1624E-01  0.8229E+00  0.3896E+00
     -0.689  0.4290E+00 -0.6312E-02  0.8615E+00  0.3890E+00
     -0.599  0.1016E+01 -0.1489E-02  0.9529E+00  0.3889E+00
     -0.509  0.2998E+01 -0.1414E-02  0.1223E+01  0.3888E+00
     -0.419  0.4466E+01 -0.6640E-02  0.1624E+01  0.3882E+00
     -0.329  0.4245E+01 -0.2032E-01  0.2006E+01  0.3863E+00
     -0.240  0.3709E+01 -0.2504E-01  0.2340E+01  0.3841E+00
     -0.150  0.3700E+01  0.4296E-01  0.2672E+01  0.3880E+00
     -0.060  0.3536E+01  0.2304E+00  0.2990E+01  0.4087E+00
      0.030  0.3403E+01  0.4875E+00  0.3297E+01  0.4525E+00
      0.120  0.3622E+01  0.8127E+00  0.3622E+01  0.5256E+00
      0.210  0.3347E+01  0.1328E+01  0.3923E+01  0.6450E+00
      0.300  0.2420E+01  0.1941E+01  0.4141E+01  0.8196E+00
      0.390  0.2071E+01  0.2165E+01  0.4327E+01  0.1014E+01
      0.480  0.2558E+01  0.1626E+01  0.4558E+01  0.1161E+01
      0.570  0.2746E+01  0.6707E+00  0.4805E+01  0.1221E+01
      0.660  0.2922E+01 -0.3191E-01  0.5067E+01  0.1218E+01
      0.750  0.4724E+01 -0.1119E+00  0.5492E+01  0.1208E+01
      0.840  0.7386E+01  0.6707E+00  0.6156E+01  0.1268E+01
      0.930  0.7969E+01  0.2059E+01  0.6873E+01  0.1453E+01
      1.020  0.6430E+01  0.2715E+01  0.7452E+01  0.1698E+01
      1.110  0.5456E+01  0.1835E+01  0.7942E+01  0.1863E+01
      1.200  0.5329E+01  0.4932E+00  0.8422E+01  0.1907E+01
      1.289  0.4838E+01 -0.1493E+00  0.8857E+01  0.1894E+01
      1.379  0.4314E+01 -0.1274E+00  0.9245E+01  0.1882E+01
      1.469  0.3785E+01  0.2140E+00  0.9585E+01  0.1901E+01
      1.559  0.2531E+01  0.9248E+00  0.9813E+01  0.1985E+01
      1.649  0.1006E+01  0.2388E+01  0.9903E+01  0.2199E+01
      1.739  0.2108E+00  0.4571E+01  0.9922E+01  0.2611E+01
      1.829  0.2762E+00  0.6237E+01  0.9947E+01  0.3172E+01
      1.919  0.8100E+00  0.5965E+01  0.1002E+02  0.3708E+01
      2.009  0.1474E+01  0.3955E+01  0.1015E+02  0.4064E+01
      2.099  0.1835E+01  0.1981E+01  0.1032E+02  0.4242E+01
      2.189  0.1631E+01  0.1522E+01  0.1046E+02  0.4379E+01
      2.279  0.1153E+01  0.2132E+01  0.1057E+02  0.4571E+01
      2.369  0.9294E+00  0.2288E+01  0.1065E+02  0.4776E+01
      2.459  0.1190E+01  0.1764E+01  0.1076E+02  0.4935E+01
      2.549  0.1483E+01  0.1781E+01  0.1089E+02  0.5095E+01
      2.639  0.1228E+01  0.2881E+01  0.1100E+02  0.5354E+01
      2.729  0.6257E+00  0.4009E+01  0.1106E+02  0.5715E+01
      2.818  0.1969E+00  0.4098E+01  0.1108E+02  0.6083E+01
      2.908  0.3419E-01  0.3746E+01  0.1108E+02  0.6420E+01
      2.998 -0.8998E-02  0.4189E+01  0.1108E+02  0.6797E+01
      3.088 -0.1401E-01  0.5293E+01  0.1108E+02  0.7273E+01
      3.178 -0.7759E-02  0.5740E+01  0.1108E+02  0.7789E+01
      3.268 -0.3442E-02  0.5006E+01  0.1108E+02  0.8240E+01
      3.358 -0.4991E-02  0.4210E+01  0.1108E+02  0.8618E+01
      3.448 -0.8940E-02  0.4239E+01  0.1108E+02  0.8999E+01
      3.538  0.5468E-02  0.4310E+01  0.1108E+02  0.9387E+01
      3.628  0.6783E-01  0.3506E+01  0.1108E+02  0.9702E+01
      3.718  0.1494E+00  0.2373E+01  0.1110E+02  0.9916E+01
      3.808  0.1568E+00  0.1739E+01  0.1111E+02  0.1007E+02
      3.898  0.7479E-01  0.1683E+01  0.1112E+02  0.1022E+02
      3.988  0.1521E-01  0.2178E+01  0.1112E+02  0.1042E+02
      4.078  0.8469E-01  0.2640E+01  0.1112E+02  0.1066E+02
      4.168  0.2631E+00  0.2089E+01  0.1115E+02  0.1084E+02
      4.258  0.3773E+00  0.8420E+00  0.1118E+02  0.1092E+02
      4.347  0.2895E+00  0.7129E-02  0.1121E+02  0.1092E+02
      4.437  0.1048E+00 -0.8940E-01  0.1122E+02  0.1091E+02
      4.527 -0.2713E-02  0.2894E+00  0.1122E+02  0.1094E+02
      4.617 -0.1851E-01  0.7615E+00  0.1122E+02  0.1101E+02
      4.707 -0.1113E-01  0.8490E+00  0.1122E+02  0.1108E+02
      4.797 -0.1908E-01  0.4771E+00  0.1121E+02  0.1113E+02
      4.887 -0.4702E-01  0.1207E+00  0.1121E+02  0.1114E+02
      4.977 -0.3506E-01  0.1052E+00  0.1121E+02  0.1115E+02
      5.067  0.1830E+00  0.2734E+00  0.1122E+02  0.1117E+02
      5.157  0.6827E+00  0.3611E+00  0.1128E+02  0.1120E+02
      5.247  0.1185E+01  0.3564E+00  0.1139E+02  0.1124E+02
      5.337  0.1408E+01  0.3590E+00  0.1152E+02  0.1127E+02
      5.427  0.1466E+01  0.3575E+00  0.1165E+02  0.1130E+02
      5.517  0.1373E+01  0.3317E+00  0.1177E+02  0.1133E+02
      5.607  0.9960E+00  0.2875E+00  0.1186E+02  0.1136E+02
      5.697  0.6843E+00  0.1897E+00  0.1192E+02  0.1137E+02
      5.787  0.7699E+00  0.5071E-01  0.1199E+02  0.1138E+02
      5.876  0.9044E+00 -0.1491E-01  0.1207E+02  0.1138E+02
      5.966  0.7302E+00  0.1671E+00  0.1214E+02  0.1139E+02
      6.056  0.4014E+00  0.6887E+00  0.1218E+02  0.1145E+02
      6.146  0.2061E+00  0.1252E+01  0.1219E+02  0.1157E+02
      6.236  0.2392E+00  0.1410E+01  0.1222E+02  0.1169E+02
      6.326  0.3264E+00  0.1203E+01  0.1225E+02  0.1180E+02
      6.416  0.2586E+00  0.9122E+00  0.1227E+02  0.1188E+02
      6.506  0.1056E+00  0.6829E+00  0.1228E+02  0.1194E+02
      6.596  0.5421E-01  0.6765E+00  0.1228E+02  0.1201E+02
      6.686  0.1225E+00  0.8295E+00  0.1229E+02  0.1208E+02
      6.776  0.2234E+00  0.8848E+00  0.1231E+02  0.1216E+02
      6.866  0.3152E+00  0.7453E+00  0.1234E+02  0.1223E+02
      6.956  0.3562E+00  0.4565E+00  0.1237E+02  0.1227E+02
      7.046  0.3353E+00  0.1934E+00  0.1240E+02  0.1229E+02
      7.136  0.3301E+00  0.1097E+00  0.1243E+02  0.1230E+02
      7.226  0.3154E+00  0.1183E+00  0.1246E+02  0.1231E+02
      7.316  0.2417E+00  0.1190E+00  0.1248E+02  0.1232E+02
      7.405  0.2354E+00  0.1990E+00  0.1251E+02  0.1233E+02
      7.495  0.3096E+00  0.3875E+00  0.1253E+02  0.1237E+02
      7.585  0.2769E+00  0.5224E+00  0.1256E+02  0.1242E+02
      7.675  0.1426E+00  0.4628E+00  0.1257E+02  0.1246E+02
      7.765  0.9536E-01  0.2518E+00  0.1258E+02  0.1248E+02
      7.855  0.1433E+00  0.9399E-01  0.1259E+02  0.1249E+02
      7.945  0.1386E+00  0.1472E+00  0.1261E+02  0.1250E+02
      8.035  0.5327E-01  0.2956E+00  0.1261E+02  0.1253E+02
      8.125 -0.1588E-02  0.2975E+00  0.1261E+02  0.1256E+02
      8.215  0.7047E-01  0.1620E+00  0.1262E+02  0.1257E+02
      8.305  0.2443E+00  0.9787E-01  0.1264E+02  0.1258E+02
      8.395  0.3417E+00  0.1369E+00  0.1267E+02  0.1259E+02
      8.485  0.2427E+00  0.1325E+00  0.1269E+02  0.1260E+02
      8.575  0.7239E-01  0.6150E-01  0.1270E+02  0.1261E+02
      8.665 -0.1831E-01  0.6806E-01  0.1270E+02  0.1261E+02
      8.755 -0.3476E-01  0.2142E+00  0.1269E+02  0.1263E+02
      8.845 -0.3841E-02  0.3359E+00  0.1269E+02  0.1266E+02
      8.934  0.1116E+00  0.2665E+00  0.1270E+02  0.1269E+02
      9.024  0.2869E+00  0.9607E-01  0.1273E+02  0.1270E+02
      9.114  0.4062E+00 -0.5089E-02  0.1276E+02  0.1270E+02
      9.204  0.4621E+00 -0.2494E-01  0.1281E+02  0.1269E+02
      9.294  0.5364E+00 -0.2613E-01  0.1285E+02  0.1269E+02
      9.384  0.5697E+00 -0.6018E-02  0.1291E+02  0.1269E+02
      9.474  0.4479E+00  0.9970E-01  0.1295E+02  0.1270E+02
      9.564  0.2644E+00  0.2933E+00  0.1297E+02  0.1273E+02
      9.654  0.2635E+00  0.4559E+00  0.1299E+02  0.1277E+02
      9.744  0.5943E+00  0.4759E+00  0.1305E+02  0.1281E+02
      9.834  0.1128E+01  0.3350E+00  0.1315E+02  0.1284E+02
      9.924  0.1437E+01  0.1552E+00  0.1328E+02  0.1285E+02
     10.014  0.1246E+01  0.2105E+00  0.1339E+02  0.1287E+02
     10.104  0.7729E+00  0.6167E+00  0.1346E+02  0.1293E+02
     10.194  0.3607E+00  0.1069E+01  0.1349E+02  0.1303E+02
     10.284  0.1504E+00  0.1201E+01  0.1350E+02  0.1313E+02
     10.374  0.1297E+00  0.1062E+01  0.1352E+02  0.1323E+02
     10.463  0.1720E+00  0.8942E+00  0.1353E+02  0.1331E+02
     10.553  0.1456E+00  0.7383E+00  0.1355E+02  0.1338E+02
     10.643  0.1246E+00  0.5518E+00  0.1356E+02  0.1343E+02
     10.733  0.3025E+00  0.3866E+00  0.1358E+02  0.1346E+02
     10.823  0.6107E+00  0.2855E+00  0.1364E+02  0.1349E+02
     10.913  0.7096E+00  0.2207E+00  0.1370E+02  0.1351E+02
     11.003  0.5353E+00  0.2008E+00  0.1375E+02  0.1352E+02
     11.093  0.3505E+00  0.3155E+00  0.1378E+02  0.1355E+02
     11.183  0.3466E+00  0.5913E+00  0.1381E+02  0.1361E+02
     11.273  0.6289E+00  0.7575E+00  0.1387E+02  0.1367E+02
     11.363  0.1016E+01  0.5564E+00  0.1396E+02  0.1372E+02
     11.453  0.1037E+01  0.2377E+00  0.1405E+02  0.1374E+02
     11.543  0.6711E+00  0.1523E+00  0.1411E+02  0.1376E+02
     11.633  0.3854E+00  0.2545E+00  0.1415E+02  0.1378E+02
     11.723  0.4266E+00  0.3750E+00  0.1419E+02  0.1381E+02
     11.813  0.6640E+00  0.5741E+00  0.1425E+02  0.1387E+02
     11.903  0.9434E+00  0.9516E+00  0.1433E+02  0.1395E+02
     11.992  0.1198E+01  0.1221E+01  0.1444E+02  0.1406E+02
     12.082  0.1251E+01  0.1031E+01  0.1455E+02  0.1415E+02
     12.172  0.9652E+00  0.5859E+00  0.1464E+02  0.1421E+02
     12.262  0.5637E+00  0.2661E+00  0.1469E+02  0.1423E+02
     12.352  0.3221E+00  0.1622E+00  0.1472E+02  0.1425E+02
     12.442  0.2219E+00  0.3124E+00  0.1474E+02  0.1427E+02
     12.532  0.3106E+00  0.7553E+00  0.1477E+02  0.1434E+02
     12.622  0.7234E+00  0.1216E+01  0.1483E+02  0.1445E+02
     12.712  0.1097E+01  0.1272E+01  0.1493E+02  0.1457E+02
     12.802  0.9347E+00  0.9685E+00  0.1501E+02  0.1465E+02
     12.892  0.4572E+00  0.7695E+00  0.1506E+02  0.1472E+02
     12.982  0.1727E+00  0.8001E+00  0.1507E+02  0.1479E+02
     13.072  0.1085E+00  0.8315E+00  0.1508E+02  0.1487E+02
     13.162  0.6716E-01  0.8669E+00  0.1509E+02  0.1495E+02
     13.252  0.7087E-01  0.8701E+00  0.1509E+02  0.1502E+02
     13.342  0.2027E+00  0.6045E+00  0.1511E+02  0.1508E+02
     13.432  0.3300E+00  0.2003E+00  0.1514E+02  0.1510E+02
     13.521  0.2699E+00 -0.2083E-01  0.1517E+02  0.1510E+02
     13.611  0.9042E-01 -0.5155E-01  0.1517E+02  0.1509E+02
     13.701 -0.8645E-02 -0.3350E-01  0.1517E+02  0.1509E+02
     13.791  0.5737E-01  0.1632E-01  0.1518E+02  0.1509E+02
     13.881  0.2212E+00  0.1538E+00  0.1520E+02  0.1510E+02
     13.971  0.3311E+00  0.3060E+00  0.1523E+02  0.1513E+02
     14.061  0.3704E+00  0.2883E+00  0.1526E+02  0.1516E+02
     14.151  0.4784E+00  0.1291E+00  0.1530E+02  0.1517E+02
     14.241  0.6547E+00  0.1280E+00  0.1536E+02  0.1518E+02
     14.331  0.7914E+00  0.4269E+00  0.1543E+02  0.1522E+02
     14.421  0.7816E+00  0.7037E+00  0.1550E+02  0.1528E+02
     14.511  0.5282E+00  0.5911E+00  0.1555E+02  0.1533E+02
     14.601  0.1772E+00  0.2685E+00  0.1557E+02  0.1536E+02
     14.691 -0.2200E-01  0.1506E+00  0.1557E+02  0.1537E+02
     14.781 -0.5289E-01  0.3243E+00  0.1556E+02  0.1540E+02
     14.871  0.8489E-02  0.5898E+00  0.1556E+02  0.1545E+02
     14.961  0.1592E+00  0.6581E+00  0.1558E+02  0.1551E+02
     15.050  0.3184E+00  0.4337E+00  0.1561E+02  0.1555E+02
     15.140  0.3134E+00  0.2060E+00  0.1563E+02  0.1557E+02
     15.230  0.1529E+00  0.2232E+00  0.1565E+02  0.1559E+02
     15.320  0.1835E-01  0.3141E+00  0.1565E+02  0.1562E+02
     15.410 -0.1767E-01  0.2425E+00  0.1565E+02  0.1564E+02
     15.500 -0.1007E-01  0.8092E-01  0.1565E+02  0.1565E+02
     15.590 -0.2526E-02 -0.7386E-02  0.1565E+02  0.1565E+02
     15.680 -0.3646E-03 -0.1604E-01  0.1565E+02  0.1565E+02
     15.770 -0.3310E-04 -0.5995E-02  0.1565E+02  0.1565E+02
     15.860 -0.1358E-04 -0.1169E-02  0.1565E+02  0.1565E+02
     15.950 -0.1561E-03 -0.1364E-03  0.1565E+02  0.1565E+02
     16.040 -0.1300E-02 -0.1035E-04  0.1565E+02  0.1565E+02
     16.130 -0.6462E-02 -0.8126E-05  0.1565E+02  0.1565E+02
     16.220 -0.1648E-01 -0.1090E-03  0.1564E+02  0.1565E+02
     16.310 -0.4855E-02 -0.9770E-03  0.1564E+02  0.1565E+02
     16.400  0.9101E-01 -0.5287E-02  0.1565E+02  0.1565E+02
     16.490  0.2609E+00 -0.1532E-01  0.1567E+02  0.1564E+02
     16.579  0.3389E+00 -0.1126E-01  0.1571E+02  0.1564E+02
     16.669  0.2319E+00  0.6747E-01  0.1573E+02  0.1565E+02
     16.759  0.8855E-01  0.2359E+00  0.1573E+02  0.1567E+02
     16.849  0.4020E-01  0.3545E+00  0.1574E+02  0.1570E+02
     16.939  0.3867E-01  0.2943E+00  0.1574E+02  0.1573E+02
     17.029  0.2248E-01  0.1412E+00  0.1574E+02  0.1574E+02
     17.119  0.3067E-02  0.3528E-01  0.1574E+02  0.1574E+02
     17.209 -0.3268E-02 -0.2296E-02  0.1574E+02  0.1574E+02
     17.299 -0.3803E-02 -0.7280E-02  0.1574E+02  0.1574E+02
     17.389 -0.9139E-02 -0.4159E-02  0.1574E+02  0.1574E+02
     17.479 -0.1778E-01 -0.3364E-02  0.1574E+02  0.1574E+02
     17.569  0.8291E-02 -0.9507E-02  0.1574E+02  0.1574E+02
     17.659  0.1295E+00 -0.1779E-01  0.1575E+02  0.1574E+02
     17.749  0.2968E+00  0.1267E-01  0.1578E+02  0.1574E+02
     17.839  0.3278E+00  0.1402E+00  0.1581E+02  0.1575E+02
     17.929  0.1755E+00  0.3050E+00  0.1582E+02  0.1578E+02
     18.019  0.1332E-01  0.3255E+00  0.1583E+02  0.1581E+02
     18.108 -0.9033E-02  0.1746E+00  0.1583E+02  0.1583E+02
     18.198  0.1448E+00  0.2549E-01  0.1584E+02  0.1583E+02
     18.288  0.3878E+00 -0.3029E-01  0.1587E+02  0.1583E+02
     18.378  0.4865E+00 -0.3012E-01  0.1592E+02  0.1582E+02
     18.468  0.3268E+00  0.2747E-01  0.1595E+02  0.1583E+02
     18.558  0.9678E-01  0.1945E+00  0.1595E+02  0.1584E+02
     18.648 -0.8251E-02  0.4120E+00  0.1595E+02  0.1588E+02
     18.738 -0.3131E-02  0.4805E+00  0.1595E+02  0.1592E+02
     18.828  0.2062E-01  0.3201E+00  0.1596E+02  0.1595E+02
     18.918  0.2162E-01  0.1020E+00  0.1596E+02  0.1596E+02
     19.008  0.8670E-02 -0.7010E-02  0.1596E+02  0.1596E+02
     19.098 -0.3114E-04 -0.1946E-01  0.1596E+02  0.1596E+02
     19.188 -0.1428E-02 -0.7986E-02  0.1596E+02  0.1596E+02
     19.278 -0.6144E-03 -0.1764E-02  0.1596E+02  0.1596E+02
     19.368 -0.2077E-03 -0.2742E-03  0.1596E+02  0.1596E+02
     19.458 -0.6690E-03 -0.3401E-03  0.1596E+02  0.1596E+02
     19.548 -0.3241E-02 -0.1928E-02  0.1596E+02  0.1596E+02
     19.637 -0.8247E-02 -0.6469E-02  0.1596E+02  0.1596E+02
     19.727 -0.2351E-02 -0.7657E-02  0.1596E+02  0.1596E+02
     19.817  0.4587E-01  0.2186E-01  0.1596E+02  0.1596E+02
     19.907  0.1314E+00  0.1000E+00  0.1597E+02  0.1597E+02
     19.997  0.1709E+00  0.1677E+00  0.1599E+02  0.1598E+02
     20.087  0.1143E+00  0.1435E+00  0.1600E+02  0.1600E+02
     20.177  0.3156E-01  0.5853E-01  0.1600E+02  0.1600E+02
     20.267 -0.5938E-02  0.1784E-02  0.1600E+02  0.1600E+02
     20.357 -0.7322E-02 -0.8734E-02  0.1600E+02  0.1600E+02
     20.447 -0.2447E-02 -0.3968E-02  0.1600E+02  0.1600E+02
     20.537 -0.4404E-03 -0.8767E-03  0.1600E+02  0.1600E+02
     20.627 -0.4795E-04 -0.1139E-03  0.1600E+02  0.1600E+02
     20.717 -0.3292E-05 -0.9228E-05  0.1600E+02  0.1600E+02
     20.807 -0.1455E-06 -0.4784E-06  0.1600E+02  0.1600E+02
     20.897 -0.4187E-08 -0.1609E-07  0.1600E+02  0.1600E+02
     20.987 -0.7896E-10 -0.3538E-09  0.1600E+02  0.1600E+02
     21.077 -0.9802E-12 -0.5115E-11  0.1600E+02  0.1600E+02
     21.166 -0.8126E-14 -0.4876E-13  0.1600E+02  0.1600E+02
     21.256  0.0000E+00 -0.3086E-15  0.1600E+02  0.1600E+02
     21.346  0.0000E+00  0.0000E+00  0.1600E+02  0.1600E+02
     21.436  0.0000E+00  0.0000E+00  0.1600E+02  0.1600E+02
     21.526  0.0000E+00  0.0000E+00  0.1600E+02  0.1600E+02
     21.616  0.0000E+00  0.0000E+00  0.1600E+02  0.1600E+02
     21.706  0.0000E+00  0.0000E+00  0.1600E+02  0.1600E+02
     21.796  0.0000E+00  0.0000E+00  0.1600E+02  0.1600E+02
     21.886  0.0000E+00  0.0000E+00  0.1600E+02  0.1600E+02
     21.976  0.0000E+00  0.0000E+00  0.1600E+02  0.1600E+02
