    2    2    1    2
  0.2137190E+02  0.2470000E-09  0.2470000E-09  0.8090000E-09  0.5000000E-15
  1.000000000000000E-004
  CAR 
 Co fcc                                  
     18     21     16
 
  0.0000000E+00  0.0000000E+00  0.0000000E+00  0.6944444E-02
      1         -3.006416       -2.777986   1.000000   1.000000
      2         -2.546244       -2.134489   1.000000   1.000000
      3         -0.291480        1.496107   1.000000   1.000000
      4          0.719578        2.181410   1.000000   1.000000
      5          0.719580        2.571261   1.000000   1.003130
      6          0.720211        2.571264   1.000000   1.003130
      7          0.720213        2.572129   1.000000   1.003184
      8          0.732013        2.572132   1.000000   1.003184
      9          1.426024        2.706105   1.000000   1.023607
     10          1.426028        3.851563   1.000000  -0.000000
     11          1.429375        3.851565   1.000000  -0.000000
     12          1.429379        3.856067   1.000000  -0.000000
     13          2.136831        3.856069   1.000000  -0.000000
     14          6.412213        6.699111  -0.000000  -0.000000
     15         10.845135       11.198734   0.000000   0.000000
     16         18.800598       18.785330   0.000000   0.000000
 
  0.1666667E+00 -0.1387779E-16  0.0000000E+00  0.4166667E-01
      1         -2.040876       -1.783956   1.000000   1.000000
      2         -1.649756       -1.146290   1.000000   1.000000
      3          0.000393        1.850758   1.000000   1.000000
      4          0.481077        1.988461   1.000000   1.000000
      5          0.490167        2.252560   1.000000   1.000000
      6          0.524981        2.269084   1.000000   1.000001
      7          0.804852        2.917357   1.000000   0.887185
      8          0.996117        2.950286   1.000000   0.788874
      9          1.129589        3.029049   1.000000   0.477646
     10          1.130423        3.030294   1.000000   0.472386
     11          1.345539        3.755394   1.000000  -0.000001
     12          1.351989        3.764420   1.000000  -0.000001
     13          3.728904        4.676441  -0.000004  -0.000000
     14          7.847317        8.392685  -0.000000  -0.000000
     15         11.470867       11.738673   0.000000   0.000000
     16         19.943064       19.975930   0.000000   0.000000
 
  0.3333333E+00 -0.2775558E-16  0.0000000E+00  0.4166667E-01
      1         -0.903448        0.178552   1.000000   1.000000
      2         -0.854313        0.404737   1.000000   1.000000
      3         -0.197759        1.627791   1.000000   1.000000
      4         -0.037675        1.972624   1.000000   1.000000
      5          0.622219        2.389778   1.000000   1.000035
      6          0.787380        2.765962   1.000000   1.034875
      7          1.187561        2.847080   1.000000   1.008421
      8          1.198439        3.538214   1.000000  -0.000833
      9          1.769865        3.567382   1.000000  -0.000414
     10          2.028129        3.582909   1.000000  -0.000280
     11          2.028635        4.047599   1.000000  -0.000000
     12          2.701106        4.048396   1.022452  -0.000000
     13          6.700790        7.171048  -0.000000  -0.000000
     14         11.073204       11.686577   0.000000   0.000000
     15         13.012374       13.194331   0.000000   0.000000
     16         14.216725       14.712351   0.000000   0.000000
 
  0.5000000E+00 -0.5551115E-16  0.0000000E+00  0.2083333E-01
      1         -1.042598        0.352747   1.000000   1.000000
      2         -1.039457        0.367510   1.000000   1.000000
      3         -0.440062        1.486293   1.000000   1.000000
      4         -0.373302        1.599984   1.000000   1.000000
      5          0.938088        3.191523   1.000000   0.000683
      6          1.032901        3.332964   1.000000  -0.025563
      7          1.109821        3.475163   1.000000  -0.003198
      8          1.122587        3.493466   1.000000  -0.002218
      9          2.527094        4.624919   1.001247  -0.000000
     10          2.527161        4.625041   1.001249  -0.000000
     11          5.236297        5.263485  -0.000000  -0.000000
     12          5.589652        5.641400  -0.000000  -0.000000
     13          9.219018       10.095419   0.000000   0.000000
     14         10.037434       10.739425   0.000000   0.000000
     15         10.441872       10.964195   0.000000   0.000000
     16         11.578434       11.851026   0.000000   0.000000
 
  0.1666667E+00  0.1666667E+00  0.0000000E+00  0.4166667E-01
      1         -0.530088       -0.036463   1.000000   1.000000
      2         -0.392875        0.490813   1.000000   1.000000
      3          0.017168        1.767242   1.000000   1.000000
      4          0.108107        1.773463   1.000000   1.000000
      5          0.112080        1.779083   1.000000   1.000000
      6          0.226123        2.269908   1.000000   1.000001
      7          0.516950        2.446449   1.000000   1.000174
      8          1.131337        3.231561   1.000000  -0.028714
      9          1.139324        3.491386   1.000000  -0.002314
     10          1.222650        3.503491   1.000000  -0.001799
     11          2.189325        4.010917   1.000000  -0.000000
     12          2.577669        4.144645   1.003543  -0.000000
     13          5.803772        6.391190  -0.000000  -0.000000
     14         10.150029       10.784589   0.000000   0.000000
     15         12.777304       12.913926   0.000000   0.000000
     16         18.270511       18.597750   0.000000   0.000000
 
  0.3333333E+00  0.1666667E+00  0.0000000E+00  0.8333333E-01
      1         -0.472375        0.949860   1.000000   1.000000
      2         -0.465860        0.984875   1.000000   1.000000
      3         -0.238842        1.705006   1.000000   1.000000
      4         -0.150208        1.872583   1.000000   1.000000
      5          0.829519        2.660359   1.000000   1.013786
      6          0.842233        2.731768   1.000000   1.029393
      7          0.855679        3.128156   1.000000   0.118081
      8          0.879073        3.132553   1.000000   0.106728
      9          1.362125        3.147192   1.000000   0.072444
     10          1.524558        3.456820   1.000000  -0.004521
     11          5.158714        6.110735  -0.000000  -0.000000
     12          5.977553        6.784294  -0.000000  -0.000000
     13          9.402041        9.761156   0.000000   0.000000
     14         11.324688       11.946949   0.000000   0.000000
     15         12.348671       12.992589   0.000000   0.000000
     16         13.404802       13.972102   0.000000   0.000000
 
  0.3333333E+00  0.3333333E+00  0.0000000E+00  0.1388889E-01
      1          0.177184        1.910986   1.000000   1.000000
      2          0.213971        1.942032   1.000000   1.000000
      3          0.213975        1.942036   1.000000   1.000000
      4          0.253002        1.979996   1.000000   1.000000
      5          0.445915        2.270096   1.000000   1.000001
      6          0.461305        2.332069   1.000000   1.000006
      7          0.461309        2.332073   1.000000   1.000006
      8          0.482480        2.398929   1.000000   1.000046
      9          0.967236        3.324467   1.000000  -0.027495
     10          0.967239        3.324470   1.000000  -0.027494
     11          9.683270       10.210922   0.000000   0.000000
     12          9.938191       10.508640   0.000000   0.000000
     13          9.938193       10.508643   0.000000   0.000000
     14         10.589126       11.204655   0.000000   0.000000
     15         12.040202       12.796071   0.000000   0.000000
     16         12.040206       12.796073   0.000000   0.000000
 
  0.0000000E+00  0.0000000E+00  0.2500000E+00  0.1388889E-01
      1         -2.941697       -2.697031   1.000000   1.000000
      2         -2.615566       -2.244951   1.000000   1.000000
      3         -0.226139        1.525932   1.000000   1.000000
      4          0.390186        1.871487   1.000000   1.000000
      5          0.719640        2.571331   1.000000   1.003134
      6          0.719642        2.571334   1.000000   1.003135
      7          0.720163        2.572077   1.000000   1.003180
      8          0.720164        2.572080   1.000000   1.003180
      9          1.426529        3.377605   1.000000  -0.015643
     10          1.426533        3.852287   1.000000  -0.000000
     11          1.428842        3.852289   1.000000  -0.000000
     12          1.428846        3.855356   1.000000  -0.000000
     13          2.807215        3.855358   1.031720  -0.000000
     14          5.579974        5.931322  -0.000000  -0.000000
     15         11.946032       12.246281   0.000000   0.000000
     16         16.852722       16.987840   0.000000   0.000000
 
  0.1666667E+00 -0.1387779E-16  0.2500000E+00  0.8333333E-01
      1         -1.983011       -1.703947   1.000000   1.000000
      2         -1.705264       -1.256162   1.000000   1.000000
      3          0.051158        1.859922   1.000000   1.000000
      4          0.417292        1.948809   1.000000   1.000000
      5          0.489901        2.257431   1.000000   1.000000
      6          0.491851        2.267949   1.000000   1.000001
      7          0.811725        2.931381   1.000000   0.848471
      8          0.913184        2.950693   1.000000   0.787503
      9          1.129678        3.029193   1.000000   0.477041
     10          1.130312        3.030146   1.000000   0.473012
     11          1.346476        3.756707   1.000000  -0.000001
     12          1.351034        3.763097   1.000000  -0.000001
     13          4.230314        5.067379  -0.000000  -0.000000
     14          6.913825        7.483106  -0.000000  -0.000000
     15         12.690950       12.956262   0.000000   0.000000
     16         17.763242       17.937530   0.000000   0.000000
 
  0.3333333E+00 -0.2775558E-16  0.2500000E+00  0.8333333E-01
      1         -0.896272        0.210747   1.000000   1.000000
      2         -0.861540        0.370534   1.000000   1.000000
      3         -0.180392        1.660879   1.000000   1.000000
      4         -0.070068        1.882825   1.000000   1.000000
      5          0.662470        2.541490   1.000000   1.001705
      6          0.774901        2.767577   1.000000   1.035008
      7          1.189211        2.854881   1.000000   1.000554
      8          1.196834        3.344982   1.000000  -0.022785
      9          1.863318        3.569737   1.000000  -0.000390
     10          2.028163        3.580609   1.000000  -0.000297
     11          2.028575        4.047628   1.000000  -0.000000
     12          2.505910        4.048292   1.000770  -0.000000
     13          7.169417        7.637718  -0.000000  -0.000000
     14          9.901208       10.384314   0.000000   0.000000
     15         13.920366       14.385152   0.000000   0.000000
     16         14.396818       14.873930   0.000000   0.000000
 
  0.5000000E+00 -0.5551115E-16  0.2500000E+00  0.4166667E-01
      1         -1.042372        0.354512   1.000000   1.000000
      2         -1.040062        0.365078   1.000000   1.000000
      3         -0.431464        1.500721   1.000000   1.000000
      4         -0.384531        1.580482   1.000000   1.000000
      5          0.954917        3.221309   1.000000  -0.023806
      6          1.022189        3.323725   1.000000  -0.027660
      7          1.111600        3.477707   1.000000  -0.003043
      8          1.120704        3.490782   1.000000  -0.002343
      9          2.527076        4.624894   1.001246  -0.000000
     10          2.527157        4.625036   1.001249  -0.000000
     11          5.278717        5.297803  -0.000000  -0.000000
     12          5.528296        5.566430  -0.000000  -0.000000
     13          9.221482       10.086609   0.000000   0.000000
     14          9.628750       10.373359   0.000000   0.000000
     15         11.073108       11.551560   0.000000   0.000000
     16         11.773336       12.053494   0.000000   0.000000
 
  0.1666667E+00  0.1666667E+00  0.2500000E+00  0.8333333E-01
      1         -0.508336        0.030386   1.000000   1.000000
      2         -0.411548        0.400048   1.000000   1.000000
      3          0.035215        1.768157   1.000000   1.000000
      4          0.108676        1.772234   1.000000   1.000000
      5          0.111653        1.837034   1.000000   1.000000
      6          0.167093        2.139695   1.000000   1.000000
      7          0.640968        2.606217   1.000000   1.005960
      8          1.125061        3.113458   1.000000   0.159504
      9          1.135533        3.493332   1.000000  -0.002224
     10          1.138190        3.501754   1.000000  -0.001867
     11          2.213376        4.016811   1.000000  -0.000000
     12          2.462719        4.095061   1.000266  -0.000000
     13          6.285914        6.862432  -0.000000  -0.000000
     14          9.037949        9.585079   0.000000   0.000000
     15         14.164909       14.399999   0.000000   0.000000
     16         18.344437       18.699098   0.000000   0.000000
 
  0.3333333E+00  0.1666667E+00  0.2500000E+00  0.1666667E+00
      1         -0.471744        0.954551   1.000000   1.000000
      2         -0.467251        0.979315   1.000000   1.000000
      3         -0.227305        1.725138   1.000000   1.000000
      4         -0.165070        1.841750   1.000000   1.000000
      5          0.830977        2.681233   1.000000   1.017999
      6          0.847824        2.728675   1.000000   1.028731
      7          0.855667        3.123619   1.000000   0.130303
      8          0.878780        3.142073   1.000000   0.083816
      9          1.385394        3.184853   1.000000   0.008573
     10          1.500849        3.410324   1.000000  -0.009873
     11          5.242016        6.170515  -0.000000  -0.000000
     12          5.802148        6.624399  -0.000000  -0.000000
     13          9.834406       10.203608   0.000000   0.000000
     14         11.364768       11.952785   0.000000   0.000000
     15         12.104706       12.690788   0.000000   0.000000
     16         12.666345       13.218559   0.000000   0.000000
 
  0.3333333E+00  0.3333333E+00  0.2500000E+00  0.2777778E-01
      1          0.186954        1.918885   1.000000   1.000000
      2          0.212362        1.943079   1.000000   1.000000
      3          0.212366        1.943083   1.000000   1.000000
      4          0.240011        1.966760   1.000000   1.000000
      5          0.452964        2.291922   1.000000   1.000001
      6          0.462498        2.329234   1.000000   1.000005
      7          0.462502        2.329238   1.000000   1.000005
      8          0.478378        2.381908   1.000000   1.000028
      9          0.967972        3.327097   1.000000  -0.026903
     10          0.967976        3.327100   1.000000  -0.026902
     11          9.787651       10.321890   0.000000   0.000000
     12          9.963463       10.526328   0.000000   0.000000
     13          9.963465       10.526331   0.000000   0.000000
     14         10.416037       11.006691   0.000000   0.000000
     15         11.791582       12.490608   0.000000   0.000000
     16         11.791584       12.490609   0.000000   0.000000
 
  0.0000000E+00  0.0000000E+00  0.5000000E+00  0.6944444E-02
      1         -2.781051       -2.485396   1.000000   1.000000
      2         -2.781050       -2.485395   1.000000   1.000000
      3         -0.008976        1.632940   1.000000   1.000000
      4         -0.008974        1.632943   1.000000   1.000000
      5          0.719917        2.571720   1.000000   1.003158
      6          0.719919        2.571723   1.000000   1.003158
      7          0.719921        2.571724   1.000000   1.003159
      8          0.719923        2.571727   1.000000   1.003159
      9          1.427713        3.853862   1.000000  -0.000000
     10          1.427718        3.853864   1.000000  -0.000000
     11          1.427718        3.853867   1.000000  -0.000000
     12          1.427722        3.853869   1.000000  -0.000000
     13          4.120166        4.578949  -0.000000  -0.000000
     14          4.120166        4.578949  -0.000000  -0.000000
     15         14.212037       14.436843   0.000000   0.000000
     16         14.212037       14.436843   0.000000   0.000000
 
  0.1666667E+00 -0.1387779E-16  0.5000000E+00  0.4166667E-01
      1         -1.843001       -1.494569   1.000000   1.000000
      2         -1.843000       -1.494569   1.000000   1.000000
      3          0.206732        1.891659   1.000000   1.000000
      4          0.206735        1.891661   1.000000   1.000000
      5          0.489667        2.263986   1.000000   1.000001
      6          0.489671        2.263990   1.000000   1.000001
      7          0.838498        2.946664   1.000000   0.800918
      8          0.838502        2.946667   1.000000   0.800906
      9          1.129989        3.029670   1.000000   0.475022
     10          1.129993        3.029675   1.000000   0.475004
     11          1.348798        3.759973   1.000000  -0.000001
     12          1.348803        3.759978   1.000000  -0.000001
     13          5.431448        6.103943  -0.000000  -0.000000
     14          5.431449        6.103944  -0.000000  -0.000000
     15         15.048102       15.279231   0.000000   0.000000
     16         15.048102       15.279231   0.000000   0.000000
 
  0.3333333E+00 -0.2775558E-16  0.5000000E+00  0.4166667E-01
      1         -0.878957        0.289601   1.000000   1.000000
      2         -0.878954        0.289603   1.000000   1.000000
      3         -0.132243        1.752407   1.000000   1.000000
      4         -0.132239        1.752410   1.000000   1.000000
      5          0.731832        2.741963   1.000000   1.031438
      6          0.731835        2.741965   1.000000   1.031439
      7          1.193064        2.992118   1.000000   0.632068
      8          1.193068        2.992121   1.000000   0.632056
      9          2.028364        3.575231   1.000000  -0.000340
     10          2.028368        3.575236   1.000000  -0.000340
     11          2.138094        4.047951   1.000000  -0.000000
     12          2.138095        4.047955   1.000000  -0.000000
     13          8.348268        8.811553  -0.000000   0.000000
     14          8.348268        8.811554  -0.000000   0.000000
     15         14.384953       14.939656   0.000000   0.000000
     16         14.384954       14.939656   0.000000   0.000000
 
  0.5000000E+00 -0.5551115E-16  0.5000000E+00  0.2083333E-01
      1         -1.041385        0.359481   1.000000   1.000000
      2         -1.041382        0.359484   1.000000   1.000000
      3         -0.409243        1.538177   1.000000   1.000000
      4         -0.409238        1.538181   1.000000   1.000000
      5          0.991687        3.282792   1.000000  -0.034765
      6          0.991690        3.282796   1.000000  -0.034765
      7          1.116261        3.484413   1.000000  -0.002665
      8          1.116266        3.484417   1.000000  -0.002665
      9          2.527125        4.624996   1.001248  -0.000000
     10          2.527129        4.625001   1.001248  -0.000000
     11          5.394071        5.412004  -0.000000  -0.000000
     12          5.394071        5.412004  -0.000000  -0.000000
     13          9.321495       10.145066   0.000000   0.000000
     14          9.321496       10.145066   0.000000   0.000000
     15         11.784496       12.145683   0.000000   0.000000
     16         11.784496       12.145683   0.000000   0.000000
 
  0.1666667E+00  0.1666667E+00  0.5000000E+00  0.4166667E-01
      1         -0.458368        0.203862   1.000000   1.000000
      2         -0.458366        0.203863   1.000000   1.000000
      3          0.086968        1.770227   1.000000   1.000000
      4          0.086972        1.770231   1.000000   1.000000
      5          0.110667        1.972667   1.000000   1.000000
      6          0.110670        1.972670   1.000000   1.000000
      7          0.891209        2.860097   1.000000   0.994592
      8          0.891211        2.860100   1.000000   0.994588
      9          1.135356        3.497358   1.000000  -0.002046
     10          1.135361        3.497362   1.000000  -0.002046
     11          2.299241        4.040042   1.000002  -0.000000
     12          2.299244        4.040046   1.000002  -0.000000
     13          7.482807        8.032264  -0.000000  -0.000000
     14          7.482807        8.032265  -0.000000  -0.000000
     15         16.525494       16.808824   0.000000   0.000000
     16         16.525494       16.808824   0.000000   0.000000
 
  0.3333333E+00  0.1666667E+00  0.5000000E+00  0.8333333E-01
      1         -0.469895        0.966477   1.000000   1.000000
      2         -0.469892        0.966480   1.000000   1.000000
      3         -0.197891        1.778314   1.000000   1.000000
      4         -0.197887        1.778318   1.000000   1.000000
      5          0.838727        2.713060   1.000000   1.025216
      6          0.838731        2.713063   1.000000   1.025217
      7          0.871065        3.132186   1.000000   0.107657
      8          0.871069        3.132190   1.000000   0.107646
      9          1.442934        3.296555   1.000000  -0.033005
     10          1.442937        3.296558   1.000000  -0.033004
     11          5.480737        6.353342  -0.000000  -0.000000
     12          5.480738        6.353344  -0.000000  -0.000000
     13         10.834700       11.236574   0.000000   0.000000
     14         10.834700       11.236574   0.000000   0.000000
     15         11.963017       12.587577   0.000000   0.000000
     16         11.963017       12.587577   0.000000   0.000000
 
  0.3333333E+00  0.3333333E+00  0.5000000E+00  0.1388889E-01
      1          0.210784        1.940327   1.000000   1.000000
      2          0.210789        1.940330   1.000000   1.000000
      3          0.211975        1.944106   1.000000   1.000000
      4          0.211979        1.944110   1.000000   1.000000
      5          0.463657        2.326445   1.000000   1.000005
      6          0.463661        2.326449   1.000000   1.000005
      7          0.467030        2.339152   1.000000   1.000007
      8          0.467033        2.339156   1.000000   1.000007
      9          0.968600        3.329577   1.000000  -0.026339
     10          0.968604        3.329581   1.000000  -0.026338
     11          9.991080       10.545363   0.000000   0.000000
     12          9.991081       10.545365   0.000000   0.000000
     13         10.070026       10.625134   0.000000   0.000000
     14         10.070027       10.625134   0.000000   0.000000
     15         11.606638       12.291264   0.000000   0.000000
     16         11.606638       12.291265   0.000000   0.000000
