       N       E                     dE             d eps       ncg     rms          rms(c)
DAV:   1     0.726041320754E+02    0.72604E+02   -0.61827E+03  1360   0.904E+02
DAV:   2    -0.108216492302E+02   -0.83426E+02   -0.76990E+02  1344   0.205E+02
DAV:   3    -0.127249262878E+02   -0.19033E+01   -0.18744E+01  1648   0.421E+01
DAV:   4    -0.127599955282E+02   -0.35069E-01   -0.35056E-01  1760   0.462E+00
DAV:   5    -0.127604412577E+02   -0.44573E-03   -0.44570E-03  1632   0.443E-01    0.127E+01
DAV:   6    -0.126754041475E+02    0.85037E-01   -0.22771E+01  1512   0.769E+01    0.131E+01
DAV:   7    -0.112021612901E+02    0.14732E+01   -0.43444E+00  1568   0.335E+01    0.345E+00
DAV:   8    -0.112301290557E+02   -0.27968E-01   -0.17329E-01  1688   0.429E+00    0.190E+00
DAV:   9    -0.112506108638E+02   -0.20482E-01   -0.82984E-02  1632   0.326E+00    0.106E+00
DAV:  10    -0.112526622658E+02   -0.20514E-02   -0.17314E-02  1608   0.161E+00    0.733E-01
DAV:  11    -0.112484440285E+02    0.42182E-02   -0.33893E-03  1640   0.897E-01    0.339E-01
DAV:  12    -0.112482441025E+02    0.19993E-03   -0.23978E-03  1568   0.636E-01    0.116E-01
DAV:  13    -0.112485567292E+02   -0.31263E-03   -0.25744E-04  1512   0.153E-01    0.665E-02
DAV:  14    -0.112487377751E+02   -0.18105E-03   -0.19732E-04  1600   0.141E-01    0.311E-02
DAV:  15    -0.112487584615E+02   -0.20686E-04   -0.17919E-05  1472   0.486E-02    0.182E-02
DAV:  16    -0.112487782531E+02   -0.19792E-04   -0.74152E-06  1448   0.284E-02    0.679E-03
DAV:  17    -0.112487815450E+02   -0.32920E-05   -0.93101E-07  1232   0.126E-02    0.278E-03
DAV:  18    -0.112487818349E+02   -0.28986E-06   -0.31543E-07   800   0.591E-03
   1 F= -.11248782E+02 E0= -.11247252E+02  d E =-.458884E-02  mag=     4.1563
