   1   1   0   0
  0.1529075E+02  0.2786001E-09  0.2786001E-09  0.2786001E-09  0.5000000E-15
  1.000000000000000E-004
  CAR 
 Pt-fcc                                  
     68.28363867    -46.34238591  301     11.79371762      1.00000000
    -46.342  0.0000E+00  0.0000E+00
    -45.960  0.0000E+00  0.0000E+00
    -45.578  0.0000E+00  0.0000E+00
    -45.196  0.0000E+00  0.0000E+00
    -44.814  0.0000E+00  0.0000E+00
    -44.432  0.0000E+00  0.0000E+00
    -44.050  0.0000E+00  0.0000E+00
    -43.668  0.0000E+00  0.0000E+00
    -43.286  0.0000E+00  0.0000E+00
    -42.904  0.0000E+00  0.0000E+00
    -42.522  0.0000E+00  0.0000E+00
    -42.139  0.0000E+00  0.0000E+00
    -41.757  0.0000E+00  0.0000E+00
    -41.375  0.4516E-12  0.1725E-12
    -40.993  0.4036E+01  0.1542E+01
    -40.611  0.1148E+02  0.6000E+01
    -40.229  0.0000E+00  0.6000E+01
    -39.847  0.0000E+00  0.6000E+01
    -39.465  0.0000E+00  0.6000E+01
    -39.083  0.0000E+00  0.6000E+01
    -38.701  0.0000E+00  0.6000E+01
    -38.319  0.0000E+00  0.6000E+01
    -37.936  0.0000E+00  0.6000E+01
    -37.554  0.0000E+00  0.6000E+01
    -37.172  0.0000E+00  0.6000E+01
    -36.790  0.0000E+00  0.6000E+01
    -36.408  0.0000E+00  0.6000E+01
    -36.026  0.0000E+00  0.6000E+01
    -35.644  0.0000E+00  0.6000E+01
    -35.262  0.0000E+00  0.6000E+01
    -34.880  0.0000E+00  0.6000E+01
    -34.498  0.0000E+00  0.6000E+01
    -34.116  0.0000E+00  0.6000E+01
    -33.734  0.0000E+00  0.6000E+01
    -33.351  0.0000E+00  0.6000E+01
    -32.969  0.0000E+00  0.6000E+01
    -32.587  0.0000E+00  0.6000E+01
    -32.205  0.0000E+00  0.6000E+01
    -31.823  0.0000E+00  0.6000E+01
    -31.441  0.0000E+00  0.6000E+01
    -31.059  0.0000E+00  0.6000E+01
    -30.677  0.0000E+00  0.6000E+01
    -30.295  0.0000E+00  0.6000E+01
    -29.913  0.0000E+00  0.6000E+01
    -29.531  0.0000E+00  0.6000E+01
    -29.148  0.0000E+00  0.6000E+01
    -28.766  0.0000E+00  0.6000E+01
    -28.384  0.0000E+00  0.6000E+01
    -28.002  0.0000E+00  0.6000E+01
    -27.620  0.0000E+00  0.6000E+01
    -27.238  0.0000E+00  0.6000E+01
    -26.856  0.0000E+00  0.6000E+01
    -26.474  0.0000E+00  0.6000E+01
    -26.092  0.0000E+00  0.6000E+01
    -25.710  0.0000E+00  0.6000E+01
    -25.328  0.0000E+00  0.6000E+01
    -24.946  0.0000E+00  0.6000E+01
    -24.563  0.0000E+00  0.6000E+01
    -24.181  0.0000E+00  0.6000E+01
    -23.799  0.0000E+00  0.6000E+01
    -23.417  0.0000E+00  0.6000E+01
    -23.035  0.0000E+00  0.6000E+01
    -22.653  0.0000E+00  0.6000E+01
    -22.271  0.0000E+00  0.6000E+01
    -21.889  0.0000E+00  0.6000E+01
    -21.507  0.0000E+00  0.6000E+01
    -21.125  0.0000E+00  0.6000E+01
    -20.743  0.0000E+00  0.6000E+01
    -20.360  0.0000E+00  0.6000E+01
    -19.978  0.0000E+00  0.6000E+01
    -19.596  0.0000E+00  0.6000E+01
    -19.214  0.0000E+00  0.6000E+01
    -18.832  0.0000E+00  0.6000E+01
    -18.450  0.0000E+00  0.6000E+01
    -18.068  0.0000E+00  0.6000E+01
    -17.686  0.0000E+00  0.6000E+01
    -17.304  0.0000E+00  0.6000E+01
    -16.922  0.0000E+00  0.6000E+01
    -16.540  0.0000E+00  0.6000E+01
    -16.158  0.0000E+00  0.6000E+01
    -15.775  0.0000E+00  0.6000E+01
    -15.393  0.0000E+00  0.6000E+01
    -15.011  0.0000E+00  0.6000E+01
    -14.629  0.0000E+00  0.6000E+01
    -14.247  0.0000E+00  0.6000E+01
    -13.865  0.0000E+00  0.6000E+01
    -13.483  0.0000E+00  0.6000E+01
    -13.101  0.0000E+00  0.6000E+01
    -12.719  0.0000E+00  0.6000E+01
    -12.337  0.0000E+00  0.6000E+01
    -11.955  0.0000E+00  0.6000E+01
    -11.572  0.0000E+00  0.6000E+01
    -11.190  0.0000E+00  0.6000E+01
    -10.808  0.0000E+00  0.6000E+01
    -10.426  0.0000E+00  0.6000E+01
    -10.044  0.0000E+00  0.6000E+01
     -9.662  0.0000E+00  0.6000E+01
     -9.280  0.0000E+00  0.6000E+01
     -8.898  0.0000E+00  0.6000E+01
     -8.516  0.0000E+00  0.6000E+01
     -8.134  0.0000E+00  0.6000E+01
     -7.752  0.0000E+00  0.6000E+01
     -7.370  0.0000E+00  0.6000E+01
     -6.987  0.0000E+00  0.6000E+01
     -6.605  0.0000E+00  0.6000E+01
     -6.223  0.0000E+00  0.6000E+01
     -5.841  0.0000E+00  0.6000E+01
     -5.459  0.0000E+00  0.6000E+01
     -5.077  0.0000E+00  0.6000E+01
     -4.695  0.0000E+00  0.6000E+01
     -4.313  0.0000E+00  0.6000E+01
     -3.931  0.0000E+00  0.6000E+01
     -3.549  0.0000E+00  0.6000E+01
     -3.167  0.0000E+00  0.6000E+01
     -2.784  0.0000E+00  0.6000E+01
     -2.402  0.0000E+00  0.6000E+01
     -2.020  0.0000E+00  0.6000E+01
     -1.638  0.0000E+00  0.6000E+01
     -1.256  0.0000E+00  0.6000E+01
     -0.874  0.0000E+00  0.6000E+01
     -0.492  0.0000E+00  0.6000E+01
     -0.110  0.0000E+00  0.6000E+01
      0.272  0.0000E+00  0.6000E+01
      0.654  0.0000E+00  0.6000E+01
      1.036  0.0000E+00  0.6000E+01
      1.418  0.0000E+00  0.6000E+01
      1.801  0.2706E-07  0.6000E+01
      2.183  0.4847E-01  0.6019E+01
      2.565  0.1491E-03  0.6019E+01
      2.947  0.1453E+00  0.6074E+01
      3.329  0.1225E+00  0.6121E+01
      3.711  0.1340E-01  0.6135E+01
      4.093  0.1805E+00  0.6204E+01
      4.475  0.3568E+00  0.6340E+01
      4.857  0.4047E+00  0.6495E+01
      5.239  0.8002E+00  0.6806E+01
      5.621  0.1036E+01  0.7248E+01
      6.003  0.1506E+01  0.7823E+01
      6.386  0.1265E+01  0.8317E+01
      6.768  0.8787E+00  0.8653E+01
      7.150  0.1272E+01  0.9167E+01
      7.532  0.1661E+01  0.9809E+01
      7.914  0.1057E+01  0.1024E+02
      8.296  0.1883E+01  0.1096E+02
      8.678  0.2422E+01  0.1189E+02
      9.060  0.1295E+01  0.1242E+02
      9.442  0.9268E+00  0.1278E+02
      9.824  0.1340E+01  0.1330E+02
     10.206  0.1598E+01  0.1391E+02
     10.589  0.9778E+00  0.1428E+02
     10.971  0.1619E+01  0.1490E+02
     11.353  0.6681E+00  0.1516E+02
     11.735  0.1932E+01  0.1593E+02
     12.117  0.1316E+01  0.1644E+02
     12.499  0.8474E+00  0.1678E+02
     12.881  0.9170E-11  0.1678E+02
     13.263  0.1454E+00  0.1683E+02
     13.645  0.4407E+00  0.1700E+02
     14.027  0.4160E+00  0.1716E+02
     14.409  0.1453E+00  0.1722E+02
     14.791  0.1325E+00  0.1727E+02
     15.174  0.3037E+00  0.1739E+02
     15.556  0.2908E+00  0.1750E+02
     15.938  0.2391E+00  0.1759E+02
     16.320  0.2901E+00  0.1772E+02
     16.702  0.2908E+00  0.1783E+02
     17.084  0.0000E+00  0.1783E+02
     17.466  0.1181E+00  0.1788E+02
     17.848  0.8673E+00  0.1822E+02
     18.230  0.1422E+00  0.1828E+02
     18.612  0.0000E+00  0.1828E+02
     18.994  0.2768E-02  0.1828E+02
     19.377  0.1064E+01  0.1869E+02
     19.759  0.2908E+00  0.1880E+02
     20.141  0.1857E+00  0.1887E+02
     20.523  0.2506E+00  0.1896E+02
     20.905  0.1453E+00  0.1902E+02
     21.287  0.2910E+00  0.1913E+02
     21.669  0.5306E+00  0.1933E+02
     22.051  0.2908E+00  0.1946E+02
     22.433  0.4194E-06  0.1946E+02
     22.815  0.7156E+00  0.1974E+02
     23.197  0.2606E+00  0.1984E+02
     23.579  0.5449E+00  0.2006E+02
     23.962  0.5816E+00  0.2030E+02
     24.344  0.9232E-01  0.2033E+02
     24.726  0.4905E+00  0.2052E+02
     25.108  0.3380E+00  0.2065E+02
     25.490  0.8585E+00  0.2098E+02
     25.872  0.1687E+00  0.2105E+02
     26.254  0.7065E+00  0.2132E+02
     26.636  0.7726E+00  0.2161E+02
     27.018  0.3912E+00  0.2176E+02
     27.400  0.1402E+01  0.2230E+02
     27.782  0.4553E+00  0.2247E+02
     28.165  0.3152E+00  0.2259E+02
     28.547  0.8732E+00  0.2293E+02
     28.929  0.8723E+00  0.2326E+02
     29.311  0.1473E+00  0.2332E+02
     29.693  0.4326E+00  0.2348E+02
     30.075  0.4776E-01  0.2350E+02
     30.457  0.7358E+00  0.2378E+02
     30.839  0.9604E+00  0.2415E+02
     31.221  0.3169E+00  0.2427E+02
     31.603  0.7597E+00  0.2458E+02
     31.985  0.6609E+00  0.2485E+02
     32.367  0.8536E+00  0.2518E+02
     32.750  0.5690E+00  0.2540E+02
     33.132  0.5731E+00  0.2562E+02
     33.514  0.6026E+00  0.2585E+02
     33.896  0.1415E+00  0.2591E+02
     34.278  0.1858E+00  0.2598E+02
     34.660  0.4186E+00  0.2616E+02
     35.042  0.5498E+00  0.2638E+02
     35.424  0.7754E+00  0.2669E+02
     35.806  0.2899E+00  0.2680E+02
     36.188  0.3864E+00  0.2694E+02
     36.570  0.2548E+00  0.2704E+02
     36.953  0.7472E+00  0.2734E+02
     37.335  0.6709E+00  0.2760E+02
     37.717  0.4334E+00  0.2778E+02
     38.099  0.4855E+00  0.2796E+02
     38.481  0.8289E+00  0.2828E+02
     38.863  0.6878E+00  0.2856E+02
     39.245  0.1146E+01  0.2901E+02
     39.627  0.1464E+01  0.2957E+02
     40.009  0.9219E+00  0.2996E+02
     40.391  0.3619E+00  0.3010E+02
     40.773  0.1090E+01  0.3052E+02
     41.155  0.4761E+00  0.3070E+02
     41.538  0.5868E+00  0.3094E+02
     41.920  0.8096E+00  0.3125E+02
     42.302  0.1215E+01  0.3171E+02
     42.684  0.4998E+00  0.3191E+02
     43.066  0.2851E+00  0.3202E+02
     43.448  0.8371E+00  0.3234E+02
     43.830  0.1508E+01  0.3291E+02
     44.212  0.6153E+00  0.3315E+02
     44.594  0.4678E+00  0.3333E+02
     44.976  0.6333E+00  0.3357E+02
     45.358  0.2908E+00  0.3369E+02
     45.741  0.2908E+00  0.3380E+02
     46.123  0.6378E+00  0.3404E+02
     46.505  0.5320E+00  0.3424E+02
     46.887  0.1003E+01  0.3463E+02
     47.269  0.1452E+01  0.3518E+02
     47.651  0.1198E+01  0.3565E+02
     48.033  0.1051E+01  0.3606E+02
     48.415  0.6573E+00  0.3632E+02
     48.797  0.5646E+00  0.3655E+02
     49.179  0.1073E+01  0.3696E+02
     49.561  0.1569E+01  0.3756E+02
     49.943  0.6265E+00  0.3783E+02
     50.326  0.1104E+01  0.3825E+02
     50.708  0.2938E+00  0.3836E+02
     51.090  0.4363E+00  0.3854E+02
     51.472  0.7123E+00  0.3881E+02
     51.854  0.1299E+01  0.3931E+02
     52.236  0.1010E+00  0.3935E+02
     52.618  0.6298E+01  0.4176E+02
     53.000  0.9723E+00  0.4213E+02
     53.382  0.6977E+00  0.4241E+02
     53.764  0.1080E+01  0.4282E+02
     54.146  0.7517E+00  0.4311E+02
     54.529  0.7573E+00  0.4340E+02
     54.911  0.1085E+01  0.4382E+02
     55.293  0.1017E+01  0.4420E+02
     55.675  0.2453E+00  0.4430E+02
     56.057  0.1112E+01  0.4472E+02
     56.439  0.1621E+00  0.4478E+02
     56.821  0.9536E+00  0.4515E+02
     57.203  0.1399E+01  0.4568E+02
     57.585  0.5334E+00  0.4589E+02
     57.967  0.8270E+00  0.4621E+02
     58.349  0.1190E+01  0.4666E+02
     58.731  0.6190E+00  0.4690E+02
     59.114  0.1040E+01  0.4730E+02
     59.496  0.3774E+00  0.4744E+02
     59.878  0.2307E+00  0.4755E+02
     60.260  0.1273E-02  0.4757E+02
     60.642  0.1926E+00  0.4765E+02
     61.024  0.2911E+00  0.4776E+02
     61.406  0.1353E+00  0.4781E+02
     61.788  0.2037E+00  0.4789E+02
     62.170  0.1453E+00  0.4794E+02
     62.552  0.0000E+00  0.4794E+02
     62.934  0.6180E-05  0.4794E+02
     63.317  0.1454E+00  0.4800E+02
     63.699  0.0000E+00  0.4800E+02
     64.081  0.0000E+00  0.4800E+02
     64.463  0.0000E+00  0.4800E+02
     64.845  0.0000E+00  0.4800E+02
     65.227  0.0000E+00  0.4800E+02
     65.609  0.0000E+00  0.4800E+02
     65.991  0.0000E+00  0.4800E+02
     66.373  0.0000E+00  0.4800E+02
     66.755  0.0000E+00  0.4800E+02
     67.137  0.0000E+00  0.4800E+02
     67.519  0.0000E+00  0.4800E+02
     67.902  0.0000E+00  0.4800E+02
     68.284  0.0000E+00  0.4800E+02
