Automatically generated mesh
      28
Reciprocal lattice
    0.08333333333334    0.08333333333334    0.08333333333334             8
    0.25000000000000    0.08333333333334    0.08333333333334            24
    0.41666666666666    0.08333333333334    0.08333333333334            24
   -0.41666666666666    0.08333333333334    0.08333333333334            24
   -0.25000000000000    0.08333333333334    0.08333333333334            24
   -0.08333333333334    0.08333333333334    0.08333333333334            24
    0.25000000000000    0.25000000000000    0.08333333333334            24
    0.41666666666666    0.25000000000000    0.08333333333334            48
   -0.41666666666666    0.25000000000000    0.08333333333334            48
   -0.25000000000000    0.25000000000000    0.08333333333334            48
   -0.08333333333334    0.25000000000000    0.08333333333334            48
    0.41666666666666    0.41666666666666    0.08333333333334            24
   -0.41666666666666    0.41666666666666    0.08333333333334            48
   -0.25000000000000    0.41666666666666    0.08333333333334            48
   -0.08333333333334    0.41666666666666    0.08333333333334            48
   -0.41666666666666   -0.41666666666666    0.08333333333334            24
   -0.25000000000000   -0.41666666666666    0.08333333333334            48
   -0.25000000000000   -0.25000000000000    0.08333333333334            24
    0.25000000000000    0.25000000000000    0.25000000000000             8
    0.41666666666666    0.25000000000000    0.25000000000000            24
   -0.41666666666666    0.25000000000000    0.25000000000000            24
   -0.25000000000000    0.25000000000000    0.25000000000000            24
    0.41666666666666    0.41666666666666    0.25000000000000            24
   -0.41666666666666    0.41666666666666    0.25000000000000            48
   -0.25000000000000    0.41666666666666    0.25000000000000            48
   -0.41666666666666   -0.41666666666666    0.25000000000000            24
    0.41666666666666    0.41666666666666    0.41666666666666             8
   -0.41666666666666    0.41666666666666    0.41666666666666            24
