       N       E                     dE             d eps       ncg     rms          rms(c)
DAV:   1     0.201521865402E+02    0.20152E+02   -0.12076E+04  1488   0.610E+02
DAV:   2    -0.639640377125E+01   -0.26549E+02   -0.26186E+02  1800   0.957E+01
DAV:   3    -0.643860673396E+01   -0.42203E-01   -0.42203E-01  1800   0.425E+00
DAV:   4    -0.643862457430E+01   -0.17840E-04   -0.17841E-04  2112   0.684E-02
DAV:   5    -0.643862457461E+01   -0.31059E-09   -0.38267E-09  1752   0.284E-04    0.149E+01
DAV:   6    -0.611258189260E+01    0.32604E+00   -0.12073E+00  1488   0.495E+00    0.482E+00
DAV:   7    -0.609397780286E+01    0.18604E-01   -0.80760E-02  1968   0.109E+00    0.146E+00
DAV:   8    -0.609260344858E+01    0.13744E-02   -0.39169E-03  1488   0.477E-01    0.157E-01
DAV:   9    -0.609253773192E+01    0.65717E-04   -0.46281E-05  1896   0.491E-02    0.152E-02
DAV:  10    -0.609254345280E+01   -0.57209E-05   -0.52874E-06  1920   0.135E-02    0.564E-03
DAV:  11    -0.609254339868E+01    0.54126E-07   -0.47578E-09   816   0.476E-04
   1 F= -.60925434E+01 E0= -.60917697E+01  d E =-.154750E-02
