 vasp.6.3.2 27Jun22 (build Aug 12 2022 00:53:59) complex                        
  
 executed on               tv2STD date 2024.11.30  15:51:59
 running   24 mpi-ranks, with    1 threads/rank
 distrk:  each k-point on   24 cores,    1 groups
 distr:  one band on NCORE=   1 cores,   24 groups


--------------------------------------------------------------------------------------------------------


 INCAR:
   SYSTEM = Pt-fcc
   NWRITE = 2    write-flag
   ISTART = 0    job   : 0-new, 1-cont, 2-samecut
   ICHARG = 2    charge: 0-wave, 1-file, 2-atom, >10-const
   INIWAV = 1    electr: 0-lowe 1-rand  2-diag
   ENCUT = 450     energy cutoff in eV
   PREC = Accurate      normal | accurate
   ADDGRID = .FALSE.  (use fine grid)
   NELM = 100     number of ELM steps
   EDIFF = 1E-06    energy stopping-criterion for ELM
   LREAL = .FALSE.      real-space projection (.FALSE., .TRUE., On, Auto)
   ALGO = Normal     Normal, Fast, Very_Fast
   LWAVE = .FALSE.
   LCHARG = .FALSE.
   NSW = 0       max number of geometry steps
   IBRION = -1     ionic relax: 0-MD, 1-quasi-Newton, 2-CG, 3-Damped MD
   EDIFFG = -0.02  force (eV/A) stopping-criterion for geometry steps
   ISIF = 2     (1:force\=y stress\=trace only ions\=y shape\=n volume\=n)
   ISYM = 1     (1-use symmetry, 0-no symmetry)
   ISMEAR = 0     (-1-Fermi, 1-Methfessel/Paxton)
   SIGMA = 0.05   broadening in eV

 POTCAR:    PAW_PBE Pt_pv 12Dec2005               
 POTCAR:    PAW_PBE Pt_pv 12Dec2005               
   SHA256 =  e5abf7e8cd8db70d0153315afc5ad66b6e3eeee29cc2d5b91b16730957c1d208 Pt_pv/POTCAR          
   COPYR  = (c) Copyright 12Dec2005 Georg Kresse                                                    
   COPYR  = This file is part of the software VASP. Any use, copying, and all other rights are regul
   COPYR  = If you do not have a valid VASP license, you may not use, copy or distribute this file. 
   VRHFIN =Pt: 5ps1d9                                                                               
   LEXCH  = PE                                                                                      
   EATOM  =  2428.2504 eV,  178.4714 Ry                                                             
                                                                                                    
   TITEL  = PAW_PBE Pt_pv 12Dec2005                                                                 
   LULTRA =        F    use ultrasoft PP ?                                                          
   IUNSCR =        1    unscreen: 0-lin 1-nonlin 2-no                                               
   RPACOR =    2.000    partial core radius                                                         
   POMASS =  195.080; ZVAL   =   16.000    mass and valenz                                          
   RCORE  =    2.200    outmost cutoff radius                                                       
   RWIGS  =    2.200; RWIGS  =    1.164    wigner-seitz radius (au A)                               
   ENMAX  =  294.607; ENMIN  =  220.955 eV                                                          
   ICORE  =        3    local potential                                                             
   LCOR   =        T    correct aug charges                                                         
   LPAW   =        T    paw PP                                                                      
   EAUG   =  527.014                                                                                
   DEXC   =    0.000                                                                                
   RMAX   =    2.247    core radius for proj-oper                                                   
   RAUG   =    1.300    factor for augmentation sphere                                              
   RDEP   =    2.279    radius for radial grids                                                     
   RDEPT  =    1.878    core radius for aug-charge                                                  
                                                                                                    
   Atomic configuration                                                                             
   16 entries                                                                                       
     n  l   j            E        occ.                                                              
     1  0  0.50    -78401.1885   2.0000                                                             
     2  0  0.50    -13770.7750   2.0000                                                             
     2  1  1.50    -11931.0468   6.0000                                                             
     3  0  0.50     -3234.7234   2.0000                                                             
     3  1  1.50     -2699.2216   6.0000                                                             
     3  2  2.50     -2119.5714  10.0000                                                             
     4  0  0.50      -695.1528   2.0000                                                             
     4  1  1.50      -519.6034   6.0000                                                             
     4  2  2.50      -306.6786  10.0000                                                             
     4  3  3.50       -70.1041  14.0000                                                             
     5  0  0.50      -101.7747   2.0000                                                             
     5  1  1.50       -55.9873   6.0000                                                             
     6  1  1.50        -6.8029   0.0000                                                             
     5  2  2.50        -6.1423   9.0000                                                             
     6  0  0.50        -5.6573   1.0000                                                             
     5  3  2.50        -1.3606   0.0000                                                             
   Description                                                                                      
     l       E           TYP  RCUT    TYP  RCUT                                                     
     1    -55.9873477     23  2.000                                                                 
     1     27.2116520     23  2.000                                                                 
     2     -6.1423404     23  2.200                                                                 
     2     -4.6754623     23  2.200                                                                 
     0     -5.6573207     23  2.200                                                                 
     0     47.6203910     23  2.200                                                                 
     3      6.8029130     23  2.200                                                                 
  local pseudopotential read in
  partial core-charges read in
  partial kinetic energy density read in
  atomic valenz-charges read in
  non local Contribution for L=           1  read in
    real space projection operators read in
  non local Contribution for L=           1  read in
    real space projection operators read in
  non local Contribution for L=           2  read in
    real space projection operators read in
  non local Contribution for L=           2  read in
    real space projection operators read in
  non local Contribution for L=           0  read in
    real space projection operators read in
  non local Contribution for L=           0  read in
    real space projection operators read in
    PAW grid and wavefunctions read in
 
   number of l-projection  operators is LMAX  =           6
   number of lm-projection operators is LMMAX =          18
 
  PAW_PBE Pt_pv 12Dec2005               :
 energy of atom  1       EATOM=-2428.2504
 kinetic energy error for atom=    0.0356 (will be added to EATOM!!)
 
 
 POSCAR: Pt
  positions in cartesian coordinates
  No initial velocities read in
 exchange correlation table for  LEXCH =        8
   RHO(1)=    0.500       N(1)  =     2000
   RHO(2)=  100.500       N(2)  =     4000
 


--------------------------------------------------------------------------------------------------------


 ion  position               nearest neighbor table
   1  0.000  0.000  0.000-
 
  LATTYP: Found a face centered cubic cell.
 ALAT       =     3.9400000000
  
  Lattice vectors:
  
 A1 = (   0.0000000000,   1.9700000000,   1.9700000000)
 A2 = (   1.9700000000,   0.0000000000,   1.9700000000)
 A3 = (   1.9700000000,   1.9700000000,   0.0000000000)


Analysis of symmetry for initial positions (statically):
=====================================================================
 Subroutine PRICEL returns:
 Original cell was already a primitive cell.
 

 Routine SETGRP: Setting up the symmetry group for a 
 face centered cubic supercell.


 Subroutine GETGRP returns: Found 48 space group operations
 (whereof 48 operations were pure point group operations)
 out of a pool of 48 trial point group operations.


The static configuration has the point symmetry O_h .


Analysis of symmetry for dynamics (positions and initial velocities):
=====================================================================
 Subroutine PRICEL returns:
 Original cell was already a primitive cell.
 

 Routine SETGRP: Setting up the symmetry group for a 
 face centered cubic supercell.


 Subroutine GETGRP returns: Found 48 space group operations
 (whereof 48 operations were pure point group operations)
 out of a pool of 48 trial point group operations.


The dynamic configuration has the point symmetry O_h .


 Subroutine INISYM returns: Found 48 space group operations
 (whereof 48 operations are pure point group operations),
 and found     1 'primitive' translations


----------------------------------------------------------------------------------------

                                     Primitive cell                                     

  volume of cell :      15.2907

  direct lattice vectors                    reciprocal lattice vectors
     0.000000000  1.970000000  1.970000000    -0.253807107  0.253807107  0.253807107
     1.970000000  0.000000000  1.970000000     0.253807107 -0.253807107  0.253807107
     1.970000000  1.970000000  0.000000000     0.253807107  0.253807107 -0.253807107

  length of vectors
     2.786000718  2.786000718  2.786000718     0.439606804  0.439606804  0.439606804

  position of ions in fractional coordinates (direct lattice)
     0.000000000  0.000000000  0.000000000

  ion indices of the primitive-cell ions
   primitive index   ion index
                 1           1

----------------------------------------------------------------------------------------

 
 
 KPOINTS: Automatic mesh                          

Automatic generation of k-mesh.
 Grid dimensions read from file:
 generate k-points for:    6    6    6

 Generating k-lattice:

  Cartesian coordinates                     Fractional coordinates (reciprocal lattice)
    -0.042301184  0.042301184  0.042301184     0.166666667  0.000000000  0.000000000
     0.042301184 -0.042301184  0.042301184     0.000000000  0.166666667  0.000000000
     0.042301184  0.042301184 -0.042301184     0.000000000  0.000000000  0.166666667

  Length of vectors
     0.073267801  0.073267801  0.073267801

  Shift w.r.t. Gamma in fractional coordinates (k-lattice)
     0.500000000  0.500000000  0.500000000

 
 Subroutine IBZKPT returns following result:
 ===========================================
 
 Found     28 irreducible k-points:
 
 Following reciprocal coordinates:
            Coordinates               Weight
  0.083333  0.083333  0.083333      8.000000
  0.250000  0.083333  0.083333     24.000000
  0.416667  0.083333  0.083333     24.000000
 -0.416667  0.083333  0.083333     24.000000
 -0.250000  0.083333  0.083333     24.000000
 -0.083333  0.083333  0.083333     24.000000
  0.250000  0.250000  0.083333     24.000000
  0.416667  0.250000  0.083333     48.000000
 -0.416667  0.250000  0.083333     48.000000
 -0.250000  0.250000  0.083333     48.000000
 -0.083333  0.250000  0.083333     48.000000
  0.416667  0.416667  0.083333     24.000000
 -0.416667  0.416667  0.083333     48.000000
 -0.250000  0.416667  0.083333     48.000000
 -0.083333  0.416667  0.083333     48.000000
 -0.416667 -0.416667  0.083333     24.000000
 -0.250000 -0.416667  0.083333     48.000000
 -0.250000 -0.250000  0.083333     24.000000
  0.250000  0.250000  0.250000      8.000000
  0.416667  0.250000  0.250000     24.000000
 -0.416667  0.250000  0.250000     24.000000
 -0.250000  0.250000  0.250000     24.000000
  0.416667  0.416667  0.250000     24.000000
 -0.416667  0.416667  0.250000     48.000000
 -0.250000  0.416667  0.250000     48.000000
 -0.416667 -0.416667  0.250000     24.000000
  0.416667  0.416667  0.416667      8.000000
 -0.416667  0.416667  0.416667     24.000000
 
 Following cartesian coordinates:
            Coordinates               Weight
  0.021151  0.021151  0.021151      8.000000
 -0.021151  0.063452  0.063452     24.000000
 -0.063452  0.105753  0.105753     24.000000
  0.148054 -0.105753 -0.105753     24.000000
  0.105753 -0.063452 -0.063452     24.000000
  0.063452 -0.021151 -0.021151     24.000000
  0.021151  0.021151  0.105753     24.000000
 -0.021151  0.063452  0.148054     48.000000
  0.190355 -0.148054 -0.063452     48.000000
  0.148054 -0.105753 -0.021151     48.000000
  0.105753 -0.063452  0.021151     48.000000
  0.021151  0.021151  0.190355     24.000000
  0.232657 -0.190355 -0.021151     48.000000
  0.190355 -0.148054  0.021151     48.000000
  0.148054 -0.105753  0.063452     48.000000
  0.021151  0.021151 -0.232657     24.000000
 -0.021151  0.063452 -0.190355     48.000000
  0.021151  0.021151 -0.148054     24.000000
  0.063452  0.063452  0.063452      8.000000
  0.021151  0.105753  0.105753     24.000000
  0.232657 -0.105753 -0.105753     24.000000
  0.190355 -0.063452 -0.063452     24.000000
  0.063452  0.063452  0.148054     24.000000
  0.274958 -0.148054 -0.063452     48.000000
  0.232657 -0.105753 -0.021151     48.000000
  0.063452  0.063452 -0.274958     24.000000
  0.105753  0.105753  0.105753      8.000000
  0.317259 -0.105753 -0.105753     24.000000
 


--------------------------------------------------------------------------------------------------------




 Dimension of arrays:
   k-points           NKPTS =     28   k-points in BZ     NKDIM =     28   number of bands    NBANDS=     24
   number of dos      NEDOS =    301   number of ions     NIONS =      1
   non local maximal  LDIM  =      6   non local SUM 2l+1 LMDIM =     18
   total plane-waves  NPLWV =   8000
   max r-space proj   IRMAX =      1   max aug-charges    IRDMAX=  18011
   dimension x,y,z NGX =    20 NGY =   20 NGZ =   20
   dimension x,y,z NGXF=    40 NGYF=   40 NGZF=   40
   support grid    NGXF=    40 NGYF=   40 NGZF=   40
   ions per type =               1
   NGX,Y,Z   is equivalent  to a cutoff of  11.93, 11.93, 11.93 a.u.
   NGXF,Y,Z  is equivalent  to a cutoff of  23.87, 23.87, 23.87 a.u.

 SYSTEM =  Pt-fcc                                  
 POSCAR =  Pt                                      

 Startparameter for this run:
   NWRITE =      2    write-flag & timer
   PREC   = accura    normal or accurate (medium, high low for compatibility)
   ISTART =      0    job   : 0-new  1-cont  2-samecut
   ICHARG =      2    charge: 1-file 2-atom 10-const
   ISPIN  =      1    spin polarized calculation?
   LNONCOLLINEAR =      F non collinear calculations
   LSORBIT =      F    spin-orbit coupling
   INIWAV =      1    electr: 0-lowe 1-rand  2-diag
   LASPH  =      F    aspherical Exc in radial PAW
 Electronic Relaxation 1
   ENCUT  =  450.0 eV  33.07 Ry    5.75 a.u.   4.82  4.82  4.82*2*pi/ulx,y,z
   ENINI  =  450.0     initial cutoff
   ENAUG  =  527.0 eV  augmentation charge cutoff
   NELM   =    100;   NELMIN=  2; NELMDL= -5     # of ELM steps 
   EDIFF  = 0.1E-05   stopping-criterion for ELM
   LREAL  =      F    real-space projection
   NLSPLINE    = F    spline interpolate recip. space projectors
   LCOMPAT=      F    compatible to vasp.4.4
   GGA_COMPAT  = T    GGA compatible to vasp.4.4-vasp.4.6
   LMAXPAW     = -100 max onsite density
   LMAXMIX     =    2 max onsite mixed and CHGCAR
   VOSKOWN=      0    Vosko Wilk Nusair interpolation
   ROPT   =    0.00000
 Ionic relaxation
   EDIFFG = -.2E-01   stopping-criterion for IOM
   NSW    =      0    number of steps for IOM
   NBLOCK =      1;   KBLOCK =      1    inner block; outer block 
   IBRION =     -1    ionic relax: 0-MD 1-quasi-New 2-CG
   NFREE  =      0    steps in history (QN), initial steepest desc. (CG)
   ISIF   =      2    stress and relaxation
   IWAVPR =     10    prediction:  0-non 1-charg 2-wave 3-comb
   ISYM   =      1    0-nonsym 1-usesym 2-fastsym
   LCORR  =      T    Harris-Foulkes like correction to forces

   POTIM  = 0.5000    time-step for ionic-motion
   TEIN   =    0.0    initial temperature
   TEBEG  =    0.0;   TEEND  =   0.0 temperature during run
   SMASS  =  -3.00    Nose mass-parameter (am)
   estimated Nose-frequenzy (Omega)   =  0.10E-29 period in steps = 0.13E+47 mass=  -0.177E-27a.u.
   SCALEE = 1.0000    scale energy and forces
   NPACO  =    256;   APACO  = 10.0  distance and # of slots for P.C.
   PSTRESS=    0.0 pullay stress

  Mass of Ions in am
   POMASS = 195.08
  Ionic Valenz
   ZVAL   =  16.00
  Atomic Wigner-Seitz radii
   RWIGS  =  -1.00
  virtual crystal weights 
   VCA    =   1.00
   NELECT =      16.0000    total number of electrons
   NUPDOWN=      -1.0000    fix difference up-down

 DOS related values:
   EMIN   =  10.00;   EMAX   =-10.00  energy-range for DOS
   EFERMI =   0.00
   ISMEAR =     0;   SIGMA  =   0.05  broadening in eV -4-tet -1-fermi 0-gaus

 Electronic relaxation 2 (details)
   IALGO  =     38    algorithm
   LDIAG  =      T    sub-space diagonalisation (order eigenvalues)
   LSUBROT=      F    optimize rotation matrix (better conditioning)
   TURBO    =      0    0=normal 1=particle mesh
   IRESTART =      0    0=no restart 2=restart with 2 vectors
   NREBOOT  =      0    no. of reboots
   NMIN     =      0    reboot dimension
   EREF     =   0.00    reference energy to select bands
   IMIX   =      4    mixing-type and parameters
     AMIX     =   0.40;   BMIX     =  1.00
     AMIX_MAG =   1.60;   BMIX_MAG =  1.00
     AMIN     =   0.10
     WC   =   100.;   INIMIX=   1;  MIXPRE=   1;  MAXMIX= -45

 Intra band minimization:
   WEIMIN = 0.0000     energy-eigenvalue tresh-hold
   EBREAK =  0.10E-07  absolut break condition
   DEPER  =   0.30     relativ break condition  

   TIME   =   0.40     timestep for ELM

  volume/ion in A,a.u.               =      15.29       103.19
  Fermi-wavevector in a.u.,A,eV,Ry     =   1.662029  3.140779 37.583923  2.762340
  Thomas-Fermi vector in A             =   2.748990
 
 Write flags
   LWAVE        =      F    write WAVECAR
   LDOWNSAMPLE  =      F    k-point downsampling of WAVECAR
   LCHARG       =      F    write CHGCAR
   LVTOT        =      F    write LOCPOT, total local potential
   LVHAR        =      F    write LOCPOT, Hartree potential only
   LELF         =      F    write electronic localiz. function (ELF)
   LORBIT       =      0    0 simple, 1 ext, 2 COOP (PROOUT), +10 PAW based schemes


 Dipole corrections
   LMONO  =      F    monopole corrections only (constant potential shift)
   LDIPOL =      F    correct potential (dipole corrections)
   IDIPOL =      0    1-x, 2-y, 3-z, 4-all directions 
   EPSILON=  1.0000000 bulk dielectric constant

 Exchange correlation treatment:
   GGA     =    --    GGA type
   LEXCH   =     8    internal setting for exchange type
   LIBXC   =     F    Libxc                    
   VOSKOWN =     0    Vosko Wilk Nusair interpolation
   LHFCALC =     F    Hartree Fock is set to
   LHFONE  =     F    Hartree Fock one center treatment
   AEXX    =    0.0000 exact exchange contribution

 Linear response parameters
   LEPSILON=     F    determine dielectric tensor
   LRPA    =     F    only Hartree local field effects (RPA)
   LNABLA  =     F    use nabla operator in PAW spheres
   LVEL    =     F    velocity operator in full k-point grid
   CSHIFT  =0.1000    complex shift for real part using Kramers Kronig
   OMEGAMAX=  -1.0    maximum frequency
   DEG_THRESHOLD= 0.2000000E-02 threshold for treating states as degnerate
   RTIME   =   -0.100 relaxation time in fs
  (WPLASMAI=    0.000 imaginary part of plasma frequency in eV, 0.658/RTIME)
   DFIELD  = 0.0000000 0.0000000 0.0000000 field for delta impulse in time
 
  Optional k-point grid parameters
   LKPOINTS_OPT  =     F    use optional k-point grid
   KPOINTS_OPT_MODE=     1    mode for optional k-point grid
 
 Orbital magnetization related:
   ORBITALMAG=     F  switch on orbital magnetization
   LCHIMAG   =     F  perturbation theory with respect to B field
   DQ        =  0.001000  dq finite difference perturbation B field
   LLRAUG    =     F  two centre corrections for induced B field



--------------------------------------------------------------------------------------------------------


 Static calculation
 charge density and potential will be updated during run
 non-spin polarized calculation
 Variant of blocked Davidson
 Davidson routine will perform the subspace rotation
 perform sub-space diagonalisation
    after iterative eigenvector-optimisation
 modified Broyden-mixing scheme, WC =      100.0
 initial mixing is a Kerker type mixing with AMIX =  0.4000 and BMIX =      1.0000
 Hartree-type preconditioning will be used
 using additional bands           16
 reciprocal scheme for non local part
 use partial core corrections
 calculate Harris-corrections to forces 
   (improved forces if not selfconsistent)
 use gradient corrections 
 use of overlap-Matrix (Vanderbilt PP)
 Gauss-broadening in eV      SIGMA  =   0.05


--------------------------------------------------------------------------------------------------------


  energy-cutoff  :      450.00
  volume of cell :       15.29
      direct lattice vectors                 reciprocal lattice vectors
     0.000000000  1.970000000  1.970000000    -0.253807107  0.253807107  0.253807107
     1.970000000  0.000000000  1.970000000     0.253807107 -0.253807107  0.253807107
     1.970000000  1.970000000  0.000000000     0.253807107  0.253807107 -0.253807107

  length of vectors
     2.786000718  2.786000718  2.786000718     0.439606804  0.439606804  0.439606804


 
 k-points in units of 2pi/SCALE and weight: Automatic mesh                          
   0.02115059  0.02115059  0.02115059       0.009
  -0.02115059  0.06345178  0.06345178       0.028
  -0.06345178  0.10575296  0.10575296       0.028
   0.14805415 -0.10575296 -0.10575296       0.028
   0.10575296 -0.06345178 -0.06345178       0.028
   0.06345178 -0.02115059 -0.02115059       0.028
   0.02115059  0.02115059  0.10575296       0.028
  -0.02115059  0.06345178  0.14805415       0.056
   0.19035533 -0.14805415 -0.06345178       0.056
   0.14805415 -0.10575296 -0.02115059       0.056
   0.10575296 -0.06345178  0.02115059       0.056
   0.02115059  0.02115059  0.19035533       0.028
   0.23265651 -0.19035533 -0.02115059       0.056
   0.19035533 -0.14805415  0.02115059       0.056
   0.14805415 -0.10575296  0.06345178       0.056
   0.02115059  0.02115059 -0.23265651       0.028
  -0.02115059  0.06345178 -0.19035533       0.056
   0.02115059  0.02115059 -0.14805415       0.028
   0.06345178  0.06345178  0.06345178       0.009
   0.02115059  0.10575296  0.10575296       0.028
   0.23265651 -0.10575296 -0.10575296       0.028
   0.19035533 -0.06345178 -0.06345178       0.028
   0.06345178  0.06345178  0.14805415       0.028
   0.27495770 -0.14805415 -0.06345178       0.056
   0.23265651 -0.10575296 -0.02115059       0.056
   0.06345178  0.06345178 -0.27495770       0.028
   0.10575296  0.10575296  0.10575296       0.009
   0.31725888 -0.10575296 -0.10575296       0.028
 
 k-points in reciprocal lattice and weights: Automatic mesh                          
   0.08333333  0.08333333  0.08333333       0.009
   0.25000000  0.08333333  0.08333333       0.028
   0.41666667  0.08333333  0.08333333       0.028
  -0.41666667  0.08333333  0.08333333       0.028
  -0.25000000  0.08333333  0.08333333       0.028
  -0.08333333  0.08333333  0.08333333       0.028
   0.25000000  0.25000000  0.08333333       0.028
   0.41666667  0.25000000  0.08333333       0.056
  -0.41666667  0.25000000  0.08333333       0.056
  -0.25000000  0.25000000  0.08333333       0.056
  -0.08333333  0.25000000  0.08333333       0.056
   0.41666667  0.41666667  0.08333333       0.028
  -0.41666667  0.41666667  0.08333333       0.056
  -0.25000000  0.41666667  0.08333333       0.056
  -0.08333333  0.41666667  0.08333333       0.056
  -0.41666667 -0.41666667  0.08333333       0.028
  -0.25000000 -0.41666667  0.08333333       0.056
  -0.25000000 -0.25000000  0.08333333       0.028
   0.25000000  0.25000000  0.25000000       0.009
   0.41666667  0.25000000  0.25000000       0.028
  -0.41666667  0.25000000  0.25000000       0.028
  -0.25000000  0.25000000  0.25000000       0.028
   0.41666667  0.41666667  0.25000000       0.028
  -0.41666667  0.41666667  0.25000000       0.056
  -0.25000000  0.41666667  0.25000000       0.056
  -0.41666667 -0.41666667  0.25000000       0.028
   0.41666667  0.41666667  0.41666667       0.009
  -0.41666667  0.41666667  0.41666667       0.028
 
 position of ions in fractional coordinates (direct lattice) 
   0.00000000  0.00000000  0.00000000
 
 position of ions in cartesian coordinates  (Angst):
   0.00000000  0.00000000  0.00000000
 


--------------------------------------------------------------------------------------------------------


 k-point   1 :   0.0833 0.0833 0.0833  plane waves:     332
 k-point   2 :   0.2500 0.0833 0.0833  plane waves:     323
 k-point   3 :   0.4167 0.0833 0.0833  plane waves:     334
 k-point   4 :  -0.4167 0.0833 0.0833  plane waves:     337
 k-point   5 :  -0.2500 0.0833 0.0833  plane waves:     329
 k-point   6 :  -0.0833 0.0833 0.0833  plane waves:     330
 k-point   7 :   0.2500 0.2500 0.0833  plane waves:     330
 k-point   8 :   0.4167 0.2500 0.0833  plane waves:     328
 k-point   9 :  -0.4167 0.2500 0.0833  plane waves:     330
 k-point  10 :  -0.2500 0.2500 0.0833  plane waves:     329
 k-point  11 :  -0.0833 0.2500 0.0833  plane waves:     331
 k-point  12 :   0.4167 0.4167 0.0833  plane waves:     327
 k-point  13 :  -0.4167 0.4167 0.0833  plane waves:     334
 k-point  14 :  -0.2500 0.4167 0.0833  plane waves:     335
 k-point  15 :  -0.0833 0.4167 0.0833  plane waves:     334
 k-point  16 :  -0.4167-0.4167 0.0833  plane waves:     332
 k-point  17 :  -0.2500-0.4167 0.0833  plane waves:     331
 k-point  18 :  -0.2500-0.2500 0.0833  plane waves:     327
 k-point  19 :   0.2500 0.2500 0.2500  plane waves:     326
 k-point  20 :   0.4167 0.2500 0.2500  plane waves:     327
 k-point  21 :  -0.4167 0.2500 0.2500  plane waves:     335
 k-point  22 :  -0.2500 0.2500 0.2500  plane waves:     331
 k-point  23 :   0.4167 0.4167 0.2500  plane waves:     330
 k-point  24 :  -0.4167 0.4167 0.2500  plane waves:     333
 k-point  25 :  -0.2500 0.4167 0.2500  plane waves:     333
 k-point  26 :  -0.4167-0.4167 0.2500  plane waves:     335
 k-point  27 :   0.4167 0.4167 0.4167  plane waves:     332
 k-point  28 :  -0.4167 0.4167 0.4167  plane waves:     334

 maximum and minimum number of plane-waves per node :       337      323

 maximum number of plane-waves:       337
 maximum index in each direction: 
   IXMAX=    5   IYMAX=    5   IZMAX=    4
   IXMIN=   -5   IYMIN=   -5   IZMIN=   -5


 serial   3D FFT for wavefunctions
 parallel 3D FFT for charge:
    minimum data exchange during FFTs selected (reduces bandwidth)


 total amount of memory used by VASP MPI-rank0    32276. kBytes
=======================================================================

   base      :      30000. kBytes
   nonl-proj :       1457. kBytes
   fftplans  :        147. kBytes
   grid      :        485. kBytes
   one-center:         15. kBytes
   wavefun   :        172. kBytes
 
     INWAV:  cpu time      0.0000: real time      0.0001
 Broyden mixing: mesh for mixing (old mesh)
   NGX =  9   NGY =  9   NGZ =  9
  (NGX  = 40   NGY  = 40   NGZ  = 40)
  gives a total of    729 points

 initial charge density was supplied:
 charge density of overlapping atoms calculated
 number of electron      16.0000000 magnetization 
 keeping initial charge density in first step


--------------------------------------------------------------------------------------------------------


 Maximum index for augmentation-charges          868 (set IRDMAX)


--------------------------------------------------------------------------------------------------------


 First call to EWALD:  gamma=   0.714
 Maximum number of real-space cells 3x 3x 3
 Maximum number of reciprocal cells 3x 3x 3

    FEWALD:  cpu time      0.0015: real time      0.0015


--------------------------------------- Iteration      1(   1)  ---------------------------------------


    POTLOK:  cpu time      0.0034: real time      0.0035
    SETDIJ:  cpu time      0.0023: real time      0.0023
     EDDAV:  cpu time      0.1297: real time      0.1305
       DOS:  cpu time      0.0003: real time      0.0003
    --------------------------------------------
      LOOP:  cpu time      0.1357: real time      0.1366

 eigenvalue-minimisations  :  1488
 total energy-change (2. order) : 0.2015219E+02  (-0.1207606E+04)
 number of electron      16.0000000 magnetization 
 augmentation part       16.0000000 magnetization 

 Free energy of the ion-electron system (eV)
  ---------------------------------------------------
  alpha Z        PSCENC =       156.91311333
  Ewald energy   TEWEN  =     -2144.84590610
  -Hartree energ DENC   =      -397.82488157
  -exchange      EXHF   =         0.00000000
  -V(xc)+E(xc)   XCENC  =        63.81680431
  PAW double counting   =      2065.75261637    -2030.83594803
  entropy T*S    EENTRO =        -0.00102384
  eigenvalues    EBANDS =      -121.03742066
  atomic energy  EATOM  =      2428.21483272
  Solvation  Ediel_sol  =         0.00000000
  ---------------------------------------------------
  free energy    TOTEN  =        20.15218654 eV

  energy without entropy =       20.15321038  energy(sigma->0) =       20.15269846


--------------------------------------------------------------------------------------------------------




--------------------------------------- Iteration      1(   2)  ---------------------------------------


     EDDAV:  cpu time      0.1751: real time      0.1766
       DOS:  cpu time      0.0002: real time      0.0002
    --------------------------------------------
      LOOP:  cpu time      0.1753: real time      0.1768

 eigenvalue-minimisations  :  1800
 total energy-change (2. order) :-0.2654859E+02  (-0.2618634E+02)
 number of electron      16.0000000 magnetization 
 augmentation part       16.0000000 magnetization 

 Free energy of the ion-electron system (eV)
  ---------------------------------------------------
  alpha Z        PSCENC =       156.91311333
  Ewald energy   TEWEN  =     -2144.84590610
  -Hartree energ DENC   =      -397.82488157
  -exchange      EXHF   =         0.00000000
  -V(xc)+E(xc)   XCENC  =        63.81680431
  PAW double counting   =      2065.75261637    -2030.83594803
  entropy T*S    EENTRO =        -0.00153071
  eigenvalues    EBANDS =      -147.58550410
  atomic energy  EATOM  =      2428.21483272
  Solvation  Ediel_sol  =         0.00000000
  ---------------------------------------------------
  free energy    TOTEN  =        -6.39640377 eV

  energy without entropy =       -6.39487306  energy(sigma->0) =       -6.39563842


--------------------------------------------------------------------------------------------------------




--------------------------------------- Iteration      1(   3)  ---------------------------------------


     EDDAV:  cpu time      0.1852: real time      0.1862
       DOS:  cpu time      0.0002: real time      0.0002
    --------------------------------------------
      LOOP:  cpu time      0.1854: real time      0.1864

 eigenvalue-minimisations  :  1800
 total energy-change (2. order) :-0.4220296E-01  (-0.4220293E-01)
 number of electron      16.0000000 magnetization 
 augmentation part       16.0000000 magnetization 

 Free energy of the ion-electron system (eV)
  ---------------------------------------------------
  alpha Z        PSCENC =       156.91311333
  Ewald energy   TEWEN  =     -2144.84590610
  -Hartree energ DENC   =      -397.82488157
  -exchange      EXHF   =         0.00000000
  -V(xc)+E(xc)   XCENC  =        63.81680431
  PAW double counting   =      2065.75261637    -2030.83594803
  entropy T*S    EENTRO =        -0.00152146
  eigenvalues    EBANDS =      -147.62771631
  atomic energy  EATOM  =      2428.21483272
  Solvation  Ediel_sol  =         0.00000000
  ---------------------------------------------------
  free energy    TOTEN  =        -6.43860673 eV

  energy without entropy =       -6.43708527  energy(sigma->0) =       -6.43784600


--------------------------------------------------------------------------------------------------------




--------------------------------------- Iteration      1(   4)  ---------------------------------------


     EDDAV:  cpu time      0.2356: real time      0.2368
       DOS:  cpu time      0.0002: real time      0.0002
    --------------------------------------------
      LOOP:  cpu time      0.2358: real time      0.2370

 eigenvalue-minimisations  :  2112
 total energy-change (2. order) :-0.1784034E-04  (-0.1784069E-04)
 number of electron      16.0000000 magnetization 
 augmentation part       16.0000000 magnetization 

 Free energy of the ion-electron system (eV)
  ---------------------------------------------------
  alpha Z        PSCENC =       156.91311333
  Ewald energy   TEWEN  =     -2144.84590610
  -Hartree energ DENC   =      -397.82488157
  -exchange      EXHF   =         0.00000000
  -V(xc)+E(xc)   XCENC  =        63.81680431
  PAW double counting   =      2065.75261637    -2030.83594803
  entropy T*S    EENTRO =        -0.00152146
  eigenvalues    EBANDS =      -147.62773415
  atomic energy  EATOM  =      2428.21483272
  Solvation  Ediel_sol  =         0.00000000
  ---------------------------------------------------
  free energy    TOTEN  =        -6.43862457 eV

  energy without entropy =       -6.43710311  energy(sigma->0) =       -6.43786384


--------------------------------------------------------------------------------------------------------




--------------------------------------- Iteration      1(   5)  ---------------------------------------


     EDDAV:  cpu time      0.1746: real time      0.1756
       DOS:  cpu time      0.0002: real time      0.0002
    CHARGE:  cpu time      0.0095: real time      0.0095
    MIXING:  cpu time      0.0003: real time      0.0003
    --------------------------------------------
      LOOP:  cpu time      0.1846: real time      0.1856

 eigenvalue-minimisations  :  1752
 total energy-change (2. order) :-0.3105924E-09  (-0.3826674E-09)
 number of electron      16.0000003 magnetization 
 augmentation part        3.9802184 magnetization 

 Broyden mixing:
  rms(total) = 0.14949E+01    rms(broyden)= 0.14948E+01
  rms(prec ) = 0.20384E+01
  weight for this iteration     100.00

 Free energy of the ion-electron system (eV)
  ---------------------------------------------------
  alpha Z        PSCENC =       156.91311333
  Ewald energy   TEWEN  =     -2144.84590610
  -Hartree energ DENC   =      -397.82488157
  -exchange      EXHF   =         0.00000000
  -V(xc)+E(xc)   XCENC  =        63.81680431
  PAW double counting   =      2065.75261637    -2030.83594803
  entropy T*S    EENTRO =        -0.00152146
  eigenvalues    EBANDS =      -147.62773415
  atomic energy  EATOM  =      2428.21483272
  Solvation  Ediel_sol  =         0.00000000
  ---------------------------------------------------
  free energy    TOTEN  =        -6.43862457 eV

  energy without entropy =       -6.43710311  energy(sigma->0) =       -6.43786384


--------------------------------------------------------------------------------------------------------




--------------------------------------- Iteration      1(   6)  ---------------------------------------


    POTLOK:  cpu time      0.0024: real time      0.0026
    SETDIJ:  cpu time      0.0019: real time      0.0019
     EDDAV:  cpu time      0.1288: real time      0.1294
       DOS:  cpu time      0.0002: real time      0.0002
    CHARGE:  cpu time      0.0091: real time      0.0091
    MIXING:  cpu time      0.0002: real time      0.0002
    --------------------------------------------
      LOOP:  cpu time      0.1426: real time      0.1435

 eigenvalue-minimisations  :  1488
 total energy-change (2. order) : 0.3260427E+00  (-0.1207345E+00)
 number of electron      16.0000003 magnetization 
 augmentation part        4.0904605 magnetization 

 Broyden mixing:
  rms(total) = 0.48208E+00    rms(broyden)= 0.48208E+00
  rms(prec ) = 0.59136E+00
  weight for this iteration     100.00

 eigenvalues of (default mixing * dielectric matrix)
  average eigenvalue GAMMA=   1.4532
  1.4532

 Free energy of the ion-electron system (eV)
  ---------------------------------------------------
  alpha Z        PSCENC =       156.91311333
  Ewald energy   TEWEN  =     -2144.84590610
  -Hartree energ DENC   =      -382.73303963
  -exchange      EXHF   =         0.00000000
  -V(xc)+E(xc)   XCENC  =        63.16624169
  PAW double counting   =      2237.62190104    -2204.73151114
  entropy T*S    EENTRO =        -0.00154543
  eigenvalues    EBANDS =      -159.71666838
  atomic energy  EATOM  =      2428.21483272
  Solvation  Ediel_sol  =         0.00000000
  ---------------------------------------------------
  free energy    TOTEN  =        -6.11258189 eV

  energy without entropy =       -6.11103646  energy(sigma->0) =       -6.11180918


--------------------------------------------------------------------------------------------------------




--------------------------------------- Iteration      1(   7)  ---------------------------------------


    POTLOK:  cpu time      0.0022: real time      0.0024
    SETDIJ:  cpu time      0.0018: real time      0.0018
     EDDAV:  cpu time      0.2008: real time      0.2017
       DOS:  cpu time      0.0002: real time      0.0002
    CHARGE:  cpu time      0.0088: real time      0.0089
    MIXING:  cpu time      0.0002: real time      0.0002
    --------------------------------------------
      LOOP:  cpu time      0.2141: real time      0.2152

 eigenvalue-minimisations  :  1968
 total energy-change (2. order) : 0.1860409E-01  (-0.8076013E-02)
 number of electron      16.0000003 magnetization 
 augmentation part        4.1173870 magnetization 

 Broyden mixing:
  rms(total) = 0.14569E+00    rms(broyden)= 0.14569E+00
  rms(prec ) = 0.17655E+00
  weight for this iteration     100.00

 eigenvalues of (default mixing * dielectric matrix)
  average eigenvalue GAMMA=   1.9668
  1.2047  2.7288

 Free energy of the ion-electron system (eV)
  ---------------------------------------------------
  alpha Z        PSCENC =       156.91311333
  Ewald energy   TEWEN  =     -2144.84590610
  -Hartree energ DENC   =      -378.65377177
  -exchange      EXHF   =         0.00000000
  -V(xc)+E(xc)   XCENC  =        62.98055143
  PAW double counting   =      2312.18982594    -2279.88770921
  entropy T*S    EENTRO =        -0.00155668
  eigenvalues    EBANDS =      -163.00335747
  atomic energy  EATOM  =      2428.21483272
  Solvation  Ediel_sol  =         0.00000000
  ---------------------------------------------------
  free energy    TOTEN  =        -6.09397780 eV

  energy without entropy =       -6.09242112  energy(sigma->0) =       -6.09319946


--------------------------------------------------------------------------------------------------------




--------------------------------------- Iteration      1(   8)  ---------------------------------------


    POTLOK:  cpu time      0.0022: real time      0.0024
    SETDIJ:  cpu time      0.0018: real time      0.0018
     EDDAV:  cpu time      0.1284: real time      0.1296
       DOS:  cpu time      0.0002: real time      0.0002
    CHARGE:  cpu time      0.0088: real time      0.0089
    MIXING:  cpu time      0.0002: real time      0.0002
    --------------------------------------------
      LOOP:  cpu time      0.1417: real time      0.1431

 eigenvalue-minimisations  :  1488
 total energy-change (2. order) : 0.1374354E-02  (-0.3916874E-03)
 number of electron      16.0000003 magnetization 
 augmentation part        4.1134388 magnetization 

 Broyden mixing:
  rms(total) = 0.15749E-01    rms(broyden)= 0.15741E-01
  rms(prec ) = 0.19349E-01
  weight for this iteration     100.00

 eigenvalues of (default mixing * dielectric matrix)
  average eigenvalue GAMMA=   1.5742
  1.0574  1.2237  2.4414

 Free energy of the ion-electron system (eV)
  ---------------------------------------------------
  alpha Z        PSCENC =       156.91311333
  Ewald energy   TEWEN  =     -2144.84590610
  -Hartree energ DENC   =      -378.55027899
  -exchange      EXHF   =         0.00000000
  -V(xc)+E(xc)   XCENC  =        62.96298731
  PAW double counting   =      2355.25497209    -2322.99513487
  entropy T*S    EENTRO =        -0.00154572
  eigenvalues    EBANDS =      -163.04564323
  atomic energy  EATOM  =      2428.21483272
  Solvation  Ediel_sol  =         0.00000000
  ---------------------------------------------------
  free energy    TOTEN  =        -6.09260345 eV

  energy without entropy =       -6.09105773  energy(sigma->0) =       -6.09183059


--------------------------------------------------------------------------------------------------------




--------------------------------------- Iteration      1(   9)  ---------------------------------------


    POTLOK:  cpu time      0.0037: real time      0.0039
    SETDIJ:  cpu time      0.0020: real time      0.0020
     EDDAV:  cpu time      0.2095: real time      0.2104
       DOS:  cpu time      0.0002: real time      0.0002
    CHARGE:  cpu time      0.0093: real time      0.0093
    MIXING:  cpu time      0.0003: real time      0.0003
    --------------------------------------------
      LOOP:  cpu time      0.2250: real time      0.2262

 eigenvalue-minimisations  :  1896
 total energy-change (2. order) : 0.6571666E-04  (-0.4628057E-05)
 number of electron      16.0000003 magnetization 
 augmentation part        4.1137397 magnetization 

 Broyden mixing:
  rms(total) = 0.15152E-02    rms(broyden)= 0.15133E-02
  rms(prec ) = 0.31448E-02
  weight for this iteration     100.00

 eigenvalues of (default mixing * dielectric matrix)
  average eigenvalue GAMMA=   1.8349
  1.0134  1.2068  2.7483  2.3712

 Free energy of the ion-electron system (eV)
  ---------------------------------------------------
  alpha Z        PSCENC =       156.91311333
  Ewald energy   TEWEN  =     -2144.84590610
  -Hartree energ DENC   =      -378.59591905
  -exchange      EXHF   =         0.00000000
  -V(xc)+E(xc)   XCENC  =        62.96609949
  PAW double counting   =      2351.94529238    -2319.66038405
  entropy T*S    EENTRO =        -0.00154710
  eigenvalues    EBANDS =      -163.02811937
  atomic energy  EATOM  =      2428.21483272
  Solvation  Ediel_sol  =         0.00000000
  ---------------------------------------------------
  free energy    TOTEN  =        -6.09253773 eV

  energy without entropy =       -6.09099063  energy(sigma->0) =       -6.09176418


--------------------------------------------------------------------------------------------------------




--------------------------------------- Iteration      1(  10)  ---------------------------------------


    POTLOK:  cpu time      0.0023: real time      0.0025
    SETDIJ:  cpu time      0.0020: real time      0.0020
     EDDAV:  cpu time      0.1984: real time      0.1993
       DOS:  cpu time      0.0002: real time      0.0002
    CHARGE:  cpu time      0.0091: real time      0.0091
    MIXING:  cpu time      0.0003: real time      0.0003
    --------------------------------------------
      LOOP:  cpu time      0.2122: real time      0.2134

 eigenvalue-minimisations  :  1920
 total energy-change (2. order) :-0.5720880E-05  (-0.5287381E-06)
 number of electron      16.0000003 magnetization 
 augmentation part        4.1137974 magnetization 

 Broyden mixing:
  rms(total) = 0.56423E-03    rms(broyden)= 0.56396E-03
  rms(prec ) = 0.57297E-03
  weight for this iteration     100.00

 eigenvalues of (default mixing * dielectric matrix)
  average eigenvalue GAMMA=   1.7332
  2.6825  2.3405  0.9869  1.4413  1.2146

 Free energy of the ion-electron system (eV)
  ---------------------------------------------------
  alpha Z        PSCENC =       156.91311333
  Ewald energy   TEWEN  =     -2144.84590610
  -Hartree energ DENC   =      -378.62383854
  -exchange      EXHF   =         0.00000000
  -V(xc)+E(xc)   XCENC  =        62.96717870
  PAW double counting   =      2353.38883783    -2321.07651534
  entropy T*S    EENTRO =        -0.00154749
  eigenvalues    EBANDS =      -163.02869856
  atomic energy  EATOM  =      2428.21483272
  Solvation  Ediel_sol  =         0.00000000
  ---------------------------------------------------
  free energy    TOTEN  =        -6.09254345 eV

  energy without entropy =       -6.09099596  energy(sigma->0) =       -6.09176971


--------------------------------------------------------------------------------------------------------




--------------------------------------- Iteration      1(  11)  ---------------------------------------


    POTLOK:  cpu time      0.0022: real time      0.0023
    SETDIJ:  cpu time      0.0018: real time      0.0018
     EDDAV:  cpu time      0.0659: real time      0.0662
       DOS:  cpu time      0.0002: real time      0.0002
    --------------------------------------------
      LOOP:  cpu time      0.0701: real time      0.0706

 eigenvalue-minimisations  :   816
 total energy-change (2. order) : 0.5412585E-07  (-0.4757835E-09)
 number of electron      16.0000003 magnetization 
 augmentation part        4.1137974 magnetization 

 Free energy of the ion-electron system (eV)
  ---------------------------------------------------
  alpha Z        PSCENC =       156.91311333
  Ewald energy   TEWEN  =     -2144.84590610
  -Hartree energ DENC   =      -378.62331231
  -exchange      EXHF   =         0.00000000
  -V(xc)+E(xc)   XCENC  =        62.96715347
  PAW double counting   =      2353.22233466    -2320.91046475
  entropy T*S    EENTRO =        -0.00154750
  eigenvalues    EBANDS =      -163.02874693
  atomic energy  EATOM  =      2428.21483272
  Solvation  Ediel_sol  =         0.00000000
  ---------------------------------------------------
  free energy    TOTEN  =        -6.09254340 eV

  energy without entropy =       -6.09099590  energy(sigma->0) =       -6.09176965


--------------------------------------------------------------------------------------------------------




 average (electrostatic) potential at core
  the test charge radii are     0.9952
  (the norm of the test charge is              1.0000)
       1 -88.9630
 
 
 
 E-fermi :  11.7937     XC(G=0): -13.9141     alpha+bet :-17.1560

 Fermi energy:        11.7937176192

 k-point     1 :       0.0833    0.0833    0.0833
  band No.  band energies     occupation 
      1     -40.7275      2.00000
      2     -40.7010      2.00000
      3     -40.7010      2.00000
      4       1.9727      2.00000
      5       7.9642      2.00000
      6       8.1882      2.00000
      7       8.1882      2.00000
      8      10.1414      2.00000
      9      10.1414      2.00000
     10      26.8569      0.00000
     11      30.0027      0.00000
     12      31.7387      0.00000
     13      31.7387      0.00000
     14      37.9662      0.00000
     15      40.8595      0.00000
     16      41.9419      0.00000
     17      41.9419      0.00000
     18      46.2461      0.00000
     19      46.2461      0.00000
     20      47.9434      0.00000
     21      52.4857      0.00000
     22      52.8256      0.00000
     23      52.8256      0.00000
     24      60.3284      0.00000

 k-point     2 :       0.2500    0.0833    0.0833
  band No.  band energies     occupation 
      1     -40.8541      2.00000
      2     -40.7424      2.00000
      3     -40.7134      2.00000
      4       3.2934      2.00000
      5       7.5110      2.00000
      6       8.5058      2.00000
      7       8.6017      2.00000
      8       9.7199      2.00000
      9      10.5720      2.00000
     10      26.8892      0.00000
     11      28.3228      0.00000
     12      31.7221      0.00000
     13      34.2582      0.00000
     14      34.6166      0.00000
     15      38.9280      0.00000
     16      39.3551      0.00000
     17      43.3073      0.00000
     18      43.8742      0.00000
     19      47.8402      0.00000
     20      50.0792      0.00000
     21      52.4913      0.00000
     22      53.2501      0.00000
     23      55.0823      0.00000
     24      61.3973      0.00000

 k-point     3 :       0.4167    0.0833    0.0833
  band No.  band energies     occupation 
      1     -41.0603      2.00000
      2     -40.7784      2.00000
      3     -40.7478      2.00000
      4       4.7461      2.00000
      5       8.0823      2.00000
      6       8.3547      2.00000
      7       8.6588      2.00000
      8      10.8281      2.00000
      9      12.0342      0.00000
     10      21.0621      0.00000
     11      27.1287      0.00000
     12      30.3563      0.00000
     13      33.1442      0.00000
     14      36.1738      0.00000
     15      38.7722      0.00000
     16      39.6221      0.00000
     17      44.5836      0.00000
     18      47.3919      0.00000
     19      50.1700      0.00000
     20      51.4375      0.00000
     21      52.4908      0.00000
     22      54.3764      0.00000
     23      56.1785      0.00000
     24      58.0906      0.00000

 k-point     4 :      -0.4167    0.0833    0.0833
  band No.  band energies     occupation 
      1     -41.1321      2.00000
      2     -40.7805      2.00000
      3     -40.7691      2.00000
      4       4.8093      2.00000
      5       7.8479      2.00000
      6       8.2155      2.00000
      7      10.0209      2.00000
      8      11.8516      0.10159
      9      13.1085      0.00000
     10      17.6541      0.00000
     11      26.4054      0.00000
     12      30.1779      0.00000
     13      30.2806      0.00000
     14      39.3391      0.00000
     15      39.8589      0.00000
     16      41.5724      0.00000
     17      45.2181      0.00000
     18      47.5340      0.00000
     19      47.9559      0.00000
     20      52.4888      0.00000
     21      52.9728      0.00000
     22      54.3847      0.00000
     23      56.8319      0.00000
     24      58.3413      0.00000

 k-point     5 :      -0.2500    0.0833    0.0833
  band No.  band energies     occupation 
      1     -40.9984      2.00000
      2     -40.7561      2.00000
      3     -40.7487      2.00000
      4       4.4786      2.00000
      5       7.8002      2.00000
      6       8.2343      2.00000
      7       8.5480      2.00000
      8      10.7316      2.00000
      9      11.1598      2.00000
     10      23.1508      0.00000
     11      27.8377      0.00000
     12      31.5723      0.00000
     13      33.1322      0.00000
     14      36.6738      0.00000
     15      36.9831      0.00000
     16      38.2676      0.00000
     17      43.4869      0.00000
     18      48.9510      0.00000
     19      49.3916      0.00000
     20      50.9132      0.00000
     21      51.7482      0.00000
     22      52.4920      0.00000
     23      57.0596      0.00000
     24      59.3523      0.00000

 k-point     6 :      -0.0833    0.0833    0.0833
  band No.  band energies     occupation 
      1     -40.7881      2.00000
      2     -40.7224      2.00000
      3     -40.7163      2.00000
      4       2.6737      2.00000
      5       7.5855      2.00000
      6       8.4926      2.00000
      7       8.5075      2.00000
      8       9.7157      2.00000
      9      10.3801      2.00000
     10      27.8324      0.00000
     11      28.6513      0.00000
     12      31.6422      0.00000
     13      32.3250      0.00000
     14      37.4082      0.00000
     15      38.8428      0.00000
     16      41.0067      0.00000
     17      41.8451      0.00000
     18      43.3370      0.00000
     19      49.0677      0.00000
     20      50.0579      0.00000
     21      50.6622      0.00000
     22      52.4885      0.00000
     23      54.9018      0.00000
     24      61.5113      0.00000

 k-point     7 :       0.2500    0.2500    0.0833
  band No.  band energies     occupation 
      1     -40.8793      2.00000
      2     -40.7590      2.00000
      3     -40.7560      2.00000
      4       3.9075      2.00000
      5       6.9404      2.00000
      6       8.6679      2.00000
      7       9.1265      2.00000
      8       9.6464      2.00000
      9      10.8075      2.00000
     10      27.5941      0.00000
     11      29.3805      0.00000
     12      30.2673      0.00000
     13      31.2433      0.00000
     14      35.3114      0.00000
     15      37.9161      0.00000
     16      38.5596      0.00000
     17      43.7227      0.00000
     18      46.2259      0.00000
     19      46.7096      0.00000
     20      51.4718      0.00000
     21      52.4230      0.00000
     22      52.4913      0.00000
     23      55.7183      0.00000
     24      63.0734      0.00000

 k-point     8 :       0.4167    0.2500    0.0833
  band No.  band energies     occupation 
      1     -41.0069      2.00000
      2     -40.8297      2.00000
      3     -40.7838      2.00000
      4       5.4577      2.00000
      5       6.6700      2.00000
      6       7.9302      2.00000
      7       9.6877      2.00000
      8      10.7889      2.00000
      9      12.3234      0.00000
     10      23.5378      0.00000
     11      27.0283      0.00000
     12      28.3989      0.00000
     13      32.1166      0.00000
     14      35.2156      0.00000
     15      38.6308      0.00000
     16      40.5349      0.00000
     17      43.5917      0.00000
     18      45.9568      0.00000
     19      49.2864      0.00000
     20      52.4897      0.00000
     21      52.8621      0.00000
     22      53.7720      0.00000
     23      56.6720      0.00000
     24      60.8666      0.00000

 k-point     9 :      -0.4167    0.2500    0.0833
  band No.  band energies     occupation 
      1     -41.0828      2.00000
      2     -40.8787      2.00000
      3     -40.8015      2.00000
      4       5.8149      2.00000
      5       7.0966      2.00000
      6       8.3251      2.00000
      7       9.2435      2.00000
      8      11.6846      1.99797
      9      15.9051      0.00000
     10      17.5341      0.00000
     11      26.1235      0.00000
     12      27.1539      0.00000
     13      30.6636      0.00000
     14      37.9393      0.00000
     15      40.4265      0.00000
     16      42.2430      0.00000
     17      44.3133      0.00000
     18      47.0320      0.00000
     19      50.3175      0.00000
     20      50.9338      0.00000
     21      52.4928      0.00000
     22      53.5066      0.00000
     23      57.1976      0.00000
     24      58.6123      0.00000

 k-point    10 :      -0.2500    0.2500    0.0833
  band No.  band energies     occupation 
      1     -41.0347      2.00000
      2     -40.8737      2.00000
      3     -40.7729      2.00000
      4       5.9473      2.00000
      5       7.3695      2.00000
      6       7.4513      2.00000
      7       9.3771      2.00000
      8      10.5841      2.00000
      9      13.6439      0.00000
     10      21.6360      0.00000
     11      25.4273      0.00000
     12      28.5935      0.00000
     13      32.7331      0.00000
     14      34.9986      0.00000
     15      39.9212      0.00000
     16      42.1760      0.00000
     17      43.7221      0.00000
     18      46.7404      0.00000
     19      48.8248      0.00000
     20      51.5063      0.00000
     21      52.4918      0.00000
     22      55.8277      0.00000
     23      56.4955      0.00000
     24      57.9813      0.00000

 k-point    11 :      -0.0833    0.2500    0.0833
  band No.  band energies     occupation 
      1     -40.9354      2.00000
      2     -40.7818      2.00000
      3     -40.7386      2.00000
      4       4.3819      2.00000
      5       7.1439      2.00000
      6       8.3071      2.00000
      7       9.0095      2.00000
      8       9.8581      2.00000
      9      11.3081      2.00000
     10      25.3775      0.00000
     11      28.4498      0.00000
     12      30.5959      0.00000
     13      32.0716      0.00000
     14      36.7577      0.00000
     15      37.2225      0.00000
     16      39.6063      0.00000
     17      42.0750      0.00000
     18      46.9268      0.00000
     19      48.3983      0.00000
     20      49.4283      0.00000
     21      52.4895      0.00000
     22      54.5803      0.00000
     23      57.1964      0.00000
     24      59.8488      0.00000

 k-point    12 :       0.4167    0.4167    0.0833
  band No.  band energies     occupation 
      1     -41.0602      2.00000
      2     -40.8497      2.00000
      3     -40.8376      2.00000
      4       5.2204      2.00000
      5       5.7475      2.00000
      6       9.8664      2.00000
      7      10.8941      2.00000
      8      11.8194      0.46700
      9      12.3482      0.00000
     10      23.2749      0.00000
     11      25.2471      0.00000
     12      25.4156      0.00000
     13      31.5604      0.00000
     14      33.8278      0.00000
     15      40.5265      0.00000
     16      42.5387      0.00000
     17      43.8839      0.00000
     18      47.1988      0.00000
     19      48.1547      0.00000
     20      52.4890      0.00000
     21      54.5111      0.00000
     22      55.0228      0.00000
     23      57.0321      0.00000
     24      57.6835      0.00000

 k-point    13 :      -0.4167    0.4167    0.0833
  band No.  band energies     occupation 
      1     -41.0778      2.00000
      2     -40.9103      2.00000
      3     -40.8549      2.00000
      4       5.4716      2.00000
      5       5.9397      2.00000
      6       9.4674      2.00000
      7      10.9065      2.00000
      8      12.0751      0.00000
      9      16.2204      0.00000
     10      19.5339      0.00000
     11      22.6559      0.00000
     12      24.3610      0.00000
     13      33.2711      0.00000
     14      35.7135      0.00000
     15      39.0862      0.00000
     16      43.4651      0.00000
     17      46.5753      0.00000
     18      47.2789      0.00000
     19      49.5997      0.00000
     20      51.5774      0.00000
     21      52.4913      0.00000
     22      53.6297      0.00000
     23      55.7957      0.00000
     24      57.2692      0.00000

 k-point    14 :      -0.2500    0.4167    0.0833
  band No.  band energies     occupation 
      1     -41.0347      2.00000
      2     -40.9592      2.00000
      3     -40.8171      2.00000
      4       6.2022      2.00000
      5       6.9221      2.00000
      6       7.9869      2.00000
      7       9.8153      2.00000
      8      11.4469      2.00000
      9      16.4484      0.00000
     10      19.1348      0.00000
     11      22.7532      0.00000
     12      27.0403      0.00000
     13      31.7419      0.00000
     14      37.2902      0.00000
     15      40.4383      0.00000
     16      41.1468      0.00000
     17      45.5155      0.00000
     18      47.4603      0.00000
     19      51.6123      0.00000
     20      52.3705      0.00000
     21      52.4809      0.00000
     22      52.5022      0.00000
     23      54.7082      0.00000
     24      58.9683      0.00000

 k-point    15 :      -0.0833    0.4167    0.0833
  band No.  band energies     occupation 
      1     -41.0923      2.00000
      2     -40.8165      2.00000
      3     -40.7728      2.00000
      4       5.2172      2.00000
      5       7.6366      2.00000
      6       8.5487      2.00000
      7       8.7832      2.00000
      8      11.4662      2.00000
      9      13.4640      0.00000
     10      19.1625      0.00000
     11      27.0890      0.00000
     12      28.5750      0.00000
     13      31.1931      0.00000
     14      37.5978      0.00000
     15      39.9517      0.00000
     16      41.9363      0.00000
     17      43.3038      0.00000
     18      48.8439      0.00000
     19      49.3512      0.00000
     20      50.0637      0.00000
     21      52.4903      0.00000
     22      54.9593      0.00000
     23      56.8581      0.00000
     24      58.2780      0.00000

 k-point    16 :      -0.4167   -0.4167    0.0833
  band No.  band energies     occupation 
      1     -41.1068      2.00000
      2     -40.8753      2.00000
      3     -40.8589      2.00000
      4       5.0157      2.00000
      5       5.4604      2.00000
      6      11.1110      2.00000
      7      11.5203      2.00000
      8      12.1504      0.00000
      9      14.2950      0.00000
     10      20.6332      0.00000
     11      23.1573      0.00000
     12      23.7600      0.00000
     13      32.1342      0.00000
     14      34.7809      0.00000
     15      40.0865      0.00000
     16      44.8142      0.00000
     17      46.7707      0.00000
     18      47.2329      0.00000
     19      49.4040      0.00000
     20      52.4889      0.00000
     21      52.6965      0.00000
     22      53.4351      0.00000
     23      54.0293      0.00000
     24      55.6678      0.00000

 k-point    17 :      -0.2500   -0.4167    0.0833
  band No.  band energies     occupation 
      1     -41.0557      2.00000
      2     -40.8776      2.00000
      3     -40.8286      2.00000
      4       5.6691      2.00000
      5       6.2138      2.00000
      6       8.5261      2.00000
      7      10.5034      2.00000
      8      11.6412      1.99998
      9      13.9705      0.00000
     10      21.4019      0.00000
     11      24.8189      0.00000
     12      25.9889      0.00000
     13      32.4929      0.00000
     14      35.2314      0.00000
     15      39.3927      0.00000
     16      42.3940      0.00000
     17      44.7541      0.00000
     18      47.1572      0.00000
     19      48.5918      0.00000
     20      51.4614      0.00000
     21      52.4909      0.00000
     22      55.1232      0.00000
     23      58.1104      0.00000
     24      59.4662      0.00000

 k-point    18 :      -0.2500   -0.2500    0.0833
  band No.  band energies     occupation 
      1     -40.9779      2.00000
      2     -40.8056      2.00000
      3     -40.8011      2.00000
      4       5.0526      2.00000
      5       6.2737      2.00000
      6       8.6577      2.00000
      7       9.9793      2.00000
      8      10.7206      2.00000
      9      11.3284      2.00000
     10      25.9072      0.00000
     11      27.6842      0.00000
     12      28.5567      0.00000
     13      31.3823      0.00000
     14      32.7447      0.00000
     15      39.2763      0.00000
     16      39.8818      0.00000
     17      44.2214      0.00000
     18      45.1135      0.00000
     19      49.5197      0.00000
     20      52.4892      0.00000
     21      53.5025      0.00000
     22      54.0217      0.00000
     23      54.9023      0.00000
     24      61.9058      0.00000

 k-point    19 :       0.2500    0.2500    0.2500
  band No.  band energies     occupation 
      1     -40.9227      2.00000
      2     -40.7291      2.00000
      3     -40.7291      2.00000
      4       3.7320      2.00000
      5       7.7389      2.00000
      6       8.4496      2.00000
      7       8.4496      2.00000
      8      10.3735      2.00000
      9      10.3735      2.00000
     10      25.0038      0.00000
     11      28.1156      0.00000
     12      34.2438      0.00000
     13      34.2438      0.00000
     14      35.1685      0.00000
     15      36.5429      0.00000
     16      36.5429      0.00000
     17      45.8982      0.00000
     18      46.8918      0.00000
     19      46.8918      0.00000
     20      50.6619      0.00000
     21      52.4931      0.00000
     22      53.5246      0.00000
     23      53.5246      0.00000
     24      61.1107      0.00000

 k-point    20 :       0.4167    0.2500    0.2500
  band No.  band energies     occupation 
      1     -40.9951      2.00000
      2     -40.8234      2.00000
      3     -40.7420      2.00000
      4       5.1540      2.00000
      5       7.3527      2.00000
      6       8.0631      2.00000
      7       8.9562      2.00000
      8       9.8898      2.00000
      9      12.3815      0.00000
     10      23.4034      0.00000
     11      27.1389      0.00000
     12      29.5784      0.00000
     13      33.3299      0.00000
     14      34.8892      0.00000
     15      39.3382      0.00000
     16      41.6855      0.00000
     17      41.7559      0.00000
     18      46.1910      0.00000
     19      47.7427      0.00000
     20      52.4914      0.00000
     21      52.9250      0.00000
     22      55.5634      0.00000
     23      56.6777      0.00000
     24      58.1865      0.00000

 k-point    21 :      -0.4167    0.2500    0.2500
  band No.  band energies     occupation 
      1     -41.0439      2.00000
      2     -40.9232      2.00000
      3     -40.7846      2.00000
      4       6.1451      2.00000
      5       7.2580      2.00000
      6       7.9107      2.00000
      7       9.3565      2.00000
      8      10.8273      2.00000
      9      14.8646      0.00000
     10      20.3000      0.00000
     11      23.8092      0.00000
     12      29.4884      0.00000
     13      30.5307      0.00000
     14      36.5360      0.00000
     15      39.0822      0.00000
     16      42.7461      0.00000
     17      46.9123      0.00000
     18      48.0007      0.00000
     19      49.0569      0.00000
     20      50.2175      0.00000
     21      52.4909      0.00000
     22      53.0221      0.00000
     23      55.8873      0.00000
     24      58.7449      0.00000

 k-point    22 :      -0.2500    0.2500    0.2500
  band No.  band energies     occupation 
      1     -41.0698      2.00000
      2     -40.8789      2.00000
      3     -40.8139      2.00000
      4       5.6550      2.00000
      5       6.7968      2.00000
      6       8.3314      2.00000
      7       9.6452      2.00000
      8      11.9617      0.00000
      9      14.7977      0.00000
     10      19.1160      0.00000
     11      25.7517      0.00000
     12      27.2812      0.00000
     13      30.5166      0.00000
     14      38.3113      0.00000
     15      39.0628      0.00000
     16      41.1316      0.00000
     17      44.9076      0.00000
     18      47.7531      0.00000
     19      48.4266      0.00000
     20      52.4907      0.00000
     21      52.8188      0.00000
     22      54.4304      0.00000
     23      56.9636      0.00000
     24      60.4567      0.00000

 k-point    23 :       0.4167    0.4167    0.2500
  band No.  band energies     occupation 
      1     -41.0519      2.00000
      2     -40.8037      2.00000
      3     -40.7872      2.00000
      4       5.2541      2.00000
      5       7.4323      2.00000
      6       7.9528      2.00000
      7       8.9668      2.00000
      8      11.7715      1.47007
      9      12.3263      0.00000
     10      21.1374      0.00000
     11      27.6884      0.00000
     12      29.0094      0.00000
     13      30.8235      0.00000
     14      38.2268      0.00000
     15      38.4553      0.00000
     16      40.2627      0.00000
     17      42.2934      0.00000
     18      48.0558      0.00000
     19      49.9357      0.00000
     20      52.2184      0.00000
     21      52.4901      0.00000
     22      54.3994      0.00000
     23      55.8285      0.00000
     24      58.8085      0.00000

 k-point    24 :      -0.4167    0.4167    0.2500
  band No.  band energies     occupation 
      1     -41.0444      2.00000
      2     -40.9221      2.00000
      3     -40.8189      2.00000
      4       6.3995      2.00000
      5       6.8389      2.00000
      6       7.4854      2.00000
      7       9.9676      2.00000
      8      11.4257      2.00000
      9      15.4088      0.00000
     10      20.1282      0.00000
     11      23.7128      0.00000
     12      26.3945      0.00000
     13      32.9384      0.00000
     14      35.9142      0.00000
     15      41.3211      0.00000
     16      41.5346      0.00000
     17      43.7576      0.00000
     18      47.5340      0.00000
     19      49.6755      0.00000
     20      51.2133      0.00000
     21      52.4915      0.00000
     22      53.9120      0.00000
     23      57.1319      0.00000
     24      59.0023      0.00000

 k-point    25 :      -0.2500    0.4167    0.2500
  band No.  band energies     occupation 
      1     -41.0289      2.00000
      2     -40.9611      2.00000
      3     -40.8546      2.00000
      4       6.1797      2.00000
      5       6.7437      2.00000
      6       7.9298      2.00000
      7      10.0496      2.00000
      8      12.0444      0.00000
      9      17.7413      0.00000
     10      19.1627      0.00000
     11      21.8027      0.00000
     12      24.4334      0.00000
     13      34.3673      0.00000
     14      36.6388      0.00000
     15      39.2422      0.00000
     16      43.4482      0.00000
     17      44.0295      0.00000
     18      45.9316      0.00000
     19      49.5296      0.00000
     20      52.4916      0.00000
     21      53.1059      0.00000
     22      54.5596      0.00000
     23      57.7850      0.00000
     24      58.7563      0.00000

 k-point    26 :      -0.4167   -0.4167    0.2500
  band No.  band energies     occupation 
      1     -41.0552      2.00000
      2     -40.9470      2.00000
      3     -40.8294      2.00000
      4       5.6642      2.00000
      5       6.4691      2.00000
      6       8.8974      2.00000
      7      10.3570      2.00000
      8      11.7190      1.96543
      9      17.4414      0.00000
     10      17.9195      0.00000
     11      22.5936      0.00000
     12      26.4659      0.00000
     13      31.4579      0.00000
     14      38.1886      0.00000
     15      39.1674      0.00000
     16      40.6336      0.00000
     17      47.9534      0.00000
     18      48.3936      0.00000
     19      48.9565      0.00000
     20      52.3302      0.00000
     21      52.4929      0.00000
     22      53.1513      0.00000
     23      56.5283      0.00000
     24      57.6872      0.00000

 k-point    27 :       0.4167    0.4167    0.4167
  band No.  band energies     occupation 
      1     -41.1147      2.00000
      2     -40.7577      2.00000
      3     -40.7577      2.00000
      4       4.5836      2.00000
      5       8.0928      2.00000
      6       8.0928      2.00000
      7      10.2490      2.00000
      8      11.5873      2.00000
      9      11.5873      2.00000
     10      19.0506      0.00000
     11      26.3096      0.00000
     12      31.2975      0.00000
     13      31.2975      0.00000
     14      39.0160      0.00000
     15      39.0160      0.00000
     16      39.4358      0.00000
     17      46.9120      0.00000
     18      46.9120      0.00000
     19      48.0882      0.00000
     20      52.4907      0.00000
     21      54.9131      0.00000
     22      54.9131      0.00000
     23      55.8131      0.00000
     24      58.0824      0.00000

 k-point    28 :      -0.4167    0.4167    0.4167
  band No.  band energies     occupation 
      1     -41.1040      2.00000
      2     -40.8428      2.00000
      3     -40.7788      2.00000
      4       5.3995      2.00000
      5       7.4583      2.00000
      6       8.6928      2.00000
      7       8.9797      2.00000
      8      11.5071      2.00000
      9      14.7950      0.00000
     10      17.7220      0.00000
     11      26.5191      0.00000
     12      28.6223      0.00000
     13      30.2012      0.00000
     14      38.4292      0.00000
     15      39.3450      0.00000
     16      42.8001      0.00000
     17      46.1920      0.00000
     18      47.6150      0.00000
     19      47.6848      0.00000
     20      51.6157      0.00000
     21      52.3627      0.00000
     22      52.4912      0.00000
     23      57.7017      0.00000
     24      58.6039      0.00000


--------------------------------------------------------------------------------------------------------


 soft charge-density along one line, spin component           1
         0         1         2         3         4         5         6         7         8         9
 total charge-density along one line
 
 pseudopotential strength for first ion, spin component:           1
-31.477  -0.000  -0.000  10.529   0.000   0.000  -0.000  -0.000
 -0.000 -31.477  -0.000   0.000  10.529   0.000  -0.000  -0.000
 -0.000  -0.000 -31.477   0.000   0.000  10.529  -0.000  -0.000
 10.529   0.000   0.000  16.331  -0.000  -0.000   0.000  -0.000
  0.000  10.529   0.000  -0.000  16.331  -0.000   0.000   0.000
  0.000   0.000  10.529  -0.000  -0.000  16.331   0.000   0.000
 -0.000  -0.000  -0.000   0.000   0.000   0.000  -3.582   0.000
 -0.000  -0.000  -0.000  -0.000   0.000   0.000   0.000  -3.582
  0.000  -0.000   0.000  -0.000   0.000   0.000   0.000  -0.000
 -0.000  -0.000  -0.000   0.000   0.000  -0.000   0.000   0.000
  0.000   0.000  -0.000  -0.000  -0.000  -0.000   0.000   0.000
 -0.000  -0.000  -0.000   0.000   0.000   0.000  -3.795   0.000
  0.000  -0.000  -0.000  -0.000   0.000   0.000   0.000  -3.795
  0.000   0.000   0.000  -0.000  -0.000  -0.000   0.000  -0.000
 -0.000  -0.000   0.000   0.000   0.000  -0.000   0.000   0.000
  0.000   0.000  -0.000  -0.000  -0.000   0.000   0.000   0.000
  0.000  -0.000   0.000   0.000   0.000   0.000   0.000   0.000
 -0.000   0.000  -0.000  -0.000   0.000  -0.000  -0.000  -0.000
 total augmentation occupancy for first ion, spin component:           1
  2.002  -0.000   0.000  -0.021   0.000  -0.000   0.000   0.000   0.000   0.000   0.000   0.000   0.000   0.000   0.000   0.000
 -0.000   2.002  -0.000   0.000  -0.021   0.000   0.000   0.000   0.000   0.000   0.000   0.000   0.000   0.000   0.000   0.000
  0.000   0.000   2.002  -0.000  -0.000  -0.021   0.000   0.000   0.000   0.000   0.000   0.000   0.000   0.000   0.000   0.000
 -0.021   0.000  -0.000   0.050   0.000  -0.000   0.000   0.000   0.000   0.000   0.000   0.000   0.000   0.000   0.000   0.000
  0.000  -0.021   0.000   0.000   0.050   0.000   0.000   0.000   0.000   0.000   0.000   0.000   0.000   0.000   0.000   0.000
  0.000  -0.000  -0.021  -0.000   0.000   0.050   0.000   0.000   0.000   0.000   0.000   0.000   0.000   0.000   0.000   0.000
  0.000   0.000   0.000   0.000   0.000   0.000   5.407  -0.000  -0.000  -0.000   0.000  -3.069   0.000   0.000   0.000   0.000
  0.000   0.000   0.000   0.000   0.000   0.000  -0.000   5.407  -0.000  -0.000  -0.000   0.000  -3.069  -0.000   0.000   0.000
  0.000   0.000   0.000   0.000   0.000   0.000  -0.000  -0.000   4.445  -0.000  -0.000   0.000   0.000  -2.423  -0.000   0.000
  0.000   0.000   0.000   0.000   0.000   0.000  -0.000  -0.000   0.000   5.407   0.000   0.000   0.000   0.000  -3.069  -0.000
  0.000   0.000   0.000   0.000   0.000   0.000   0.000   0.000   0.000   0.000   4.445   0.000   0.000   0.000  -0.000  -2.423
  0.000   0.000   0.000   0.000   0.000   0.000  -3.069   0.000   0.000   0.000   0.000   2.477   0.000   0.000   0.000   0.000
  0.000   0.000   0.000   0.000   0.000   0.000   0.000  -3.069   0.000   0.000   0.000   0.000   2.477   0.000   0.000   0.000
  0.000   0.000   0.000   0.000   0.000   0.000   0.000  -0.000  -2.423  -0.000   0.000   0.000   0.000   2.248   0.000   0.000
  0.000   0.000   0.000   0.000   0.000   0.000   0.000   0.000   0.000  -3.069   0.000  -0.000   0.000   0.000   2.477  -0.000
  0.000   0.000   0.000   0.000   0.000   0.000   0.000   0.000   0.000  -0.000  -2.423   0.000  -0.000  -0.000  -0.000   2.248
  0.000   0.000   0.000   0.000   0.000   0.000   0.000  -0.000   0.000   0.000   0.000  -0.000   0.000  -0.000  -0.000   0.000
  0.000   0.000   0.000   0.000   0.000   0.000   0.000   0.000   0.000  -0.000  -0.000  -0.000   0.000   0.000   0.000   0.000


------------------------ aborting loop because EDIFF is reached ----------------------------------------


    CHARGE:  cpu time      0.0088: real time      0.0089
    FORLOC:  cpu time      0.0001: real time      0.0001
    FORNL :  cpu time      0.0027: real time      0.0027
    STRESS:  cpu time      0.0320: real time      0.0321
    FORCOR:  cpu time      0.0019: real time      0.0019
    FORHAR:  cpu time      0.0004: real time      0.0004
    MIXING:  cpu time      0.0002: real time      0.0002
    OFIELD:  cpu time      0.0000: real time      0.0000

  FORCE on cell =-STRESS in cart. coord.  units (eV):
  Direction    XX          YY          ZZ          XY          YZ          ZX
  --------------------------------------------------------------------------------------
  Alpha Z   156.91311   156.91311   156.91311
  Ewald    -714.94866  -714.94866  -714.94866    -0.00000     0.00000     0.00000
  Hartree   126.20711   126.20711   126.20711     0.00000     0.00000     0.00000
  E(xc)     -85.54033   -85.54033   -85.54033     0.00000     0.00000     0.00000
  Local     124.97163   124.97163   124.97163     0.00000     0.00000     0.00000
  n-local   -29.77373   -27.13808   -32.98831     3.44998    -4.00896    -0.66572
  augment    73.36175    73.36175    73.36175     0.00000     0.00000     0.00000
  Kinetic   348.56696   353.27201   346.31708     4.12202    -4.47610     1.76477
  Fock        0.00000     0.00000     0.00000     0.00000     0.00000     0.00000
  -------------------------------------------------------------------------------------
  Total       0.38327     0.38327     0.38327     0.00000     0.00000    -0.00000
  in kB      40.15893    40.15893    40.15893     0.00000     0.00000    -0.00000
  external pressure =       40.16 kB  Pullay stress =        0.00 kB


 VOLUME and BASIS-vectors are now :
 -----------------------------------------------------------------------------
  energy-cutoff  :      450.00
  volume of cell :       15.29
      direct lattice vectors                 reciprocal lattice vectors
     0.000000000  1.970000000  1.970000000    -0.253807107  0.253807107  0.253807107
     1.970000000  0.000000000  1.970000000     0.253807107 -0.253807107  0.253807107
     1.970000000  1.970000000  0.000000000     0.253807107  0.253807107 -0.253807107

  length of vectors
     2.786000718  2.786000718  2.786000718     0.439606804  0.439606804  0.439606804


 FORCES acting on ions
    electron-ion (+dipol)            ewald-force                    non-local-force                 convergence-correction
 -----------------------------------------------------------------------------------------------
   -.612E-14 -.743E-14 -.704E-15   -.456E-14 -.897E-14 -.116E-13   -.323E-25 0.123E-24 0.000E+00   -.367E-13 -.102E-12 -.384E-13
 -----------------------------------------------------------------------------------------------
   -.612E-14 -.743E-14 -.704E-15   -.456E-14 -.897E-14 -.116E-13   -.323E-25 0.123E-24 0.000E+00   -.367E-13 -.102E-12 -.384E-13
 
 
 POSITION                                       TOTAL-FORCE (eV/Angst)
 -----------------------------------------------------------------------------------
      0.00000      0.00000      0.00000        -0.000000     -0.000000     -0.000000
 -----------------------------------------------------------------------------------
    total drift:                               -0.000000     -0.000000     -0.000000


--------------------------------------------------------------------------------------------------------



  FREE ENERGIE OF THE ION-ELECTRON SYSTEM (eV)
  ---------------------------------------------------
  free  energy   TOTEN  =        -6.09254340 eV

  energy  without entropy=       -6.09099590  energy(sigma->0) =       -6.09176965
 


--------------------------------------------------------------------------------------------------------


    POTLOK:  cpu time      0.0045: real time      0.0045


--------------------------------------------------------------------------------------------------------


     LOOP+:  cpu time      1.9778: real time      1.9960
    4ORBIT:  cpu time      0.0000: real time      0.0000

 total amount of memory used by VASP MPI-rank0    32276. kBytes
=======================================================================

   base      :      30000. kBytes
   nonl-proj :       1457. kBytes
   fftplans  :        147. kBytes
   grid      :        485. kBytes
   one-center:         15. kBytes
   wavefun   :        172. kBytes
 
  
  
 General timing and accounting informations for this job:
 ========================================================
  
                  Total CPU time used (sec):        2.697
                            User time (sec):        2.234
                          System time (sec):        0.463
                         Elapsed time (sec):        4.488
  
                   Maximum memory used (kb):      219280.
                   Average memory used (kb):          N/A
  
                          Minor page faults:        17596
                          Major page faults:           89
                 Voluntary context switches:         2222
