Co-fcc                                  
   1.00000000000000     
     0.000000    1.771810    1.771810
     1.771810    0.000000    1.771810
     1.771810    1.771810    0.000000
   Co
     1
Direct
  0.000000  0.000000  0.000000
 
   32   32   32
  105.54      103.16      96.340      86.004      73.405      59.876      46.605      34.523      24.283      16.257    
  10.544      6.9643      5.0754      4.2524      3.8439      3.6011      3.5210      3.6011      3.8439      4.2524    
  5.0754      6.9643      10.544      16.257      24.283      34.523      46.605      59.876      73.405      86.004    
  96.340      103.16      103.16      98.558      89.993      78.558      65.555      52.243      39.674      28.633    
  19.627      12.890      8.3800      5.7796      4.5445      4.0087      3.6877      3.5287      3.5287      3.6877    
  4.0087      4.5445      5.7796      8.3800      12.890      19.627      28.633      39.674      52.243      65.555    
  78.558      89.993      98.558      103.16      96.340      89.993      80.356      68.590      55.933      43.502    
  32.187      22.613      15.144      9.8697      6.6039      4.9083      4.1712      3.7818      3.5501      3.4739    
  3.5501      3.7818      4.1712      4.9083      6.6039      9.8697      15.144      22.613      32.187      43.502    
  55.933      68.590      80.356      89.993      96.340      98.558      86.004      78.558      68.590      57.218    
  45.545      34.516      24.849      17.018      11.236      7.4434      5.3200      4.3373      3.8749      3.5813    
  3.4373      3.4373      3.5813      3.8749      4.3373      5.3200      7.4434      11.236      17.018      24.849    
  34.516      45.545      57.218      68.590      78.558      86.004      89.993      89.993      73.405      65.555    
  55.933      45.545      35.327      26.046      18.259      12.281      8.1697      5.7217      4.5076      3.9587    
  3.6166      3.4162      3.3508      3.4162      3.6166      3.9587      4.5076      5.7217      8.1697      12.281    
  18.259      26.046      35.327      45.545      55.933      65.555      73.405      78.558      80.356      78.558    
  59.876      52.243      43.502      34.516      26.046      18.694      12.848      8.6626      6.0429      4.6613    
  4.0265      3.6500      3.4065      3.2890      3.2890      3.4065      3.6500      4.0265      4.6613      6.0429    
  8.6626      12.848      18.694      26.046      34.516      43.502      52.243      59.876      65.555      68.590    
  68.590      65.555      46.605      39.674      32.187      24.849      18.259      12.848      8.8371      6.2214    
  4.7696      4.0755      3.6770      3.4038      3.2478      3.1976      3.2478      3.4038      3.6770      4.0755    
  4.7696      6.2214      8.8371      12.848      18.259      24.849      32.187      39.674      46.605      52.243    
  55.933      57.218      55.933      52.243      34.523      28.633      22.613      17.018      12.281      8.6626    
  6.2214      4.8087      4.1018      3.6943      3.4041      3.2226      3.1368      3.1368      3.2226      3.4041    
  3.6943      4.1018      4.8087      6.2214      8.6626      12.281      17.018      22.613      28.633      34.523    
  39.674      43.502      45.545      45.545      43.502      39.674      24.283      19.627      15.144      11.236    
  8.1697      6.0429      4.7696      4.1018      3.7002      3.4050      3.2093      3.1005      3.0659      3.1005    
  3.2093      3.4050      3.7002      4.1018      4.7696      6.0429      8.1697      11.236      15.144      19.627    
  24.283      28.633      32.187      34.516      35.327      34.516      32.187      28.633      16.257      12.890    
  9.8697      7.4434      5.7217      4.6613      4.0755      3.6943      3.4050      3.2052      3.0838      3.0273    
  3.0273      3.0838      3.2052      3.4050      3.6943      4.0755      4.6613      5.7217      7.4434      9.8697    
  12.890      16.257      19.627      22.613      24.849      26.046      26.046      24.849      22.613      19.627    
  10.544      8.3800      6.6039      5.3200      4.5076      4.0265      3.6770      3.4041      3.2093      3.0838    
  3.0152      2.9935      3.0152      3.0838      3.2093      3.4041      3.6770      4.0265      4.5076      5.3200    
  6.6039      8.3800      10.544      12.890      15.144      17.018      18.259      18.694      18.259      17.018    
  15.144      12.890      6.9643      5.7796      4.9083      4.3373      3.9587      3.6500      3.4038      3.2226    
  3.1005      3.0273      2.9935      2.9935      3.0273      3.1005      3.2226      3.4038      3.6500      3.9587    
  4.3373      4.9083      5.7796      6.9643      8.3800      9.8697      11.236      12.281      12.848      12.848    
  12.281      11.236      9.8697      8.3800      5.0754      4.5445      4.1712      3.8749      3.6166      3.4065    
  3.2478      3.1368      3.0659      3.0273      3.0152      3.0273      3.0659      3.1368      3.2478      3.4065    
  3.6166      3.8749      4.1712      4.5445      5.0754      5.7796      6.6039      7.4434      8.1697      8.6626    
  8.8371      8.6626      8.1697      7.4434      6.6039      5.7796      4.2524      4.0087      3.7818      3.5813    
  3.4162      3.2890      3.1976      3.1368      3.1005      3.0838      3.0838      3.1005      3.1368      3.1976    
  3.2890      3.4162      3.5813      3.7818      4.0087      4.2524      4.5445      4.9083      5.3200      5.7217    
  6.0429      6.2214      6.2214      6.0429      5.7217      5.3200      4.9083      4.5445      3.8439      3.6877    
  3.5501      3.4373      3.3508      3.2890      3.2478      3.2226      3.2093      3.2052      3.2093      3.2226    
  3.2478      3.2890      3.3508      3.4373      3.5501      3.6877      3.8439      4.0087      4.1712      4.3373    
  4.5076      4.6613      4.7696      4.8087      4.7696      4.6613      4.5076      4.3373      4.1712      4.0087    
  3.6011      3.5287      3.4739      3.4373      3.4162      3.4065      3.4038      3.4041      3.4050      3.4050    
  3.4041      3.4038      3.4065      3.4162      3.4373      3.4739      3.5287      3.6011      3.6877      3.7818    
  3.8749      3.9587      4.0265      4.0755      4.1018      4.1018      4.0755      4.0265      3.9587      3.8749    
  3.7818      3.6877      3.5210      3.5287      3.5501      3.5813      3.6166      3.6500      3.6770      3.6943    
  3.7002      3.6943      3.6770      3.6500      3.6166      3.5813      3.5501      3.5287      3.5210      3.5287    
  3.5501      3.5813      3.6166      3.6500      3.6770      3.6943      3.7002      3.6943      3.6770      3.6500    
  3.6166      3.5813      3.5501      3.5287      3.6011      3.6877      3.7818      3.8749      3.9587      4.0265    
  4.0755      4.1018      4.1018      4.0755      4.0265      3.9587      3.8749      3.7818      3.6877      3.6011    
  3.5287      3.4739      3.4373      3.4162      3.4065      3.4038      3.4041      3.4050      3.4050      3.4041    
  3.4038      3.4065      3.4162      3.4373      3.4739      3.5287      3.8439      4.0087      4.1712      4.3373    
  4.5076      4.6613      4.7696      4.8087      4.7696      4.6613      4.5076      4.3373      4.1712      4.0087    
  3.8439      3.6877      3.5501      3.4373      3.3508      3.2890      3.2478      3.2226      3.2093      3.2052    
  3.2093      3.2226      3.2478      3.2890      3.3508      3.4373      3.5501      3.6877      4.2524      4.5445    
  4.9083      5.3200      5.7217      6.0429      6.2214      6.2214      6.0429      5.7217      5.3200      4.9083    
  4.5445      4.2524      4.0087      3.7818      3.5813      3.4162      3.2890      3.1976      3.1368      3.1005    
  3.0838      3.0838      3.1005      3.1368      3.1976      3.2890      3.4162      3.5813      3.7818      4.0087    
  5.0754      5.7796      6.6039      7.4434      8.1697      8.6626      8.8371      8.6626      8.1697      7.4434    
  6.6039      5.7796      5.0754      4.5445      4.1712      3.8749      3.6166      3.4065      3.2478      3.1368    
  3.0659      3.0273      3.0152      3.0273      3.0659      3.1368      3.2478      3.4065      3.6166      3.8749    
  4.1712      4.5445      6.9643      8.3800      9.8697      11.236      12.281      12.848      12.848      12.281    
  11.236      9.8697      8.3800      6.9643      5.7796      4.9083      4.3373      3.9587      3.6500      3.4038    
  3.2226      3.1005      3.0273      2.9935      2.9935      3.0273      3.1005      3.2226      3.4038      3.6500    
  3.9587      4.3373      4.9083      5.7796      10.544      12.890      15.144      17.018      18.259      18.694    
  18.259      17.018      15.144      12.890      10.544      8.3800      6.6039      5.3200      4.5076      4.0265    
  3.6770      3.4041      3.2093      3.0838      3.0152      2.9935      3.0152      3.0838      3.2093      3.4041    
  3.6770      4.0265      4.5076      5.3200      6.6039      8.3800      16.257      19.627      22.613      24.849    
  26.046      26.046      24.849      22.613      19.627      16.257      12.890      9.8697      7.4434      5.7217    
  4.6613      4.0755      3.6943      3.4050      3.2052      3.0838      3.0273      3.0273      3.0838      3.2052    
  3.4050      3.6943      4.0755      4.6613      5.7217      7.4434      9.8697      12.890      24.283      28.633    
  32.187      34.516      35.327      34.516      32.187      28.633      24.283      19.627      15.144      11.236    
  8.1697      6.0429      4.7696      4.1018      3.7002      3.4050      3.2093      3.1005      3.0659      3.1005    
  3.2093      3.4050      3.7002      4.1018      4.7696      6.0429      8.1697      11.236      15.144      19.627    
  34.523      39.674      43.502      45.545      45.545      43.502      39.674      34.523      28.633      22.613    
  17.018      12.281      8.6626      6.2214      4.8087      4.1018      3.6943      3.4041      3.2226      3.1368    
  3.1368      3.2226      3.4041      3.6943      4.1018      4.8087      6.2214      8.6626      12.281      17.018    
  22.613      28.633      46.605      52.243      55.933      57.218      55.933      52.243      46.605      39.674    
  32.187      24.849      18.259      12.848      8.8371      6.2214      4.7696      4.0755      3.6770      3.4038    
  3.2478      3.1976      3.2478      3.4038      3.6770      4.0755      4.7696      6.2214      8.8371      12.848    
  18.259      24.849      32.187      39.674      59.876      65.555      68.590      68.590      65.555      59.876    
  52.243      43.502      34.516      26.046      18.694      12.848      8.6626      6.0429      4.6613      4.0265    
  3.6500      3.4065      3.2890      3.2890      3.4065      3.6500      4.0265      4.6613      6.0429      8.6626    
  12.848      18.694      26.046      34.516      43.502      52.243      73.405      78.558      80.356      78.558    
  73.405      65.555      55.933      45.545      35.327      26.046      18.259      12.281      8.1697      5.7217    
  4.5076      3.9587      3.6166      3.4162      3.3508      3.4162      3.6166      3.9587      4.5076      5.7217    
  8.1697      12.281      18.259      26.046      35.327      45.545      55.933      65.555      86.004      89.993    
  89.993      86.004      78.558      68.590      57.218      45.545      34.516      24.849      17.018      11.236    
  7.4434      5.3200      4.3373      3.8749      3.5813      3.4373      3.4373      3.5813      3.8749      4.3373    
  5.3200      7.4434      11.236      17.018      24.849      34.516      45.545      57.218      68.590      78.558    
  96.340      98.558      96.340      89.993      80.356      68.590      55.933      43.502      32.187      22.613    
  15.144      9.8697      6.6039      4.9083      4.1712      3.7818      3.5501      3.4739      3.5501      3.7818    
  4.1712      4.9083      6.6039      9.8697      15.144      22.613      32.187      43.502      55.933      68.590    
  80.356      89.993      103.16      103.16      98.558      89.993      78.558      65.555      52.243      39.674    
  28.633      19.627      12.890      8.3800      5.7796      4.5445      4.0087      3.6877      3.5287      3.5287    
  3.6877      4.0087      4.5445      5.7796      8.3800      12.890      19.627      28.633      39.674      52.243    
  65.555      78.558      89.993      98.558      103.16      98.558      89.993      78.558      65.555      52.243    
  39.674      28.633      19.627      12.890      8.3800      5.7796      4.5445      4.0087      3.6877      3.5287    
  3.5287      3.6877      4.0087      4.5445      5.7796      8.3800      12.890      19.627      28.633      39.674    
  52.243      65.555      78.558      89.993      98.558      103.16      98.558      92.068      82.215      70.190    
  57.256      44.552      32.983      23.185      15.526      10.102      6.7297      4.9693      4.2039      3.8079    
  3.5723      3.4947      3.5723      3.8079      4.2039      4.9693      6.7297      10.102      15.526      23.185    
  32.983      44.552      57.256      70.190      82.215      92.068      98.558      100.83      89.993      82.215    
  71.806      59.934      47.748      36.226      26.110      17.889      11.788      7.7571      5.4776      4.4145    
  3.9295      3.6261      3.4768      3.4768      3.6261      3.9295      4.4145      5.4776      7.7571      11.788    
  17.889      26.110      36.226      47.748      59.934      71.806      82.215      89.993      94.162      94.162    
  78.558      70.190      59.934      48.862      37.959      28.034      19.671      13.207      8.7187      6.0091    
  4.6455      4.0425      3.6841      3.4730      3.4039      3.4730      3.6841      4.0425      4.6455      6.0091    
  8.7187      13.207      19.671      28.034      37.959      48.862      59.934      70.190      78.558      84.054    
  85.972      84.054      65.555      57.256      47.748      37.959      28.705      20.629      14.155      9.4646    
  6.4788      4.8727      4.1404      3.7393      3.4788      3.3525      3.3525      3.4788      3.7393      4.1404    
  4.8727      6.4788      9.4646      14.155      20.629      28.705      37.959      47.748      57.256      65.555    
  71.730      75.030      75.030      71.730      52.243      44.552      36.226      28.034      20.629      14.487    
  9.8719      6.8020      5.0571      4.2212      3.7856      3.4894      3.3190      3.2640      3.3190      3.4894    
  3.7856      4.2212      5.0571      6.8020      9.8719      14.487      20.629      28.034      36.226      44.552    
  52.243      58.493      62.582      64.006      62.582      58.493      39.674      32.983      26.110      19.671    
  14.155      9.8719      6.9172      5.1607      4.2764      3.8187      3.5003      3.2992      3.2035      3.2035    
  3.2992      3.5003      3.8187      4.2764      5.1607      6.9172      9.8719      14.155      19.671      26.110    
  32.983      39.674      45.507      49.835      52.142      52.142      49.835      45.507      28.633      23.185    
  17.889      13.207      9.4646      6.8020      5.1607      4.2961      3.8358      3.5081      3.2886      3.1656    
  3.1264      3.1656      3.2886      3.5081      3.8358      4.2961      5.1607      6.8020      9.4646      13.207    
  17.889      23.185      28.633      33.691      37.805      40.495      41.430      40.495      37.805      33.691    
  19.627      15.526      11.788      8.7187      6.4788      5.0571      4.2764      3.8358      3.5109      3.2842    
  3.1453      3.0804      3.0804      3.1453      3.2842      3.5109      3.8358      4.2764      5.0571      6.4788    
  8.7187      11.788      15.526      19.627      23.684      27.251      29.909      31.328      31.328      29.909    
  27.251      23.684      12.890      10.102      7.7571      6.0091      4.8727      4.2212      3.8187      3.5081    
  3.2842      3.1390      3.0593      3.0341      3.0593      3.1390      3.2842      3.5081      3.8187      4.2212    
  4.8727      6.0091      7.7571      10.102      12.890      15.855      18.667      20.983      22.508      23.040    
  22.508      20.983      18.667      15.855      8.3800      6.7297      5.4776      4.6455      4.1404      3.7856    
  3.5003      3.2886      3.1453      3.0593      3.0196      3.0196      3.0593      3.1453      3.2886      3.5003    
  3.7856      4.1404      4.6455      5.4776      6.7297      8.3800      10.298      12.275      14.059      15.411    
  16.139      16.139      15.411      14.059      12.275      10.298      5.7796      4.9693      4.4145      4.0425    
  3.7393      3.4894      3.2992      3.1656      3.0804      3.0341      3.0196      3.0341      3.0804      3.1656    
  3.2992      3.4894      3.7393      4.0425      4.4145      4.9693      5.7796      6.8300      8.0249      9.2135    
  10.225      10.904      11.143      10.904      10.225      9.2135      8.0249      6.8300      4.5445      4.2039    
  3.9295      3.6841      3.4788      3.3190      3.2035      3.1264      3.0804      3.0593      3.0593      3.0804    
  3.1264      3.2035      3.3190      3.4788      3.6841      3.9295      4.2039      4.5445      5.0099      5.5983    
  6.2514      6.8747      7.3645      7.6339      7.6339      7.3645      6.8747      6.2514      5.5983      5.0099    
  4.0087      3.8079      3.6261      3.4730      3.3525      3.2640      3.2035      3.1656      3.1453      3.1390    
  3.1453      3.1656      3.2035      3.2640      3.3525      3.4730      3.6261      3.8079      4.0087      4.2181    
  4.4568      4.7378      5.0368      5.3062      5.4942      5.5617      5.4942      5.3062      5.0368      4.7378    
  4.4568      4.2181      3.6877      3.5723      3.4768      3.4039      3.3525      3.3190      3.2992      3.2886    
  3.2842      3.2842      3.2886      3.2992      3.3190      3.3525      3.4039      3.4768      3.5723      3.6877    
  3.8168      3.9501      4.0771      4.1959      4.3066      4.3958      4.4460      4.4460      4.3958      4.3066    
  4.1959      4.0771      3.9501      3.8168      3.5287      3.4947      3.4768      3.4730      3.4788      3.4894    
  3.5003      3.5081      3.5109      3.5081      3.5003      3.4894      3.4788      3.4730      3.4768      3.4947    
  3.5287      3.5781      3.6392      3.7059      3.7708      3.8272      3.8703      3.8970      3.9060      3.8970    
  3.8703      3.8272      3.7708      3.7059      3.6392      3.5781      3.5287      3.5723      3.6261      3.6841    
  3.7393      3.7856      3.8187      3.8358      3.8358      3.8187      3.7856      3.7393      3.6841      3.6261    
  3.5723      3.5287      3.4994      3.4857      3.4858      3.4959      3.5108      3.5260      3.5379      3.5444    
  3.5444      3.5379      3.5260      3.5108      3.4959      3.4858      3.4857      3.4994      3.6877      3.8079    
  3.9295      4.0425      4.1404      4.2212      4.2764      4.2961      4.2764      4.2212      4.1404      4.0425    
  3.9295      3.8079      3.6877      3.5781      3.4857      3.4137      3.3618      3.3272      3.3060      3.2941    
  3.2883      3.2866      3.2883      3.2941      3.3060      3.3272      3.3618      3.4137      3.4857      3.5781    
  4.0087      4.2039      4.4145      4.6455      4.8727      5.0571      5.1607      5.1607      5.0571      4.8727    
  4.6455      4.4145      4.2039      4.0087      3.8168      3.6392      3.4858      3.3618      3.2676      3.2006    
  3.1563      3.1299      3.1177      3.1177      3.1299      3.1563      3.2006      3.2676      3.3618      3.4858    
  3.6392      3.8168      4.5445      4.9693      5.4776      6.0091      6.4788      6.8020      6.9172      6.8020    
  6.4788      6.0091      5.4776      4.9693      4.5445      4.2181      3.9501      3.7059      3.4959      3.3272    
  3.2006      3.1121      3.0555      3.0245      3.0147      3.0245      3.0555      3.1121      3.2006      3.3272    
  3.4959      3.7059      3.9501      4.2181      5.7796      6.7297      7.7571      8.7187      9.4646      9.8719    
  9.8719      9.4646      8.7187      7.7571      6.7297      5.7796      5.0099      4.4568      4.0771      3.7708    
  3.5108      3.3060      3.1563      3.0555      2.9949      2.9669      2.9669      2.9949      3.0555      3.1563    
  3.3060      3.5108      3.7708      4.0771      4.4568      5.0099      8.3800      10.102      11.788      13.207    
  14.155      14.487      14.155      13.207      11.788      10.102      8.3800      6.8300      5.5983      4.7378    
  4.1959      3.8272      3.5260      3.2941      3.1299      3.0245      2.9669      2.9488      2.9669      3.0245    
  3.1299      3.2941      3.5260      3.8272      4.1959      4.7378      5.5983      6.8300      12.890      15.526    
  17.889      19.671      20.629      20.629      19.671      17.889      15.526      12.890      10.298      8.0249    
  6.2514      5.0368      4.3066      3.8703      3.5379      3.2883      3.1177      3.0147      2.9669      2.9669    
  3.0147      3.1177      3.2883      3.5379      3.8703      4.3066      5.0368      6.2514      8.0249      10.298    
  19.627      23.185      26.110      28.034      28.705      28.034      26.110      23.185      19.627      15.855    
  12.275      9.2135      6.8747      5.3062      4.3958      3.8970      3.5444      3.2866      3.1177      3.0245    
  2.9949      3.0245      3.1177      3.2866      3.5444      3.8970      4.3958      5.3062      6.8747      9.2135    
  12.275      15.855      28.633      32.983      36.226      37.959      37.959      36.226      32.983      28.633    
  23.684      18.667      14.059      10.225      7.3645      5.4942      4.4460      3.9060      3.5444      3.2883    
  3.1299      3.0555      3.0555      3.1299      3.2883      3.5444      3.9060      4.4460      5.4942      7.3645    
  10.225      14.059      18.667      23.684      39.674      44.552      47.748      48.862      47.748      44.552    
  39.674      33.691      27.251      20.983      15.411      10.904      7.6339      5.5617      4.4460      3.8970    
  3.5379      3.2941      3.1563      3.1121      3.1563      3.2941      3.5379      3.8970      4.4460      5.5617    
  7.6339      10.904      15.411      20.983      27.251      33.691      52.243      57.256      59.934      59.934    
  57.256      52.243      45.507      37.805      29.909      22.508      16.139      11.143      7.6339      5.4942    
  4.3958      3.8703      3.5260      3.3060      3.2006      3.2006      3.3060      3.5260      3.8703      4.3958    
  5.4942      7.6339      11.143      16.139      22.508      29.909      37.805      45.507      65.555      70.190    
  71.806      70.190      65.555      58.493      49.835      40.495      31.328      23.040      16.139      10.904    
  7.3645      5.3062      4.3066      3.8272      3.5108      3.3272      3.2676      3.3272      3.5108      3.8272    
  4.3066      5.3062      7.3645      10.904      16.139      23.040      31.328      40.495      49.835      58.493    
  78.558      82.215      82.215      78.558      71.730      62.582      52.142      41.430      31.328      22.508    
  15.411      10.225      6.8747      5.0368      4.1959      3.7708      3.4959      3.3618      3.3618      3.4959    
  3.7708      4.1959      5.0368      6.8747      10.225      15.411      22.508      31.328      41.430      52.142    
  62.582      71.730      89.993      92.068      89.993      84.054      75.030      64.006      52.142      40.495    
  29.909      20.983      14.059      9.2135      6.2514      4.7378      4.0771      3.7059      3.4858      3.4137    
  3.4858      3.7059      4.0771      4.7378      6.2514      9.2135      14.059      20.983      29.909      40.495    
  52.142      64.006      75.030      84.054      98.558      98.558      94.162      85.972      75.030      62.582    
  49.835      37.805      27.251      18.667      12.275      8.0249      5.5983      4.4568      3.9501      3.6392    
  3.4857      3.4857      3.6392      3.9501      4.4568      5.5983      8.0249      12.275      18.667      27.251    
  37.805      49.835      62.582      75.030      85.972      94.162      103.16      100.83      94.162      84.054    
  71.730      58.493      45.507      33.691      23.684      15.855      10.298      6.8300      5.0099      4.2181    
  3.8168      3.5781      3.4994      3.5781      3.8168      4.2181      5.0099      6.8300      10.298      15.855    
  23.684      33.691      45.507      58.493      71.730      84.054      94.162      100.83      96.340      89.993    
  80.356      68.590      55.933      43.502      32.187      22.613      15.144      9.8697      6.6039      4.9083    
  4.1712      3.7818      3.5501      3.4739      3.5501      3.7818      4.1712      4.9083      6.6039      9.8697    
  15.144      22.613      32.187      43.502      55.933      68.590      80.356      89.993      96.340      98.558    
  89.993      82.215      71.806      59.934      47.748      36.226      26.110      17.889      11.788      7.7571    
  5.4776      4.4145      3.9295      3.6261      3.4768      3.4768      3.6261      3.9295      4.4145      5.4776    
  7.7571      11.788      17.889      26.110      36.226      47.748      59.934      71.806      82.215      89.993    
  94.162      94.162      80.356      71.806      61.330      50.018      38.878      28.729      20.166      13.534    
  8.9135      6.1119      4.6947      4.0713      3.7073      3.4925      3.4222      3.4925      3.7073      4.0713    
  4.6947      6.1119      8.9135      13.534      20.166      28.729      38.878      50.018      61.330      71.806    
  80.356      85.972      87.931      85.972      68.590      59.934      50.018      39.802      30.132      21.672    
  14.864      9.9040      6.7204      4.9905      4.2012      3.7860      3.5166      3.3857      3.3857      3.5166    
  3.7860      4.2012      4.9905      6.7204      9.9040      14.864      21.672      30.132      39.802      50.018    
  59.934      68.590      75.030      78.472      78.472      75.030      55.933      47.748      38.878      30.132    
  22.199      15.584      10.572      7.2009      5.2569      4.3187      3.8548      3.5440      3.3643      3.3061    
  3.3643      3.5440      3.8548      4.3187      5.2569      7.2009      10.572      15.584      22.199      30.132    
  38.878      47.748      55.933      62.582      66.932      68.446      66.932      62.582      43.502      36.226    
  28.729      21.672      15.584      10.808      7.4660      5.4429      4.4118      3.9077      3.5692      3.3538    
  3.2509      3.2509      3.3538      3.5692      3.9077      4.4118      5.4429      7.4660      10.808      15.584    
  21.672      28.729      36.226      43.502      49.835      54.529      57.031      57.031      54.529      49.835    
  32.187      26.110      20.166      14.864      10.572      7.4660      5.5097      4.4639      3.9407      3.5883    
  3.3499      3.2156      3.1726      3.2156      3.3499      3.5883      3.9407      4.4639      5.5097      7.4660    
  10.572      14.864      20.166      26.110      32.187      37.805      42.364      45.340      46.375      45.340    
  42.364      37.805      22.613      17.889      13.534      9.9040      7.2009      5.4429      4.4639      3.9519    
  3.5984      3.3490      3.1953      3.1232      3.1232      3.1953      3.3490      3.5984      3.9519      4.4639    
  5.4429      7.2009      9.9040      13.534      17.889      22.613      27.251      31.308      34.320      35.925    
  35.925      34.320      31.308      27.251      15.144      11.788      8.9135      6.7204      5.2569      4.4118    
  3.9407      3.5984      3.3490      3.1862      3.0965      3.0681      3.0965      3.1862      3.3490      3.5984    
  3.9407      4.4118      5.2569      6.7204      8.9135      11.788      15.144      18.667      21.975      24.684    
  26.459      27.077      26.459      24.684      21.975      18.667      9.8697      7.7571      6.1119      4.9905    
  4.3187      3.9077      3.5883      3.3490      3.1862      3.0881      3.0428      3.0428      3.0881      3.1862    
  3.3490      3.5883      3.9077      4.3187      4.9905      6.1119      7.7571      9.8697      12.275      14.714    
  16.892      18.529      19.407      19.407      18.529      16.892      14.714      12.275      6.6039      5.4776    
  4.6947      4.2012      3.8548      3.5692      3.3499      3.1953      3.0965      3.0428      3.0259      3.0428    
  3.0965      3.1953      3.3499      3.5692      3.8548      4.2012      4.6947      5.4776      6.6039      8.0249    
  9.6035      11.146      12.441      13.304      13.606      13.304      12.441      11.146      9.6035      8.0249    
  4.9083      4.4145      4.0713      3.7860      3.5440      3.3538      3.2156      3.1232      3.0681      3.0428    
  3.0428      3.0681      3.1232      3.2156      3.3538      3.5440      3.7860      4.0713      4.4145      4.9083    
  5.5983      6.4536      7.3800      8.2468      8.9184      9.2848      9.2848      8.9184      8.2468      7.3800    
  6.4536      5.5983      4.1712      3.9295      3.7073      3.5166      3.3643      3.2509      3.1726      3.1232    
  3.0965      3.0881      3.0965      3.1232      3.1726      3.2509      3.3643      3.5166      3.7073      3.9295    