Co-fcc                                  
   1.00000000000000     
     0.000000    1.771810    1.771810
     1.771810    0.000000    1.771810
     1.771810    1.771810    0.000000
   Co
     1
Direct
  0.000000  0.000000  0.000000
 
   32   32   32
 0.10554016695E+03 0.10315660435E+03 0.96340379845E+02 0.86003817219E+02 0.73405354396E+02
 0.59876283334E+02 0.46604749867E+02 0.34523433098E+02 0.24282639015E+02 0.16256683683E+02
 0.10544387690E+02 0.69642674727E+01 0.50753597807E+01 0.42524387255E+01 0.38438777146E+01
 0.36011247501E+01 0.35209853819E+01 0.36011247501E+01 0.38438777146E+01 0.42524387255E+01
 0.50753597807E+01 0.69642674727E+01 0.10544387690E+02 0.16256683683E+02 0.24282639015E+02
 0.34523433098E+02 0.46604749867E+02 0.59876283334E+02 0.73405354396E+02 0.86003817219E+02
 0.96340379845E+02 0.10315660435E+03 0.10315660435E+03 0.98558306760E+02 0.89993400690E+02
 0.78558429369E+02 0.65555277558E+02 0.52242780962E+02 0.39674248771E+02 0.28633028398E+02
 0.19626538659E+02 0.12889863444E+02 0.83799678876E+01 0.57796463049E+01 0.45445090570E+01
 0.40086801453E+01 0.36877034361E+01 0.35286538532E+01 0.35286537169E+01 0.36877031287E+01
 0.40086799030E+01 0.45445090711E+01 0.57796465776E+01 0.83799682072E+01 0.12889863535E+02
 0.19626538398E+02 0.28633027984E+02 0.39674248695E+02 0.52242781783E+02 0.65555279581E+02
 0.78558432382E+02 0.89993403972E+02 0.98558309313E+02 0.10315660531E+03 0.96340379845E+02
 0.89993400690E+02 0.80355934194E+02 0.68589730410E+02 0.55932871545E+02 0.43502313890E+02
 0.32186692172E+02 0.22613246057E+02 0.15144057664E+02 0.98697001371E+01 0.66039238934E+01
 0.49083167587E+01 0.41712134313E+01 0.37817629967E+01 0.35501448368E+01 0.34739315217E+01
 0.35501444680E+01 0.37817625576E+01 0.41712133010E+01 0.49083171062E+01 0.66039245264E+01
 0.98697005991E+01 0.15144057555E+02 0.22613245374E+02 0.32186691450E+02 0.43502314010E+02
 0.55932873275E+02 0.68589733918E+02 0.80355938804E+02 0.89993405062E+02 0.96340382507E+02
 0.98558309313E+02 0.86003817219E+02 0.78558429369E+02 0.68589730410E+02 0.57217749398E+02
 0.45544923102E+02 0.34515572078E+02 0.24849266418E+02 0.17018426463E+02 0.11235895918E+02
 0.74433584438E+01 0.53199590886E+01 0.43373453007E+01 0.38749160399E+01 0.35813286255E+01
 0.34372654612E+01 0.34372652859E+01 0.35813282571E+01 0.38749158348E+01 0.43373455467E+01
 0.53199597638E+01 0.74433591785E+01 0.11235896204E+02 0.17018426005E+02 0.24849265395E+02
 0.34515571154E+02 0.45544923119E+02 0.57217750914E+02 0.68589733324E+02 0.78558432856E+02
 0.86003820053E+02 0.89993405062E+02 0.89993403972E+02 0.73405354396E+02 0.65555277558E+02
 0.55932871545E+02 0.45544923102E+02 0.35326645708E+02 0.26046495157E+02 0.18259357145E+02
 0.12281143635E+02 0.81697377072E+01 0.57217219461E+01 0.45076176235E+01 0.39587380778E+01
 0.36165560547E+01 0.34161698759E+01 0.33508224907E+01 0.34161697747E+01 0.36165559924E+01
 0.39587382259E+01 0.45076180421E+01 0.57217224986E+01 0.81697381004E+01 0.12281143570E+02
 0.18259356497E+02 0.26046494076E+02 0.35326644567E+02 0.45544922327E+02 0.55932871389E+02
 0.65555277968E+02 0.73405355050E+02 0.78558432856E+02 0.80355938804E+02 0.78558432382E+02
 0.59876283334E+02 0.52242780962E+02 0.43502313890E+02 0.34515572078E+02 0.26046495157E+02
 0.18693516990E+02 0.12847511575E+02 0.86626366300E+01 0.60428769359E+01 0.46613187396E+01
 0.40265335946E+01 0.36500401224E+01 0.34065058856E+01 0.32890043666E+01 0.32890044516E+01
 0.34065060949E+01 0.36500403529E+01 0.40265337436E+01 0.46613187684E+01 0.60428768702E+01
 0.86626365164E+01 0.12847511399E+02 0.18693516633E+02 0.26046494422E+02 0.34515570783E+02
 0.43502312010E+02 0.52242778707E+02 0.59876281137E+02 0.65555277968E+02 0.68589733324E+02
 0.68589733918E+02 0.65555279581E+02 0.46604749867E+02 0.39674248771E+02 0.32186692172E+02
 0.24849266418E+02 0.18259357145E+02 0.12847511575E+02 0.88371174307E+01 0.62213822993E+01
 0.47695638715E+01 0.40754534426E+01 0.36770154302E+01 0.34037730217E+01 0.32478255713E+01
 0.31975978445E+01 0.32478259373E+01 0.34037734694E+01 0.36770155875E+01 0.40754531087E+01
 0.47695631742E+01 0.62213816261E+01 0.88371171754E+01 0.12847511841E+02 0.18259357596E+02
 0.24849266411E+02 0.32186691088E+02 0.39674246415E+02 0.46604746674E+02 0.52242778707E+02
 0.55932871389E+02 0.57217750914E+02 0.55932873275E+02 0.52242781783E+02 0.34523433098E+02
 0.28633028398E+02 0.22613246057E+02 0.17018426463E+02 0.12281143635E+02 0.86626366300E+01
 0.62213822993E+01 0.48086564352E+01 0.41018038061E+01 0.36942984490E+01 0.34041344968E+01
 0.32226350001E+01 0.31367677472E+01 0.31367680057E+01 0.32226355712E+01 0.34041348958E+01
 0.36942982533E+01 0.41018029568E+01 0.48086553328E+01 0.62213815868E+01 0.86626368047E+01
 0.12281144712E+02 0.17018427890E+02 0.22613246988E+02 0.28633028147E+02 0.34523431547E+02
 0.39674246415E+02 0.43502312010E+02 0.45544922327E+02 0.45544923119E+02 0.43502314010E+02
 0.39674248695E+02 0.24282639015E+02 0.19626538659E+02 0.15144057664E+02 0.11235895918E+02
 0.81697377072E+01 0.60428769359E+01 0.47695638715E+01 0.41018038061E+01 0.37002240798E+01
 0.34049616927E+01 0.32093447232E+01 0.31005147591E+01 0.30659051656E+01 0.31005152020E+01
 0.32093452788E+01 0.34049619149E+01 0.37002237088E+01 0.41018029661E+01 0.47695630440E+01
 0.60428767153E+01 0.81697384591E+01 0.11235897578E+02 0.15144059726E+02 0.19626540450E+02
 0.24282640036E+02 0.28633028147E+02 0.32186691088E+02 0.34515570783E+02 0.35326644567E+02
 0.34515571154E+02 0.32186691450E+02 0.28633027984E+02 0.16256683683E+02 0.12889863444E+02
 0.98697001371E+01 0.74433584438E+01 0.57217219461E+01 0.46613187396E+01 0.40754534426E+01
 0.36942984490E+01 0.34049616927E+01 0.32052307797E+01 0.30838044509E+01 0.30273197790E+01
 0.30273199502E+01 0.30838048663E+01 0.32052312128E+01 0.34049619084E+01 0.36942983541E+01
 0.40754531491E+01 0.46613185302E+01 0.57217221597E+01 0.74433593043E+01 0.98697016797E+01
 0.12889865488E+02 0.16256685902E+02 0.19626540450E+02 0.22613246988E+02 0.24849266411E+02
 0.26046494422E+02 0.26046494076E+02 0.24849265395E+02 0.22613245374E+02 0.19626538398E+02
 0.10544387690E+02 0.83799678876E+01 0.66039238934E+01 0.53199590886E+01 0.45076176235E+01
 0.40265335946E+01 0.36770154302E+01 0.34041344968E+01 0.32093447232E+01 0.30838044509E+01
 0.30151693991E+01 0.29935317815E+01 0.30151695023E+01 0.30838046684E+01 0.32093450490E+01
 0.34041348838E+01 0.36770157855E+01 0.40265338396E+01 0.45076177371E+01 0.53199591956E+01
 0.66039242136E+01 0.83799686743E+01 0.10544389097E+02 0.12889865488E+02 0.15144059726E+02
 0.17018427890E+02 0.18259357596E+02 0.18693516633E+02 0.18259356497E+02 0.17018426005E+02
 0.15144057555E+02 0.12889863535E+02 0.69642674727E+01 0.57796463049E+01 0.49083167587E+01
 0.43373453007E+01 0.39587380778E+01 0.36500401224E+01 0.34037730217E+01 0.32226350001E+01
 0.31005147591E+01 0.30273197790E+01 0.29935317815E+01 0.29935316990E+01 0.30273196131E+01
 0.31005146967E+01 0.32226351956E+01 0.34037734772E+01 0.36500406460E+01 0.39587384078E+01
 0.43373452410E+01 0.49083163522E+01 0.57796458389E+01 0.69642673267E+01 0.83799686743E+01
 0.98697016797E+01 0.11235897578E+02 0.12281144712E+02 0.12847511841E+02 0.12847511399E+02
 0.12281143570E+02 0.11235896204E+02 0.98697005991E+01 0.83799682072E+01 0.50753597807E+01
 0.45445090570E+01 0.41712134313E+01 0.38749160399E+01 0.36165560547E+01 0.34065058856E+01
 0.32478255713E+01 0.31367677472E+01 0.30659051656E+01 0.30273199502E+01 0.30151695023E+01
 0.30273196131E+01 0.30659046883E+01 0.31367674071E+01 0.32478255446E+01 0.34065061505E+01
 0.36165563727E+01 0.38749161153E+01 0.41712130707E+01 0.45445082786E+01 0.50753588540E+01
 0.57796458389E+01 0.66039242136E+01 0.74433593043E+01 0.81697384591E+01 0.86626368047E+01
 0.88371171754E+01 0.86626365164E+01 0.81697381004E+01 0.74433591785E+01 0.66039245264E+01
 0.57796465776E+01 0.42524387255E+01 0.40086801453E+01 0.37817629967E+01 0.35813286255E+01
 0.34161698759E+01 0.32890043666E+01 0.31975978445E+01 0.31367680057E+01 0.31005152020E+01
 0.30838048663E+01 0.30838046684E+01 0.31005146967E+01 0.31367674071E+01 0.31975973852E+01
 0.32890041703E+01 0.34161699097E+01 0.35813287162E+01 0.37817629270E+01 0.40086797959E+01
 0.42524380911E+01 0.45445082786E+01 0.49083163522E+01 0.53199591956E+01 0.57217221597E+01
 0.60428767153E+01 0.62213815868E+01 0.62213816261E+01 0.60428768702E+01 0.57217224986E+01
 0.53199597638E+01 0.49083171062E+01 0.45445090711E+01 0.38438777146E+01 0.36877034361E+01
 0.35501448368E+01 0.34372654612E+01 0.33508224907E+01 0.32890044516E+01 0.32478259373E+01
 0.32226355712E+01 0.32093452788E+01 0.32052312128E+01 0.32093450490E+01 0.32226351956E+01
 0.32478255446E+01 0.32890041703E+01 0.33508223849E+01 0.34372655207E+01 0.35501449892E+01
 0.36877035676E+01 0.38438777394E+01 0.40086797959E+01 0.41712130707E+01 0.43373452410E+01
 0.45076177371E+01 0.46613185302E+01 0.47695630440E+01 0.48086553328E+01 0.47695631742E+01
 0.46613187684E+01 0.45076180421E+01 0.43373455467E+01 0.41712133010E+01 0.40086799030E+01
 0.36011247501E+01 0.35286538532E+01 0.34739315217E+01 0.34372652859E+01 0.34161697747E+01
 0.34065060949E+01 0.34037734694E+01 0.34041348958E+01 0.34049619149E+01 0.34049619084E+01
 0.34041348838E+01 0.34037734772E+01 0.34065061505E+01 0.34161699097E+01 0.34372655207E+01
 0.34739318549E+01 0.35286542708E+01 0.36011252094E+01 0.36877035676E+01 0.37817629270E+01
 0.38749161153E+01 0.39587384078E+01 0.40265338396E+01 0.40754531491E+01 0.41018029661E+01
 0.41018029568E+01 0.40754531087E+01 0.40265337436E+01 0.39587382259E+01 0.38749158348E+01
 0.37817625576E+01 0.36877031287E+01 0.35209853819E+01 0.35286537169E+01 0.35501444680E+01
 0.35813282571E+01 0.36165559924E+01 0.36500403529E+01 0.36770155875E+01 0.36942982533E+01
 0.37002237088E+01 0.36942983541E+01 0.36770157855E+01 0.36500406460E+01 0.36165563727E+01
 0.35813287162E+01 0.35501449892E+01 0.35286542708E+01 0.35209859446E+01 0.35286542708E+01
 0.35501449892E+01 0.35813287162E+01 0.36165563727E+01 0.36500406460E+01 0.36770157855E+01
 0.36942983541E+01 0.37002237088E+01 0.36942982533E+01 0.36770155875E+01 0.36500403529E+01
 0.36165559924E+01 0.35813282571E+01 0.35501444680E+01 0.35286537169E+01 0.36011247501E+01
 0.36877031287E+01 0.37817625576E+01 0.38749158348E+01 0.39587382259E+01 0.40265337436E+01
 0.40754531087E+01 0.41018029568E+01 0.41018029661E+01 0.40754531491E+01 0.40265338396E+01
 0.39587384078E+01 0.38749161153E+01 0.37817629270E+01 0.36877035676E+01 0.36011252094E+01
 0.35286542708E+01 0.34739318549E+01 0.34372655207E+01 0.34161699097E+01 0.34065061505E+01
 0.34037734772E+01 0.34041348838E+01 0.34049619084E+01 0.34049619149E+01 0.34041348958E+01
 0.34037734694E+01 0.34065060949E+01 0.34161697747E+01 0.34372652859E+01 0.34739315217E+01
 0.35286538532E+01 0.38438777146E+01 0.40086799030E+01 0.41712133010E+01 0.43373455467E+01
 0.45076180421E+01 0.46613187684E+01 0.47695631742E+01 0.48086553328E+01 0.47695630440E+01
 0.46613185302E+01 0.45076177371E+01 0.43373452410E+01 0.41712130707E+01 0.40086797959E+01
 0.38438777394E+01 0.36877035676E+01 0.35501449892E+01 0.34372655207E+01 0.33508223849E+01
 0.32890041703E+01 0.32478255446E+01 0.32226351956E+01 0.32093450490E+01 0.32052312128E+01
 0.32093452788E+01 0.32226355712E+01 0.32478259373E+01 0.32890044516E+01 0.33508224907E+01
 0.34372654612E+01 0.35501448368E+01 0.36877034361E+01 0.42524387255E+01 0.45445090711E+01
 0.49083171062E+01 0.53199597638E+01 0.57217224986E+01 0.60428768702E+01 0.62213816261E+01
 0.62213815868E+01 0.60428767153E+01 0.57217221597E+01 0.53199591956E+01 0.49083163522E+01
 0.45445082786E+01 0.42524380911E+01 0.40086797959E+01 0.37817629270E+01 0.35813287162E+01
 0.34161699097E+01 0.32890041703E+01 0.31975973852E+01 0.31367674071E+01 0.31005146967E+01
 0.30838046684E+01 0.30838048663E+01 0.31005152020E+01 0.31367680057E+01 0.31975978445E+01
 0.32890043666E+01 0.34161698759E+01 0.35813286255E+01 0.37817629967E+01 0.40086801453E+01
 0.50753597807E+01 0.57796465776E+01 0.66039245264E+01 0.74433591785E+01 0.81697381004E+01
 0.86626365164E+01 0.88371171754E+01 0.86626368047E+01 0.81697384591E+01 0.74433593043E+01
 0.66039242136E+01 0.57796458389E+01 0.50753588540E+01 0.45445082786E+01 0.41712130707E+01
 0.38749161153E+01 0.36165563727E+01 0.34065061505E+01 0.32478255446E+01 0.31367674071E+01
 0.30659046883E+01 0.30273196131E+01 0.30151695023E+01 0.30273199502E+01 0.30659051656E+01
 0.31367677472E+01 0.32478255713E+01 0.34065058856E+01 0.36165560547E+01 0.38749160399E+01
 0.41712134313E+01 0.45445090570E+01 0.69642674727E+01 0.83799682072E+01 0.98697005991E+01
 0.11235896204E+02 0.12281143570E+02 0.12847511399E+02 0.12847511841E+02 0.12281144712E+02
 0.11235897578E+02 0.98697016797E+01 0.83799686743E+01 0.69642673268E+01 0.57796458389E+01
 0.49083163522E+01 0.43373452410E+01 0.39587384078E+01 0.36500406460E+01 0.34037734772E+01
 0.32226351956E+01 0.31005146967E+01 0.30273196131E+01 0.29935316990E+01 0.29935317815E+01
 0.30273197790E+01 0.31005147591E+01 0.32226350001E+01 0.34037730217E+01 0.36500401224E+01
 0.39587380778E+01 0.43373453007E+01 0.49083167587E+01 0.57796463049E+01 0.10544387690E+02
 0.12889863535E+02 0.15144057555E+02 0.17018426005E+02 0.18259356497E+02 0.18693516633E+02
 0.18259357596E+02 0.17018427890E+02 0.15144059726E+02 0.12889865488E+02 0.10544389097E+02
 0.83799686743E+01 0.66039242136E+01 0.53199591956E+01 0.45076177371E+01 0.40265338396E+01
 0.36770157855E+01 0.34041348838E+01 0.32093450490E+01 0.30838046684E+01 0.30151695023E+01
 0.29935317815E+01 0.30151693991E+01 0.30838044509E+01 0.32093447232E+01 0.34041344968E+01
 0.36770154302E+01 0.40265335946E+01 0.45076176235E+01 0.53199590886E+01 0.66039238934E+01
 0.83799678876E+01 0.16256683683E+02 0.19626538398E+02 0.22613245374E+02 0.24849265395E+02
 0.26046494076E+02 0.26046494422E+02 0.24849266411E+02 0.22613246988E+02 0.19626540450E+02
 0.16256685902E+02 0.12889865488E+02 0.98697016797E+01 0.74433593043E+01 0.57217221597E+01
 0.46613185302E+01 0.40754531491E+01 0.36942983541E+01 0.34049619084E+01 0.32052312128E+01
 0.30838048663E+01 0.30273199502E+01 0.30273197790E+01 0.30838044509E+01 0.32052307797E+01
 0.34049616927E+01 0.36942984490E+01 0.40754534426E+01 0.46613187396E+01 0.57217219461E+01
 0.74433584438E+01 0.98697001371E+01 0.12889863444E+02 0.24282639015E+02 0.28633027984E+02
 0.32186691450E+02 0.34515571154E+02 0.35326644567E+02 0.34515570783E+02 0.32186691088E+02
 0.28633028147E+02 0.24282640036E+02 0.19626540450E+02 0.15144059726E+02 0.11235897578E+02
 0.81697384591E+01 0.60428767153E+01 0.47695630440E+01 0.41018029661E+01 0.37002237088E+01
 0.34049619149E+01 0.32093452788E+01 0.31005152020E+01 0.30659051656E+01 0.31005147591E+01
 0.32093447232E+01 0.34049616927E+01 0.37002240798E+01 0.41018038061E+01 0.47695638715E+01
 0.60428769359E+01 0.81697377072E+01 0.11235895918E+02 0.15144057664E+02 0.19626538659E+02
 0.34523433098E+02 0.39674248695E+02 0.43502314010E+02 0.45544923119E+02 0.45544922327E+02
 0.43502312010E+02 0.39674246415E+02 0.34523431547E+02 0.28633028147E+02 0.22613246988E+02
 0.17018427890E+02 0.12281144712E+02 0.86626368047E+01 0.62213815868E+01 0.48086553328E+01
 0.41018029568E+01 0.36942982533E+01 0.34041348958E+01 0.32226355712E+01 0.31367680057E+01
 0.31367677472E+01 0.32226350001E+01 0.34041344968E+01 0.36942984490E+01 0.41018038061E+01
 0.48086564352E+01 0.62213822993E+01 0.86626366300E+01 0.12281143635E+02 0.17018426463E+02
 0.22613246057E+02 0.28633028398E+02 0.46604749867E+02 0.52242781783E+02 0.55932873275E+02
 0.57217750914E+02 0.55932871389E+02 0.52242778707E+02 0.46604746674E+02 0.39674246415E+02
 0.32186691088E+02 0.24849266411E+02 0.18259357596E+02 0.12847511841E+02 0.88371171754E+01
 0.62213816261E+01 0.47695631742E+01 0.40754531087E+01 0.36770155875E+01 0.34037734694E+01
 0.32478259373E+01 0.31975978445E+01 0.32478255713E+01 0.34037730217E+01 0.36770154302E+01
 0.40754534426E+01 0.47695638715E+01 0.62213822993E+01 0.88371174307E+01 0.12847511575E+02
 0.18259357145E+02 0.24849266418E+02 0.32186692172E+02 0.39674248771E+02 0.59876283334E+02
 0.65555279581E+02 0.68589733918E+02 0.68589733324E+02 0.65555277968E+02 0.59876281137E+02
 0.52242778707E+02 0.43502312010E+02 0.34515570783E+02 0.26046494422E+02 0.18693516633E+02
 0.12847511399E+02 0.86626365164E+01 0.60428768702E+01 0.46613187684E+01 0.40265337436E+01
 0.36500403529E+01 0.34065060949E+01 0.32890044516E+01 0.32890043666E+01 0.34065058856E+01
 0.36500401224E+01 0.40265335946E+01 0.46613187396E+01 0.60428769359E+01 0.86626366300E+01
 0.12847511575E+02 0.18693516990E+02 0.26046495157E+02 0.34515572078E+02 0.43502313890E+02
 0.52242780962E+02 0.73405354396E+02 0.78558432382E+02 0.80355938804E+02 0.78558432856E+02
 0.73405355050E+02 0.65555277968E+02 0.55932871389E+02 0.45544922327E+02 0.35326644567E+02
 0.26046494076E+02 0.18259356497E+02 0.12281143570E+02 0.81697381004E+01 0.57217224986E+01
 0.45076180421E+01 0.39587382259E+01 0.36165559924E+01 0.34161697747E+01 0.33508224907E+01
 0.34161698759E+01 0.36165560547E+01 0.39587380778E+01 0.45076176235E+01 0.57217219461E+01
 0.81697377072E+01 0.12281143635E+02 0.18259357145E+02 0.26046495157E+02 0.35326645708E+02
 0.45544923102E+02 0.55932871545E+02 0.65555277558E+02 0.86003817219E+02 0.89993403972E+02
 0.89993405062E+02 0.86003820053E+02 0.78558432856E+02 0.68589733324E+02 0.57217750914E+02
 0.45544923119E+02 0.34515571154E+02 0.24849265395E+02 0.17018426005E+02 0.11235896204E+02
 0.74433591785E+01 0.53199597638E+01 0.43373455467E+01 0.38749158348E+01 0.35813282571E+01
 0.34372652859E+01 0.34372654612E+01 0.35813286255E+01 0.38749160399E+01 0.43373453007E+01
 0.53199590886E+01 0.74433584438E+01 0.11235895918E+02 0.17018426463E+02 0.24849266418E+02
 0.34515572078E+02 0.45544923102E+02 0.57217749398E+02 0.68589730410E+02 0.78558429369E+02
 0.96340379845E+02 0.98558309313E+02 0.96340382507E+02 0.89993405062E+02 0.80355938804E+02
 0.68589733918E+02 0.55932873275E+02 0.43502314010E+02 0.32186691450E+02 0.22613245374E+02
 0.15144057555E+02 0.98697005991E+01 0.66039245264E+01 0.49083171062E+01 0.41712133010E+01
 0.37817625576E+01 0.35501444680E+01 0.34739315217E+01 0.35501448368E+01 0.37817629967E+01
 0.41712134313E+01 0.49083167587E+01 0.66039238934E+01 0.98697001371E+01 0.15144057664E+02
 0.22613246057E+02 0.32186692172E+02 0.43502313890E+02 0.55932871545E+02 0.68589730410E+02
 0.80355934194E+02 0.89993400690E+02 0.10315660435E+03 0.10315660531E+03 0.98558309313E+02
 0.89993403972E+02 0.78558432382E+02 0.65555279581E+02 0.52242781783E+02 0.39674248695E+02
 0.28633027984E+02 0.19626538398E+02 0.12889863535E+02 0.83799682072E+01 0.57796465776E+01
 0.45445090711E+01 0.40086799030E+01 0.36877031287E+01 0.35286537169E+01 0.35286538532E+01
 0.36877034361E+01 0.40086801453E+01 0.45445090570E+01 0.57796463049E+01 0.83799678876E+01
 0.12889863444E+02 0.19626538659E+02 0.28633028398E+02 0.39674248771E+02 0.52242780962E+02
 0.65555277558E+02 0.78558429369E+02 0.89993400690E+02 0.98558306760E+02 0.10315660435E+03
 0.98558306760E+02 0.89993400690E+02 0.78558429369E+02 0.65555277558E+02 0.52242780962E+02
 0.39674248771E+02 0.28633028398E+02 0.19626538659E+02 0.12889863444E+02 0.83799678876E+01
 0.57796463049E+01 0.45445090570E+01 0.40086801453E+01 0.36877034361E+01 0.35286538532E+01
 0.35286537169E+01 0.36877031287E+01 0.40086799030E+01 0.45445090711E+01 0.57796465776E+01
 0.83799682072E+01 0.12889863535E+02 0.19626538398E+02 0.28633027984E+02 0.39674248695E+02
 0.52242781783E+02 0.65555279581E+02 0.78558432382E+02 0.89993403972E+02 0.98558309313E+02
 0.10315660531E+03 0.98558306760E+02 0.92068142246E+02 0.82215480643E+02 0.70189621108E+02
 0.57255721337E+02 0.44552377963E+02 0.32983085439E+02 0.23184681616E+02 0.15525880220E+02
 0.10102105766E+02 0.67297034192E+01 0.49692958652E+01 0.42039279085E+01 0.38078731043E+01
 0.35722738587E+01 0.34946693401E+01 0.35722733667E+01 0.38078724829E+01 0.42039276221E+01
 0.49692961342E+01 0.67297040325E+01 0.10102106197E+02 0.15525880008E+02 0.23184680767E+02
 0.32983084599E+02 0.44552378170E+02 0.57255723499E+02 0.70189625403E+02 0.82215486245E+02
 0.92068147542E+02 0.98558309979E+02 0.10082656276E+03 0.89993400690E+02 0.82215480643E+02
 0.71805727129E+02 0.59934299966E+02 0.47748314759E+02 0.36225829782E+02 0.26109685134E+02
 0.17888651904E+02 0.11787840299E+02 0.77571326834E+01 0.54776073115E+01 0.44144899219E+01
 0.39294599034E+01 0.36261400098E+01 0.34768428228E+01 0.34768424706E+01 0.36261392092E+01
 0.39294592421E+01 0.44144898995E+01 0.54776079600E+01 0.77571334992E+01 0.11787840554E+02
 0.17888651177E+02 0.26109683709E+02 0.36225828665E+02 0.47748315208E+02 0.59934302783E+02
 0.71805732093E+02 0.82215486414E+02 0.89993405312E+02 0.94162463278E+02 0.94162461513E+02
 0.78558429369E+02 0.70189621108E+02 0.59934299966E+02 0.48861545288E+02 0.37958796726E+02
 0.28033826494E+02 0.19670593043E+02 0.13207418530E+02 0.87186957260E+01 0.60090935043E+01
 0.46454551320E+01 0.40425006777E+01 0.36840913325E+01 0.34729589947E+01 0.34039141577E+01
 0.34729583657E+01 0.36840905192E+01 0.40425002663E+01 0.46454554390E+01 0.60090943273E+01
 0.87186964349E+01 0.13207418454E+02 0.19670591943E+02 0.28033824805E+02 0.37958795415E+02
 0.48861545348E+02 0.59934301840E+02 0.70189624358E+02 0.78558432793E+02 0.84054078747E+02
 0.85971540741E+02 0.84054076564E+02 0.65555277558E+02 0.57255721337E+02 0.47748314759E+02
 0.37958796726E+02 0.28705113858E+02 0.20628631778E+02 0.14154739466E+02 0.94645510420E+01
 0.64787814018E+01 0.48727304706E+01 0.41403516986E+01 0.37392943637E+01 0.34788019501E+01
 0.33524656755E+01 0.33524654205E+01 0.34788013431E+01 0.37392937827E+01 0.41403515035E+01
 0.48727307730E+01 0.64787819743E+01 0.94645514371E+01 0.14154739263E+02 0.20628630835E+02
 0.28705112402E+02 0.37958795244E+02 0.47748313741E+02 0.57255721015E+02 0.65555277805E+02
 0.71730105600E+02 0.75030095229E+02 0.75030095034E+02 0.71730105179E+02 0.52242780962E+02
 0.44552377963E+02 0.36225829782E+02 0.28033826494E+02 0.20628631778E+02 0.14487440522E+02
 0.98719033128E+01 0.68019764438E+01 0.50571021551E+01 0.42211728621E+01 0.37856436509E+01
 0.34894226008E+01 0.33190485841E+01 0.32639675413E+01 0.33190483760E+01 0.34894222381E+01
 0.37856432357E+01 0.42211725244E+01 0.50571020156E+01 0.68019765500E+01 0.98719035910E+01
 0.14487440756E+02 0.20628631669E+02 0.28033825762E+02 0.36225828301E+02 0.44552375862E+02
 0.52242778631E+02 0.58492744000E+02 0.62581882923E+02 0.64005588376E+02 0.62581884094E+02
 0.58492746015E+02 0.39674248771E+02 0.32983085439E+02 0.26109685134E+02 0.19670593043E+02
 0.14154739466E+02 0.98719033128E+01 0.69171733136E+01 0.51606898626E+01 0.42763550164E+01
 0.38186749489E+01 0.35003118626E+01 0.32991869270E+01 0.32034851968E+01 0.32034852478E+01
 0.32991869795E+01 0.35003116996E+01 0.38186744354E+01 0.42763542615E+01 0.51606892299E+01
 0.69171732263E+01 0.98719039794E+01 0.14154740669E+02 0.19670594158E+02 0.26109685414E+02
 0.32983084390E+02 0.39674246478E+02 0.45507146918E+02 0.49834749693E+02 0.52142038518E+02
 0.52142039415E+02 0.49834752019E+02 0.45507149753E+02 0.28633028398E+02 0.23184681616E+02
 0.17888651904E+02 0.13207418530E+02 0.94645510420E+01 0.68019764438E+01 0.51606898626E+01
 0.42961140742E+01 0.38357565032E+01 0.35081339838E+01 0.32886254951E+01 0.31656324037E+01
 0.31263805219E+01 0.31656327026E+01 0.32886257785E+01 0.35081338568E+01 0.38357558094E+01
 0.42961130750E+01 0.51606891613E+01 0.68019766494E+01 0.94645523938E+01 0.13207420686E+02
 0.17888654046E+02 0.23184682858E+02 0.28633028246E+02 0.33690592776E+02 0.37804825584E+02
 0.40494628204E+02 0.41430387908E+02 0.40494629444E+02 0.37804827382E+02 0.33690594144E+02
 0.19626538659E+02 0.15525880220E+02 0.11787840299E+02 0.87186957260E+01 0.64787814018E+01
 0.50571021551E+01 0.42763550164E+01 0.38357565032E+01 0.35109488144E+01 0.32841806315E+01
 0.31453099933E+01 0.30804402047E+01 0.30804404251E+01 0.31453104799E+01 0.32841809877E+01
 0.35109486873E+01 0.38357558628E+01 0.42763542243E+01 0.50571018175E+01 0.64787820313E+01
 0.87186974434E+01 0.11787842741E+02 0.15525882681E+02 0.19626540458E+02 0.23683875351E+02
 0.27251482371E+02 0.29908813898E+02 0.31327611592E+02 0.31327611791E+02 0.29908814276E+02
 0.27251482406E+02 0.23683874547E+02 0.12889863444E+02 0.10102105766E+02 0.77571326834E+01
 0.60090935043E+01 0.48727304706E+01 0.42211728621E+01 0.38186749489E+01 0.35081339838E+01
 0.32841806315E+01 0.31389589026E+01 0.30592957881E+01 0.30341440873E+01 0.30592961181E+01
 0.31389593563E+01 0.32841809271E+01 0.35081339370E+01 0.38186746091E+01 0.42211725049E+01
 0.48727304727E+01 0.60090941586E+01 0.77571340287E+01 0.10102107595E+02 0.12889865378E+02
 0.15855048040E+02 0.18666733005E+02 0.20983161179E+02 0.22507973140E+02 0.23039989983E+02
 0.22507972842E+02 0.20983160487E+02 0.18666731814E+02 0.15855046370E+02 0.83799678876E+01
 0.67297034192E+01 0.54776073115E+01 0.46454551320E+01 0.41403516986E+01 0.37856436509E+01
 0.35003118626E+01 0.32886254951E+01 0.31453099933E+01 0.30592957881E+01 0.30195905030E+01
 0.30195905662E+01 0.30592959527E+01 0.31453101791E+01 0.32886256221E+01 0.35003118741E+01
 0.37856435587E+01 0.41403515762E+01 0.46454550854E+01 0.54776074608E+01 0.67297038216E+01
 0.83799685392E+01 0.10298413248E+02 0.12274691054E+02 0.14059478211E+02 0.15411023781E+02
 0.16139063377E+02 0.16139063191E+02 0.15411023256E+02 0.14059477442E+02 0.12274690178E+02
 0.10298412420E+02 0.57796463049E+01 0.49692958652E+01 0.44144899219E+01 0.40425006777E+01
 0.37392943637E+01 0.34894226008E+01 0.32991869270E+01 0.31656324037E+01 0.30804402047E+01
 0.30341440873E+01 0.30195905662E+01 0.30341439477E+01 0.30804399886E+01 0.31656321980E+01
 0.32991867890E+01 0.34894225254E+01 0.37392942725E+01 0.40425004906E+01 0.44144895670E+01
 0.49692953727E+01 0.57796457683E+01 0.68300430082E+01 0.80249054399E+01 0.92135392685E+01
 0.10224774679E+02 0.10903554445E+02 0.11142570045E+02 0.10903554413E+02 0.10224774680E+02
 0.92135393967E+01 0.80249057481E+01 0.68300434760E+01 0.45445090570E+01 0.42039279085E+01
 0.39294599034E+01 0.36840913325E+01 0.34788019501E+01 0.33190485841E+01 0.32034851968E+01
 0.31263805219E+01 0.30804404251E+01 0.30592961181E+01 0.30592959527E+01 0.30804399886E+01
 0.31263799658E+01 0.32034846901E+01 0.33190482258E+01 0.34788017389E+01 0.36840911502E+01
 0.39294596119E+01 0.42039273919E+01 0.45445082768E+01 0.50099297725E+01 0.55983400484E+01
 0.62514113165E+01 0.68747308898E+01 0.73644818343E+01 0.76338758383E+01 0.76338759821E+01
 0.73644822624E+01 0.68747315831E+01 0.62514122135E+01 0.55983410446E+01 0.50099307281E+01
 0.40086801453E+01 0.38078731043E+01 0.36261400098E+01 0.34729589947E+01 0.33524656755E+01
 0.32639675413E+01 0.32034852478E+01 0.31656327026E+01 0.31453104799E+01 0.31389593563E+01
 0.31453101791E+01 0.31656321980E+01 0.32034846901E+01 0.32639670748E+01 0.33524653718E+01
 0.34729588441E+01 0.36261399141E+01 0.38078729336E+01 0.40086798125E+01 0.42180875894E+01
 0.44567948452E+01 0.47378276327E+01 0.50367921111E+01 0.53062258965E+01 0.54942368514E+01
 0.55617201745E+01 0.54942371643E+01 0.53062264745E+01 0.50367928611E+01 0.47378284370E+01
 0.44567955727E+01 0.42180881336E+01 0.36877034361E+01 0.35722738587E+01 0.34768428228E+01
 0.34039141577E+01 0.33524654205E+01 0.33190483760E+01 0.32991869795E+01 0.32886257785E+01
 0.32841809877E+01 0.32841809271E+01 0.32886256221E+01 0.32991867890E+01 0.33190482258E+01
 0.33524653718E+01 0.34039142236E+01 0.34768429771E+01 0.35722740437E+01 0.36877035719E+01
 0.38167855508E+01 0.39500983486E+01 0.40770818705E+01 0.41959191988E+01 0.43066387073E+01
 0.43957694773E+01 0.44460260460E+01 0.44460261003E+01 0.43957696258E+01 0.43066389147E+01
 0.41959194124E+01 0.40770820291E+01 0.39500984161E+01 0.38167855139E+01 0.35286538532E+01
 0.34946693401E+01 0.34768424706E+01 0.34729583657E+01 0.34788013431E+01 0.34894222381E+01
 0.35003116996E+01 0.35081338568E+01 0.35109486873E+01 0.35081339370E+01 0.35003118741E+01
 0.34894225254E+01 0.34788017389E+01 0.34729588441E+01 0.34768429771E+01 0.34946698164E+01
 0.35286542654E+01 0.35781032972E+01 0.36392363358E+01 0.37058676512E+01 0.37707711953E+01
 0.38272493613E+01 0.38703020194E+01 0.38969818195E+01 0.39059939282E+01 0.38969817215E+01
 0.38703018487E+01 0.38272491537E+01 0.37707709764E+01 0.37058674245E+01 0.36392360696E+01
 0.35781029618E+01 0.35286537169E+01 0.35722733667E+01 0.36261392092E+01 0.36840905192E+01
 0.37392937827E+01 0.37856432357E+01 0.38186744354E+01 0.38357558094E+01 0.38357558628E+01
 0.38186746091E+01 0.37856435587E+01 0.37392942725E+01 0.36840911502E+01 0.36261399141E+01
 0.35722740437E+01 0.35286542654E+01 0.34993925929E+01 0.34857017021E+01 0.34858454852E+01
 0.34958698875E+01 0.35108257932E+01 0.35260299065E+01 0.35379269721E+01 0.35443535822E+01
 0.35443535298E+01 0.35379268383E+01 0.35260297398E+01 0.35108256386E+01 0.34958697552E+01
 0.34858453349E+01 0.34857014696E+01 0.34993922152E+01 0.36877031287E+01 0.38078724829E+01
 0.39294592421E+01 0.40425002663E+01 0.41403515035E+01 0.42211725244E+01 0.42763542615E+01
 0.42961130750E+01 0.42763542243E+01 0.42211725049E+01 0.41403515762E+01 0.40425004906E+01
 0.39294596119E+01 0.38078729336E+01 0.36877035719E+01 0.35781032972E+01 0.34857017021E+01
 0.34136685286E+01 0.33617660409E+01 0.33272232014E+01 0.33060184129E+01 0.32941090825E+01
 0.32882840000E+01 0.32865621744E+01 0.32882840760E+01 0.32941092288E+01 0.33060186119E+01
 0.33272234107E+01 0.33617661908E+01 0.34136685516E+01 0.34857015451E+01 0.35781029618E+01
 0.40086799030E+01 0.42039276221E+01 0.44144898995E+01 0.46454554390E+01 0.48727307730E+01
 0.50571020156E+01 0.51606892299E+01 0.51606891613E+01 0.50571018175E+01 0.48727304727E+01
 0.46454550854E+01 0.44144895670E+01 0.42039273919E+01 0.40086798125E+01 0.38167855508E+01
 0.36392363358E+01 0.34858454852E+01 0.33617660409E+01 0.32676114579E+01 0.32006226011E+01
 0.31562920240E+01 0.31299106951E+01 0.31177395464E+01 0.31177396916E+01 0.31299110774E+01
 0.31562925130E+01 0.32006230387E+01 0.32676117289E+01 0.33617661152E+01 0.34858454095E+01