   1   1   1   0
  0.1112453E+02  0.2505718E-09  0.2505718E-09  0.2505718E-09  0.5000000E-15
  1.000000000000000E-004
  CAR 
 Co-fcc                                  
     53.13847615     -1.18149040  301      9.98920808      1.00000000
     -1.181  0.0000E+00  0.0000E+00  0.0000E+00  0.0000E+00
     -1.000  0.0000E+00  0.0000E+00  0.0000E+00  0.0000E+00
     -0.819  0.0000E+00  0.0000E+00  0.0000E+00  0.0000E+00
     -0.638  0.0000E+00  0.0000E+00  0.0000E+00  0.0000E+00
     -0.457  0.0000E+00  0.0000E+00  0.0000E+00  0.0000E+00
     -0.276  0.0000E+00  0.0000E+00  0.0000E+00  0.0000E+00
     -0.095  0.0000E+00  0.0000E+00  0.0000E+00  0.0000E+00
      0.086  0.0000E+00  0.0000E+00  0.0000E+00  0.0000E+00
      0.267  0.0000E+00  0.0000E+00  0.0000E+00  0.0000E+00
      0.448  0.0000E+00  0.0000E+00  0.0000E+00  0.0000E+00
      0.629  0.0000E+00  0.0000E+00  0.0000E+00  0.0000E+00
      0.810  0.0000E+00  0.0000E+00  0.0000E+00  0.0000E+00
      0.991  0.0000E+00  0.0000E+00  0.0000E+00  0.0000E+00
      1.172  0.4339E-07  0.1206E-06  0.7857E-08  0.2183E-07
      1.353  0.2035E-03  0.2089E-03  0.3685E-04  0.3784E-04
      1.535  0.1224E-04  0.6752E-05  0.3906E-04  0.3906E-04
      1.716  0.4545E-03  0.4994E-03  0.1214E-03  0.1295E-03
      1.897  0.1927E-03  0.1478E-03  0.1563E-03  0.1563E-03
      2.078  0.2833E-03  0.3047E-03  0.2075E-03  0.2114E-03
      2.259  0.3639E-03  0.3425E-03  0.2734E-03  0.2734E-03
      2.440  0.2715E-03  0.2336E-03  0.3226E-03  0.3157E-03
      2.621  0.5915E-03  0.6293E-03  0.4297E-03  0.4297E-03
      2.802  0.4175E-03  0.2546E-03  0.5053E-03  0.4758E-03
      2.983  0.8769E-03  0.1040E-02  0.6641E-03  0.6641E-03
      3.164  0.4669E-03  0.2172E-03  0.7486E-03  0.7034E-03
      3.345  0.1804E-03  0.4301E-03  0.7813E-03  0.7812E-03
      3.526  0.1127E-02  0.5254E-03  0.9853E-03  0.8764E-03
      3.707  0.2929E-03  0.7691E-03  0.1038E-02  0.1016E-02
      3.888  0.1811E-02  0.1530E-02  0.1366E-02  0.1293E-02
      4.069  0.4740E-03  0.4136E-03  0.1452E-02  0.1368E-02
      4.251  0.3931E-03  0.6393E-03  0.1523E-02  0.1483E-02
      4.432  0.1464E-02  0.2391E-03  0.1788E-02  0.1527E-02
      4.613  0.1839E-02  0.1280E-02  0.2121E-02  0.1758E-02
      4.794  0.1808E-02  0.1913E-02  0.2449E-02  0.2105E-02
      4.975  0.3288E-02  0.2096E-03  0.3044E-02  0.2143E-02
      5.156  0.5343E-02  0.1740E-02  0.4011E-02  0.2458E-02
      5.337  0.6619E-02  0.1085E-02  0.5210E-02  0.2654E-02
      5.518  0.5646E-02  0.1359E-02  0.6232E-02  0.2900E-02
      5.699  0.1015E-01  0.3353E-02  0.8070E-02  0.3507E-02
      5.880  0.8207E-02  0.1382E-02  0.9556E-02  0.3757E-02
      6.061  0.1097E-01  0.3845E-02  0.1154E-01  0.4454E-02
      6.242  0.7361E-02  0.4577E-02  0.1287E-01  0.5282E-02
      6.423  0.9464E-02  0.4632E-02  0.1459E-01  0.6121E-02
      6.604  0.7742E-02  0.3999E-02  0.1599E-01  0.6845E-02
      6.785  0.9355E-02  0.5043E-02  0.1768E-01  0.7758E-02
      6.967  0.1038E-01  0.7726E-02  0.1956E-01  0.9157E-02
      7.148  0.1263E-01  0.6397E-02  0.2185E-01  0.1032E-01
      7.329  0.1404E-01  0.1001E-01  0.2439E-01  0.1213E-01
      7.510  0.1678E-01  0.5568E-02  0.2743E-01  0.1314E-01
      7.691  0.1517E-01  0.8223E-02  0.3018E-01  0.1463E-01
      7.872  0.1007E-01  0.6441E-02  0.3200E-01  0.1579E-01
      8.053  0.1183E-01  0.7723E-02  0.3414E-01  0.1719E-01
      8.234  0.1281E-01  0.1028E-01  0.3646E-01  0.1905E-01
      8.415  0.1451E-01  0.1011E-01  0.3909E-01  0.2088E-01
      8.596  0.1077E-01  0.9894E-02  0.4104E-01  0.2267E-01
      8.777  0.1151E-01  0.1061E-01  0.4312E-01  0.2459E-01
      8.958  0.1269E-01  0.1153E-01  0.4542E-01  0.2668E-01
      9.139  0.1263E-01  0.1294E-01  0.4771E-01  0.2902E-01
      9.320  0.1903E-01  0.1092E-01  0.5115E-01  0.3100E-01
      9.501  0.8246E-02  0.8716E-02  0.5265E-01  0.3258E-01
      9.683  0.1119E-02  0.8560E-02  0.5285E-01  0.3413E-01
      9.864  0.1034E-03  0.6529E-02  0.5287E-01  0.3531E-01
     10.045  0.1244E-02  0.1248E-01  0.5309E-01  0.3757E-01
     10.226  0.3051E-02  0.1018E-01  0.5365E-01  0.3941E-01
     10.407  0.1683E-02  0.1195E-01  0.5395E-01  0.4158E-01
     10.588  0.4000E-03  0.8270E-02  0.5402E-01  0.4307E-01
     10.769  0.1677E-02  0.1205E-01  0.5433E-01  0.4526E-01
     10.950  0.1636E-02  0.1238E-01  0.5462E-01  0.4750E-01
     11.131  0.1863E-02  0.2161E-01  0.5496E-01  0.5141E-01
     11.312  0.6597E-03  0.7936E-02  0.5508E-01  0.5285E-01
     11.493  0.1295E-02  0.4504E-03  0.5531E-01  0.5293E-01
     11.674  0.1281E-02  0.4253E-02  0.5555E-01  0.5370E-01
     11.855  0.3185E-03  0.2578E-02  0.5560E-01  0.5417E-01
     12.036  0.1985E-02  0.1772E-02  0.5596E-01  0.5449E-01
     12.217  0.1473E-02  0.3334E-03  0.5623E-01  0.5455E-01
     12.399  0.1187E-02  0.1684E-02  0.5645E-01  0.5485E-01
     12.580  0.3384E-02  0.2321E-02  0.5706E-01  0.5527E-01
     12.761  0.6634E-04  0.2018E-02  0.5707E-01  0.5564E-01
     12.942  0.4271E-06  0.2065E-02  0.5707E-01  0.5601E-01
     13.123  0.1238E-02  0.1500E-02  0.5729E-01  0.5628E-01
     13.304  0.5600E-04  0.7257E-03  0.5730E-01  0.5641E-01
     13.485  0.2811E-02  0.2605E-02  0.5781E-01  0.5689E-01
     13.666  0.1090E-02  0.1019E-02  0.5801E-01  0.5707E-01
     13.847  0.1570E-02  0.1476E-04  0.5830E-01  0.5707E-01
     14.028  0.3531E-03  0.2368E-02  0.5836E-01  0.5750E-01
     14.209  0.3439E-04  0.4816E-03  0.5837E-01  0.5759E-01
     14.390  0.2747E-02  0.2312E-02  0.5886E-01  0.5801E-01
     14.571  0.4545E-03  0.2022E-03  0.5895E-01  0.5804E-01
     14.752  0.1859E-06  0.1749E-02  0.5895E-01  0.5836E-01
     14.933  0.1207E-02  0.6374E-03  0.5916E-01  0.5848E-01
     15.114  0.8736E-04  0.1139E-02  0.5918E-01  0.5868E-01
     15.296  0.3337E-03  0.1451E-02  0.5924E-01  0.5895E-01
     15.477  0.1292E-02  0.1065E-02  0.5947E-01  0.5914E-01
     15.658  0.4784E-03  0.2298E-03  0.5956E-01  0.5918E-01
     15.839  0.1132E-02  0.7626E-07  0.5977E-01  0.5918E-01
     16.020  0.8004E-04  0.8888E-03  0.5978E-01  0.5934E-01
     16.201  0.1216E-02  0.1053E-02  0.6000E-01  0.5953E-01
     16.382  0.1410E-02  0.9523E-03  0.6026E-01  0.5970E-01
     16.563  0.2366E-02  0.3422E-03  0.6068E-01  0.5977E-01
     16.744  0.7620E-03  0.5731E-11  0.6082E-01  0.5977E-01
     16.925  0.2166E-02  0.4535E-04  0.6121E-01  0.5977E-01
     17.106  0.1301E-02  0.2836E-02  0.6145E-01  0.6029E-01
     17.287  0.1330E-02  0.1488E-02  0.6169E-01  0.6056E-01
     17.468  0.1235E-02  0.2003E-02  0.6191E-01  0.6092E-01
     17.649  0.2420E-02  0.1431E-02  0.6235E-01  0.6118E-01
     17.830  0.1688E-03  0.2524E-02  0.6238E-01  0.6164E-01
     18.012  0.3128E-04  0.3703E-03  0.6239E-01  0.6170E-01
     18.193  0.2625E-02  0.2433E-02  0.6286E-01  0.6214E-01
     18.374  0.1928E-02  0.1323E-02  0.6321E-01  0.6238E-01
     18.555  0.5932E-03  0.1690E-05  0.6332E-01  0.6238E-01
     18.736  0.2171E-02  0.2642E-02  0.6371E-01  0.6286E-01
     18.917  0.4177E-03  0.1569E-02  0.6379E-01  0.6315E-01
     19.098  0.2112E-03  0.7330E-03  0.6383E-01  0.6328E-01
     19.279  0.1134E-02  0.1575E-02  0.6403E-01  0.6356E-01
     19.460  0.1243E-02  0.1246E-02  0.6426E-01  0.6379E-01
     19.641  0.8602E-03  0.1376E-03  0.6441E-01  0.6381E-01
     19.822  0.3240E-02  0.1358E-02  0.6500E-01  0.6406E-01
     20.003  0.1083E-02  0.1090E-02  0.6520E-01  0.6426E-01
     20.184  0.1269E-02  0.1180E-02  0.6543E-01  0.6447E-01
     20.365  0.1323E-02  0.1472E-02  0.6567E-01  0.6474E-01
     20.546  0.3784E-02  0.1705E-02  0.6635E-01  0.6505E-01
     20.728  0.2000E-02  0.2101E-02  0.6671E-01  0.6543E-01
     20.909  0.1240E-02  0.2192E-02  0.6694E-01  0.6582E-01
     21.090  0.1346E-02  0.2309E-02  0.6718E-01  0.6624E-01
     21.271  0.1332E-02  0.2497E-02  0.6742E-01  0.6669E-01
     21.452  0.1287E-02  0.1463E-02  0.6766E-01  0.6696E-01
     21.633  0.2274E-03  0.1442E-02  0.6770E-01  0.6722E-01
     21.814  0.2255E-02  0.1721E-02  0.6810E-01  0.6753E-01
     21.995  0.3375E-02  0.7319E-03  0.6872E-01  0.6766E-01
     22.176  0.2776E-02  0.4458E-03  0.6922E-01  0.6774E-01
     22.357  0.1041E-02  0.3605E-02  0.6941E-01  0.6840E-01
     22.538  0.7257E-03  0.4176E-02  0.6954E-01  0.6915E-01
     22.719  0.4721E-02  0.5527E-03  0.7039E-01  0.6925E-01
     22.900  0.1277E-02  0.1099E-02  0.7062E-01  0.6945E-01
     23.081  0.1533E-02  0.4362E-02  0.7090E-01  0.7024E-01
     23.262  0.1571E-02  0.2057E-02  0.7119E-01  0.7061E-01
     23.444  0.7951E-03  0.9523E-03  0.7133E-01  0.7079E-01
     23.625  0.1194E-02  0.2233E-02  0.7155E-01  0.7119E-01
     23.806  0.5279E-02  0.7546E-03  0.7250E-01  0.7133E-01
     23.987  0.1288E-02  0.1278E-02  0.7274E-01  0.7156E-01
     24.168  0.2159E-02  0.4130E-02  0.7313E-01  0.7231E-01
     24.349  0.1260E-02  0.2358E-02  0.7336E-01  0.7273E-01
     24.530  0.2747E-02  0.2433E-02  0.7385E-01  0.7317E-01
     24.711  0.1256E-02  0.2098E-02  0.7408E-01  0.7355E-01
     24.892  0.2209E-02  0.1625E-02  0.7448E-01  0.7385E-01
     25.073  0.1366E-02  0.1886E-02  0.7473E-01  0.7419E-01
     25.254  0.3041E-02  0.2890E-02  0.7528E-01  0.7471E-01
     25.435  0.2013E-02  0.9756E-04  0.7564E-01  0.7473E-01
     25.616  0.3374E-02  0.3203E-02  0.7625E-01  0.7531E-01
     25.797  0.1045E-02  0.2674E-02  0.7644E-01  0.7580E-01
     25.978  0.1565E-02  0.2653E-02  0.7673E-01  0.7628E-01
     26.160  0.4542E-02  0.1725E-02  0.7755E-01  0.7659E-01
     26.341  0.2062E-02  0.1825E-02  0.7792E-01  0.7692E-01
     26.522  0.4777E-03  0.3679E-02  0.7801E-01  0.7758E-01
     26.703  0.3106E-02  0.2321E-02  0.7857E-01  0.7800E-01
     26.884  0.2070E-02  0.9442E-03  0.7895E-01  0.7818E-01
     27.065  0.2336E-02  0.3463E-02  0.7937E-01  0.7880E-01
     27.246  0.2548E-03  0.9070E-03  0.7941E-01  0.7897E-01
     27.427  0.2618E-02  0.2467E-02  0.7989E-01  0.7941E-01
     27.608  0.1480E-02  0.8022E-04  0.8016E-01  0.7943E-01
     27.789  0.1853E-02  0.3991E-02  0.8049E-01  0.8015E-01
     27.970  0.5157E-03  0.4582E-03  0.8059E-01  0.8023E-01
     28.151  0.2813E-02  0.1606E-02  0.8109E-01  0.8052E-01
     28.332  0.1968E-02  0.2529E-02  0.8145E-01  0.8098E-01
     28.513  0.3148E-02  0.1240E-02  0.8202E-01  0.8121E-01
     28.694  0.1453E-02  0.3758E-02  0.8228E-01  0.8189E-01
     28.876  0.9244E-03  0.1491E-02  0.8245E-01  0.8216E-01
     29.057  0.7869E-03  0.1742E-02  0.8259E-01  0.8247E-01
     29.238  0.1701E-02  0.1557E-03  0.8290E-01  0.8250E-01
     29.419  0.1323E-02  0.1304E-02  0.8314E-01  0.8274E-01
     29.600  0.2884E-02  0.3091E-02  0.8366E-01  0.8330E-01
     29.781  0.2578E-02  0.2497E-02  0.8413E-01  0.8375E-01
     29.962  0.1181E-02  0.1623E-02  0.8434E-01  0.8404E-01
     30.143  0.1036E-02  0.1197E-02  0.8453E-01  0.8426E-01
     30.324  0.1808E-02  0.1281E-02  0.8486E-01  0.8449E-01
     30.505  0.1238E-02  0.8276E-03  0.8508E-01  0.8464E-01
     30.686  0.2403E-02  0.3657E-02  0.8552E-01  0.8530E-01
     30.867  0.1969E-02  0.1469E-02  0.8588E-01  0.8557E-01
     31.048  0.1467E-02  0.2004E-02  0.8614E-01  0.8593E-01
     31.229  0.3954E-02  0.1855E-02  0.8686E-01  0.8627E-01
     31.410  0.1119E-02  0.3158E-02  0.8706E-01  0.8684E-01
     31.592  0.3576E-02  0.2132E-02  0.8771E-01  0.8723E-01
     31.773  0.2174E-02  0.1645E-02  0.8810E-01  0.8752E-01
     31.954  0.1234E-02  0.2298E-02  0.8832E-01  0.8794E-01
     32.135  0.1114E-02  0.1817E-02  0.8853E-01  0.8827E-01
     32.316  0.1457E-02  0.2554E-02  0.8879E-01  0.8873E-01
     32.497  0.6269E-02  0.2376E-02  0.8992E-01  0.8916E-01
     32.678  0.2750E-02  0.5328E-02  0.9042E-01  0.9013E-01
     32.859  0.2500E-02  0.1357E-02  0.9088E-01  0.9037E-01
     33.040  0.1157E-02  0.1986E-02  0.9108E-01  0.9073E-01
     33.221  0.2761E-02  0.2446E-02  0.9158E-01  0.9118E-01
     33.402  0.3444E-02  0.2684E-02  0.9221E-01  0.9166E-01
     33.583  0.9333E-03  0.2704E-02  0.9238E-01  0.9215E-01
     33.764  0.3870E-02  0.2564E-02  0.9308E-01  0.9261E-01
     33.945  0.2031E-02  0.3863E-02  0.9345E-01  0.9331E-01
     34.126  0.3450E-02  0.1107E-02  0.9407E-01  0.9351E-01
     34.308  0.6137E-03  0.2216E-02  0.9418E-01  0.9392E-01
     34.489  0.3100E-02  0.1501E-02  0.9474E-01  0.9419E-01
     34.670  0.3214E-02  0.2919E-02  0.9532E-01  0.9472E-01
     34.851  0.4206E-02  0.4146E-02  0.9609E-01  0.9547E-01
     35.032  0.1160E-02  0.3296E-02  0.9630E-01  0.9606E-01
     35.213  0.2518E-02  0.1218E-02  0.9675E-01  0.9628E-01
     35.394  0.1719E-02  0.2048E-02  0.9706E-01  0.9666E-01
     35.575  0.3682E-02  0.3265E-02  0.9773E-01  0.9725E-01
     35.756  0.3038E-02  0.2854E-02  0.9828E-01  0.9776E-01
     35.937  0.1268E-02  0.2525E-02  0.9851E-01  0.9822E-01
     36.118  0.1968E-02  0.2279E-02  0.9887E-01  0.9863E-01
     36.299  0.1281E-02  0.7682E-05  0.9910E-01  0.9863E-01
     36.480  0.1665E-03  0.1337E-02  0.9913E-01  0.9888E-01
     36.661  0.2153E-02  0.2863E-02  0.9952E-01  0.9939E-01
     36.842  0.3795E-02  0.1479E-02  0.1002E+00  0.9966E-01
     37.024  0.1591E-03  0.2102E-02  0.1002E+00  0.1000E+00
     37.205  0.2686E-03  0.1057E-02  0.1003E+00  0.1002E+00
     37.386  0.1409E-02  0.1925E-07  0.1005E+00  0.1002E+00
     37.567  0.1535E-02  0.5967E-03  0.1008E+00  0.1003E+00
     37.748  0.3781E-02  0.2722E-02  0.1015E+00  0.1008E+00
     37.929  0.7450E-03  0.3404E-02  0.1016E+00  0.1015E+00
     38.110  0.1415E-02  0.1477E-02  0.1019E+00  0.1017E+00
     38.291  0.6618E-03  0.1144E-02  0.1020E+00  0.1019E+00
     38.472  0.2474E-02  0.6466E-03  0.1025E+00  0.1020E+00
     38.653  0.2384E-02  0.1398E-02  0.1029E+00  0.1023E+00
     38.834  0.1353E-02  0.2676E-02  0.1031E+00  0.1028E+00
     39.015  0.5069E-02  0.1762E-02  0.1041E+00  0.1031E+00
     39.196  0.5763E-02  0.2752E-02  0.1051E+00  0.1036E+00
     39.377  0.3528E-02  0.7242E-02  0.1057E+00  0.1049E+00
     39.558  0.2219E-02  0.6015E-02  0.1061E+00  0.1060E+00
     39.740  0.2079E-02  0.2026E-02  0.1065E+00  0.1064E+00
     39.921  0.3614E-02  0.1848E-02  0.1072E+00  0.1067E+00
     40.102  0.2319E-02  0.7859E-03  0.1076E+00  0.1068E+00
     40.283  0.4118E-03  0.2996E-02  0.1077E+00  0.1074E+00
     40.464  0.1686E-02  0.1419E-02  0.1080E+00  0.1076E+00
     40.645  0.3304E-02  0.2310E-02  0.1086E+00  0.1081E+00
     40.826  0.3221E-02  0.3046E-02  0.1091E+00  0.1086E+00
     41.007  0.1703E-02  0.3724E-02  0.1095E+00  0.1093E+00
     41.188  0.1698E-02  0.1924E-02  0.1098E+00  0.1096E+00
     41.369  0.1505E-02  0.7242E-03  0.1100E+00  0.1098E+00
     41.550  0.4394E-02  0.1816E-02  0.1108E+00  0.1101E+00
     41.731  0.3326E-02  0.2326E-02  0.1114E+00  0.1105E+00
     41.912  0.1482E-02  0.5191E-02  0.1117E+00  0.1115E+00
     42.093  0.5099E-03  0.1886E-02  0.1118E+00  0.1118E+00
     42.274  0.3433E-03  0.2667E-05  0.1119E+00  0.1118E+00
     42.456  0.3532E-02  0.2195E-02  0.1125E+00  0.1122E+00
     42.637  0.1055E-02  0.8885E-03  0.1127E+00  0.1124E+00
     42.818  0.3100E-02  0.2592E-02  0.1133E+00  0.1128E+00
     42.999  0.3100E-02  0.4008E-02  0.1138E+00  0.1136E+00
     43.180  0.1814E-02  0.6970E-03  0.1141E+00  0.1137E+00
     43.361  0.5369E-03  0.1844E-02  0.1142E+00  0.1140E+00
     43.542  0.2210E-02  0.2006E-02  0.1146E+00  0.1144E+00
     43.723  0.1714E-02  0.6299E-03  0.1149E+00  0.1145E+00
     43.904  0.6974E-04  0.8862E-03  0.1150E+00  0.1146E+00
     44.085  0.2165E-03  0.8566E-03  0.1150E+00  0.1148E+00
     44.266  0.3462E-02  0.1721E-02  0.1156E+00  0.1151E+00
     44.447  0.1791E-02  0.2673E-02  0.1160E+00  0.1156E+00
     44.628  0.3213E-02  0.5516E-03  0.1165E+00  0.1157E+00
     44.809  0.9470E-03  0.3024E-02  0.1167E+00  0.1162E+00
     44.990  0.7253E-03  0.1758E-02  0.1168E+00  0.1166E+00
     45.172  0.7569E-08  0.1439E-02  0.1168E+00  0.1168E+00
     45.353  0.1423E-02  0.7229E-03  0.1171E+00  0.1170E+00
     45.534  0.2970E-02  0.1540E-02  0.1176E+00  0.1172E+00
     45.715  0.1428E-02  0.1742E-02  0.1179E+00  0.1176E+00
     45.896  0.1115E-02  0.5863E-03  0.1181E+00  0.1177E+00
     46.077  0.8411E-03  0.1637E-02  0.1182E+00  0.1180E+00
     46.258  0.1464E-02  0.1334E-02  0.1185E+00  0.1182E+00
     46.439  0.1650E-02  0.3100E-03  0.1188E+00  0.1183E+00
     46.620  0.1117E-03  0.1889E-02  0.1188E+00  0.1186E+00
     46.801  0.3697E-03  0.4676E-05  0.1189E+00  0.1186E+00
     46.982  0.3974E-02  0.1826E-06  0.1196E+00  0.1186E+00
     47.163  0.2128E-02  0.1206E-02  0.1200E+00  0.1188E+00
     47.344  0.7851E-06  0.8813E-04  0.1200E+00  0.1188E+00
     47.525  0.0000E+00  0.0000E+00  0.1200E+00  0.1188E+00
     47.706  0.0000E+00  0.1319E-15  0.1200E+00  0.1188E+00
     47.888  0.0000E+00  0.1074E-04  0.1200E+00  0.1188E+00
     48.069  0.0000E+00  0.1226E-02  0.1200E+00  0.1191E+00
     48.250  0.0000E+00  0.1332E-02  0.1200E+00  0.1193E+00
     48.431  0.0000E+00  0.1994E-04  0.1200E+00  0.1193E+00
     48.612  0.0000E+00  0.0000E+00  0.1200E+00  0.1193E+00
     48.793  0.0000E+00  0.0000E+00  0.1200E+00  0.1193E+00
     48.974  0.0000E+00  0.6252E-07  0.1200E+00  0.1193E+00
     49.155  0.0000E+00  0.5943E-03  0.1200E+00  0.1194E+00
     49.336  0.0000E+00  0.1341E-03  0.1200E+00  0.1194E+00
     49.517  0.0000E+00  0.1213E-02  0.1200E+00  0.1196E+00
     49.698  0.0000E+00  0.2149E-06  0.1200E+00  0.1196E+00
     49.879  0.0000E+00  0.0000E+00  0.1200E+00  0.1196E+00
     50.060  0.0000E+00  0.1376E-14  0.1200E+00  0.1196E+00
     50.241  0.0000E+00  0.2289E-04  0.1200E+00  0.1197E+00
     50.422  0.0000E+00  0.6240E-03  0.1200E+00  0.1198E+00
     50.604  0.0000E+00  0.4034E-03  0.1200E+00  0.1198E+00
     50.785  0.0000E+00  0.8910E-03  0.1200E+00  0.1200E+00
     50.966  0.0000E+00  0.3618E-06  0.1200E+00  0.1200E+00
     51.147  0.0000E+00  0.0000E+00  0.1200E+00  0.1200E+00
     51.328  0.0000E+00  0.0000E+00  0.1200E+00  0.1200E+00
     51.509  0.0000E+00  0.0000E+00  0.1200E+00  0.1200E+00
     51.690  0.0000E+00  0.0000E+00  0.1200E+00  0.1200E+00
     51.871  0.0000E+00  0.0000E+00  0.1200E+00  0.1200E+00
     52.052  0.0000E+00  0.0000E+00  0.1200E+00  0.1200E+00
     52.233  0.0000E+00  0.0000E+00  0.1200E+00  0.1200E+00
     52.414  0.0000E+00  0.0000E+00  0.1200E+00  0.1200E+00
     52.595  0.0000E+00  0.0000E+00  0.1200E+00  0.1200E+00
     52.776  0.0000E+00  0.0000E+00  0.1200E+00  0.1200E+00
     52.957  0.0000E+00  0.0000E+00  0.1200E+00  0.1200E+00
     53.138  0.0000E+00  0.0000E+00  0.1200E+00  0.1200E+00
     53.13847615     -1.18149040  301      9.98920808      1.00000000
     -1.181  0.0000E+00  0.0000E+00  0.0000E+00  0.0000E+00  0.0000E+00  0.0000E+00  0.0000E+00  0.0000E+00  0.0000E+00  0.0000E+00  0.0000E+00  0.0000E+00  0.0000E+00  0.0000E+00  0.0000E+00  0.0000E+00  0.0000E+00  0.0000E+00
     -1.000  0.0000E+00  0.0000E+00  0.0000E+00  0.0000E+00  0.0000E+00  0.0000E+00  0.0000E+00  0.0000E+00  0.0000E+00  0.0000E+00  0.0000E+00  0.0000E+00  0.0000E+00  0.0000E+00  0.0000E+00  0.0000E+00  0.0000E+00  0.0000E+00
     -0.819  0.0000E+00  0.0000E+00  0.0000E+00  0.0000E+00  0.0000E+00  0.0000E+00  0.0000E+00  0.0000E+00  0.0000E+00  0.0000E+00  0.0000E+00  0.0000E+00  0.0000E+00  0.0000E+00  0.0000E+00  0.0000E+00  0.0000E+00  0.0000E+00
     -0.638  0.0000E+00  0.0000E+00  0.0000E+00  0.0000E+00  0.0000E+00  0.0000E+00  0.0000E+00  0.0000E+00  0.0000E+00  0.0000E+00  0.0000E+00  0.0000E+00  0.0000E+00  0.0000E+00  0.0000E+00  0.0000E+00  0.0000E+00  0.0000E+00
     -0.457  0.0000E+00  0.0000E+00  0.0000E+00  0.0000E+00  0.0000E+00  0.0000E+00  0.0000E+00  0.0000E+00  0.0000E+00  0.0000E+00  0.0000E+00  0.0000E+00  0.0000E+00  0.0000E+00  0.0000E+00  0.0000E+00  0.0000E+00  0.0000E+00
     -0.276  0.0000E+00  0.0000E+00  0.0000E+00  0.0000E+00  0.0000E+00  0.0000E+00  0.0000E+00  0.0000E+00  0.0000E+00  0.0000E+00  0.0000E+00  0.0000E+00  0.0000E+00  0.0000E+00  0.0000E+00  0.0000E+00  0.0000E+00  0.0000E+00
     -0.095  0.0000E+00  0.0000E+00  0.0000E+00  0.0000E+00  0.0000E+00  0.0000E+00  0.0000E+00  0.0000E+00  0.0000E+00  0.0000E+00  0.0000E+00  0.0000E+00  0.0000E+00  0.0000E+00  0.0000E+00  0.0000E+00  0.0000E+00  0.0000E+00
      0.086  0.0000E+00  0.0000E+00  0.0000E+00  0.0000E+00  0.0000E+00  0.0000E+00  0.0000E+00  0.0000E+00  0.0000E+00  0.0000E+00  0.0000E+00  0.0000E+00  0.0000E+00  0.0000E+00  0.0000E+00  0.0000E+00  0.0000E+00  0.0000E+00
      0.267  0.0000E+00  0.0000E+00  0.0000E+00  0.0000E+00  0.0000E+00  0.0000E+00  0.0000E+00  0.0000E+00  0.0000E+00  0.0000E+00  0.0000E+00  0.0000E+00  0.0000E+00  0.0000E+00  0.0000E+00  0.0000E+00  0.0000E+00  0.0000E+00
      0.448  0.0000E+00  0.0000E+00  0.0000E+00  0.0000E+00  0.0000E+00  0.0000E+00  0.0000E+00  0.0000E+00  0.0000E+00  0.0000E+00  0.0000E+00  0.0000E+00  0.0000E+00  0.0000E+00  0.0000E+00  0.0000E+00  0.0000E+00  0.0000E+00
      0.629  0.0000E+00  0.0000E+00  0.0000E+00  0.0000E+00  0.0000E+00  0.0000E+00  0.0000E+00  0.0000E+00  0.0000E+00  0.0000E+00  0.0000E+00  0.0000E+00  0.0000E+00  0.0000E+00  0.0000E+00  0.0000E+00  0.0000E+00  0.0000E+00
      0.810  0.0000E+00  0.0000E+00  0.0000E+00  0.0000E+00  0.0000E+00  0.0000E+00  0.0000E+00  0.0000E+00  0.0000E+00  0.0000E+00  0.0000E+00  0.0000E+00  0.0000E+00  0.0000E+00  0.0000E+00  0.0000E+00  0.0000E+00  0.0000E+00
      0.991  0.0000E+00  0.0000E+00  0.0000E+00  0.0000E+00  0.0000E+00  0.0000E+00  0.0000E+00  0.0000E+00  0.0000E+00  0.0000E+00  0.0000E+00  0.0000E+00  0.0000E+00  0.0000E+00  0.0000E+00  0.0000E+00  0.0000E+00  0.0000E+00
      1.172  0.3013E-05  0.8358E-05  0.1462E-07  0.4082E-07  0.1462E-07  0.4082E-07  0.1462E-07  0.4082E-07  0.2314E-09  0.4737E-09  0.2314E-09  0.4737E-09  0.5941E-25  0.1265E-21  0.2314E-09  0.4737E-09  0.5941E-25  0.1265E-21
      1.353  0.1413E-01  0.1448E-01  0.6857E-04  0.7070E-04  0.6857E-04  0.7070E-04  0.6857E-04  0.7070E-04  0.1085E-05  0.8206E-06  0.1085E-05  0.8206E-06  0.2785E-21  0.2190E-18  0.1085E-05  0.8206E-06  0.2785E-21  0.2190E-18
      1.535  0.8499E-03  0.4680E-03  0.4127E-05  0.2289E-05  0.4127E-05  0.2289E-05  0.4127E-05  0.2289E-05  0.6532E-07  0.2661E-07  0.6532E-07  0.2661E-07  0.6763E-10  0.1351E-09  0.6532E-07  0.2661E-07  0.6763E-10  0.1351E-09
      1.716  0.3032E-01  0.3327E-01  0.5473E-03  0.6050E-03  0.5473E-03  0.6050E-03  0.5473E-03  0.6050E-03  0.1606E-04  0.1272E-04  0.1606E-04  0.1272E-04  0.2149E-04  0.1732E-04  0.1606E-04  0.1272E-04  0.2149E-04  0.1732E-04
      1.897  0.1286E-01  0.9842E-02  0.2321E-03  0.1790E-03  0.2321E-03  0.1790E-03  0.2321E-03  0.1790E-03  0.6810E-05  0.3765E-05  0.6810E-05  0.3765E-05  0.9111E-05  0.5125E-05  0.6810E-05  0.3765E-05  0.9111E-05  0.5125E-05
      2.078  0.1813E-01  0.1948E-01  0.5656E-03  0.6155E-03  0.5656E-03  0.6155E-03  0.5656E-03  0.6155E-03  0.5588E-04  0.4221E-04  0.5588E-04  0.4221E-04  0.1265E-04  0.1002E-04  0.5588E-04  0.4221E-04  0.1265E-04  0.1002E-04
      2.259  0.2330E-01  0.2190E-01  0.7267E-03  0.6918E-03  0.7267E-03  0.6918E-03  0.7267E-03  0.6918E-03  0.7180E-04  0.4745E-04  0.7180E-04  0.4745E-04  0.1625E-04  0.1127E-04  0.7180E-04  0.4745E-04  0.1625E-04  0.1127E-04
      2.440  0.1659E-01  0.1429E-01  0.7472E-03  0.6534E-03  0.7472E-03  0.6534E-03  0.7472E-03  0.6534E-03  0.6787E-04  0.3831E-04  0.6787E-04  0.3831E-04  0.9942E-04  0.5988E-04  0.6787E-04  0.3831E-04  0.9942E-04  0.5988E-04
      2.621  0.3614E-01  0.3849E-01  0.1634E-02  0.1763E-02  0.1634E-02  0.1763E-02  0.1634E-02  0.1763E-02  0.1258E-03  0.9249E-04  0.1258E-03  0.9249E-04  0.2402E-03  0.1732E-03  0.1258E-03  0.9249E-04  0.2402E-03  0.1732E-03
      2.802  0.2435E-01  0.1489E-01  0.1434E-02  0.8934E-03  0.1434E-02  0.8934E-03  0.1434E-02  0.8934E-03  0.2353E-03  0.9669E-04  0.2353E-03  0.9669E-04  0.1643E-03  0.6875E-04  0.2353E-03  0.9669E-04  0.1643E-03  0.6875E-04
      2.983  0.5114E-01  0.6084E-01  0.3012E-02  0.3649E-02  0.3012E-02  0.3649E-02  0.3012E-02  0.3649E-02  0.4942E-03  0.3950E-03  0.4942E-03  0.3950E-03  0.3451E-03  0.2808E-03  0.4942E-03  0.3950E-03  0.3451E-03  0.2808E-03
      3.164  0.2582E-01  0.1214E-01  0.1779E-02  0.8704E-03  0.1779E-02  0.8704E-03  0.1779E-02  0.8704E-03  0.7133E-03  0.2078E-03  0.7133E-03  0.2078E-03  0.1091E-03  0.3446E-04  0.7133E-03  0.2078E-03  0.1091E-03  0.3446E-04
      3.345  0.9973E-02  0.2403E-01  0.6873E-03  0.1724E-02  0.6873E-03  0.1724E-02  0.6873E-03  0.1724E-02  0.2755E-03  0.4116E-03  0.2755E-03  0.4116E-03  0.4228E-04  0.6824E-04  0.2755E-03  0.4116E-03  0.4228E-04  0.6824E-04
      3.526  0.5847E-01  0.2773E-01  0.5156E-02  0.2509E-02  0.5156E-02  0.2509E-02  0.5156E-02  0.2509E-02  0.1005E-02  0.2971E-03  0.1005E-02  0.2971E-03  0.1985E-02  0.5911E-03  0.1005E-02  0.2971E-03  0.1985E-02  0.5911E-03
      3.707  0.1484E-01  0.4064E-01  0.1312E-02  0.3671E-02  0.1312E-02  0.3671E-02  0.1312E-02  0.3671E-02  0.6496E-03  0.4795E-03  0.6496E-03  0.4795E-03  0.2589E-03  0.7916E-03  0.6496E-03  0.4795E-03  0.2589E-03  0.7916E-03
      3.888  0.8809E-01  0.7672E-01  0.8739E-02  0.7853E-02  0.8739E-02  0.7853E-02  0.8739E-02  0.7853E-02  0.3519E-02  0.2063E-02  0.3519E-02  0.2063E-02  0.3333E-02  0.1516E-02  0.3519E-02  0.2063E-02  0.3333E-02  0.1516E-02
      4.069  0.2143E-01  0.2068E-01  0.2335E-02  0.2181E-02  0.2335E-02  0.2181E-02  0.2335E-02  0.2181E-02  0.1539E-02  0.3835E-03  0.1539E-02  0.3835E-03  0.9289E-03  0.5760E-03  0.1539E-02  0.3835E-03  0.9289E-03  0.5760E-03
      4.251  0.1684E-01  0.3028E-01  0.1670E-02  0.3517E-02  0.1670E-02  0.3517E-02  0.1670E-02  0.3517E-02  0.2351E-02  0.1223E-02  0.2351E-02  0.1223E-02  0.3517E-03  0.7838E-03  0.2351E-02  0.1223E-02  0.3517E-03  0.7838E-03
      4.432  0.6107E-01  0.1073E-01  0.8060E-02  0.1209E-02  0.8060E-02  0.1209E-02  0.8060E-02  0.1209E-02  0.5351E-02  0.1044E-02  0.5351E-02  0.1044E-02  0.3623E-02  0.5164E-04  0.5351E-02  0.1044E-02  0.3623E-02  0.5164E-04
      4.613  0.6768E-01  0.5722E-01  0.8405E-02  0.7901E-02  0.8405E-02  0.7901E-02  0.8405E-02  0.7901E-02  0.1054E-01  0.2873E-02  0.1054E-01  0.2873E-02  0.8024E-02  0.1456E-02  0.1054E-01  0.2873E-02  0.8024E-02  0.1456E-02
      4.794  0.5727E-01  0.7868E-01  0.8077E-02  0.1103E-01  0.8077E-02  0.1103E-01  0.8077E-02  0.1103E-01  0.1038E-01  0.5891E-02  0.1038E-01  0.5891E-02  0.1390E-01  0.5488E-02  0.1038E-01  0.5891E-02  0.1390E-01  0.5488E-02
      4.975  0.6458E-01  0.7924E-02  0.7403E-02  0.1342E-02  0.7403E-02  0.1342E-02  0.7403E-02  0.1342E-02  0.3040E-01  0.2966E-03  0.3040E-01  0.2966E-03  0.4762E-01  0.1238E-02  0.3040E-01  0.2966E-03  0.4762E-01  0.1238E-02
      5.156  0.9141E-01  0.6421E-01  0.1136E-01  0.9964E-02  0.1136E-01  0.9964E-02  0.1136E-01  0.9964E-02  0.5964E-01  0.6991E-02  0.5964E-01  0.6991E-02  0.7310E-01  0.7254E-02  0.5964E-01  0.6991E-02  0.7310E-01  0.7254E-02
      5.337  0.9880E-01  0.3854E-01  0.1648E-01  0.7083E-02  0.1648E-01  0.7083E-02  0.1648E-01  0.7083E-02  0.4772E-01  0.4313E-02  0.4772E-01  0.4313E-02  0.1320E+00  0.3913E-02  0.4772E-01  0.4313E-02  0.1320E+00  0.3913E-02
      5.518  0.5327E-01  0.4475E-01  0.8288E-02  0.7486E-02  0.8288E-02  0.7486E-02  0.8288E-02  0.7486E-02  0.7820E-01  0.1098E-01  0.7820E-01  0.1098E-01  0.9065E-01  0.2029E-02  0.7820E-01  0.1098E-01  0.9065E-01  0.2029E-02
      5.699  0.7368E-01  0.9733E-01  0.1892E-01  0.1796E-01  0.1892E-01  0.1796E-01  0.1892E-01  0.1796E-01  0.1353E+00  0.2141E-01  0.1353E+00  0.2141E-01  0.1767E+00  0.2144E-01  0.1353E+00  0.2141E-01  0.1767E+00  0.2144E-01
      5.880  0.3505E-01  0.3330E-01  0.1080E-01  0.4884E-02  0.1080E-01  0.4884E-02  0.1080E-01  0.4884E-02  0.1631E+00  0.1601E-01  0.1631E+00  0.1601E-01  0.9157E-01  0.7865E-02  0.1631E+00  0.1601E-01  0.9157E-01  0.7865E-02
      6.061  0.2525E-01  0.6987E-01  0.1924E-01  0.9407E-02  0.1924E-01  0.9407E-02  0.1924E-01  0.9407E-02  0.1985E+00  0.3911E-01  0.1985E+00  0.3911E-01  0.1551E+00  0.5086E-01  0.1985E+00  0.3911E-01  0.1551E+00  0.5086E-01
      6.242  0.1133E-01  0.8755E-01  0.1356E-01  0.1864E-01  0.1356E-01  0.1864E-01  0.1356E-01  0.1864E-01  0.1630E+00  0.4288E-01  0.1630E+00  0.4288E-01  0.6473E-01  0.4933E-01  0.1630E+00  0.4288E-01  0.6473E-01  0.4933E-01
      6.423  0.6263E-02  0.5729E-01  0.2036E-01  0.1392E-01  0.2036E-01  0.1392E-01  0.2036E-01  0.1392E-01  0.1816E+00  0.2618E-01  0.1816E+00  0.2618E-01  0.1239E+00  0.1018E+00  0.1816E+00  0.2618E-01  0.1239E+00  0.1018E+00
      6.604  0.1796E-02  0.5109E-01  0.1197E-01  0.9668E-02  0.1197E-01  0.9668E-02  0.1197E-01  0.9668E-02  0.1284E+00  0.4985E-01  0.1284E+00  0.4985E-01  0.1432E+00  0.5433E-01  0.1284E+00  0.4985E-01  0.1432E+00  0.5433E-01
      6.785  0.7186E-02  0.4038E-01  0.1741E-01  0.1407E-01  0.1741E-01  0.1407E-01  0.1741E-01  0.1407E-01  0.1831E+00  0.4744E-01  0.1831E+00  0.4744E-01  0.1254E+00  0.1009E+00  0.1831E+00  0.4744E-01  0.1254E+00  0.1009E+00
      6.967  0.8503E-02  0.4721E-01  0.1666E-01  0.1721E-01  0.1666E-01  0.1721E-01  0.1666E-01  0.1721E-01  0.2255E+00  0.1291E+00  0.2255E+00  0.1291E+00  0.1146E+00  0.9384E-01  0.2255E+00  0.1291E+00  0.1146E+00  0.9384E-01
      7.148  0.1252E-01  0.1355E-01  0.2248E-01  0.1444E-01  0.2248E-01  0.1444E-01  0.2248E-01  0.1444E-01  0.2646E+00  0.1040E+00  0.2646E+00  0.1040E+00  0.1518E+00  0.9700E-01  0.2646E+00  0.1040E+00  0.1518E+00  0.9700E-01
      7.329  0.1828E-01  0.1450E-01  0.2523E-01  0.2315E-01  0.2523E-01  0.2315E-01  0.2523E-01  0.2315E-01  0.2701E+00  0.2082E+00  0.2701E+00  0.2082E+00  0.2040E+00  0.9247E-01  0.2701E+00  0.2082E+00  0.2040E+00  0.9247E-01
      7.510  0.2122E-01  0.4882E-02  0.2428E-01  0.1565E-01  0.2428E-01  0.1565E-01  0.2428E-01  0.1565E-01  0.3296E+00  0.1072E+00  0.3296E+00  0.1072E+00  0.2502E+00  0.6071E-01  0.3296E+00  0.1072E+00  0.2502E+00  0.6071E-01
      7.691  0.8785E-02  0.3384E-02  0.1815E-01  0.1804E-01  0.1815E-01  0.1804E-01  0.1815E-01  0.1804E-01  0.3051E+00  0.1765E+00  0.3051E+00  0.1765E+00  0.2327E+00  0.7727E-01  0.3051E+00  0.1765E+00  0.2327E+00  0.7727E-01
      7.872  0.1175E-01  0.7831E-03  0.1000E-01  0.2200E-01  0.1000E-01  0.2200E-01  0.1000E-01  0.2200E-01  0.1664E+00  0.9795E-01  0.1664E+00  0.9795E-01  0.2098E+00  0.1032E+00  0.1664E+00  0.9795E-01  0.2098E+00  0.1032E+00