    1    1  100    2
  0.1112453E+02  0.2505718E-09  0.2505718E-09  0.2505718E-09  0.5000000E-15
  1.000000000000000E-004
  CAR 
 Co-fcc                                  
      9     60     12
 
  0.6250000E-01  0.6250000E-01  0.6250000E-01  0.3906250E-02
      1          1.297482        1.287599   1.000000   1.000000
      2          7.292410        8.850608   1.000000   1.000000
      3          7.370178        8.944637   1.000000   1.000000
      4          7.370178        8.944637   1.000000   1.000000
      5          8.350018       10.246918   1.000000   0.000000
      6          8.350018       10.246918   1.000000   0.000000
      7         32.463443       32.215993   0.000000   0.000000
      8         35.267002       35.355028   0.000000   0.000000
      9         36.714040       36.885195   0.000000   0.000000
     10         36.714040       36.885195   0.000000   0.000000
     11         40.534513       40.762887   0.000000   0.000000
     12         40.534514       40.762948   0.000000   0.000000
 
  0.1875000E+00  0.6250000E-01  0.6250000E-01  0.1171875E-01
      1          2.083255        2.080296   1.000000   1.000000
      2          7.088393        8.586112   1.000000   1.000000
      3          7.522059        9.114892   1.000000   1.000000
      4          7.527130        9.122718   1.000000   1.000000
      5          8.201789       10.066129   1.000000   0.014791
      6          8.436978       10.321563   1.000000   0.000000
      7         29.565385       29.745172   0.000000   0.000000
      8         32.184579       32.254293   0.000000   0.000000
      9         35.671670       35.690508   0.000000   0.000000
     10         37.719996       37.892914   0.000000   0.000000
     11         39.490533       39.442043   0.000000   0.000000
     12         40.672251       40.863545   0.000000   0.000000
 
  0.3125000E+00  0.6250000E-01  0.6250000E-01  0.1171875E-01
      1          3.739569        3.835910   1.000000   1.000000
      2          6.983327        8.271362   1.000000   1.000000
      3          7.468279        9.102127   1.000000   1.000000
      4          7.539099        9.201077   1.000000   1.000000
      5          8.409991       10.216539   1.000000   0.000000
      6          8.827093       10.659362   1.000000   0.000000
      7         23.514699       23.941097   0.000000   0.000000
      8         31.110037       31.170972   0.000000   0.000000
      9         34.625339       34.650724   0.000000   0.000000
     10         37.226144       37.541321   0.000000   0.000000
     11         38.428705       38.651474   0.000000   0.000000
     12         39.459713       39.501889   0.000000   0.000000
 
  0.4375000E+00  0.6250000E-01  0.6250000E-01  0.1171875E-01
      1          4.874879        5.531928   1.000000   1.000000
      2          7.246285        8.681028   1.000000   1.000000
      3          7.340598        8.908662   1.000000   1.000000
      4          8.021310        9.005517   1.000000   1.000000
      5          8.943413       10.780022   1.000000   0.000000
      6          9.602828       11.236503   1.000000   0.000000
      7         18.210763       18.916110   0.000000   0.000000
      8         30.659503       30.600743   0.000000   0.000000
      9         33.368058       33.482516   0.000000   0.000000
     10         35.092249       35.402008   0.000000   0.000000
     11         37.592071       37.844416   0.000000   0.000000
     12         39.160487       39.336524   0.000000   0.000000
 
 -0.4375000E+00  0.6250000E-01  0.6250000E-01  0.1171875E-01
      1          5.002038        5.901583   1.000000   1.000000
      2          7.153970        8.754974   1.000000   1.000000
      3          7.289437        8.946596   1.000000   1.000000
      4          8.571004        9.339623   1.000000   1.000000
      5          9.213847       11.086030   1.000000   0.000000
      6         10.414644       11.505647   0.000000   0.000000
      7         16.060754       17.016343   0.000000   0.000000
      8         30.811331       30.616017   0.000000   0.000000
      9         33.272091       33.568563   0.000000   0.000000
     10         33.448244       33.700442   0.000000   0.000000
     11         38.401427       38.642967   0.000000   0.000000
     12         38.451194       38.643144   0.000000   0.000000
 
 -0.3125000E+00  0.6250000E-01  0.6250000E-01  0.1171875E-01
      1          4.657700        5.089645   1.000000   1.000000
      2          7.282753        8.391086   1.000000   1.000000
      3          7.426603        8.947626   1.000000   1.000000
      4          7.504546        9.085488   1.000000   1.000000
      5          9.015363       10.776758   1.000000   0.000000
      6          9.080094       10.880640   1.000000   0.000000
      7         19.818973       20.412272   0.000000   0.000000
      8         31.530113       31.323078   0.000000   0.000000
      9         32.744524       33.063413   0.000000   0.000000
     10         35.106168       35.431954   0.000000   0.000000
     11         38.291257       38.446195   0.000000   0.000000
     12         40.108709       40.296271   0.000000   0.000000
 
 -0.1875000E+00  0.6250000E-01  0.6250000E-01  0.1171875E-01
      1          3.143354        3.179124   1.000000   1.000000
      2          6.936807        8.327322   1.000000   1.000000
      3          7.529691        9.168960   1.000000   1.000000
      4          7.586029        9.218402   1.000000   1.000000
      5          8.341707       10.135342   1.000000   0.000018
      6          8.590615       10.460699   1.000000   0.000000
      7         25.505362       25.859476   0.000000   0.000000
      8         32.570744       32.416247   0.000000   0.000000
      9         33.292689       33.613147   0.000000   0.000000
     10         37.761048       37.933712   0.000000   0.000000
     11         38.109119       38.263391   0.000000   0.000000
     12         42.372257       42.449463   0.000000   0.000000
 
 -0.6250000E-01  0.6250000E-01  0.6250000E-01  0.1171875E-01
      1          1.696808        1.689256   1.000000   1.000000
      2          7.155332        8.684430   1.000000   1.000000
      3          7.475866        9.058649   1.000000   1.000000
      4          7.479886        9.063552   1.000000   1.000000
      5          8.220560       10.090352   1.000000   0.002113
      6          8.414129       10.316317   1.000000   0.000000
      7         31.379033       31.371142   0.000000   0.000000
      8         33.766046       33.751071   0.000000   0.000000
      9         34.685939       34.954826   0.000000   0.000000
     10         36.594539       36.659037   0.000000   0.000000
     11         40.481909       40.645064   0.000000   0.000000
     12         42.357032       42.417546   0.000000   0.000000
 
  0.1875000E+00  0.1875000E+00  0.6250000E-01  0.1171875E-01
      1          2.459121        2.462926   1.000000   1.000000
      2          6.890172        8.369379   1.000000   1.000000
      3          7.663577        9.275694   1.000000   1.000000
      4          7.693289        9.296887   1.000000   1.000000
      5          8.045201        9.841774   1.000000   0.999985
      6          8.533500       10.444955   1.000000   0.000000
      7         29.865569       30.052912   0.000000   0.000000
      8         32.376926       32.343241   0.000000   0.000000
      9         32.410871       32.717060   0.000000   0.000000
     10         34.697513       34.736221   0.000000   0.000000
     11         39.963276       40.595744   0.000000   0.000000
     12         42.831982       42.908692   0.000000   0.000000
 
  0.3125000E+00  0.1875000E+00  0.6250000E-01  0.2343750E-01
      1          3.795099        3.868155   1.000000   1.000000
      2          6.600648        7.996836   1.000000   1.000000
      3          7.454339        9.096437   1.000000   1.000000
      4          7.941248        9.598183   1.000000   1.000000
      5          8.306863       10.013541   1.000000   0.245654
      6          8.902430       10.753498   1.000000   0.000000
      7         26.049368       26.387139   0.000000   0.000000
      8         28.633876       28.872064   0.000000   0.000000
      9         32.386722       32.495781   0.000000   0.000000
     10         34.340660       34.475464   0.000000   0.000000
     11         38.893456       39.398485   0.000000   0.000000
     12         42.630711       42.654137   0.000000   0.000000
 
  0.4375000E+00  0.1875000E+00  0.6250000E-01  0.2343750E-01
      1          5.158572        5.657890   1.000000   1.000000
      2          6.717924        7.898066   1.000000   1.000000
      3          7.160016        8.682893   1.000000   1.000000
      4          7.788763        9.478857   1.000000   1.000000
      5          8.985846       10.786000   1.000000   0.000000
      6         10.072825       11.574612   0.009014   0.000000
      7         20.326730       20.861751   0.000000   0.000000
      8         28.047583       28.257656   0.000000   0.000000
      9         29.973514       30.224018   0.000000   0.000000
     10         33.962142       34.142610   0.000000   0.000000
     11         40.592495       40.699307   0.000000   0.000000
     12         42.992876       43.242717   0.000000   0.000000
 
 -0.4375000E+00  0.1875000E+00  0.6250000E-01  0.2343750E-01
      1          5.463412        6.434839   1.000000   1.000000
      2          6.749799        8.083795   1.000000   1.000000
      3          7.588302        8.773925   1.000000   1.000000
      4          7.648096        9.325561   1.000000   1.000000
      5          9.179007       11.033140   1.000000   0.000000
      6         12.222104       13.098318   0.000000   0.000000
      7         16.258127       17.124252   0.000000   0.000000
      8         27.474901       27.672653   0.000000   0.000000
      9         29.239803       29.553473   0.000000   0.000000
     10         33.785639       33.876444   0.000000   0.000000
     11         39.728104       39.916679   0.000000   0.000000
     12         43.368508       43.448294   0.000000   0.000000
 
 -0.3125000E+00  0.1875000E+00  0.6250000E-01  0.2343750E-01
      1          5.392894        6.102868   1.000000   1.000000
      2          6.892645        8.124534   1.000000   1.000000
      3          7.232636        8.572175   1.000000   1.000000
      4          7.681454        9.376195   1.000000   1.000000
      5          8.872312       10.668847   1.000000   0.000000
      6         10.905809       12.243292   0.000000   0.000000
      7         18.680398       19.317217   0.000000   0.000000
      8         26.646229       26.915802   0.000000   0.000000
      9         30.815427       31.029680   0.000000   0.000000
     10         34.868642       34.968372   0.000000   0.000000
     11         39.109384       39.288202   0.000000   0.000000
     12         42.759181       42.854127   0.000000   0.000000
 
 -0.1875000E+00  0.1875000E+00  0.6250000E-01  0.2343750E-01
      1          4.368695        4.498268   1.000000   1.000000
      2          6.672437        8.023044   1.000000   1.000000
      3          7.287555        8.894851   1.000000   1.000000
      4          7.875375        9.580744   1.000000   1.000000
      5          8.242173        9.973557   1.000000   0.671004
      6          9.387241       11.148315   1.000000   0.000000
      7         24.074117       24.479877   0.000000   0.000000
      8         26.786287       27.072283   0.000000   0.000000
      9         33.341082       33.451985   0.000000   0.000000
     10         36.801320       36.888862   0.000000   0.000000
     11         38.596059       38.700090   0.000000   0.000000
     12         41.521062       41.816208   0.000000   0.000000
 
 -0.6250000E-01  0.1875000E+00  0.6250000E-01  0.2343750E-01
      1          2.818257        2.832153   1.000000   1.000000
      2          6.888300        8.339027   1.000000   1.000000
      3          7.564333        9.184716   1.000000   1.000000
      4          7.695784        9.314457   1.000000   1.000000
      5          8.120440        9.925395   1.000000   0.964455
      6          8.620113       10.495011   1.000000   0.000000
      7         27.733550       28.012363   0.000000   0.000000
      8         30.354854       30.521691   0.000000   0.000000
      9         34.752557       34.791531   0.000000   0.000000
     10         36.522858       36.541800   0.000000   0.000000
     11         39.884010       40.172693   0.000000   0.000000
     12         41.306375       41.519126   0.000000   0.000000
 
  0.3125000E+00  0.3125000E+00  0.6250000E-01  0.1171875E-01
      1          4.466149        4.714435   1.000000   1.000000
      2          6.198750        7.559282   1.000000   1.000000
      3          7.763850        9.222658   1.000000   1.000000
      4          8.351876       10.041410   1.000000   0.069906
      5          8.676249       10.283301   1.000000   0.000000
      6          8.873464       10.800568   1.000000   0.000000
      7         26.635907       26.926095   0.000000   0.000000
      8         28.282718       28.559935   0.000000   0.000000
      9         28.398962       28.616978   0.000000   0.000000
     10         31.170998       31.385829   0.000000   0.000000
     11         35.503399       35.992621   0.000000   0.000000
     12         46.846351       47.962913   0.000000   0.000000
 
  0.4375000E+00  0.3125000E+00  0.6250000E-01  0.2343750E-01
      1          5.200843        5.904532   1.000000   1.000000
      2          5.999949        7.299179   1.000000   1.000000
      3          7.710944        9.008875   1.000000   1.000000
      4          8.584618       10.345192   1.000000   0.000000
      5          9.031590       10.842847   1.000000   0.000000
      6         10.329264       11.675124   0.000000   0.000000
      7         23.271745       23.632027   0.000000   0.000000
      8         25.207501       25.549957   0.000000   0.000000
      9         26.126441       26.450462   0.000000   0.000000
     10         32.387679       32.597735   0.000000   0.000000
     11         36.685888       37.055405   0.000000   0.000000
     12         46.159132       46.503042   0.000000   0.000000
 
 -0.4375000E+00  0.3125000E+00  0.6250000E-01  0.2343750E-01
      1          5.680495        6.815749   1.000000   1.000000
      2          6.128655        7.321831   1.000000   1.000000
      3          7.423417        8.680655   1.000000   1.000000
      4          8.313518       10.102711   1.000000   0.000663
      5          9.241525       11.078730   1.000000   0.000000
      6         13.441016       14.276539   0.000000   0.000000
      7         18.235414       18.779756   0.000000   0.000000
      8         23.025906       23.485817   0.000000   0.000000
      9         26.328735       26.623166   0.000000   0.000000
     10         32.813354       32.998437   0.000000   0.000000
     11         41.577152       41.833933   0.000000   0.000000
     12         44.473943       44.727054   0.000000   0.000000
 
 -0.3125000E+00  0.3125000E+00  0.6250000E-01  0.2343750E-01
      1          6.139379        7.149116   1.000000   1.000000
      2          6.293582        7.589459   1.000000   1.000000
      3          6.987509        8.241487   1.000000   1.000000
      4          8.121915        9.921763   1.000000   0.971781
      5          8.939751       10.705277   1.000000   0.000000
      6         13.743481       14.618539   0.000000   0.000000
      7         18.081378       18.669083   0.000000   0.000000
      8         21.722153       22.207697   0.000000   0.000000
      9         28.027295       28.328470   0.000000   0.000000
     10         33.683131       33.814047   0.000000   0.000000
     11         42.335699       42.379807   0.000000   0.000000
     12         46.390784       47.110593   0.000000   0.000000
 
 -0.1875000E+00  0.3125000E+00  0.6250000E-01  0.2343750E-01
      1          5.671846        6.183444   1.000000   1.000000
      2          6.688273        7.932297   1.000000   1.000000
      3          6.834791        8.346294   1.000000   1.000000
      4          7.952264        9.709546   1.000000   1.000000
      5          8.579547       10.308968   1.000000   0.000000
      6         10.990845       12.397644   0.000000   0.000000
      7         20.857324       21.369978   0.000000   0.000000
      8         23.826172       24.201042   0.000000   0.000000
      9         30.575887       30.809961   0.000000   0.000000
     10         35.410957       35.526362   0.000000   0.000000
     11         39.621892       39.666656   0.000000   0.000000
     12         44.167470       44.303587   0.000000   0.000000
 
 -0.6250000E-01  0.3125000E+00  0.6250000E-01  0.2343750E-01
      1          4.479984        4.715424   1.000000   1.000000
      2          6.941886        8.133764   1.000000   1.000000
      3          7.301664        8.932259   1.000000   1.000000
      4          7.602181        9.274880   1.000000   1.000000
      5          8.634267       10.398851   1.000000   0.000000
      6          9.261287       11.026429   1.000000   0.000000
      7         21.789859       22.280027   0.000000   0.000000
      8         29.522030       29.680912   0.000000   0.000000
      9         33.029188       33.097209   0.000000   0.000000
     10         35.538143       35.806007   0.000000   0.000000
     11         39.224466       39.363160   0.000000   0.000000
     12         40.726996       40.860166   0.000000   0.000000
 
  0.4375000E+00  0.4375000E+00  0.6250000E-01  0.1171875E-01
      1          4.996949        6.004514   1.000000   1.000000
      2          5.647240        6.923329   1.000000   1.000000
      3          8.920779       10.291044   1.000000   0.000000
      4          8.951736       10.834621   1.000000   0.000000
      5          9.263918       11.126531   1.000000   0.000000
      6         10.998569       11.763512   0.000000   0.000000
      7         21.957328       22.532537   0.000000   0.000000
      8         24.334581       24.575529   0.000000   0.000000
      9         25.503475       25.687274   0.000000   0.000000
     10         30.299644       30.626031   0.000000   0.000000
     11         34.126655       34.531618   0.000000   0.000000
     12         47.011869       50.595358   0.000000   0.000000
 
 -0.4375000E+00  0.4375000E+00  0.6250000E-01  0.2343750E-01
      1          5.142980        6.296945   1.000000   1.000000
      2          5.670528        6.921980   1.000000   1.000000
      3          8.521400        9.880340   1.000000   0.998962
      4          8.901442       10.826486   1.000000   0.000000
      5          9.399117       11.213501   1.000000   0.000000
      6         13.497394       13.992464   0.000000   0.000000
      7         19.831004       20.575226   0.000000   0.000000
      8         21.935810       22.246761   0.000000   0.000000
      9         24.365553       24.593142   0.000000   0.000000
     10         31.750600       32.013138   0.000000   0.000000
     11         36.025124       36.388582   0.000000   0.000000
     12         46.985434       49.390257   0.000000   0.000000
 
 -0.3125000E+00  0.4375000E+00  0.6250000E-01  0.2343750E-01
      1          5.635294        6.877264   1.000000   1.000000
      2          6.037606        7.218090   1.000000   1.000000
      3          7.592136        8.848535   1.000000   1.000000
      4          8.483394       10.337567   1.000000   0.000000
      5          9.231824       11.030177   1.000000   0.000000
      6         15.452139       16.046670   0.000000   0.000000
      7         17.607302       18.140719   0.000000   0.000000
      8         20.551803       21.167855   0.000000   0.000000
      9         25.865456       26.152205   0.000000   0.000000
     10         32.649646       32.850955   0.000000   0.000000
     11         41.540298       41.855437   0.000000   0.000000
     12         45.619376       45.710363   0.000000   0.000000
 
 -0.1875000E+00  0.4375000E+00  0.6250000E-01  0.2343750E-01
      1          5.825597        6.865012   1.000000   1.000000
      2          6.460655        7.721354   1.000000   1.000000
      3          7.278296        8.517074   1.000000   1.000000
      4          7.890196        9.632503   1.000000   1.000000
      5          9.084872       10.905647   1.000000   0.000000
      6         13.435867       14.240894   0.000000   0.000000
      7         16.515439       17.299516   0.000000   0.000000
      8         24.458297       24.820290   0.000000   0.000000
      9         28.388491       28.682623   0.000000   0.000000
     10         33.700940       33.808836   0.000000   0.000000
     11         41.065481       41.193307   0.000000   0.000000
     12         45.490967       45.562917   0.000000   0.000000
 
 -0.6250000E-01  0.4375000E+00  0.6250000E-01  0.2343750E-01
      1          5.140436        5.984180   1.000000   1.000000
      2          7.047211        8.501270   1.000000   1.000000
      3          7.423979        8.906615   1.000000   1.000000
      4          7.927076        9.101505   1.000000   1.000000
      5          9.124872       10.972078   1.000000   0.000000
      6         10.699372       11.898990   0.000000   0.000000
      7         16.988919       17.796418   0.000000   0.000000
      8         29.444226       29.493234   0.000000   0.000000
      9         31.470562       31.724876   0.000000   0.000000
     10         34.051789       34.204618   0.000000   0.000000
     11         38.663262       38.889829   0.000000   0.000000
     12         40.819129       40.954935   0.000000   0.000000
 
 -0.4375000E+00 -0.4375000E+00  0.6250000E-01  0.1171875E-01
      1          4.939041        6.066662   1.000000   1.000000
      2          5.522103        6.780101   1.000000   1.000000
      3          9.063324       10.762581   1.000000   0.000000
      4          9.194934       11.028826   1.000000   0.000000
      5          9.411090       11.231245   1.000000   0.000000
      6         12.528012       12.811128   0.000000   0.000000
      7         19.732101       20.519013   0.000000   0.000000
      8         23.758131       23.962865   0.000000   0.000000
      9         24.885539       25.036414   0.000000   0.000000
     10         30.157988       30.510097   0.000000   0.000000
     11         33.951503       34.355509   0.000000   0.000000
     12         47.055983       50.669387   0.000000   0.000000
 
 -0.3125000E+00 -0.4375000E+00  0.6250000E-01  0.2343750E-01
      1          5.214561        6.252713   1.000000   1.000000
      2          5.784542        7.052364   1.000000   1.000000
      3          8.195517        9.478875   1.000000   1.000000
      4          8.829563       10.678835   1.000000   0.000000
      5          9.254589       11.081805   1.000000   0.000000
      6         11.898425       12.774470   0.000000   0.000000
      7         21.976251       22.440456   0.000000   0.000000
      8         22.624987       23.039592   0.000000   0.000000
      9         24.915108       25.168789   0.000000   0.000000
     10         31.952569       32.195986   0.000000   0.000000
     11         36.221281       36.582271   0.000000   0.000000
     12         46.855702       48.173326   0.000000   0.000000
 
 -0.1875000E+00 -0.4375000E+00  0.6250000E-01  0.2343750E-01
      1          5.573434        6.426451   1.000000   1.000000
      2          6.377660        7.588307   1.000000   1.000000
      3          7.224644        8.569326   1.000000   1.000000
      4          8.050562        9.778843   1.000000   1.000000
      5          9.183483       11.033145   1.000000   0.000000
      6         11.512224       12.652463   0.000000   0.000000
      7         19.132671       19.685231   0.000000   0.000000
      8         26.064519       26.359346   0.000000   0.000000
      9         27.350872       27.677279   0.000000   0.000000
     10         33.200882       33.367304   0.000000   0.000000
     11         41.408715       41.553441   0.000000   0.000000
     12         43.517519       43.888777   0.000000   0.000000
 
 -0.3125000E+00 -0.3125000E+00  0.6250000E-01  0.1171875E-01
      1          4.957830        5.633291   1.000000   1.000000
      2          5.882669        7.193827   1.000000   1.000000
      3          8.355113        9.543756   1.000000   1.000000
      4          8.701835       10.471170   1.000000   0.000000
      5          9.064452       10.888797   1.000000   0.000000
      6          9.505570       10.977839   1.000000   0.000000
      7         24.861433       25.207787   0.000000   0.000000
      8         25.544501       25.871957   0.000000   0.000000
      9         26.670435       26.902843   0.000000   0.000000
     10         30.608651       30.885865   0.000000   0.000000
     11         34.575676       34.999193   0.000000   0.000000
     12         46.952234       50.305305   0.000000   0.000000
 
 -0.1875000E+00 -0.3125000E+00  0.6250000E-01  0.2343750E-01
      1          4.738720        5.012652   1.000000   1.000000
      2          6.287124        7.630131   1.000000   1.000000
      3          7.393571        8.911788   1.000000   1.000000
      4          8.251024        9.951163   1.000000   0.859054
      5          8.703535       10.417729   1.000000   0.000000
      6          9.362690       11.084109   1.000000   0.000000
      7         24.549326       24.913049   0.000000   0.000000
      8         27.033347       27.302085   0.000000   0.000000
      9         29.065436       29.327869   0.000000   0.000000
     10         33.126826       33.299595   0.000000   0.000000
     11         37.537777       37.949137   0.000000   0.000000
     12         44.563394       44.665483   0.000000   0.000000
 
 -0.1875000E+00 -0.1875000E+00  0.6250000E-01  0.1171875E-01
      1          3.478312        3.531925   1.000000   1.000000
      2          6.552363        7.971662   1.000000   1.000000
      3          7.666598        9.330044   1.000000   1.000000
      4          7.994824        9.632130   1.000000   1.000000
      5          8.195955        9.846728   1.000000   0.999972
      6          8.692620       10.614370   1.000000   0.000000
      7         28.233590       28.507640   0.000000   0.000000
      8         30.231888       30.536858   0.000000   0.000000
      9         30.981340       31.005464   0.000000   0.000000
     10         32.448640       32.588587   0.000000   0.000000
     11         37.242239       37.843038   0.000000   0.000000
     12         45.324014       45.286634   0.000000   0.000000
 
  0.1875000E+00  0.1875000E+00  0.1875000E+00  0.3906250E-02
      1          2.450640        2.457155   1.000000   1.000000
      2          7.062494        8.514401   1.000000   1.000000
      3          7.529291        9.140463   1.000000   1.000000
      4          7.529291        9.140463   1.000000   1.000000
      5          8.354398       10.217598   1.000000   0.000000
      6          8.354398       10.217598   1.000000   0.000000
      7         27.452280       27.732721   0.000000   0.000000
      8         33.554782       33.308193   0.000000   0.000000
      9         35.608340       35.896969   0.000000   0.000000
     10         35.608340       35.896969   0.000000   0.000000
     11         41.032992       40.918928   0.000000   0.000000
     12         41.478377       41.564787   0.000000   0.000000
 
  0.3125000E+00  0.1875000E+00  0.1875000E+00  0.1171875E-01
      1          3.492667        3.537449   1.000000   1.000000
      2          6.826073        8.228732   1.000000   1.000000
      3          7.477316        9.088714   1.000000   1.000000
      4          7.752847        9.410264   1.000000   1.000000
      5          8.080173        9.877800   1.000000   0.999187
      6          8.926058       10.752680   1.000000   0.000000
      7         25.789510       26.139051   0.000000   0.000000
      8         28.460156       28.692013   0.000000   0.000000
      9         36.016722       35.954779   0.000000   0.000000
     10         37.948571       37.887773   0.000000   0.000000
     11         38.045306       38.213108   0.000000   0.000000
     12         39.905466       40.259454   0.000000   0.000000
 
  0.4375000E+00  0.1875000E+00  0.1875000E+00  0.1171875E-01
      1          5.060424        5.324915   1.000000   1.000000
      2          6.719874        8.011913   1.000000   1.000000
      3          7.122522        8.677371   1.000000   1.000000
      4          7.807106        9.564348   1.000000   1.000000
      5          8.321518       10.039216   1.000000   0.078616
      6         10.042698       11.683899   0.065148   0.000000
      7         22.343169       22.811150   0.000000   0.000000
      8         25.163521       25.497660   0.000000   0.000000
      9         34.072073       34.050264   0.000000   0.000000
     10         34.550026       34.868505   0.000000   0.000000
     11         39.883795       39.807966   0.000000   0.000000
     12         41.547407       41.763516   0.000000   0.000000
 
 -0.4375000E+00  0.1875000E+00  0.1875000E+00  0.1171875E-01
      1          5.604703        6.503638   1.000000   1.000000
      2          6.743189        8.064861   1.000000   1.000000
      3          7.372500        8.560410   1.000000   1.000000
      4          7.696413        9.417985   1.000000   1.000000
      5          8.931807       10.740643   1.000000   0.000000
      6         12.031169       13.096917   0.000000   0.000000
      7         17.372844       18.102319   0.000000   0.000000
      8         25.408178       25.726837   0.000000   0.000000
      9         31.505595       31.821495   0.000000   0.000000
     10         32.452359       32.488719   0.000000   0.000000