       N       E                     dE             d eps       ncg     rms          rms(c)
DAV:   1     0.232229163936E+02    0.23223E+02   -0.35819E+03  2956   0.798E+02
DAV:   2    -0.702382049336E+01   -0.30247E+02   -0.28151E+02  3088   0.136E+02
DAV:   3    -0.782125710725E+01   -0.79744E+00   -0.78990E+00  3420   0.256E+01
DAV:   4    -0.782947846813E+01   -0.82214E-02   -0.82196E-02  3412   0.228E+00
DAV:   5    -0.782966203528E+01   -0.18357E-03   -0.18356E-03  3760   0.322E-01    0.110E+01
DAV:   6    -0.722312917346E+01    0.60653E+00   -0.12429E+01  3708   0.457E+01    0.457E+00
DAV:   7    -0.703082558721E+01    0.19230E+00   -0.15237E+00  3584   0.148E+01    0.244E+00
DAV:   8    -0.702039092430E+01    0.10435E-01   -0.14333E-02  3828   0.986E-01    0.109E+00
DAV:   9    -0.701452854642E+01    0.58624E-02   -0.56789E-03  4540   0.598E-01    0.254E-01
DAV:  10    -0.701390429278E+01    0.62425E-03   -0.39695E-04  4308   0.125E-01    0.323E-02
DAV:  11    -0.701390304462E+01    0.12482E-05   -0.24256E-05  3700   0.480E-02    0.367E-02
DAV:  12    -0.701390308053E+01   -0.35913E-07   -0.16839E-06  3332   0.139E-02
   1 F= -.70139031E+01 E0= -.70131266E+01  d E =-.701390E+01  mag=     1.5955
