 vasp.6.3.2 27Jun22 (build Aug 12 2022 00:53:59) complex                        
  
 executed on               tv2STD date 2024.12.03  02:19:29
 running   28 mpi-ranks, with    1 threads/rank
 distrk:  each k-point on   28 cores,    1 groups
 distr:  one band on NCORE=   7 cores,    4 groups


--------------------------------------------------------------------------------------------------------


 INCAR:
   SYSTEM = Co-fcc
   NWRITE = 2    write-flag
   ISTART = 0    job   : 0-new, 1-cont, 2-samecut
   ICHARG = 2    charge: 0-wave, 1-file, 2-atom, >10-const
   INIWAV = 1    electr: 0-lowe 1-rand  2-diag
   ENCUT = 400.0     energy cutoff in eV
   PREC = Accurate      normal | accurate
   ADDGRID = .FALSE.  (use fine grid)
   NELM = 100     number of ELM steps
   EDIFF = 1E-06    energy stopping-criterion for ELM
   LREAL = .FALSE.      real-space projection (.FALSE., .TRUE., On, Auto)
   ALGO = Normal     Normal, Fast, Very_Fast
   LWAVE = .TRUE.
   LCHARG = .TRUE.
   NSW = 100       max number of geometry steps
   IBRION = 2     ionic relax: 0-MD, 1-quasi-Newton, 2-CG, 3-Damped MD
   EDIFFG = -0.02  force (eV/A) stopping-criterion for geometry steps
   ISIF = 2     (1:force\=y stress\=trace only ions\=y shape\=n volume\=n)
   ISYM = 1     (1-use symmetry, 0-no symmetry)
   ISMEAR = 0     (-1-Fermi, 1-Methfessel/Paxton)
   SIGMA = 0.05   broadening in eV
   LORBIT = 11
   NPAR = 4
   ISPIN = 2
   MAGMOM = 1*3

 POTCAR:    PAW_PBE Co 02Aug2007                  
 POTCAR:    PAW_PBE Co 02Aug2007                  
   SHA256 =  0e690c60710354995174544f52f9f2c30879afabeffe3b3fbd4001cb294e56d4 Co/POTCAR             
   COPYR  = (c) Copyright 02Aug2007 Georg Kresse                                                    
   COPYR  = This file is part of the software VASP. Any use, copying, and all other rights are regul
   COPYR  = If you do not have a valid VASP license, you may not use, copy or distribute this file. 
   VRHFIN =Co: d8 s1                                                                                
   LEXCH  = PE                                                                                      
   EATOM  =   813.3670 eV,   59.7808 Ry                                                             
                                                                                                    
   TITEL  = PAW_PBE Co 02Aug2007                                                                    
   LULTRA =        F    use ultrasoft PP ?                                                          
   IUNSCR =        1    unscreen: 0-lin 1-nonlin 2-no                                               
   RPACOR =    2.000    partial core radius                                                         
   POMASS =   58.933; ZVAL   =    9.000    mass and valenz                                          
   RCORE  =    2.300    outmost cutoff radius                                                       
   RWIGS  =    2.460; RWIGS  =    1.302    wigner-seitz radius (au A)                               
   ENMAX  =  267.968; ENMIN  =  200.976 eV                                                          
   RCLOC  =    1.203    cutoff for local pot                                                        
   LCOR   =        T    correct aug charges                                                         
   LPAW   =        T    paw PP                                                                      
   EAUG   =  477.818                                                                                
   DEXC   =    0.000                                                                                
   RMAX   =    2.360    core radius for proj-oper                                                   
   RAUG   =    1.300    factor for augmentation sphere                                              
   RDEP   =    2.393    radius for radial grids                                                     
   RDEPT  =    1.864    core radius for aug-charge                                                  
                                                                                                    
   Atomic configuration                                                                             
    9 entries                                                                                       
     n  l   j            E        occ.                                                              
     1  0  0.50     -7587.6674   2.0000                                                             
     2  0  0.50      -893.6084   2.0000                                                             
     2  1  1.50      -764.5805   6.0000                                                             
     3  0  0.50       -97.5973   2.0000                                                             
     3  1  1.50       -60.9648   6.0000                                                             
     3  2  2.50        -4.2382   8.0000                                                             
     4  0  0.50        -4.3746   1.0000                                                             
     4  1  1.50        -4.0817   0.0000                                                             
     4  3  2.50        -1.3606   0.0000                                                             
   Description                                                                                      
     l       E           TYP  RCUT    TYP  RCUT                                                     
     2     -4.2382362     23  2.300                                                                 
     2     -5.5988188     23  2.300                                                                 
     0     -4.3745797     23  2.300                                                                 
     0      5.7660125     23  2.300                                                                 
     1     -2.7211652     23  2.300                                                                 
     1     16.9860234     23  2.300                                                                 
  local pseudopotential read in
  partial core-charges read in
  partial kinetic energy density read in
  atomic valenz-charges read in
  non local Contribution for L=           2  read in
    real space projection operators read in
  non local Contribution for L=           2  read in
    real space projection operators read in
  non local Contribution for L=           0  read in
    real space projection operators read in
  non local Contribution for L=           0  read in
    real space projection operators read in
  non local Contribution for L=           1  read in
    real space projection operators read in
  non local Contribution for L=           1  read in
    real space projection operators read in
    PAW grid and wavefunctions read in
 
   number of l-projection  operators is LMAX  =           6
   number of lm-projection operators is LMMAX =          18
 
  PAW_PBE Co 02Aug2007                  :
 energy of atom  1       EATOM= -813.3670
 kinetic energy error for atom=    0.0093 (will be added to EATOM!!)
 
 
 POSCAR: Co
  positions in cartesian coordinates
  No initial velocities read in
 exchange correlation table for  LEXCH =        8
   RHO(1)=    0.500       N(1)  =     2000
   RHO(2)=  100.500       N(2)  =     4000
 


--------------------------------------------------------------------------------------------------------


 ion  position               nearest neighbor table
   1  0.000  0.000  0.000-
 
  LATTYP: Found a face centered cubic cell.
 ALAT       =     3.5436204645
  
  Lattice vectors:
  
 A1 = (   0.0000000000,   1.7718102323,   1.7718102323)
 A2 = (   1.7718102323,   0.0000000000,   1.7718102323)
 A3 = (   1.7718102323,   1.7718102323,   0.0000000000)


Analysis of symmetry for initial positions (statically):
=====================================================================
 Subroutine PRICEL returns:
 Original cell was already a primitive cell.
 

 Routine SETGRP: Setting up the symmetry group for a 
 face centered cubic supercell.


 Subroutine GETGRP returns: Found 48 space group operations
 (whereof 48 operations were pure point group operations)
 out of a pool of 48 trial point group operations.


The static configuration has the point symmetry O_h .


Analysis of symmetry for dynamics (positions and initial velocities):
=====================================================================
 Subroutine PRICEL returns:
 Original cell was already a primitive cell.
 

 Routine SETGRP: Setting up the symmetry group for a 
 face centered cubic supercell.


 Subroutine GETGRP returns: Found 48 space group operations
 (whereof 48 operations were pure point group operations)
 out of a pool of 48 trial point group operations.


The dynamic configuration has the point symmetry O_h .


Analysis of structural, dynamic, and magnetic symmetry:
=====================================================================
 Subroutine PRICEL returns:
 Original cell was already a primitive cell.
 

 Routine SETGRP: Setting up the symmetry group for a 
 face centered cubic supercell.


 Subroutine GETGRP returns: Found 48 space group operations
 (whereof 48 operations were pure point group operations)
 out of a pool of 48 trial point group operations.


The overall configuration has the point symmetry O_h .


 Subroutine INISYM returns: Found 48 space group operations
 (whereof 48 operations are pure point group operations),
 and found     1 'primitive' translations


----------------------------------------------------------------------------------------

                                     Primitive cell                                     

  volume of cell :      11.1245

  direct lattice vectors                    reciprocal lattice vectors
     0.000000000  1.771810232  1.771810232    -0.282197264  0.282197264  0.282197264
     1.771810232  0.000000000  1.771810232     0.282197264 -0.282197264  0.282197264
     1.771810232  1.771810232  0.000000000     0.282197264  0.282197264 -0.282197264

  length of vectors
     2.505718060  2.505718060  2.505718060     0.488779999  0.488779999  0.488779999

  position of ions in fractional coordinates (direct lattice)
     0.000000000  0.000000000  0.000000000

  ion indices of the primitive-cell ions
   primitive index   ion index
                 1           1

----------------------------------------------------------------------------------------

 
 
 KPOINTS: Automatic mesh                          

Automatic generation of k-mesh.
 Grid dimensions read from file:
 generate k-points for:    8    8    8

 Generating k-lattice:

  Cartesian coordinates                     Fractional coordinates (reciprocal lattice)
    -0.035274658  0.035274658  0.035274658     0.125000000  0.000000000  0.000000000
     0.035274658 -0.035274658  0.035274658     0.000000000  0.125000000  0.000000000
     0.035274658  0.035274658 -0.035274658     0.000000000  0.000000000  0.125000000

  Length of vectors
     0.061097500  0.061097500  0.061097500

  Shift w.r.t. Gamma in fractional coordinates (k-lattice)
     0.500000000  0.500000000  0.500000000

 
 Subroutine IBZKPT returns following result:
 ===========================================
 
 Found     60 irreducible k-points:
 
 Following reciprocal coordinates:
            Coordinates               Weight
  0.062500  0.062500  0.062500      8.000000
  0.187500  0.062500  0.062500     24.000000
  0.312500  0.062500  0.062500     24.000000
  0.437500  0.062500  0.062500     24.000000
 -0.437500  0.062500  0.062500     24.000000
 -0.312500  0.062500  0.062500     24.000000
 -0.187500  0.062500  0.062500     24.000000
 -0.062500  0.062500  0.062500     24.000000
  0.187500  0.187500  0.062500     24.000000
  0.312500  0.187500  0.062500     48.000000
  0.437500  0.187500  0.062500     48.000000
 -0.437500  0.187500  0.062500     48.000000
 -0.312500  0.187500  0.062500     48.000000
 -0.187500  0.187500  0.062500     48.000000
 -0.062500  0.187500  0.062500     48.000000
  0.312500  0.312500  0.062500     24.000000
  0.437500  0.312500  0.062500     48.000000
 -0.437500  0.312500  0.062500     48.000000
 -0.312500  0.312500  0.062500     48.000000
 -0.187500  0.312500  0.062500     48.000000
 -0.062500  0.312500  0.062500     48.000000
  0.437500  0.437500  0.062500     24.000000
 -0.437500  0.437500  0.062500     48.000000
 -0.312500  0.437500  0.062500     48.000000
 -0.187500  0.437500  0.062500     48.000000
 -0.062500  0.437500  0.062500     48.000000
 -0.437500 -0.437500  0.062500     24.000000
 -0.312500 -0.437500  0.062500     48.000000
 -0.187500 -0.437500  0.062500     48.000000
 -0.312500 -0.312500  0.062500     24.000000
 -0.187500 -0.312500  0.062500     48.000000
 -0.187500 -0.187500  0.062500     24.000000
  0.187500  0.187500  0.187500      8.000000
  0.312500  0.187500  0.187500     24.000000
  0.437500  0.187500  0.187500     24.000000
 -0.437500  0.187500  0.187500     24.000000
 -0.312500  0.187500  0.187500     24.000000
 -0.187500  0.187500  0.187500     24.000000
  0.312500  0.312500  0.187500     24.000000
  0.437500  0.312500  0.187500     48.000000
 -0.437500  0.312500  0.187500     48.000000
 -0.312500  0.312500  0.187500     48.000000
 -0.187500  0.312500  0.187500     48.000000
  0.437500  0.437500  0.187500     24.000000
 -0.437500  0.437500  0.187500     48.000000
 -0.312500  0.437500  0.187500     48.000000
 -0.187500  0.437500  0.187500     48.000000
 -0.437500 -0.437500  0.187500     24.000000
 -0.312500 -0.437500  0.187500     48.000000
 -0.312500 -0.312500  0.187500     24.000000
  0.312500  0.312500  0.312500      8.000000
  0.437500  0.312500  0.312500     24.000000
 -0.437500  0.312500  0.312500     24.000000
 -0.312500  0.312500  0.312500     24.000000
  0.437500  0.437500  0.312500     24.000000
 -0.437500  0.437500  0.312500     48.000000
 -0.312500  0.437500  0.312500     48.000000
 -0.437500 -0.437500  0.312500     24.000000
  0.437500  0.437500  0.437500      8.000000
 -0.437500  0.437500  0.437500     24.000000
 
 Following cartesian coordinates:
            Coordinates               Weight
  0.017637  0.017637  0.017637      8.000000
 -0.017637  0.052912  0.052912     24.000000
 -0.052912  0.088187  0.088187     24.000000
 -0.088187  0.123461  0.123461     24.000000
  0.158736 -0.123461 -0.123461     24.000000
  0.123461 -0.088187 -0.088187     24.000000
  0.088187 -0.052912 -0.052912     24.000000
  0.052912 -0.017637 -0.017637     24.000000
  0.017637  0.017637  0.088187     24.000000
 -0.017637  0.052912  0.123461     48.000000
 -0.052912  0.088187  0.158736     48.000000
  0.194011 -0.158736 -0.088187     48.000000
  0.158736 -0.123461 -0.052912     48.000000
  0.123461 -0.088187 -0.017637     48.000000
  0.088187 -0.052912  0.017637     48.000000
  0.017637  0.017637  0.158736     24.000000
 -0.017637  0.052912  0.194011     48.000000
  0.229285 -0.194011 -0.052912     48.000000
  0.194011 -0.158736 -0.017637     48.000000
  0.158736 -0.123461  0.017637     48.000000
  0.123461 -0.088187  0.052912     48.000000
  0.017637  0.017637  0.229285     24.000000
  0.264560 -0.229285 -0.017637     48.000000
  0.229285 -0.194011  0.017637     48.000000
  0.194011 -0.158736  0.052912     48.000000
  0.158736 -0.123461  0.088187     48.000000
  0.017637  0.017637 -0.264560     24.000000
 -0.017637  0.052912 -0.229285     48.000000
 -0.052912  0.088187 -0.194011     48.000000
  0.017637  0.017637 -0.194011     24.000000
 -0.017637  0.052912 -0.158736     48.000000
  0.017637  0.017637 -0.123461     24.000000
  0.052912  0.052912  0.052912      8.000000
  0.017637  0.088187  0.088187     24.000000
 -0.017637  0.123461  0.123461     24.000000
  0.229285 -0.123461 -0.123461     24.000000
  0.194011 -0.088187 -0.088187     24.000000
  0.158736 -0.052912 -0.052912     24.000000
  0.052912  0.052912  0.123461     24.000000
  0.017637  0.088187  0.158736     48.000000
  0.264560 -0.158736 -0.088187     48.000000
  0.229285 -0.123461 -0.052912     48.000000
  0.194011 -0.088187 -0.017637     48.000000
  0.052912  0.052912  0.194011     24.000000
  0.299835 -0.194011 -0.052912     48.000000
  0.264560 -0.158736 -0.017637     48.000000
  0.229285 -0.123461  0.017637     48.000000
  0.052912  0.052912 -0.299835     24.000000
  0.017637  0.088187 -0.264560     48.000000
  0.052912  0.052912 -0.229285     24.000000
  0.088187  0.088187  0.088187      8.000000
  0.052912  0.123461  0.123461     24.000000
  0.299835 -0.123461 -0.123461     24.000000
  0.264560 -0.088187 -0.088187     24.000000
  0.088187  0.088187  0.158736     24.000000
  0.335109 -0.158736 -0.088187     48.000000
  0.299835 -0.123461 -0.052912     48.000000
  0.088187  0.088187 -0.335109     24.000000
  0.123461  0.123461  0.123461      8.000000
  0.370384 -0.123461 -0.123461     24.000000
 


--------------------------------------------------------------------------------------------------------




 Dimension of arrays:
   k-points           NKPTS =     60   k-points in BZ     NKDIM =     60   number of bands    NBANDS=     12
   number of dos      NEDOS =    301   number of ions     NIONS =      1
   non local maximal  LDIM  =      6   non local SUM 2l+1 LMDIM =     18
   total plane-waves  NPLWV =   4096
   max r-space proj   IRMAX =      1   max aug-charges    IRDMAX=  14719
   dimension x,y,z NGX =    16 NGY =   16 NGZ =   16
   dimension x,y,z NGXF=    32 NGYF=   32 NGZF=   32
   support grid    NGXF=    32 NGYF=   32 NGZF=   32
   ions per type =               1
   NGX,Y,Z   is equivalent  to a cutoff of  10.62, 10.62, 10.62 a.u.
   NGXF,Y,Z  is equivalent  to a cutoff of  21.23, 21.23, 21.23 a.u.

 SYSTEM =  Co-fcc                                  
 POSCAR =  Co                                      

 Startparameter for this run:
   NWRITE =      2    write-flag & timer
   PREC   = accura    normal or accurate (medium, high low for compatibility)
   ISTART =      0    job   : 0-new  1-cont  2-samecut
   ICHARG =      2    charge: 1-file 2-atom 10-const
   ISPIN  =      2    spin polarized calculation?
   LNONCOLLINEAR =      F non collinear calculations
   LSORBIT =      F    spin-orbit coupling
   INIWAV =      1    electr: 0-lowe 1-rand  2-diag
   LASPH  =      F    aspherical Exc in radial PAW
 Electronic Relaxation 1
   ENCUT  =  400.0 eV  29.40 Ry    5.42 a.u.   4.09  4.09  4.09*2*pi/ulx,y,z
   ENINI  =  400.0     initial cutoff
   ENAUG  =  477.8 eV  augmentation charge cutoff
   NELM   =    100;   NELMIN=  2; NELMDL= -5     # of ELM steps 
   EDIFF  = 0.1E-05   stopping-criterion for ELM
   LREAL  =      F    real-space projection
   NLSPLINE    = F    spline interpolate recip. space projectors
   LCOMPAT=      F    compatible to vasp.4.4
   GGA_COMPAT  = T    GGA compatible to vasp.4.4-vasp.4.6
   LMAXPAW     = -100 max onsite density
   LMAXMIX     =    2 max onsite mixed and CHGCAR
   VOSKOWN=      0    Vosko Wilk Nusair interpolation
   ROPT   =    0.00000
 Ionic relaxation
   EDIFFG = -.2E-01   stopping-criterion for IOM
   NSW    =    100    number of steps for IOM
   NBLOCK =      1;   KBLOCK =    100    inner block; outer block 
   IBRION =      2    ionic relax: 0-MD 1-quasi-New 2-CG
   NFREE  =      1    steps in history (QN), initial steepest desc. (CG)
   ISIF   =      2    stress and relaxation
   IWAVPR =     11    prediction:  0-non 1-charg 2-wave 3-comb
   ISYM   =      1    0-nonsym 1-usesym 2-fastsym
   LCORR  =      T    Harris-Foulkes like correction to forces

   POTIM  = 0.5000    time-step for ionic-motion
   TEIN   =    0.0    initial temperature
   TEBEG  =    0.0;   TEEND  =   0.0 temperature during run
   SMASS  =  -3.00    Nose mass-parameter (am)
   estimated Nose-frequenzy (Omega)   =  0.10E-29 period in steps = 0.13E+47 mass=  -0.143E-27a.u.
   SCALEE = 1.0000    scale energy and forces
   NPACO  =    256;   APACO  = 10.0  distance and # of slots for P.C.
   PSTRESS=    0.0 pullay stress

  Mass of Ions in am
   POMASS =  58.93
  Ionic Valenz
   ZVAL   =   9.00
  Atomic Wigner-Seitz radii
   RWIGS  =  -1.00
  virtual crystal weights 
   VCA    =   1.00
   NELECT =       9.0000    total number of electrons
   NUPDOWN=      -1.0000    fix difference up-down

 DOS related values:
   EMIN   =  10.00;   EMAX   =-10.00  energy-range for DOS
   EFERMI =   0.00
   ISMEAR =     0;   SIGMA  =   0.05  broadening in eV -4-tet -1-fermi 0-gaus

 Electronic relaxation 2 (details)
   IALGO  =     38    algorithm
   LDIAG  =      T    sub-space diagonalisation (order eigenvalues)
   LSUBROT=      F    optimize rotation matrix (better conditioning)
   TURBO    =      0    0=normal 1=particle mesh
   IRESTART =      0    0=no restart 2=restart with 2 vectors
   NREBOOT  =      0    no. of reboots
   NMIN     =      0    reboot dimension
   EREF     =   0.00    reference energy to select bands
   IMIX   =      4    mixing-type and parameters
     AMIX     =   0.40;   BMIX     =  1.00
     AMIX_MAG =   1.60;   BMIX_MAG =  1.00
     AMIN     =   0.10
     WC   =   100.;   INIMIX=   1;  MIXPRE=   1;  MAXMIX= -45

 Intra band minimization:
   WEIMIN = 0.0010     energy-eigenvalue tresh-hold
   EBREAK =  0.21E-07  absolut break condition
   DEPER  =   0.30     relativ break condition  

   TIME   =   0.40     timestep for ELM

  volume/ion in A,a.u.               =      11.12        75.07
  Fermi-wavevector in a.u.,A,eV,Ry     =   1.525440  2.882664 31.660311  2.326967
  Thomas-Fermi vector in A             =   2.633610
 
 Write flags
   LWAVE        =      T    write WAVECAR
   LDOWNSAMPLE  =      F    k-point downsampling of WAVECAR
   LCHARG       =      T    write CHGCAR
   LVTOT        =      F    write LOCPOT, total local potential
   LVHAR        =      F    write LOCPOT, Hartree potential only
   LELF         =      F    write electronic localiz. function (ELF)
   LORBIT       =     11    0 simple, 1 ext, 2 COOP (PROOUT), +10 PAW based schemes


 Dipole corrections
   LMONO  =      F    monopole corrections only (constant potential shift)
   LDIPOL =      F    correct potential (dipole corrections)
   IDIPOL =      0    1-x, 2-y, 3-z, 4-all directions 
   EPSILON=  1.0000000 bulk dielectric constant

 Exchange correlation treatment:
   GGA     =    --    GGA type
   LEXCH   =     8    internal setting for exchange type
   LIBXC   =     F    Libxc                    
   VOSKOWN =     0    Vosko Wilk Nusair interpolation
   LHFCALC =     F    Hartree Fock is set to
   LHFONE  =     F    Hartree Fock one center treatment
   AEXX    =    0.0000 exact exchange contribution

 Linear response parameters
   LEPSILON=     F    determine dielectric tensor
   LRPA    =     F    only Hartree local field effects (RPA)
   LNABLA  =     F    use nabla operator in PAW spheres
   LVEL    =     F    velocity operator in full k-point grid
   CSHIFT  =0.1000    complex shift for real part using Kramers Kronig
   OMEGAMAX=  -1.0    maximum frequency
   DEG_THRESHOLD= 0.2000000E-02 threshold for treating states as degnerate
   RTIME   =   -0.100 relaxation time in fs
  (WPLASMAI=    0.000 imaginary part of plasma frequency in eV, 0.658/RTIME)
   DFIELD  = 0.0000000 0.0000000 0.0000000 field for delta impulse in time
 
  Optional k-point grid parameters
   LKPOINTS_OPT  =     F    use optional k-point grid
   KPOINTS_OPT_MODE=     1    mode for optional k-point grid
 
 Orbital magnetization related:
   ORBITALMAG=     F  switch on orbital magnetization
   LCHIMAG   =     F  perturbation theory with respect to B field
   DQ        =  0.001000  dq finite difference perturbation B field
   LLRAUG    =     F  two centre corrections for induced B field



--------------------------------------------------------------------------------------------------------


 conjugate gradient relaxation of ions
 charge density and potential will be updated during run
 spin polarized calculation
 Variant of blocked Davidson
 Davidson routine will perform the subspace rotation
 perform sub-space diagonalisation
    after iterative eigenvector-optimisation
 modified Broyden-mixing scheme, WC =      100.0
 initial mixing is a Kerker type mixing with AMIX =  0.4000 and BMIX =      1.0000
 Hartree-type preconditioning will be used
 using additional bands            7
 reciprocal scheme for non local part
 use partial core corrections
 calculate Harris-corrections to forces 
   (improved forces if not selfconsistent)
 use gradient corrections 
 use of overlap-Matrix (Vanderbilt PP)
 Gauss-broadening in eV      SIGMA  =   0.05


--------------------------------------------------------------------------------------------------------


  energy-cutoff  :      400.00
  volume of cell :       11.12
      direct lattice vectors                 reciprocal lattice vectors
     0.000000000  1.771810232  1.771810232    -0.282197264  0.282197264  0.282197264
     1.771810232  0.000000000  1.771810232     0.282197264 -0.282197264  0.282197264
     1.771810232  1.771810232  0.000000000     0.282197264  0.282197264 -0.282197264

  length of vectors
     2.505718060  2.505718060  2.505718060     0.488779999  0.488779999  0.488779999


 
 k-points in units of 2pi/SCALE and weight: Automatic mesh                          
   0.01763733  0.01763733  0.01763733       0.004
  -0.01763733  0.05291199  0.05291199       0.012
  -0.05291199  0.08818665  0.08818665       0.012
  -0.08818665  0.12346130  0.12346130       0.012
   0.15873596 -0.12346130 -0.12346130       0.012
   0.12346130 -0.08818665 -0.08818665       0.012
   0.08818665 -0.05291199 -0.05291199       0.012
   0.05291199 -0.01763733 -0.01763733       0.012
   0.01763733  0.01763733  0.08818665       0.012
  -0.01763733  0.05291199  0.12346130       0.023
  -0.05291199  0.08818665  0.15873596       0.023
   0.19401062 -0.15873596 -0.08818665       0.023
   0.15873596 -0.12346130 -0.05291199       0.023
   0.12346130 -0.08818665 -0.01763733       0.023
   0.08818665 -0.05291199  0.01763733       0.023
   0.01763733  0.01763733  0.15873596       0.012
  -0.01763733  0.05291199  0.19401062       0.023
   0.22928528 -0.19401062 -0.05291199       0.023
   0.19401062 -0.15873596 -0.01763733       0.023
   0.15873596 -0.12346130  0.01763733       0.023
   0.12346130 -0.08818665  0.05291199       0.023
   0.01763733  0.01763733  0.22928528       0.012
   0.26455994 -0.22928528 -0.01763733       0.023
   0.22928528 -0.19401062  0.01763733       0.023
   0.19401062 -0.15873596  0.05291199       0.023
   0.15873596 -0.12346130  0.08818665       0.023
   0.01763733  0.01763733 -0.26455994       0.012
  -0.01763733  0.05291199 -0.22928528       0.023
  -0.05291199  0.08818665 -0.19401062       0.023
   0.01763733  0.01763733 -0.19401062       0.012
  -0.01763733  0.05291199 -0.15873596       0.023
   0.01763733  0.01763733 -0.12346130       0.012
   0.05291199  0.05291199  0.05291199       0.004
   0.01763733  0.08818665  0.08818665       0.012
  -0.01763733  0.12346130  0.12346130       0.012
   0.22928528 -0.12346130 -0.12346130       0.012
   0.19401062 -0.08818665 -0.08818665       0.012
   0.15873596 -0.05291199 -0.05291199       0.012
   0.05291199  0.05291199  0.12346130       0.012
   0.01763733  0.08818665  0.15873596       0.023
   0.26455994 -0.15873596 -0.08818665       0.023
   0.22928528 -0.12346130 -0.05291199       0.023
   0.19401062 -0.08818665 -0.01763733       0.023
   0.05291199  0.05291199  0.19401062       0.012
   0.29983459 -0.19401062 -0.05291199       0.023
   0.26455994 -0.15873596 -0.01763733       0.023
   0.22928528 -0.12346130  0.01763733       0.023
   0.05291199  0.05291199 -0.29983459       0.012
   0.01763733  0.08818665 -0.26455994       0.023
   0.05291199  0.05291199 -0.22928528       0.012
   0.08818665  0.08818665  0.08818665       0.004
   0.05291199  0.12346130  0.12346130       0.012
   0.29983459 -0.12346130 -0.12346130       0.012
   0.26455994 -0.08818665 -0.08818665       0.012
   0.08818665  0.08818665  0.15873596       0.012
   0.33510925 -0.15873596 -0.08818665       0.023
   0.29983459 -0.12346130 -0.05291199       0.023
   0.08818665  0.08818665 -0.33510925       0.012
   0.12346130  0.12346130  0.12346130       0.004
   0.37038391 -0.12346130 -0.12346130       0.012
 
 k-points in reciprocal lattice and weights: Automatic mesh                          
   0.06250000  0.06250000  0.06250000       0.004
   0.18750000  0.06250000  0.06250000       0.012
   0.31250000  0.06250000  0.06250000       0.012
   0.43750000  0.06250000  0.06250000       0.012
  -0.43750000  0.06250000  0.06250000       0.012
  -0.31250000  0.06250000  0.06250000       0.012
  -0.18750000  0.06250000  0.06250000       0.012
  -0.06250000  0.06250000  0.06250000       0.012
   0.18750000  0.18750000  0.06250000       0.012
   0.31250000  0.18750000  0.06250000       0.023
   0.43750000  0.18750000  0.06250000       0.023
  -0.43750000  0.18750000  0.06250000       0.023
  -0.31250000  0.18750000  0.06250000       0.023
  -0.18750000  0.18750000  0.06250000       0.023
  -0.06250000  0.18750000  0.06250000       0.023
   0.31250000  0.31250000  0.06250000       0.012
   0.43750000  0.31250000  0.06250000       0.023
  -0.43750000  0.31250000  0.06250000       0.023
  -0.31250000  0.31250000  0.06250000       0.023
  -0.18750000  0.31250000  0.06250000       0.023
  -0.06250000  0.31250000  0.06250000       0.023
   0.43750000  0.43750000  0.06250000       0.012
  -0.43750000  0.43750000  0.06250000       0.023
  -0.31250000  0.43750000  0.06250000       0.023
  -0.18750000  0.43750000  0.06250000       0.023
  -0.06250000  0.43750000  0.06250000       0.023
  -0.43750000 -0.43750000  0.06250000       0.012
  -0.31250000 -0.43750000  0.06250000       0.023
  -0.18750000 -0.43750000  0.06250000       0.023
  -0.31250000 -0.31250000  0.06250000       0.012
  -0.18750000 -0.31250000  0.06250000       0.023
  -0.18750000 -0.18750000  0.06250000       0.012
   0.18750000  0.18750000  0.18750000       0.004
   0.31250000  0.18750000  0.18750000       0.012
   0.43750000  0.18750000  0.18750000       0.012
  -0.43750000  0.18750000  0.18750000       0.012
  -0.31250000  0.18750000  0.18750000       0.012
  -0.18750000  0.18750000  0.18750000       0.012
   0.31250000  0.31250000  0.18750000       0.012
   0.43750000  0.31250000  0.18750000       0.023
  -0.43750000  0.31250000  0.18750000       0.023
  -0.31250000  0.31250000  0.18750000       0.023
  -0.18750000  0.31250000  0.18750000       0.023
   0.43750000  0.43750000  0.18750000       0.012
  -0.43750000  0.43750000  0.18750000       0.023
  -0.31250000  0.43750000  0.18750000       0.023
  -0.18750000  0.43750000  0.18750000       0.023
  -0.43750000 -0.43750000  0.18750000       0.012
  -0.31250000 -0.43750000  0.18750000       0.023
  -0.31250000 -0.31250000  0.18750000       0.012
   0.31250000  0.31250000  0.31250000       0.004
   0.43750000  0.31250000  0.31250000       0.012
  -0.43750000  0.31250000  0.31250000       0.012
  -0.31250000  0.31250000  0.31250000       0.012
   0.43750000  0.43750000  0.31250000       0.012
  -0.43750000  0.43750000  0.31250000       0.023
  -0.31250000  0.43750000  0.31250000       0.023
  -0.43750000 -0.43750000  0.31250000       0.012
   0.43750000  0.43750000  0.43750000       0.004
  -0.43750000  0.43750000  0.43750000       0.012
 
 position of ions in fractional coordinates (direct lattice) 
   0.00000000  0.00000000  0.00000000
 
 position of ions in cartesian coordinates  (Angst):
   0.00000000  0.00000000  0.00000000
 


--------------------------------------------------------------------------------------------------------


 k-point   1 :   0.0625 0.0625 0.0625  plane waves:     181
 k-point   2 :   0.1875 0.0625 0.0625  plane waves:     194
 k-point   3 :   0.3125 0.0625 0.0625  plane waves:     198
 k-point   4 :   0.4375 0.0625 0.0625  plane waves:     200
 k-point   5 :  -0.4375 0.0625 0.0625  plane waves:     204
 k-point   6 :  -0.3125 0.0625 0.0625  plane waves:     202
 k-point   7 :  -0.1875 0.0625 0.0625  plane waves:     198
 k-point   8 :  -0.0625 0.0625 0.0625  plane waves:     185
 k-point   9 :   0.1875 0.1875 0.0625  plane waves:     194
 k-point  10 :   0.3125 0.1875 0.0625  plane waves:     199
 k-point  11 :   0.4375 0.1875 0.0625  plane waves:     202
 k-point  12 :  -0.4375 0.1875 0.0625  plane waves:     202
 k-point  13 :  -0.3125 0.1875 0.0625  plane waves:     201
 k-point  14 :  -0.1875 0.1875 0.0625  plane waves:     202
 k-point  15 :  -0.0625 0.1875 0.0625  plane waves:     198
 k-point  16 :   0.3125 0.3125 0.0625  plane waves:     207
 k-point  17 :   0.4375 0.3125 0.0625  plane waves:     205
 k-point  18 :  -0.4375 0.3125 0.0625  plane waves:     203
 k-point  19 :  -0.3125 0.3125 0.0625  plane waves:     201
 k-point  20 :  -0.1875 0.3125 0.0625  plane waves:     203
 k-point  21 :  -0.0625 0.3125 0.0625  plane waves:     202
 k-point  22 :   0.4375 0.4375 0.0625  plane waves:     204
 k-point  23 :  -0.4375 0.4375 0.0625  plane waves:     205
 k-point  24 :  -0.3125 0.4375 0.0625  plane waves:     205
 k-point  25 :  -0.1875 0.4375 0.0625  plane waves:     204
 k-point  26 :  -0.0625 0.4375 0.0625  plane waves:     202
 k-point  27 :  -0.4375-0.4375 0.0625  plane waves:     204
 k-point  28 :  -0.3125-0.4375 0.0625  plane waves:     204
 k-point  29 :  -0.1875-0.4375 0.0625  plane waves:     201
 k-point  30 :  -0.3125-0.3125 0.0625  plane waves:     204
 k-point  31 :  -0.1875-0.3125 0.0625  plane waves:     204
 k-point  32 :  -0.1875-0.1875 0.0625  plane waves:     202
 k-point  33 :   0.1875 0.1875 0.1875  plane waves:     193
 k-point  34 :   0.3125 0.1875 0.1875  plane waves:     202
 k-point  35 :   0.4375 0.1875 0.1875  plane waves:     204
 k-point  36 :  -0.4375 0.1875 0.1875  plane waves:     205
 k-point  37 :  -0.3125 0.1875 0.1875  plane waves:     203
 k-point  38 :  -0.1875 0.1875 0.1875  plane waves:     199
 k-point  39 :   0.3125 0.3125 0.1875  plane waves:     198
 k-point  40 :   0.4375 0.3125 0.1875  plane waves:     202
 k-point  41 :  -0.4375 0.3125 0.1875  plane waves:     201
 k-point  42 :  -0.3125 0.3125 0.1875  plane waves:     201
 k-point  43 :  -0.1875 0.3125 0.1875  plane waves:     202
 k-point  44 :   0.4375 0.4375 0.1875  plane waves:     201
 k-point  45 :  -0.4375 0.4375 0.1875  plane waves:     204
 k-point  46 :  -0.3125 0.4375 0.1875  plane waves:     205
 k-point  47 :  -0.1875 0.4375 0.1875  plane waves:     203
 k-point  48 :  -0.4375-0.4375 0.1875  plane waves:     206
 k-point  49 :  -0.3125-0.4375 0.1875  plane waves:     206
 k-point  50 :  -0.3125-0.3125 0.1875  plane waves:     206
 k-point  51 :   0.3125 0.3125 0.3125  plane waves:     199
 k-point  52 :   0.4375 0.3125 0.3125  plane waves:     203
 k-point  53 :  -0.4375 0.3125 0.3125  plane waves:     200
 k-point  54 :  -0.3125 0.3125 0.3125  plane waves:     206
 k-point  55 :   0.4375 0.4375 0.3125  plane waves:     204
 k-point  56 :  -0.4375 0.4375 0.3125  plane waves:     202
 k-point  57 :  -0.3125 0.4375 0.3125  plane waves:     204
 k-point  58 :  -0.4375-0.4375 0.3125  plane waves:     204
 k-point  59 :   0.4375 0.4375 0.4375  plane waves:     201
 k-point  60 :  -0.4375 0.4375 0.4375  plane waves:     206

 maximum and minimum number of plane-waves per node :        37       23

 maximum number of plane-waves:       207
 maximum index in each direction: 
   IXMAX=    4   IYMAX=    4   IZMAX=    4
   IXMIN=   -4   IYMIN=   -4   IZMIN=   -4


 parallel 3D FFT for wavefunctions:
    minimum data exchange during FFTs selected (reduces bandwidth)
 parallel 3D FFT for charge:
    minimum data exchange during FFTs selected (reduces bandwidth)


 total amount of memory used by VASP MPI-rank0    30913. kBytes
=======================================================================

   base      :      30000. kBytes
   nonl-proj :        276. kBytes
   fftplans  :         90. kBytes
   grid      :        217. kBytes
   one-center:         31. kBytes
   wavefun   :        299. kBytes
 
     INWAV:  cpu time      0.0000: real time      0.0003
 Broyden mixing: mesh for mixing (old mesh)
   NGX =  9   NGY =  9   NGZ =  9
  (NGX  = 32   NGY  = 32   NGZ  = 32)
  gives a total of    729 points

 initial charge density was supplied:
 charge density of overlapping atoms calculated
 number of electron       9.0000000 magnetization       3.0000000
 keeping initial charge density in first step


--------------------------------------------------------------------------------------------------------


 Maximum index for augmentation-charges         1258 (set IRDMAX)


--------------------------------------------------------------------------------------------------------


 First call to EWALD:  gamma=   0.794
 Maximum number of real-space cells 3x 3x 3
 Maximum number of reciprocal cells 3x 3x 3

    FEWALD:  cpu time      0.0012: real time      0.0012


--------------------------------------- Iteration      1(   1)  ---------------------------------------


    POTLOK:  cpu time      0.0045: real time      0.0046
    SETDIJ:  cpu time      0.0048: real time      0.0048
     EDDAV:  cpu time      0.2632: real time      0.2651
       DOS:  cpu time      0.0013: real time      0.0013
    --------------------------------------------
      LOOP:  cpu time      0.2738: real time      0.2758

 eigenvalue-minimisations  :  2956
 total energy-change (2. order) : 0.2322292E+02  (-0.3581880E+03)
 number of electron       9.0000000 magnetization       3.0000000
 augmentation part        9.0000000 magnetization       3.0000000

 Free energy of the ion-electron system (eV)
  ---------------------------------------------------
  alpha Z        PSCENC =        38.07594273
  Ewald energy   TEWEN  =      -754.55373047
  -Hartree energ DENC   =      -152.63938323
  -exchange      EXHF   =         0.00000000
  -V(xc)+E(xc)   XCENC  =        17.73414797
  PAW double counting   =       719.99081943     -772.94345096
  entropy T*S    EENTRO =        -0.00130569
  eigenvalues    EBANDS =       114.20214253
  atomic energy  EATOM  =       813.35773410
  Solvation  Ediel_sol  =         0.00000000
  ---------------------------------------------------
  free energy    TOTEN  =        23.22291639 eV

  energy without entropy =       23.22422209  energy(sigma->0) =       23.22356924


--------------------------------------------------------------------------------------------------------




--------------------------------------- Iteration      1(   2)  ---------------------------------------


     EDDAV:  cpu time      0.2549: real time      0.2568
       DOS:  cpu time      0.0008: real time      0.0008
    --------------------------------------------
      LOOP:  cpu time      0.2557: real time      0.2577

 eigenvalue-minimisations  :  3088
 total energy-change (2. order) :-0.3024674E+02  (-0.2815102E+02)
 number of electron       9.0000000 magnetization       3.0000000
 augmentation part        9.0000000 magnetization       3.0000000

 Free energy of the ion-electron system (eV)
  ---------------------------------------------------
  alpha Z        PSCENC =        38.07594273
  Ewald energy   TEWEN  =      -754.55373047
  -Hartree energ DENC   =      -152.63938323
  -exchange      EXHF   =         0.00000000
  -V(xc)+E(xc)   XCENC  =        17.73414797
  PAW double counting   =       719.99081943     -772.94345096
  entropy T*S    EENTRO =        -0.00145762
  eigenvalues    EBANDS =        83.95555757
  atomic energy  EATOM  =       813.35773410
  Solvation  Ediel_sol  =         0.00000000
  ---------------------------------------------------
  free energy    TOTEN  =        -7.02382049 eV

  energy without entropy =       -7.02236287  energy(sigma->0) =       -7.02309168


--------------------------------------------------------------------------------------------------------




--------------------------------------- Iteration      1(   3)  ---------------------------------------


     EDDAV:  cpu time      0.2699: real time      0.2714
       DOS:  cpu time      0.0008: real time      0.0008
    --------------------------------------------
      LOOP:  cpu time      0.2707: real time      0.2722

 eigenvalue-minimisations  :  3420
 total energy-change (2. order) :-0.7974366E+00  (-0.7899005E+00)
 number of electron       9.0000000 magnetization       3.0000000
 augmentation part        9.0000000 magnetization       3.0000000

 Free energy of the ion-electron system (eV)
  ---------------------------------------------------
  alpha Z        PSCENC =        38.07594273
  Ewald energy   TEWEN  =      -754.55373047
  -Hartree energ DENC   =      -152.63938323
  -exchange      EXHF   =         0.00000000
  -V(xc)+E(xc)   XCENC  =        17.73414797
  PAW double counting   =       719.99081943     -772.94345096
  entropy T*S    EENTRO =        -0.00131879
  eigenvalues    EBANDS =        83.15798213
  atomic energy  EATOM  =       813.35773410
  Solvation  Ediel_sol  =         0.00000000
  ---------------------------------------------------
  free energy    TOTEN  =        -7.82125711 eV

  energy without entropy =       -7.81993831  energy(sigma->0) =       -7.82059771


--------------------------------------------------------------------------------------------------------




--------------------------------------- Iteration      1(   4)  ---------------------------------------


     EDDAV:  cpu time      0.2680: real time      0.2697
       DOS:  cpu time      0.0008: real time      0.0008
    --------------------------------------------
      LOOP:  cpu time      0.2688: real time      0.2705

 eigenvalue-minimisations  :  3412
 total energy-change (2. order) :-0.8221361E-02  (-0.8219554E-02)
 number of electron       9.0000000 magnetization       3.0000000
 augmentation part        9.0000000 magnetization       3.0000000

 Free energy of the ion-electron system (eV)
  ---------------------------------------------------
  alpha Z        PSCENC =        38.07594273
  Ewald energy   TEWEN  =      -754.55373047
  -Hartree energ DENC   =      -152.63938323
  -exchange      EXHF   =         0.00000000
  -V(xc)+E(xc)   XCENC  =        17.73414797
  PAW double counting   =       719.99081943     -772.94345096
  entropy T*S    EENTRO =        -0.00130788
  eigenvalues    EBANDS =        83.14974985
  atomic energy  EATOM  =       813.35773410
  Solvation  Ediel_sol  =         0.00000000
  ---------------------------------------------------
  free energy    TOTEN  =        -7.82947847 eV

  energy without entropy =       -7.82817059  energy(sigma->0) =       -7.82882453


--------------------------------------------------------------------------------------------------------




--------------------------------------- Iteration      1(   5)  ---------------------------------------


     EDDAV:  cpu time      0.2943: real time      0.2959
       DOS:  cpu time      0.0014: real time      0.0014
    CHARGE:  cpu time      0.0104: real time      0.0104
    MIXING:  cpu time      0.0002: real time      0.0002
    --------------------------------------------
      LOOP:  cpu time      0.3062: real time      0.3079

 eigenvalue-minimisations  :  3760
 total energy-change (2. order) :-0.1835671E-03  (-0.1835635E-03)
 number of electron       9.0000007 magnetization       1.4416296
 augmentation part        4.5820049 magnetization       1.0387596

 Broyden mixing:
  rms(total) = 0.11047E+01    rms(broyden)= 0.11047E+01
  rms(prec ) = 0.32177E+01
  weight for this iteration     100.00

 Free energy of the ion-electron system (eV)
  ---------------------------------------------------
  alpha Z        PSCENC =        38.07594273
  Ewald energy   TEWEN  =      -754.55373047
  -Hartree energ DENC   =      -152.63938323
  -exchange      EXHF   =         0.00000000
  -V(xc)+E(xc)   XCENC  =        17.73414797
  PAW double counting   =       719.99081943     -772.94345096
  entropy T*S    EENTRO =        -0.00130751
  eigenvalues    EBANDS =        83.14956591
  atomic energy  EATOM  =       813.35773410
  Solvation  Ediel_sol  =         0.00000000
  ---------------------------------------------------
  free energy    TOTEN  =        -7.82966204 eV

  energy without entropy =       -7.82835453  energy(sigma->0) =       -7.82900828


--------------------------------------------------------------------------------------------------------




--------------------------------------- Iteration      1(   6)  ---------------------------------------


    POTLOK:  cpu time      0.0036: real time      0.0038
    SETDIJ:  cpu time      0.0043: real time      0.0044
     EDDAV:  cpu time      0.2918: real time      0.2933
       DOS:  cpu time      0.0008: real time      0.0008
    CHARGE:  cpu time      0.0097: real time      0.0098
    MIXING:  cpu time      0.0003: real time      0.0003
    --------------------------------------------
      LOOP:  cpu time      0.3106: real time      0.3123

 eigenvalue-minimisations  :  3708
 total energy-change (2. order) : 0.6065329E+00  (-0.1242868E+01)
 number of electron       9.0000009 magnetization       1.5889149
 augmentation part        5.3535295 magnetization       1.4547829

 Broyden mixing:
  rms(total) = 0.45689E+00    rms(broyden)= 0.45687E+00
  rms(prec ) = 0.98296E+00
  weight for this iteration     100.00

 eigenvalues of (default mixing * dielectric matrix)
  average eigenvalue GAMMA=   0.8547
  0.8547

 Free energy of the ion-electron system (eV)
  ---------------------------------------------------
  alpha Z        PSCENC =        38.07594273
  Ewald energy   TEWEN  =      -754.55373047
  -Hartree energ DENC   =      -133.87693421
  -exchange      EXHF   =         0.00000000
  -V(xc)+E(xc)   XCENC  =        16.20935070
  PAW double counting   =       786.14824551     -833.90677532
  entropy T*S    EENTRO =        -0.00185190
  eigenvalues    EBANDS =        61.32488969
  atomic energy  EATOM  =       813.35773410
  Solvation  Ediel_sol  =         0.00000000
  ---------------------------------------------------
  free energy    TOTEN  =        -7.22312917 eV

  energy without entropy =       -7.22127727  energy(sigma->0) =       -7.22220322


--------------------------------------------------------------------------------------------------------




--------------------------------------- Iteration      1(   7)  ---------------------------------------


    POTLOK:  cpu time      0.0029: real time      0.0030
    SETDIJ:  cpu time      0.0040: real time      0.0041
     EDDAV:  cpu time      0.2808: real time      0.2824
       DOS:  cpu time      0.0008: real time      0.0008
    CHARGE:  cpu time      0.0094: real time      0.0094
    MIXING:  cpu time      0.0002: real time      0.0002
    --------------------------------------------
      LOOP:  cpu time      0.2981: real time      0.2999

 eigenvalue-minimisations  :  3584
 total energy-change (2. order) : 0.1923036E+00  (-0.1523696E+00)
 number of electron       9.0000008 magnetization       1.6114749
 augmentation part        5.0975738 magnetization       1.4541258

 Broyden mixing:
  rms(total) = 0.24353E+00    rms(broyden)= 0.24353E+00
  rms(prec ) = 0.39379E+00
  weight for this iteration     100.00

 eigenvalues of (default mixing * dielectric matrix)
  average eigenvalue GAMMA=   0.7349
  0.9795  0.4903

 Free energy of the ion-electron system (eV)
  ---------------------------------------------------
  alpha Z        PSCENC =        38.07594273
  Ewald energy   TEWEN  =      -754.55373047
  -Hartree energ DENC   =      -137.98024216
  -exchange      EXHF   =         0.00000000
  -V(xc)+E(xc)   XCENC  =        16.46978542
  PAW double counting   =       818.25473016     -869.39507653
  entropy T*S    EENTRO =        -0.00155033
  eigenvalues    EBANDS =        68.74158150
  atomic energy  EATOM  =       813.35773410
  Solvation  Ediel_sol  =         0.00000000
  ---------------------------------------------------
  free energy    TOTEN  =        -7.03082559 eV

  energy without entropy =       -7.02927526  energy(sigma->0) =       -7.03005042


--------------------------------------------------------------------------------------------------------




--------------------------------------- Iteration      1(   8)  ---------------------------------------


    POTLOK:  cpu time      0.0027: real time      0.0028
    SETDIJ:  cpu time      0.0040: real time      0.0040
     EDDAV:  cpu time      0.2923: real time      0.2938
       DOS:  cpu time      0.0008: real time      0.0008
    CHARGE:  cpu time      0.0093: real time      0.0094
    MIXING:  cpu time      0.0002: real time      0.0002
    --------------------------------------------
      LOOP:  cpu time      0.3093: real time      0.3110

 eigenvalue-minimisations  :  3828
 total energy-change (2. order) : 0.1043466E-01  (-0.1433298E-02)
 number of electron       9.0000008 magnetization       1.6053778
 augmentation part        5.1140539 magnetization       1.4464572

 Broyden mixing:
  rms(total) = 0.10872E+00    rms(broyden)= 0.10872E+00
  rms(prec ) = 0.20698E+00
  weight for this iteration     100.00

 eigenvalues of (default mixing * dielectric matrix)
  average eigenvalue GAMMA=   1.0310
  1.7669  0.7544  0.5718

 Free energy of the ion-electron system (eV)
  ---------------------------------------------------
  alpha Z        PSCENC =        38.07594273
  Ewald energy   TEWEN  =      -754.55373047
  -Hartree energ DENC   =      -136.75000571
  -exchange      EXHF   =         0.00000000
  -V(xc)+E(xc)   XCENC  =        16.41480219
  PAW double counting   =       843.50173095     -895.30583648
  entropy T*S    EENTRO =        -0.00161248
  eigenvalues    EBANDS =        68.24058425
  atomic energy  EATOM  =       813.35773410
  Solvation  Ediel_sol  =         0.00000000
  ---------------------------------------------------
  free energy    TOTEN  =        -7.02039092 eV

  energy without entropy =       -7.01877844  energy(sigma->0) =       -7.01958468


--------------------------------------------------------------------------------------------------------




--------------------------------------- Iteration      1(   9)  ---------------------------------------


    POTLOK:  cpu time      0.0027: real time      0.0028
    SETDIJ:  cpu time      0.0040: real time      0.0040
     EDDAV:  cpu time      0.3351: real time      0.3368
       DOS:  cpu time      0.0008: real time      0.0008
    CHARGE:  cpu time      0.0094: real time      0.0094
    MIXING:  cpu time      0.0002: real time      0.0002
    --------------------------------------------
      LOOP:  cpu time      0.3522: real time      0.3541

 eigenvalue-minimisations  :  4540
 total energy-change (2. order) : 0.5862378E-02  (-0.5678944E-03)
 number of electron       9.0000008 magnetization       1.5922933
 augmentation part        5.1289656 magnetization       1.4344381

 Broyden mixing:
  rms(total) = 0.25387E-01    rms(broyden)= 0.25387E-01
  rms(prec ) = 0.52682E-01
  weight for this iteration     100.00

 eigenvalues of (default mixing * dielectric matrix)
  average eigenvalue GAMMA=   1.1263
  2.2451  0.9264  0.7124  0.6213

 Free energy of the ion-electron system (eV)
  ---------------------------------------------------
  alpha Z        PSCENC =        38.07594273
  Ewald energy   TEWEN  =      -754.55373047
  -Hartree energ DENC   =      -135.52138085
  -exchange      EXHF   =         0.00000000
  -V(xc)+E(xc)   XCENC  =        16.35779008
  PAW double counting   =       872.14945831     -924.67663226
  entropy T*S    EENTRO =        -0.00157358
  eigenvalues    EBANDS =        67.79786339
  atomic energy  EATOM  =       813.35773410
  Solvation  Ediel_sol  =         0.00000000
  ---------------------------------------------------
  free energy    TOTEN  =        -7.01452855 eV

  energy without entropy =       -7.01295497  energy(sigma->0) =       -7.01374176


--------------------------------------------------------------------------------------------------------




--------------------------------------- Iteration      1(  10)  ---------------------------------------


    POTLOK:  cpu time      0.0026: real time      0.0028
    SETDIJ:  cpu time      0.0042: real time      0.0042
     EDDAV:  cpu time      0.3209: real time      0.3227
       DOS:  cpu time      0.0008: real time      0.0008
    CHARGE:  cpu time      0.0095: real time      0.0095
    MIXING:  cpu time      0.0003: real time      0.0003
    --------------------------------------------
      LOOP:  cpu time      0.3383: real time      0.3403

 eigenvalue-minimisations  :  4308
 total energy-change (2. order) : 0.6242536E-03  (-0.3969494E-04)
 number of electron       9.0000008 magnetization       1.5976080
 augmentation part        5.1319913 magnetization       1.4404365

 Broyden mixing:
  rms(total) = 0.32278E-02    rms(broyden)= 0.32276E-02
  rms(prec ) = 0.73793E-02
  weight for this iteration     100.00

 eigenvalues of (default mixing * dielectric matrix)
  average eigenvalue GAMMA=   1.1219
  2.3762  1.1044  0.8285  0.6501  0.6501

 Free energy of the ion-electron system (eV)
  ---------------------------------------------------
  alpha Z        PSCENC =        38.07594273
  Ewald energy   TEWEN  =      -754.55373047
  -Hartree energ DENC   =      -135.07690014
  -exchange      EXHF   =         0.00000000
  -V(xc)+E(xc)   XCENC  =        16.33502026
  PAW double counting   =       885.53336950     -938.39437632
  entropy T*S    EENTRO =        -0.00154600
  eigenvalues    EBANDS =        67.71058204
  atomic energy  EATOM  =       813.35773410
  Solvation  Ediel_sol  =         0.00000000
  ---------------------------------------------------
  free energy    TOTEN  =        -7.01390429 eV

  energy without entropy =       -7.01235829  energy(sigma->0) =       -7.01313129


--------------------------------------------------------------------------------------------------------




--------------------------------------- Iteration      1(  11)  ---------------------------------------


    POTLOK:  cpu time      0.0027: real time      0.0028
    SETDIJ:  cpu time      0.0040: real time      0.0040
     EDDAV:  cpu time      0.2839: real time      0.2853
       DOS:  cpu time      0.0008: real time      0.0008
    CHARGE:  cpu time      0.0093: real time      0.0094
    MIXING:  cpu time      0.0002: real time      0.0002
    --------------------------------------------
      LOOP:  cpu time      0.3009: real time      0.3025

 eigenvalue-minimisations  :  3700
 total energy-change (2. order) : 0.1248157E-05  (-0.2425594E-05)
 number of electron       9.0000008 magnetization       1.5956397
 augmentation part        5.1325251 magnetization       1.4379712

 Broyden mixing:
  rms(total) = 0.36664E-02    rms(broyden)= 0.36663E-02
  rms(prec ) = 0.38725E-02
  weight for this iteration     100.00

 eigenvalues of (default mixing * dielectric matrix)
  average eigenvalue GAMMA=   1.3128
  2.5981  2.2601  0.9807  0.6293  0.7044  0.7044

 Free energy of the ion-electron system (eV)
  ---------------------------------------------------
  alpha Z        PSCENC =        38.07594273
  Ewald energy   TEWEN  =      -754.55373047
  -Hartree energ DENC   =      -134.99991938
  -exchange      EXHF   =         0.00000000
  -V(xc)+E(xc)   XCENC  =        16.33270369
  PAW double counting   =       888.83363509     -941.74938233
  entropy T*S    EENTRO =        -0.00155500
  eigenvalues    EBANDS =        67.69066853
  atomic energy  EATOM  =       813.35773410
  Solvation  Ediel_sol  =         0.00000000
  ---------------------------------------------------
  free energy    TOTEN  =        -7.01390304 eV

  energy without entropy =       -7.01234804  energy(sigma->0) =       -7.01312554


--------------------------------------------------------------------------------------------------------




--------------------------------------- Iteration      1(  12)  ---------------------------------------


    POTLOK:  cpu time      0.0026: real time      0.0028
    SETDIJ:  cpu time      0.0040: real time      0.0041
     EDDAV:  cpu time      0.2627: real time      0.2641
       DOS:  cpu time      0.0008: real time      0.0008
    --------------------------------------------
      LOOP:  cpu time      0.2702: real time      0.2717

 eigenvalue-minimisations  :  3332
 total energy-change (2. order) :-0.3591344E-07  (-0.1683857E-06)
 number of electron       9.0000008 magnetization       1.5956397
 augmentation part        5.1325251 magnetization       1.4379712

 Free energy of the ion-electron system (eV)
  ---------------------------------------------------
  alpha Z        PSCENC =        38.07594273
  Ewald energy   TEWEN  =      -754.55373047
  -Hartree energ DENC   =      -135.01598976
  -exchange      EXHF   =         0.00000000
  -V(xc)+E(xc)   XCENC  =        16.33286834
  PAW double counting   =       889.16188114     -942.05995166
  entropy T*S    EENTRO =        -0.00155305
  eigenvalues    EBANDS =        67.68889556
  atomic energy  EATOM  =       813.35773410
  Solvation  Ediel_sol  =         0.00000000
  ---------------------------------------------------
  free energy    TOTEN  =        -7.01390308 eV

  energy without entropy =       -7.01235003  energy(sigma->0) =       -7.01312655


--------------------------------------------------------------------------------------------------------




 average (electrostatic) potential at core
  the test charge radii are     1.0452
  (the norm of the test charge is              1.0000)
       1 -78.6293
 
 
 
 E-fermi :   9.9892     XC(G=0): -13.2590     alpha+bet :-17.2901

 Fermi energy:         9.9892080802

 spin component 1

 k-point     1 :       0.0625    0.0625    0.0625
  band No.  band energies     occupation 
      1       1.2975      1.00000
      2       7.2924      1.00000
      3       7.3702      1.00000
      4       7.3702      1.00000
      5       8.3500      1.00000
      6       8.3500      1.00000
      7      32.4634      0.00000
      8      35.2670      0.00000
      9      36.7140      0.00000
     10      36.7140      0.00000
     11      40.5345      0.00000
     12      40.5345      0.00000

 k-point     2 :       0.1875    0.0625    0.0625
  band No.  band energies     occupation 
      1       2.0833      1.00000
      2       7.0884      1.00000
      3       7.5221      1.00000
      4       7.5271      1.00000
      5       8.2018      1.00000
      6       8.4370      1.00000
      7      29.5654      0.00000
      8      32.1846      0.00000
      9      35.6717      0.00000
     10      37.7200      0.00000
     11      39.4905      0.00000
     12      40.6723      0.00000

 k-point     3 :       0.3125    0.0625    0.0625
  band No.  band energies     occupation 
      1       3.7396      1.00000
      2       6.9833      1.00000
      3       7.4683      1.00000
      4       7.5391      1.00000
      5       8.4100      1.00000
      6       8.8271      1.00000
      7      23.5147      0.00000
      8      31.1100      0.00000
      9      34.6253      0.00000
     10      37.2261      0.00000
     11      38.4287      0.00000
     12      39.4597      0.00000

 k-point     4 :       0.4375    0.0625    0.0625
  band No.  band energies     occupation 
      1       4.8749      1.00000
      2       7.2463      1.00000
      3       7.3406      1.00000
      4       8.0213      1.00000
      5       8.9434      1.00000
      6       9.6028      1.00000
      7      18.2108      0.00000
      8      30.6595      0.00000
      9      33.3681      0.00000
     10      35.0922      0.00000
     11      37.5921      0.00000
     12      39.1605      0.00000

 k-point     5 :      -0.4375    0.0625    0.0625
  band No.  band energies     occupation 
      1       5.0020      1.00000
      2       7.1540      1.00000
      3       7.2894      1.00000
      4       8.5710      1.00000
      5       9.2138      1.00000
      6      10.4146      0.00000
      7      16.0608      0.00000
      8      30.8113      0.00000
      9      33.2721      0.00000
     10      33.4482      0.00000
     11      38.4014      0.00000
     12      38.4512      0.00000

 k-point     6 :      -0.3125    0.0625    0.0625
  band No.  band energies     occupation 
      1       4.6577      1.00000
      2       7.2828      1.00000
      3       7.4266      1.00000
      4       7.5045      1.00000
      5       9.0154      1.00000
      6       9.0801      1.00000
      7      19.8190      0.00000
      8      31.5301      0.00000
      9      32.7445      0.00000
     10      35.1062      0.00000
     11      38.2913      0.00000
     12      40.1087      0.00000

 k-point     7 :      -0.1875    0.0625    0.0625
  band No.  band energies     occupation 
      1       3.1434      1.00000
      2       6.9368      1.00000
      3       7.5297      1.00000
      4       7.5860      1.00000
      5       8.3417      1.00000
      6       8.5906      1.00000
      7      25.5054      0.00000
      8      32.5707      0.00000
      9      33.2927      0.00000
     10      37.7610      0.00000
     11      38.1091      0.00000
     12      42.3723      0.00000

 k-point     8 :      -0.0625    0.0625    0.0625
  band No.  band energies     occupation 
      1       1.6968      1.00000
      2       7.1553      1.00000
      3       7.4759      1.00000
      4       7.4799      1.00000
      5       8.2206      1.00000
      6       8.4141      1.00000
      7      31.3790      0.00000
      8      33.7660      0.00000
      9      34.6859      0.00000
     10      36.5945      0.00000
     11      40.4819      0.00000
     12      42.3570      0.00000

 k-point     9 :       0.1875    0.1875    0.0625
  band No.  band energies     occupation 
      1       2.4591      1.00000
      2       6.8902      1.00000
      3       7.6636      1.00000
      4       7.6933      1.00000
      5       8.0452      1.00000
      6       8.5335      1.00000
      7      29.8656      0.00000
      8      32.3769      0.00000
      9      32.4109      0.00000
     10      34.6975      0.00000
     11      39.9633      0.00000
     12      42.8320      0.00000

 k-point    10 :       0.3125    0.1875    0.0625
  band No.  band energies     occupation 
      1       3.7951      1.00000
      2       6.6006      1.00000
      3       7.4543      1.00000
      4       7.9412      1.00000
      5       8.3069      1.00000
      6       8.9024      1.00000
      7      26.0494      0.00000
      8      28.6339      0.00000
      9      32.3867      0.00000
     10      34.3407      0.00000
     11      38.8935      0.00000
     12      42.6307      0.00000

 k-point    11 :       0.4375    0.1875    0.0625
  band No.  band energies     occupation 
      1       5.1586      1.00000
      2       6.7179      1.00000
      3       7.1600      1.00000
      4       7.7888      1.00000
      5       8.9858      1.00000
      6      10.0728      0.00901
      7      20.3267      0.00000
      8      28.0476      0.00000
      9      29.9735      0.00000
     10      33.9621      0.00000
     11      40.5925      0.00000
     12      42.9929      0.00000

 k-point    12 :      -0.4375    0.1875    0.0625
  band No.  band energies     occupation 
      1       5.4634      1.00000
      2       6.7498      1.00000
      3       7.5883      1.00000
      4       7.6481      1.00000
      5       9.1790      1.00000
      6      12.2221      0.00000
      7      16.2581      0.00000
      8      27.4749      0.00000
      9      29.2398      0.00000
     10      33.7856      0.00000
     11      39.7281      0.00000
     12      43.3685      0.00000

 k-point    13 :      -0.3125    0.1875    0.0625
  band No.  band energies     occupation 
      1       5.3929      1.00000
      2       6.8926      1.00000
      3       7.2326      1.00000
      4       7.6815      1.00000
      5       8.8723      1.00000
      6      10.9058      0.00000
      7      18.6804      0.00000
      8      26.6462      0.00000
      9      30.8154      0.00000
     10      34.8686      0.00000
     11      39.1094      0.00000
     12      42.7592      0.00000

 k-point    14 :      -0.1875    0.1875    0.0625
  band No.  band energies     occupation 
      1       4.3687      1.00000
      2       6.6724      1.00000
      3       7.2876      1.00000
      4       7.8754      1.00000
      5       8.2422      1.00000
      6       9.3872      1.00000
      7      24.0741      0.00000
      8      26.7863      0.00000
      9      33.3411      0.00000
     10      36.8013      0.00000
     11      38.5961      0.00000
     12      41.5211      0.00000

 k-point    15 :      -0.0625    0.1875    0.0625
  band No.  band energies     occupation 
      1       2.8183      1.00000
      2       6.8883      1.00000
      3       7.5643      1.00000
      4       7.6958      1.00000
      5       8.1204      1.00000
      6       8.6201      1.00000
      7      27.7336      0.00000
      8      30.3549      0.00000
      9      34.7526      0.00000
     10      36.5229      0.00000
     11      39.8840      0.00000
     12      41.3064      0.00000

 k-point    16 :       0.3125    0.3125    0.0625
  band No.  band energies     occupation 
      1       4.4661      1.00000
      2       6.1987      1.00000
      3       7.7638      1.00000
      4       8.3519      1.00000
      5       8.6762      1.00000
      6       8.8735      1.00000
      7      26.6359      0.00000
      8      28.2827      0.00000
      9      28.3990      0.00000
     10      31.1710      0.00000
     11      35.5034      0.00000
     12      46.8464      0.00000

 k-point    17 :       0.4375    0.3125    0.0625
  band No.  band energies     occupation 
      1       5.2008      1.00000
      2       5.9999      1.00000
      3       7.7109      1.00000
      4       8.5846      1.00000
      5       9.0316      1.00000
      6      10.3293      0.00000
      7      23.2717      0.00000
      8      25.2075      0.00000
      9      26.1264      0.00000
     10      32.3877      0.00000
     11      36.6859      0.00000
     12      46.1591      0.00000

 k-point    18 :      -0.4375    0.3125    0.0625
  band No.  band energies     occupation 
      1       5.6805      1.00000
      2       6.1287      1.00000
      3       7.4234      1.00000
      4       8.3135      1.00000
      5       9.2415      1.00000
      6      13.4410      0.00000
      7      18.2354      0.00000
      8      23.0259      0.00000
      9      26.3287      0.00000
     10      32.8134      0.00000
     11      41.5772      0.00000
     12      44.4739      0.00000

 k-point    19 :      -0.3125    0.3125    0.0625
  band No.  band energies     occupation 
      1       6.1394      1.00000
      2       6.2936      1.00000
      3       6.9875      1.00000
      4       8.1219      1.00000
      5       8.9398      1.00000
      6      13.7435      0.00000
      7      18.0814      0.00000
      8      21.7222      0.00000
      9      28.0273      0.00000
     10      33.6831      0.00000
     11      42.3357      0.00000
     12      46.3908      0.00000

 k-point    20 :      -0.1875    0.3125    0.0625
  band No.  band energies     occupation 
      1       5.6718      1.00000
      2       6.6883      1.00000
      3       6.8348      1.00000
      4       7.9523      1.00000
      5       8.5795      1.00000
      6      10.9908      0.00000
      7      20.8573      0.00000
      8      23.8262      0.00000
      9      30.5759      0.00000
     10      35.4110      0.00000
     11      39.6219      0.00000
     12      44.1675      0.00000

 k-point    21 :      -0.0625    0.3125    0.0625
  band No.  band energies     occupation 
      1       4.4800      1.00000
      2       6.9419      1.00000
      3       7.3017      1.00000
      4       7.6022      1.00000
      5       8.6343      1.00000
      6       9.2613      1.00000
      7      21.7899      0.00000
      8      29.5220      0.00000
      9      33.0292      0.00000
     10      35.5381      0.00000
     11      39.2245      0.00000
     12      40.7270      0.00000

 k-point    22 :       0.4375    0.4375    0.0625
  band No.  band energies     occupation 
      1       4.9969      1.00000
      2       5.6472      1.00000
      3       8.9208      1.00000
      4       8.9517      1.00000
      5       9.2639      1.00000
      6      10.9986      0.00000
      7      21.9573      0.00000
      8      24.3346      0.00000
      9      25.5035      0.00000
     10      30.2996      0.00000
     11      34.1267      0.00000
     12      47.0119      0.00000

 k-point    23 :      -0.4375    0.4375    0.0625
  band No.  band energies     occupation 
      1       5.1430      1.00000
      2       5.6705      1.00000
      3       8.5214      1.00000
      4       8.9014      1.00000
      5       9.3991      1.00000
      6      13.4974      0.00000
      7      19.8310      0.00000
      8      21.9358      0.00000
      9      24.3656      0.00000
     10      31.7506      0.00000
     11      36.0251      0.00000
     12      46.9854      0.00000

 k-point    24 :      -0.3125    0.4375    0.0625
  band No.  band energies     occupation 
      1       5.6353      1.00000
      2       6.0376      1.00000
      3       7.5921      1.00000
      4       8.4834      1.00000
      5       9.2318      1.00000
      6      15.4521      0.00000
      7      17.6073      0.00000
      8      20.5518      0.00000
      9      25.8655      0.00000
     10      32.6496      0.00000
     11      41.5403      0.00000
     12      45.6194      0.00000

 k-point    25 :      -0.1875    0.4375    0.0625
  band No.  band energies     occupation 
      1       5.8256      1.00000
      2       6.4607      1.00000
      3       7.2783      1.00000
      4       7.8902      1.00000
      5       9.0849      1.00000
      6      13.4359      0.00000
      7      16.5154      0.00000
      8      24.4583      0.00000
      9      28.3885      0.00000
     10      33.7009      0.00000
     11      41.0655      0.00000
     12      45.4910      0.00000

 k-point    26 :      -0.0625    0.4375    0.0625
  band No.  band energies     occupation 
      1       5.1404      1.00000
      2       7.0472      1.00000
      3       7.4240      1.00000
      4       7.9271      1.00000
      5       9.1249      1.00000
      6      10.6994      0.00000
      7      16.9889      0.00000
      8      29.4442      0.00000
      9      31.4706      0.00000
     10      34.0518      0.00000
     11      38.6633      0.00000
     12      40.8191      0.00000

 k-point    27 :      -0.4375   -0.4375    0.0625
  band No.  band energies     occupation 
      1       4.9390      1.00000
      2       5.5221      1.00000
      3       9.0633      1.00000
      4       9.1949      1.00000
      5       9.4111      1.00000
      6      12.5280      0.00000
      7      19.7321      0.00000
      8      23.7581      0.00000
      9      24.8855      0.00000
     10      30.1580      0.00000
     11      33.9515      0.00000
     12      47.0560      0.00000

 k-point    28 :      -0.3125   -0.4375    0.0625
  band No.  band energies     occupation 
      1       5.2146      1.00000
      2       5.7845      1.00000
      3       8.1955      1.00000
      4       8.8296      1.00000
      5       9.2546      1.00000
      6      11.8984      0.00000
      7      21.9763      0.00000
      8      22.6250      0.00000
      9      24.9151      0.00000
     10      31.9526      0.00000
     11      36.2213      0.00000
     12      46.8557      0.00000

 k-point    29 :      -0.1875   -0.4375    0.0625
  band No.  band energies     occupation 
      1       5.5734      1.00000
      2       6.3777      1.00000
      3       7.2246      1.00000
      4       8.0506      1.00000
      5       9.1835      1.00000
      6      11.5122      0.00000
      7      19.1327      0.00000
      8      26.0645      0.00000
      9      27.3509      0.00000
     10      33.2009      0.00000
     11      41.4087      0.00000
     12      43.5175      0.00000

 k-point    30 :      -0.3125   -0.3125    0.0625
  band No.  band energies     occupation 
      1       4.9578      1.00000
      2       5.8827      1.00000
      3       8.3551      1.00000
      4       8.7018      1.00000
      5       9.0645      1.00000
      6       9.5056      1.00000
      7      24.8614      0.00000
      8      25.5445      0.00000
      9      26.6704      0.00000
     10      30.6087      0.00000
     11      34.5757      0.00000
     12      46.9522      0.00000

 k-point    31 :      -0.1875   -0.3125    0.0625
  band No.  band energies     occupation 
      1       4.7387      1.00000
      2       6.2871      1.00000
      3       7.3936      1.00000
      4       8.2510      1.00000
      5       8.7035      1.00000
      6       9.3627      1.00000
      7      24.5493      0.00000
      8      27.0333      0.00000
      9      29.0654      0.00000
     10      33.1268      0.00000
     11      37.5378      0.00000
     12      44.5634      0.00000

 k-point    32 :      -0.1875   -0.1875    0.0625
  band No.  band energies     occupation 
      1       3.4783      1.00000
      2       6.5524      1.00000
      3       7.6666      1.00000
      4       7.9948      1.00000
      5       8.1960      1.00000
      6       8.6926      1.00000
      7      28.2336      0.00000
      8      30.2319      0.00000
      9      30.9813      0.00000
     10      32.4486      0.00000
     11      37.2422      0.00000
     12      45.3240      0.00000

 k-point    33 :       0.1875    0.1875    0.1875
  band No.  band energies     occupation 
      1       2.4506      1.00000
      2       7.0625      1.00000
      3       7.5293      1.00000
      4       7.5293      1.00000
      5       8.3544      1.00000
      6       8.3544      1.00000
      7      27.4523      0.00000
      8      33.5548      0.00000
      9      35.6083      0.00000
     10      35.6083      0.00000
     11      41.0330      0.00000
     12      41.4784      0.00000

 k-point    34 :       0.3125    0.1875    0.1875
  band No.  band energies     occupation 
      1       3.4927      1.00000
      2       6.8261      1.00000
      3       7.4773      1.00000
      4       7.7528      1.00000
      5       8.0802      1.00000
      6       8.9261      1.00000
      7      25.7895      0.00000
      8      28.4602      0.00000
      9      36.0167      0.00000
     10      37.9486      0.00000
     11      38.0453      0.00000
     12      39.9055      0.00000

 k-point    35 :       0.4375    0.1875    0.1875
  band No.  band energies     occupation 
      1       5.0604      1.00000
      2       6.7199      1.00000
      3       7.1225      1.00000
      4       7.8071      1.00000
      5       8.3215      1.00000
      6      10.0427      0.06515
      7      22.3432      0.00000
      8      25.1635      0.00000
      9      34.0721      0.00000
     10      34.5500      0.00000
     11      39.8838      0.00000
     12      41.5474      0.00000

 k-point    36 :      -0.4375    0.1875    0.1875
  band No.  band energies     occupation 
      1       5.6047      1.00000
      2       6.7432      1.00000
      3       7.3725      1.00000
      4       7.6964      1.00000
      5       8.9318      1.00000
      6      12.0312      0.00000
      7      17.3728      0.00000
      8      25.4082      0.00000
      9      31.5056      0.00000
     10      32.4524      0.00000
     11      41.7839      0.00000
     12      41.9381      0.00000

 k-point    37 :      -0.3125    0.1875    0.1875
  band No.  band energies     occupation 
      1       5.5090      1.00000
      2       6.6068      1.00000
      3       7.4074      1.00000
      4       7.7702      1.00000
      5       9.2462      1.00000
      6      11.8770      0.00000
      7      17.3354      0.00000
      8      26.7412      0.00000
      9      29.6419      0.00000
     10      31.9684      0.00000
     11      42.8554      0.00000
     12      42.9478      0.00000

 k-point    38 :      -0.1875    0.1875    0.1875
  band No.  band energies     occupation 
      1       4.9093      1.00000
      2       6.4301      1.00000
      3       7.2911      1.00000
      4       7.9525      1.00000
      5       9.0753      1.00000
      6       9.4692      1.00000
      7      22.2975      0.00000
      8      28.8678      0.00000
      9      29.2396      0.00000
     10      32.3446      0.00000
     11      39.9341      0.00000
     12      44.1023      0.00000

 k-point    39 :       0.3125    0.3125    0.1875
  band No.  band energies     occupation 
      1       4.0485      1.00000
      2       6.7134      1.00000
      3       7.3902      1.00000
      4       7.7278      1.00000
      5       8.6849      1.00000
      6       8.8473      1.00000
      7      23.7853      0.00000
      8      31.1286      0.00000
      9      31.2116      0.00000
     10      34.4260      0.00000
     11      40.5121      0.00000
     12      41.8404      0.00000

 k-point    40 :       0.4375    0.3125    0.1875
  band No.  band energies     occupation 
      1       5.2015      1.00000
      2       6.4594      1.00000
      3       7.0588      1.00000
      4       8.1257      1.00000
      5       8.5917      1.00000
      6      10.0992      0.00094
      7      22.5933      0.00000
      8      25.3498      0.00000
      9      29.6952      0.00000
     10      35.8739      0.00000
     11      38.9516      0.00000
     12      42.3021      0.00000

 k-point    41 :      -0.4375    0.3125    0.1875
  band No.  band energies     occupation 
      1       6.0280      1.00000
      2       6.4520      1.00000
      3       6.7447      1.00000
      4       8.1872      1.00000
      5       8.9060      1.00000
      6      12.4226      0.00000
      7      19.6302      0.00000
      8      22.7944      0.00000
      9      26.9814      0.00000
     10      36.7303      0.00000
     11      39.0145      0.00000
     12      44.3088      0.00000

 k-point    42 :      -0.3125    0.3125    0.1875
  band No.  band energies     occupation 
      1       6.0104      1.00000
      2       6.2441      1.00000
      3       7.0798      1.00000
      4       8.1388      1.00000
      5       9.1796      1.00000
      6      14.3663      0.00000
      7      16.8529      0.00000
      8      23.7502      0.00000
      9      25.1978      0.00000
     10      35.5767      0.00000
     11      40.3499      0.00000
     12      45.4185      0.00000

 k-point    43 :      -0.1875    0.3125    0.1875
  band No.  band energies     occupation 
      1       5.6121      1.00000
      2       6.2295      1.00000
      3       7.1135      1.00000
      4       8.4127      1.00000
      5       8.9406      1.00000
      6      11.3113      0.00000
      7      21.3688      0.00000
      8      24.1514      0.00000
      9      26.1864      0.00000
     10      35.1479      0.00000
     11      39.0383      0.00000
     12      43.0508      0.00000

 k-point    44 :       0.4375    0.4375    0.1875
  band No.  band energies     occupation 
      1       5.3541      1.00000
      2       6.1337      1.00000
      3       7.5120      1.00000
      4       8.2338      1.00000
      5       9.2354      1.00000
      6      10.7560      0.00000
      7      21.0622      0.00000
      8      25.6550      0.00000
      9      27.7158      0.00000
     10      31.5601      0.00000
     11      39.1493      0.00000
     12      46.2782      0.00000

 k-point    45 :      -0.4375    0.4375    0.1875
  band No.  band energies     occupation 
      1       5.5811      1.00000
      2       6.0540      1.00000
[...]
      5      11.1123      0.00000
      6      14.8305      0.00000
      7      19.8402      0.00000
      8      20.9872      0.00000
      9      26.2915      0.00000
     10      31.3733      0.00000
     11      38.7768      0.00000
     12      49.1057      0.00000

 k-point    49 :      -0.3125   -0.4375    0.1875
  band No.  band energies     occupation 
      1       6.6790      1.00000
      2       7.2064      1.00000
      3       8.9908      1.00000
      4      10.4786      0.00000
      5      11.2058      0.00000
      6      15.4439      0.00000
      7      20.2204      0.00000
      8      21.0311      0.00000
      9      23.4368      0.00000
     10      34.6062      0.00000
     11      39.3269      0.00000
     12      45.4193      0.00000

 k-point    50 :      -0.3125   -0.3125    0.1875
  band No.  band energies     occupation 
      1       6.4664      1.00000
      2       7.1476      1.00000
      3       9.1542      1.00000
      4      10.3410      0.00000
      5      11.1672      0.00000
      6      13.3870      0.00000
      7      20.5439      0.00000
      8      23.0509      0.00000
      9      26.8695      0.00000
     10      31.4890      0.00000
     11      38.9900      0.00000
     12      48.0214      0.00000

 k-point    51 :       0.3125    0.3125    0.3125
  band No.  band energies     occupation 
      1       4.3857      1.00000
      2       8.3522      1.00000
      3       9.0789      1.00000
      4       9.0789      1.00000
      5      10.5772      0.00000
      6      10.5772      0.00000
      7      22.0255      0.00000
      8      32.1528      0.00000
      9      35.1724      0.00000
     10      35.1724      0.00000
     11      39.2963      0.00000
     12      39.2963      0.00000

 k-point    52 :       0.4375    0.3125    0.3125
  band No.  band energies     occupation 
      1       5.4066      1.00000
      2       8.2176      1.00000
      3       8.7838      1.00000
      4       9.2400      1.00000
      5      10.4305      0.00000
      6      11.5278      0.00000
      7      20.6595      0.00000
      8      28.1891      0.00000
      9      33.6183      0.00000
     10      35.1143      0.00000
     11      39.6164      0.00000
     12      39.8962      0.00000

 k-point    53 :      -0.4375    0.3125    0.3125
  band No.  band energies     occupation 
      1       6.7443      1.00000
      2       7.9480      1.00000
      3       8.1797      1.00000
      4       9.7268      1.00000
      5      10.4498      0.00000
      6      13.3137      0.00000
      7      19.9126      0.00000
      8      23.0381      0.00000
      9      31.4685      0.00000
     10      32.5570      0.00000
     11      42.8235      0.00000
     12      43.6587      0.00000

 k-point    54 :      -0.3125    0.3125    0.3125
  band No.  band energies     occupation 
      1       7.1663      1.00000
      2       7.2770      1.00000
      3       8.5745      1.00000
      4      10.1087      0.00036
      5      10.8357      0.00000
      6      15.9688      0.00000
      7      17.4376      0.00000
      8      21.5481      0.00000
      9      28.5331      0.00000
     10      31.7819      0.00000
     11      44.9729      0.00000
     12      46.0719      0.00000

 k-point    55 :       0.4375    0.4375    0.3125
  band No.  band energies     occupation 
      1       5.8157      1.00000
      2       8.2088      1.00000
      3       8.7836      1.00000
      4       9.2255      1.00000
      5      11.0726      0.00000
      6      11.5362      0.00000
      7      19.0852      0.00000
      8      29.7484      0.00000
      9      31.2999      0.00000
     10      33.0805      0.00000
     11      40.8530      0.00000
     12      41.5878      0.00000

 k-point    56 :      -0.4375    0.4375    0.3125
  band No.  band energies     occupation 
      1       6.7021      1.00000
      2       7.7810      1.00000
      3       8.4457      1.00000
      4       9.6377      1.00000
      5      10.9041      0.00000
      6      13.4401      0.00000
      7      18.2502      0.00000
      8      25.8578      0.00000
      9      27.7088      0.00000
     10      35.4317      0.00000
     11      39.5044      0.00000
     12      46.2285      0.00000

 k-point    57 :      -0.3125    0.4375    0.3125
  band No.  band energies     occupation 
      1       7.2119      1.00000
      2       7.4650      1.00000
      3       8.2598      1.00000
      4      10.0947      0.00142
      5      10.9938      0.00000
      6      16.3597      0.00000
      7      17.7583      0.00000
      8      21.6708      0.00000
      9      25.0934      0.00000
     10      35.7495      0.00000
     11      41.7374      0.00000
     12      45.1114      0.00000

 k-point    58 :      -0.4375   -0.4375    0.3125
  band No.  band energies     occupation 
      1       6.9152      1.00000
      2       7.4785      1.00000
      3       8.6139      1.00000
      4       9.8096      1.00000
      5      11.0153      0.00000
      6      14.6112      0.00000
      7      17.3590      0.00000
      8      24.0113      0.00000
      9      29.0032      0.00000
     10      31.8476      0.00000
     11      44.3346      0.00000
     12      44.7476      0.00000

 k-point    59 :       0.4375    0.4375    0.4375
  band No.  band energies     occupation 
      1       5.6891      1.00000
      2       8.9030      1.00000
      3       8.9030      1.00000
      4       9.2931      1.00000
      5      11.0135      0.00000
      6      11.0135      0.00000
      7      17.6828      0.00000
      8      31.2214      0.00000
      9      34.7974      0.00000
     10      34.7974      0.00000
     11      37.5921      0.00000
     12      37.5921      0.00000

 k-point    60 :      -0.4375    0.4375    0.4375
  band No.  band energies     occupation 
      1       6.1838      1.00000
      2       8.4158      1.00000
      3       8.9699      1.00000
      4       9.1284      1.00000
      5      10.9855      0.00000
      6      12.4577      0.00000
      7      17.0698      0.00000
      8      28.5870      0.00000
      9      32.5283      0.00000
     10      32.5966      0.00000
     11      40.1806      0.00000
     12      40.5977      0.00000


--------------------------------------------------------------------------------------------------------


 soft charge-density along one line, spin component           1
         0         1         2         3         4         5         6         7         8         9
 total charge-density along one line
 
 soft charge-density along one line, spin component           2
         0         1         2         3         4         5         6         7         8         9
 total charge-density along one line
 
 pseudopotential strength for first ion, spin component:           1
 -0.823  -0.000  -0.000  -0.000  -0.000  -1.450  -0.000  -0.000
 -0.000  -0.823   0.000  -0.000  -0.000  -0.000  -1.450   0.000
 -0.000   0.000  -0.885   0.000  -0.000  -0.000   0.000  -1.509
 -0.000  -0.000   0.000  -0.823   0.000  -0.000  -0.000   0.000
 -0.000  -0.000  -0.000   0.000  -0.885  -0.000  -0.000  -0.000
 -1.450  -0.000  -0.000  -0.000  -0.000  -2.017  -0.000  -0.000
 -0.000  -1.450   0.000  -0.000  -0.000  -0.000  -2.017   0.000
 -0.000   0.000  -1.509   0.000  -0.000  -0.000   0.000  -2.075
 -0.000  -0.000   0.000  -1.450   0.000  -0.000  -0.000   0.000
 -0.000  -0.000  -0.000   0.000  -1.509  -0.000  -0.000  -0.000
 -0.000  -0.000   0.000  -0.000   0.000  -0.000  -0.000   0.000
 -0.000  -0.000   0.000  -0.000   0.000  -0.000  -0.000   0.000
 -0.000   0.000   0.000  -0.000   0.000  -0.000   0.000   0.000
 -0.000  -0.000   0.000  -0.000  -0.000  -0.000  -0.000   0.000
 -0.000  -0.000   0.000   0.000   0.000  -0.000   0.000   0.000
 -0.000  -0.000   0.000   0.000   0.000  -0.000   0.000   0.000
 -0.000  -0.000   0.000  -0.000  -0.000  -0.000  -0.000   0.000
 -0.000   0.000   0.000   0.000  -0.000  -0.000   0.000   0.000
 pseudopotential strength for first ion, spin component:           2
  0.452   0.000  -0.000   0.000  -0.000  -0.229   0.000  -0.000
  0.000   0.452   0.000   0.000  -0.000   0.000  -0.229   0.000
 -0.000   0.000   0.514   0.000  -0.000  -0.000   0.000  -0.168
  0.000   0.000   0.000   0.452   0.000   0.000   0.000   0.000
 -0.000  -0.000  -0.000   0.000   0.514  -0.000  -0.000  -0.000
 -0.229   0.000  -0.000   0.000  -0.000  -0.848   0.000  -0.000
  0.000  -0.229   0.000   0.000  -0.000   0.000  -0.848   0.000
 -0.000   0.000  -0.168   0.000  -0.000  -0.000   0.000  -0.790
  0.000   0.000   0.000  -0.229   0.000   0.000   0.000   0.000
 -0.000  -0.000  -0.000   0.000  -0.168  -0.000  -0.000  -0.000
 -0.000  -0.000   0.000  -0.000  -0.000  -0.000  -0.000   0.000
 -0.000  -0.000   0.000  -0.000  -0.000  -0.000  -0.000   0.000
 -0.000  -0.000   0.000  -0.000   0.000  -0.000   0.000   0.000
 -0.000   0.000  -0.000  -0.000  -0.000  -0.000  -0.000   0.000
 -0.000  -0.000   0.000   0.000   0.000  -0.000  -0.000   0.000
 -0.000  -0.000   0.000   0.000   0.000  -0.000   0.000  -0.000
 -0.000  -0.000   0.000  -0.000  -0.000  -0.000  -0.000   0.000
 -0.000   0.000   0.000   0.000   0.000  -0.000   0.000   0.000
 total augmentation occupancy for first ion, spin component:           1
  2.732  -0.000  -0.000   0.000  -0.000  -1.413   0.000   0.000   0.000  -0.000   0.000  -0.000   0.000   0.000   0.000   0.000
 -0.000   2.732   0.000  -0.000   0.000   0.000  -1.413   0.000   0.000  -0.000  -0.000   0.000   0.000   0.000   0.000   0.000
 -0.000   0.000   3.089  -0.000  -0.000   0.000   0.000  -1.603  -0.000   0.000  -0.000   0.000   0.000   0.000   0.000   0.000
  0.000  -0.000   0.000   2.732   0.000   0.000   0.000  -0.000  -1.413  -0.000  -0.000   0.000   0.000   0.000   0.000   0.000
 -0.000   0.000  -0.000   0.000   3.089   0.000  -0.000   0.000  -0.000  -1.603   0.000   0.000   0.000   0.000   0.000   0.000
 -1.413   0.000   0.000   0.000   0.000   1.666   0.000  -0.000   0.000  -0.000  -0.000   0.000   0.000   0.000   0.000   0.000
  0.000  -1.413   0.000   0.000  -0.000   0.000   1.666   0.000   0.000   0.000   0.000  -0.000   0.000   0.000   0.000   0.000
  0.000  -0.000  -1.603  -0.000   0.000  -0.000  -0.000   1.629   0.000   0.000   0.000  -0.000   0.000   0.000   0.000   0.000
  0.000   0.000  -0.000  -1.413  -0.000   0.000   0.000   0.000   1.666   0.000  -0.000   0.000   0.000   0.000   0.000   0.000
 -0.000  -0.000   0.000  -0.000  -1.603  -0.000   0.000   0.000   0.000   1.629   0.000  -0.000   0.000   0.000   0.000   0.000
  0.000  -0.000  -0.000  -0.000   0.000  -0.000   0.000   0.000  -0.000   0.000   2.233  -0.259   0.000   0.000   0.000   0.000
 -0.000   0.000   0.000   0.000   0.000   0.000  -0.000  -0.000  -0.000  -0.000  -0.259   0.038   0.000   0.000   0.000   0.000
  0.000   0.000   0.000   0.000   0.000   0.000   0.000   0.000   0.000   0.000   0.000   0.000   0.301  -0.000   0.000  -0.029
  0.000   0.000   0.000   0.000   0.000   0.000   0.000   0.000   0.000   0.000   0.000   0.000  -0.000   0.301  -0.000   0.000
  0.000   0.000   0.000   0.000   0.000   0.000   0.000   0.000   0.000   0.000   0.000   0.000   0.000  -0.000   0.301  -0.000
  0.000   0.000   0.000   0.000   0.000   0.000   0.000   0.000   0.000   0.000   0.000   0.000  -0.029   0.000  -0.000   0.003
  0.000   0.000   0.000   0.000   0.000   0.000   0.000   0.000   0.000   0.000   0.000   0.000   0.000  -0.029  -0.000  -0.000
  0.000   0.000   0.000   0.000   0.000   0.000   0.000   0.000   0.000   0.000   0.000   0.000  -0.000  -0.000  -0.029   0.000
 total augmentation occupancy for first ion, spin component:           2
  1.953  -0.000  -0.000  -0.000   0.000  -0.938   0.000   0.000   0.000   0.000  -0.000   0.000   0.000   0.000   0.000   0.000
 -0.000   1.953   0.000  -0.000   0.000   0.000  -0.938  -0.000   0.000  -0.000   0.000  -0.000   0.000   0.000   0.000   0.000
 -0.000   0.000   2.094  -0.000   0.000   0.000  -0.000  -0.965   0.000   0.000   0.000  -0.000   0.000   0.000   0.000   0.000
 -0.000  -0.000   0.000   1.953   0.000   0.000   0.000   0.000  -0.938  -0.000   0.000  -0.000   0.000   0.000   0.000   0.000
  0.000   0.000  -0.000  -0.000   2.094   0.000  -0.000   0.000   0.000  -0.965  -0.000   0.000   0.000   0.000   0.000   0.000
 -0.938   0.000   0.000   0.000   0.000   0.254  -0.000  -0.000  -0.000   0.000   0.000  -0.000   0.000   0.000   0.000   0.000
  0.000  -0.938  -0.000   0.000  -0.000  -0.000   0.254  -0.000  -0.000  -0.000  -0.000   0.000   0.000   0.000   0.000   0.000
  0.000  -0.000  -0.965   0.000  -0.000  -0.000   0.000   0.272  -0.000   0.000  -0.000   0.000   0.000   0.000   0.000   0.000
  0.000   0.000   0.000  -0.938   0.000  -0.000  -0.000  -0.000   0.254   0.000   0.000   0.000   0.000   0.000   0.000   0.000
 -0.000   0.000   0.000  -0.000  -0.965   0.000   0.000   0.000   0.000   0.272  -0.000   0.000   0.000   0.000   0.000   0.000
 -0.000   0.000   0.000   0.000   0.000   0.000  -0.000  -0.000  -0.000   0.000  -0.291   0.087   0.000   0.000   0.000   0.000
  0.000   0.000  -0.000   0.000  -0.000  -0.000   0.000   0.000  -0.000   0.000   0.087  -0.015   0.000   0.000   0.000   0.000
  0.000   0.000   0.000   0.000   0.000   0.000   0.000   0.000   0.000   0.000   0.000   0.000  -0.035   0.000  -0.000   0.005
  0.000   0.000   0.000   0.000   0.000   0.000   0.000   0.000   0.000   0.000   0.000   0.000   0.000  -0.035   0.000  -0.000
  0.000   0.000   0.000   0.000   0.000   0.000   0.000   0.000   0.000   0.000   0.000   0.000   0.000  -0.000  -0.035   0.000
  0.000   0.000   0.000   0.000   0.000   0.000   0.000   0.000   0.000   0.000   0.000   0.000   0.005  -0.000  -0.000  -0.001
  0.000   0.000   0.000   0.000   0.000   0.000   0.000   0.000   0.000   0.000   0.000   0.000  -0.000   0.005   0.000   0.000
  0.000   0.000   0.000   0.000   0.000   0.000   0.000   0.000   0.000   0.000   0.000   0.000   0.000  -0.000   0.005   0.000


------------------------ aborting loop because EDIFF is reached ----------------------------------------





 total charge

# of ion       s       p       d       tot
------------------------------------------
    1        0.478   0.501   7.243   8.222



 magnetization (x)

# of ion       s       p       d       tot
------------------------------------------
    1       -0.015  -0.053   1.688   1.620
 
    CHARGE:  cpu time      0.0093: real time      0.0093
    FORLOC:  cpu time      0.0000: real time      0.0000
    FORNL :  cpu time      0.0060: real time      0.0061
    STRESS:  cpu time      0.0224: real time      0.0225
    FORCOR:  cpu time      0.0024: real time      0.0024
    FORHAR:  cpu time      0.0003: real time      0.0003
    MIXING:  cpu time      0.0002: real time      0.0002
    OFIELD:  cpu time      0.0000: real time      0.0000

  FORCE on cell =-STRESS in cart. coord.  units (eV):
  Direction    XX          YY          ZZ          XY          YZ          ZX
  --------------------------------------------------------------------------------------
  Alpha Z    38.07594    38.07594    38.07594
  Ewald    -251.51792  -251.51792  -251.51792     0.00000    -0.00000     0.00000
  Hartree    45.00672    45.00672    45.00672     0.00000     0.00000     0.00000
  E(xc)     -46.15336   -46.15336   -46.15336    -0.00000    -0.00000    -0.00000
  Local     -11.83750   -11.83750   -11.83750     0.00006     0.00006     0.00006
  n-local    -4.91364    -4.02346    -7.07261     1.81144    -1.95104    -0.04605
  augment   155.63185   155.63185   155.63185    -0.00005    -0.00005    -0.00005
  Kinetic    74.92396    74.36175    77.82985    -0.71081     0.77660    -0.11394
  Fock        0.00000     0.00000     0.00000     0.00000     0.00000     0.00000
  -------------------------------------------------------------------------------------
  Total      -0.42565    -0.42565    -0.42565    -0.00000     0.00000     0.00000
  in kB     -61.30226   -61.30226   -61.30226    -0.00000     0.00000     0.00000
  external pressure =      -61.30 kB  Pullay stress =        0.00 kB


 VOLUME and BASIS-vectors are now :
 -----------------------------------------------------------------------------
  energy-cutoff  :      400.00
  volume of cell :       11.12
      direct lattice vectors                 reciprocal lattice vectors
     0.000000000  1.771810232  1.771810232    -0.282197264  0.282197264  0.282197264
     1.771810232  0.000000000  1.771810232     0.282197264 -0.282197264  0.282197264
     1.771810232  1.771810232  0.000000000     0.282197264  0.282197264 -0.282197264

  length of vectors
     2.505718060  2.505718060  2.505718060     0.488779999  0.488779999  0.488779999


 FORCES acting on ions
    electron-ion (+dipol)            ewald-force                    non-local-force                 convergence-correction
 -----------------------------------------------------------------------------------------------
   0.824E-15 0.217E-14 0.378E-15   -.256E-15 -.132E-15 -.216E-15   -.165E-23 -.165E-23 -.165E-23   0.333E-14 0.328E-14 -.435E-14
 -----------------------------------------------------------------------------------------------
   0.824E-15 0.217E-14 0.378E-15   -.256E-15 -.132E-15 -.216E-15   -.165E-23 -.165E-23 -.165E-23   0.333E-14 0.328E-14 -.435E-14
 
 
 POSITION                                       TOTAL-FORCE (eV/Angst)
 -----------------------------------------------------------------------------------
      0.00000      0.00000      0.00000        -0.000000     -0.000000      0.000000
 -----------------------------------------------------------------------------------
    total drift:                                0.000000      0.000000     -0.000000


--------------------------------------------------------------------------------------------------------



  FREE ENERGIE OF THE ION-ELECTRON SYSTEM (eV)
  ---------------------------------------------------
  free  energy   TOTEN  =        -7.01390308 eV

  energy  without entropy=       -7.01235003  energy(sigma->0) =       -7.01312655
 


--------------------------------------------------------------------------------------------------------


    POTLOK:  cpu time      0.0070: real time      0.0070


--------------------------------------------------------------------------------------------------------




--------------------------------------------------------------------------------------------------------


  
 reached required accuracy - stopping structural energy minimisation
 writing wavefunctions
     LOOP+:  cpu time      3.6765: real time      3.7333
    4ORBIT:  cpu time      0.0000: real time      0.0000



 total charge

# of ion       s       p       d       tot
------------------------------------------
    1        0.478   0.501   7.243   8.222



 magnetization (x)

# of ion       s       p       d       tot
------------------------------------------
    1       -0.015  -0.053   1.688   1.620
 

 total amount of memory used by VASP MPI-rank0    30913. kBytes
=======================================================================

   base      :      30000. kBytes
   nonl-proj :        276. kBytes
   fftplans  :         90. kBytes
   grid      :        217. kBytes
   one-center:         31. kBytes
   wavefun   :        299. kBytes
 
  
  
 General timing and accounting informations for this job:
 ========================================================
  
                  Total CPU time used (sec):        4.568
                            User time (sec):        4.064
                          System time (sec):        0.504
                         Elapsed time (sec):        5.770
  
                   Maximum memory used (kb):      236688.
                   Average memory used (kb):          N/A
  
                          Minor page faults:        18200
                          Major page faults:           81
                 Voluntary context switches:         2205
