PROCAR lm decomposed
# of k-points:   60         # of bands:   12         # of ions:    1

 k-point     1 :    0.06250000 0.06250000 0.06250000     weight = 0.00390625

band     1 # energy    1.29748234 # occ.  1.00000000
 
ion      s     py     pz     px    dxy    dyz    dz2    dxz  x2-y2    tot
    1  0.694  0.003  0.003  0.003  0.000  0.000  0.000  0.000  0.000  0.705
 
band     2 # energy    7.29240969 # occ.  1.00000000
 
ion      s     py     pz     px    dxy    dyz    dz2    dxz  x2-y2    tot
    1  0.000  0.000  0.000  0.000  0.322  0.322  0.000  0.322  0.000  0.968
 
band     3 # energy    7.37017837 # occ.  1.00000000
 
ion      s     py     pz     px    dxy    dyz    dz2    dxz  x2-y2    tot
    1  0.000  0.000  0.000  0.000  0.253  0.101  0.001  0.615  0.001  0.970
 
band     4 # energy    7.37017837 # occ.  1.00000000
 
ion      s     py     pz     px    dxy    dyz    dz2    dxz  x2-y2    tot
    1  0.000  0.000  0.000  0.000  0.393  0.545  0.001  0.031  0.001  0.970
 
band     5 # energy    8.35001813 # occ.  1.00000000
 
ion      s     py     pz     px    dxy    dyz    dz2    dxz  x2-y2    tot
    1  0.000  0.000  0.000  0.000  0.001  0.000  0.896  0.000  0.086  0.984
 
band     6 # energy    8.35001813 # occ.  1.00000000
 
ion      s     py     pz     px    dxy    dyz    dz2    dxz  x2-y2    tot
    1  0.000  0.000  0.000  0.000  0.000  0.001  0.086  0.000  0.896  0.984
 
band     7 # energy   32.46344330 # occ.  0.00000000
 
ion      s     py     pz     px    dxy    dyz    dz2    dxz  x2-y2    tot
    1  0.001  0.007  0.007  0.007  0.049  0.049  0.000  0.049  0.000  0.170
 
band     8 # energy   35.26700177 # occ.  0.00000000
 
ion      s     py     pz     px    dxy    dyz    dz2    dxz  x2-y2    tot
    1  0.020  0.087  0.087  0.087  0.038  0.038  0.000  0.038  0.000  0.395
 
band     9 # energy   36.71404035 # occ.  0.00000000
 
ion      s     py     pz     px    dxy    dyz    dz2    dxz  x2-y2    tot
    1  0.000  0.092  0.040  0.171  0.019  0.082  0.003  0.044  0.012  0.465
 
band    10 # energy   36.71404036 # occ.  0.00000000
 
ion      s     py     pz     px    dxy    dyz    dz2    dxz  x2-y2    tot
    1  0.000  0.110  0.162  0.031  0.078  0.015  0.012  0.053  0.003  0.465
 
band    11 # energy   40.53451302 # occ.  0.00000000
 
ion      s     py     pz     px    dxy    dyz    dz2    dxz  x2-y2    tot
    1  0.000  0.003  0.001  0.005  0.139  0.643  0.001  0.322  0.005  1.119
 
band    12 # energy   40.53451370 # occ.  0.00000000
 
ion      s     py     pz     px    dxy    dyz    dz2    dxz  x2-y2    tot
    1  0.000  0.003  0.005  0.001  0.598  0.093  0.005  0.414  0.001  1.119
 

 k-point     2 :    0.18750000 0.06250000 0.06250000     weight = 0.01171875

band     1 # energy    2.08325458 # occ.  1.00000000
 
ion      s     py     pz     px    dxy    dyz    dz2    dxz  x2-y2    tot
    1  0.640  0.028  0.028  0.003  0.001  0.005  0.000  0.001  0.001  0.707
 
band     2 # energy    7.08839310 # occ.  1.00000000
 
ion      s     py     pz     px    dxy    dyz    dz2    dxz  x2-y2    tot
    1  0.001  0.001  0.001  0.006  0.458  0.034  0.000  0.458  0.000  0.958
 
band     3 # energy    7.52205903 # occ.  1.00000000
 
ion      s     py     pz     px    dxy    dyz    dz2    dxz  x2-y2    tot
    1  0.000  0.002  0.002  0.000  0.016  0.842  0.022  0.016  0.067  0.969
 
band     4 # energy    7.52713024 # occ.  1.00000000
 
ion      s     py     pz     px    dxy    dyz    dz2    dxz  x2-y2    tot
    1  0.000  0.000  0.000  0.000  0.474  0.000  0.017  0.474  0.006  0.971
 
band     5 # energy    8.20178855 # occ.  1.00000000
 
ion      s     py     pz     px    dxy    dyz    dz2    dxz  x2-y2    tot
    1  0.000  0.000  0.000  0.000  0.011  0.000  0.717  0.011  0.239  0.978
 
band     6 # energy    8.43697841 # occ.  1.00000000
 
ion      s     py     pz     px    dxy    dyz    dz2    dxz  x2-y2    tot
    1  0.001  0.000  0.000  0.000  0.002  0.085  0.223  0.002  0.669  0.983
 
band     7 # energy   29.56538506 # occ.  0.00000000
 
ion      s     py     pz     px    dxy    dyz    dz2    dxz  x2-y2    tot
    1  0.026  0.047  0.047  0.118  0.168  0.081  0.001  0.168  0.002  0.657
 
band     8 # energy   32.18457915 # occ.  0.00000000
 
ion      s     py     pz     px    dxy    dyz    dz2    dxz  x2-y2    tot
    1  0.039  0.080  0.080  0.034  0.059  0.131  0.006  0.059  0.018  0.505
 
band     9 # energy   35.67166975 # occ.  0.00000000
 
ion      s     py     pz     px    dxy    dyz    dz2    dxz  x2-y2    tot
    1  0.001  0.006  0.006  0.219  0.009  0.064  0.001  0.009  0.003  0.320
 
band    10 # energy   37.71999618 # occ.  0.00000000
 
ion      s     py     pz     px    dxy    dyz    dz2    dxz  x2-y2    tot
    1  0.000  0.110  0.110  0.000  0.095  0.000  0.115  0.095  0.038  0.564
 
band    11 # energy   39.49053267 # occ.  0.00000000
 
ion      s     py     pz     px    dxy    dyz    dz2    dxz  x2-y2    tot
    1  0.000  0.059  0.059  0.011  0.000  0.262  0.013  0.000  0.038  0.443
 
band    12 # energy   40.67225067 # occ.  0.00000000
 
ion      s     py     pz     px    dxy    dyz    dz2    dxz  x2-y2    tot
    1  0.000  0.002  0.002  0.000  0.444  0.000  0.087  0.444  0.029  1.007
 

 k-point     3 :    0.31250000 0.06250000 0.06250000     weight = 0.01171875

band     1 # energy    3.73956937 # occ.  1.00000000
 
ion      s     py     pz     px    dxy    dyz    dz2    dxz  x2-y2    tot
    1  0.487  0.057  0.057  0.016  0.030  0.054  0.001  0.030  0.003  0.735
 
band     2 # energy    6.98332718 # occ.  1.00000000
 
ion      s     py     pz     px    dxy    dyz    dz2    dxz  x2-y2    tot
    1  0.022  0.021  0.021  0.030  0.382  0.058  0.001  0.382  0.002  0.917
 
band     3 # energy    7.46827890 # occ.  1.00000000
 
ion      s     py     pz     px    dxy    dyz    dz2    dxz  x2-y2    tot
    1  0.000  0.003  0.003  0.000  0.033  0.473  0.105  0.033  0.314  0.964
 
band     4 # energy    7.53909928 # occ.  1.00000000
 
ion      s     py     pz     px    dxy    dyz    dz2    dxz  x2-y2    tot
    1  0.000  0.000  0.000  0.000  0.267  0.000  0.326  0.267  0.109  0.968
 
band     5 # energy    8.40999088 # occ.  1.00000000
 
ion      s     py     pz     px    dxy    dyz    dz2    dxz  x2-y2    tot
    1  0.000  0.001  0.001  0.000  0.219  0.000  0.403  0.219  0.134  0.978
 
band     6 # energy    8.82709257 # occ.  1.00000000
 
ion      s     py     pz     px    dxy    dyz    dz2    dxz  x2-y2    tot
    1  0.009  0.005  0.005  0.000  0.017  0.374  0.138  0.017  0.414  0.979
 
band     7 # energy   23.51469928 # occ.  0.00000000
 
ion      s     py     pz     px    dxy    dyz    dz2    dxz  x2-y2    tot
    1  0.121  0.078  0.078  0.133  0.131  0.103  0.001  0.131  0.003  0.778
 
band     8 # energy   31.11003715 # occ.  0.00000000
 
ion      s     py     pz     px    dxy    dyz    dz2    dxz  x2-y2    tot
    1  0.028  0.032  0.032  0.119  0.098  0.063  0.016  0.098  0.047  0.532
 
band     9 # energy   34.62533901 # occ.  0.00000000
 
ion      s     py     pz     px    dxy    dyz    dz2    dxz  x2-y2    tot
    1  0.000  0.063  0.063  0.126  0.002  0.120  0.000  0.002  0.001  0.379
 
band    10 # energy   37.22614423 # occ.  0.00000000
 
ion      s     py     pz     px    dxy    dyz    dz2    dxz  x2-y2    tot
    1  0.000  0.159  0.159  0.000  0.225  0.000  0.065  0.225  0.022  0.854
 
band    11 # energy   38.42870493 # occ.  0.00000000
 
ion      s     py     pz     px    dxy    dyz    dz2    dxz  x2-y2    tot
    1  0.000  0.085  0.085  0.000  0.000  0.000  0.470  0.000  0.157  0.799
 
band    12 # energy   39.45971324 # occ.  0.00000000
 
ion      s     py     pz     px    dxy    dyz    dz2    dxz  x2-y2    tot
    1  0.061  0.055  0.055  0.011  0.010  0.020  0.064  0.010  0.192  0.480
 

 k-point     4 :    0.43750000 0.06250000 0.06250000     weight = 0.01171875

band     1 # energy    4.87487903 # occ.  1.00000000
 
ion      s     py     pz     px    dxy    dyz    dz2    dxz  x2-y2    tot
    1  0.223  0.020  0.020  0.002  0.188  0.208  0.000  0.188  0.001  0.852
 
band     2 # energy    7.24628532 # occ.  1.00000000
 
ion      s     py     pz     px    dxy    dyz    dz2    dxz  x2-y2    tot
    1  0.000  0.002  0.002  0.000  0.046  0.284  0.145  0.046  0.434  0.959
 
band     3 # energy    7.34059833 # occ.  1.00000000
 
ion      s     py     pz     px    dxy    dyz    dz2    dxz  x2-y2    tot
    1  0.000  0.000  0.000  0.000  0.184  0.000  0.447  0.184  0.149  0.964
 
band     4 # energy    8.02131002 # occ.  1.00000000
 
ion      s     py     pz     px    dxy    dyz    dz2    dxz  x2-y2    tot
    1  0.057  0.092  0.092  0.092  0.191  0.025  0.021  0.191  0.063  0.825
 
band     5 # energy    8.94341272 # occ.  1.00000000
 
ion      s     py     pz     px    dxy    dyz    dz2    dxz  x2-y2    tot
    1  0.000  0.000  0.000  0.000  0.305  0.000  0.280  0.305  0.093  0.985
 
band     6 # energy    9.60282758 # occ.  1.00000000
 
ion      s     py     pz     px    dxy    dyz    dz2    dxz  x2-y2    tot
    1  0.043  0.049  0.049  0.030  0.008  0.426  0.077  0.008  0.230  0.921
 
band     7 # energy   18.21076288 # occ.  0.00000000
 
ion      s     py     pz     px    dxy    dyz    dz2    dxz  x2-y2    tot
    1  0.286  0.046  0.046  0.095  0.130  0.103  0.001  0.130  0.002  0.839
 
band     8 # energy   30.65950332 # occ.  0.00000000
 
ion      s     py     pz     px    dxy    dyz    dz2    dxz  x2-y2    tot
    1  0.014  0.007  0.007  0.125  0.054  0.036  0.026  0.054  0.077  0.399
 
band     9 # energy   33.36805796 # occ.  0.00000000
 
ion      s     py     pz     px    dxy    dyz    dz2    dxz  x2-y2    tot
    1  0.014  0.101  0.101  0.176  0.011  0.023  0.002  0.011  0.006  0.445
 
band    10 # energy   35.09224874 # occ.  0.00000000
 
ion      s     py     pz     px    dxy    dyz    dz2    dxz  x2-y2    tot
    1  0.000  0.261  0.261  0.000  0.001  0.000  0.125  0.001  0.042  0.692
 
band    11 # energy   37.59207103 # occ.  0.00000000
 
ion      s     py     pz     px    dxy    dyz    dz2    dxz  x2-y2    tot
    1  0.000  0.027  0.027  0.000  0.198  0.000  0.415  0.198  0.138  1.002
 
band    12 # energy   39.16048689 # occ.  0.00000000
 
ion      s     py     pz     px    dxy    dyz    dz2    dxz  x2-y2    tot
    1  0.051  0.015  0.015  0.013  0.000  0.215  0.130  0.000  0.391  0.831
 

 k-point     5 :   -0.43750000 0.06250000 0.06250000     weight = 0.01171875

band     1 # energy    5.00203780 # occ.  1.00000000
 
ion      s     py     pz     px    dxy    dyz    dz2    dxz  x2-y2    tot
    1  0.158  0.000  0.000  0.006  0.234  0.254  0.000  0.234  0.000  0.886
 
band     2 # energy    7.15396965 # occ.  1.00000000
 
ion      s     py     pz     px    dxy    dyz    dz2    dxz  x2-y2    tot
    1  0.000  0.002  0.002  0.000  0.062  0.198  0.157  0.062  0.472  0.956
 
band     3 # energy    7.28943672 # occ.  1.00000000
 
ion      s     py     pz     px    dxy    dyz    dz2    dxz  x2-y2    tot
    1  0.000  0.000  0.000  0.000  0.182  0.000  0.449  0.182  0.150  0.963
 
band     4 # energy    8.57100450 # occ.  1.00000000
 
ion      s     py     pz     px    dxy    dyz    dz2    dxz  x2-y2    tot
    1  0.002  0.067  0.067  0.065  0.065  0.363  0.048  0.065  0.143  0.885
 
band     5 # energy    9.21384658 # occ.  1.00000000
 
ion      s     py     pz     px    dxy    dyz    dz2    dxz  x2-y2    tot
    1  0.000  0.000  0.000  0.000  0.309  0.000  0.279  0.309  0.093  0.991
 
band     6 # energy   10.41464364 # occ.  0.00000000
 
ion      s     py     pz     px    dxy    dyz    dz2    dxz  x2-y2    tot
    1  0.007  0.141  0.141  0.158  0.052  0.078  0.038  0.052  0.113  0.780
 
band     7 # energy   16.06075444 # occ.  0.00000000
 
ion      s     py     pz     px    dxy    dyz    dz2    dxz  x2-y2    tot
    1  0.432  0.011  0.011  0.000  0.141  0.155  0.000  0.141  0.000  0.890
 
band     8 # energy   30.81133051 # occ.  0.00000000
 
ion      s     py     pz     px    dxy    dyz    dz2    dxz  x2-y2    tot
    1  0.001  0.001  0.001  0.053  0.010  0.040  0.028  0.010  0.083  0.225
 
band     9 # energy   33.27209125 # occ.  0.00000000
 
ion      s     py     pz     px    dxy    dyz    dz2    dxz  x2-y2    tot
    1  0.000  0.252  0.252  0.000  0.034  0.000  0.107  0.034  0.036  0.714
 
band    10 # energy   33.44824410 # occ.  0.00000000
 
ion      s     py     pz     px    dxy    dyz    dz2    dxz  x2-y2    tot
    1  0.037  0.091  0.091  0.304  0.013  0.005  0.012  0.013  0.036  0.602
 
band    11 # energy   38.40142734 # occ.  0.00000000
 
ion      s     py     pz     px    dxy    dyz    dz2    dxz  x2-y2    tot
    1  0.000  0.051  0.051  0.000  0.140  0.000  0.422  0.140  0.141  0.944
 
band    12 # energy   38.45119359 # occ.  0.00000000
 
ion      s     py     pz     px    dxy    dyz    dz2    dxz  x2-y2    tot
    1  0.011  0.003  0.003  0.028  0.026  0.261  0.139  0.026  0.416  0.912
 

 k-point     6 :   -0.31250000 0.06250000 0.06250000     weight = 0.01171875

band     1 # energy    4.65769963 # occ.  1.00000000
 
ion      s     py     pz     px    dxy    dyz    dz2    dxz  x2-y2    tot
    1  0.301  0.015  0.015  0.050  0.142  0.141  0.002  0.142  0.005  0.813
 
band     2 # energy    7.28275317 # occ.  1.00000000
 
ion      s     py     pz     px    dxy    dyz    dz2    dxz  x2-y2    tot
    1  0.001  0.005  0.005  0.004  0.114  0.091  0.154  0.114  0.463  0.952
 
band     3 # energy    7.42660258 # occ.  1.00000000
 
ion      s     py     pz     px    dxy    dyz    dz2    dxz  x2-y2    tot
    1  0.000  0.001  0.001  0.000  0.224  0.000  0.387  0.224  0.129  0.965
 
band     4 # energy    7.50454591 # occ.  1.00000000
 
ion      s     py     pz     px    dxy    dyz    dz2    dxz  x2-y2    tot
    1  0.064  0.066  0.066  0.068  0.013  0.558  0.001  0.013  0.004  0.853
 
band     5 # energy    9.01536263 # occ.  1.00000000
 
ion      s     py     pz     px    dxy    dyz    dz2    dxz  x2-y2    tot
    1  0.000  0.001  0.001  0.000  0.264  0.000  0.344  0.264  0.115  0.988
 
band     6 # energy    9.08009405 # occ.  1.00000000
 
ion      s     py     pz     px    dxy    dyz    dz2    dxz  x2-y2    tot
    1  0.031  0.015  0.015  0.033  0.190  0.138  0.085  0.190  0.254  0.949
 
band     7 # energy   19.81897349 # occ.  0.00000000
 
ion      s     py     pz     px    dxy    dyz    dz2    dxz  x2-y2    tot
    1  0.220  0.097  0.097  0.050  0.107  0.136  0.001  0.107  0.002  0.817
 
band     8 # energy   31.53011277 # occ.  0.00000000
 
ion      s     py     pz     px    dxy    dyz    dz2    dxz  x2-y2    tot
    1  0.006  0.006  0.006  0.003  0.000  0.099  0.022  0.000  0.066  0.209
 
band     9 # energy   32.74452366 # occ.  0.00000000
 
ion      s     py     pz     px    dxy    dyz    dz2    dxz  x2-y2    tot
    1  0.000  0.227  0.227  0.000  0.114  0.000  0.071  0.114  0.024  0.779
 
band    10 # energy   35.10616789 # occ.  0.00000000
 
ion      s     py     pz     px    dxy    dyz    dz2    dxz  x2-y2    tot
    1  0.047  0.045  0.045  0.389  0.000  0.081  0.025  0.000  0.076  0.710
 
band    11 # energy   38.29125675 # occ.  0.00000000
 
ion      s     py     pz     px    dxy    dyz    dz2    dxz  x2-y2    tot
    1  0.000  0.003  0.003  0.015  0.066  0.168  0.130  0.066  0.391  0.840
 
band    12 # energy   40.10870876 # occ.  0.00000000
 
ion      s     py     pz     px    dxy    dyz    dz2    dxz  x2-y2    tot
    1  0.000  0.062  0.062  0.000  0.045  0.000  0.438  0.045  0.146  0.796
 

 k-point     7 :   -0.18750000 0.06250000 0.06250000     weight = 0.01171875

band     1 # energy    3.14335352 # occ.  1.00000000
 
ion      s     py     pz     px    dxy    dyz    dz2    dxz  x2-y2    tot
    1  0.553  0.023  0.023  0.069  0.018  0.010  0.001  0.018  0.004  0.718
 
band     2 # energy    6.93680700 # occ.  1.00000000
 
ion      s     py     pz     px    dxy    dyz    dz2    dxz  x2-y2    tot
    1  0.008  0.013  0.013  0.008  0.135  0.624  0.000  0.135  0.001  0.938
 
band     3 # energy    7.52969091 # occ.  1.00000000
 
ion      s     py     pz     px    dxy    dyz    dz2    dxz  x2-y2    tot
    1  0.000  0.001  0.001  0.001  0.195  0.211  0.091  0.195  0.272  0.967
 
band     4 # energy    7.58602940 # occ.  1.00000000
 
ion      s     py     pz     px    dxy    dyz    dz2    dxz  x2-y2    tot
    1  0.000  0.002  0.002  0.000  0.354  0.000  0.194  0.354  0.065  0.969
 
band     5 # energy    8.34170707 # occ.  1.00000000
 
ion      s     py     pz     px    dxy    dyz    dz2    dxz  x2-y2    tot
    1  0.006  0.001  0.001  0.005  0.126  0.106  0.151  0.126  0.453  0.974
 
band     6 # energy    8.59061530 # occ.  1.00000000
 
ion      s     py     pz     px    dxy    dyz    dz2    dxz  x2-y2    tot
    1  0.000  0.001  0.001  0.000  0.130  0.000  0.541  0.130  0.180  0.983
 
band     7 # energy   25.50536169 # occ.  0.00000000
 
ion      s     py     pz     px    dxy    dyz    dz2    dxz  x2-y2    tot
    1  0.085  0.111  0.111  0.061  0.117  0.149  0.001  0.117  0.003  0.754
 
band     8 # energy   32.57074416 # occ.  0.00000000
 
ion      s     py     pz     px    dxy    dyz    dz2    dxz  x2-y2    tot
    1  0.027  0.001  0.001  0.014  0.001  0.173  0.014  0.001  0.041  0.271
 
band     9 # energy   33.29268854 # occ.  0.00000000
 
ion      s     py     pz     px    dxy    dyz    dz2    dxz  x2-y2    tot
    1  0.000  0.196  0.196  0.000  0.180  0.000  0.037  0.180  0.012  0.800
 
band    10 # energy   37.76104763 # occ.  0.00000000
 
ion      s     py     pz     px    dxy    dyz    dz2    dxz  x2-y2    tot
    1  0.029  0.001  0.001  0.301  0.026  0.150  0.043  0.026  0.128  0.704
 
band    11 # energy   38.10911907 # occ.  0.00000000
 
ion      s     py     pz     px    dxy    dyz    dz2    dxz  x2-y2    tot
    1  0.000  0.047  0.047  0.050  0.041  0.075  0.061  0.041  0.184  0.546
 
band    12 # energy   42.37225694 # occ.  0.00000000
 
ion      s     py     pz     px    dxy    dyz    dz2    dxz  x2-y2    tot
    1  0.000  0.045  0.031  0.000  0.012  0.000  0.331  0.009  0.130  0.559
 

 k-point     8 :   -0.06250000 0.06250000 0.06250000     weight = 0.01171875

band     1 # energy    1.69680806 # occ.  1.00000000
 
ion      s     py     pz     px    dxy    dyz    dz2    dxz  x2-y2    tot
    1  0.667  0.003  0.003  0.030  0.000  0.000  0.000  0.000  0.001  0.705
 
band     2 # energy    7.15533201 # occ.  1.00000000
 
ion      s     py     pz     px    dxy    dyz    dz2    dxz  x2-y2    tot
    1  0.000  0.001  0.001  0.000  0.058  0.846  0.000  0.058  0.000  0.963
 
band     3 # energy    7.47586648 # occ.  1.00000000
 
ion      s     py     pz     px    dxy    dyz    dz2    dxz  x2-y2    tot
    1  0.000  0.001  0.001  0.001  0.421  0.117  0.002  0.421  0.007  0.970
 
band     4 # energy    7.47988588 # occ.  1.00000000
 
ion      s     py     pz     px    dxy    dyz    dz2    dxz  x2-y2    tot
    1  0.000  0.001  0.001  0.000  0.478  0.000  0.009  0.478  0.003  0.970
 
band     5 # energy    8.22055978 # occ.  1.00000000
 
ion      s     py     pz     px    dxy    dyz    dz2    dxz  x2-y2    tot
    1  0.001  0.000  0.000  0.000  0.004  0.001  0.242  0.004  0.727  0.979
 
band     6 # energy    8.41412852 # occ.  1.00000000
 
ion      s     py     pz     px    dxy    dyz    dz2    dxz  x2-y2    tot
    1  0.000  0.000  0.000  0.000  0.006  0.000  0.729  0.006  0.243  0.984
 
band     7 # energy   31.37903316 # occ.  0.00000000
 
ion      s     py     pz     px    dxy    dyz    dz2    dxz  x2-y2    tot
    1  0.008  0.048  0.048  0.015  0.075  0.215  0.000  0.075  0.001  0.485
 
band     8 # energy   33.76604576 # occ.  0.00000000
 
ion      s     py     pz     px    dxy    dyz    dz2    dxz  x2-y2    tot
    1  0.033  0.045  0.045  0.072  0.041  0.040  0.005  0.041  0.015  0.337
 
band     9 # energy   34.68593865 # occ.  0.00000000
 
ion      s     py     pz     px    dxy    dyz    dz2    dxz  x2-y2    tot
    1  0.000  0.169  0.169  0.000  0.181  0.000  0.006  0.181  0.002  0.709
 
band    10 # energy   36.59453884 # occ.  0.00000000
 
ion      s     py     pz     px    dxy    dyz    dz2    dxz  x2-y2    tot
    1  0.009  0.079  0.079  0.060  0.028  0.003  0.023  0.028  0.069  0.377
 
band    11 # energy   40.48190881 # occ.  0.00000000
 
ion      s     py     pz     px    dxy    dyz    dz2    dxz  x2-y2    tot
    1  0.000  0.001  0.001  0.068  0.221  0.414  0.001  0.221  0.004  0.931
 
band    12 # energy   42.35703174 # occ.  0.00000000
 
ion      s     py     pz     px    dxy    dyz    dz2    dxz  x2-y2    tot
    1  0.000  0.002  0.000  0.033  0.153  0.174  0.015  0.289  0.006  0.673
 

 k-point     9 :    0.18750000 0.18750000 0.06250000     weight = 0.01171875

band     1 # energy    2.45912077 # occ.  1.00000000
 
ion      s     py     pz     px    dxy    dyz    dz2    dxz  x2-y2    tot
    1  0.611  0.003  0.078  0.003  0.000  0.001  0.010  0.001  0.000  0.708
 
band     2 # energy    6.89017247 # occ.  1.00000000
 
ion      s     py     pz     px    dxy    dyz    dz2    dxz  x2-y2    tot
    1  0.000  0.001  0.000  0.001  0.916  0.019  0.000  0.019  0.000  0.956
 
band     3 # energy    7.66357722 # occ.  1.00000000
 
ion      s     py     pz     px    dxy    dyz    dz2    dxz  x2-y2    tot
    1  0.000  0.002  0.000  0.002  0.035  0.394  0.141  0.394  0.000  0.969
 
band     4 # energy    7.69328928 # occ.  1.00000000
 
ion      s     py     pz     px    dxy    dyz    dz2    dxz  x2-y2    tot
    1  0.000  0.003  0.000  0.003  0.000  0.465  0.000  0.465  0.035  0.970
 
band     5 # energy    8.04520117 # occ.  1.00000000
 
ion      s     py     pz     px    dxy    dyz    dz2    dxz  x2-y2    tot
    1  0.007  0.000  0.003  0.000  0.005  0.067  0.820  0.067  0.000  0.970
 
band     6 # energy    8.53349983 # occ.  1.00000000
 
ion      s     py     pz     px    dxy    dyz    dz2    dxz  x2-y2    tot
    1  0.000  0.000  0.000  0.000  0.000  0.018  0.000  0.018  0.949  0.985
 
band     7 # energy   29.86556946 # occ.  0.00000000
 
ion      s     py     pz     px    dxy    dyz    dz2    dxz  x2-y2    tot
    1  0.019  0.102  0.016  0.102  0.232  0.097  0.009  0.097  0.000  0.674
 
band     8 # energy   32.37692599 # occ.  0.00000000
 
ion      s     py     pz     px    dxy    dyz    dz2    dxz  x2-y2    tot
    1  0.031  0.019  0.021  0.019  0.215  0.017  0.078  0.017  0.000  0.418
 
band     9 # energy   32.41087086 # occ.  0.00000000
 
ion      s     py     pz     px    dxy    dyz    dz2    dxz  x2-y2    tot
    1  0.000  0.201  0.000  0.201  0.000  0.179  0.000  0.179  0.006  0.766
 
band    10 # energy   34.69751299 # occ.  0.00000000
 
ion      s     py     pz     px    dxy    dyz    dz2    dxz  x2-y2    tot
    1  0.004  0.070  0.000  0.070  0.042  0.050  0.196  0.050  0.000  0.484
 
band    11 # energy   39.96327562 # occ.  0.00000000
 
ion      s     py     pz     px    dxy    dyz    dz2    dxz  x2-y2    tot
    1  0.178  0.017  0.570  0.017  0.004  0.000  0.137  0.000  0.000  0.924
 
band    12 # energy   42.83198165 # occ.  0.00000000
 
ion      s     py     pz     px    dxy    dyz    dz2    dxz  x2-y2    tot
    1  0.027  0.000  0.002  0.000  0.368  0.143  0.068  0.143  0.000  0.750
 

 k-point    10 :    0.31250000 0.18750000 0.06250000     weight = 0.02343750

band     1 # energy    3.79509913 # occ.  1.00000000
 
ion      s     py     pz     px    dxy    dyz    dz2    dxz  x2-y2    tot
    1  0.486  0.022  0.127  0.002  0.002  0.029  0.050  0.004  0.000  0.723
 
band     2 # energy    6.60064783 # occ.  1.00000000
 
ion      s     py     pz     px    dxy    dyz    dz2    dxz  x2-y2    tot
    1  0.001  0.002  0.001  0.011  0.844  0.006  0.003  0.075  0.000  0.943
 
band     3 # energy    7.45433898 # occ.  1.00000000
 
ion      s     py     pz     px    dxy    dyz    dz2    dxz  x2-y2    tot
    1  0.006  0.003  0.002  0.000  0.017  0.342  0.536  0.015  0.036  0.958
 
band     4 # energy    7.94124821 # occ.  1.00000000
 
ion      s     py     pz     px    dxy    dyz    dz2    dxz  x2-y2    tot
    1  0.002  0.002  0.002  0.004  0.043  0.123  0.050  0.558  0.188  0.970
 
band     5 # energy    8.30686309 # occ.  1.00000000
 
ion      s     py     pz     px    dxy    dyz    dz2    dxz  x2-y2    tot
    1  0.015  0.003  0.012  0.003  0.036  0.116  0.253  0.302  0.227  0.966
 
band     6 # energy    8.90242975 # occ.  1.00000000
 
ion      s     py     pz     px    dxy    dyz    dz2    dxz  x2-y2    tot
    1  0.013  0.005  0.008  0.000  0.001  0.349  0.070  0.003  0.531  0.979
 
band     7 # energy   26.04936807 # occ.  0.00000000
 
ion      s     py     pz     px    dxy    dyz    dz2    dxz  x2-y2    tot
    1  0.057  0.103  0.021  0.190  0.178  0.075  0.017  0.116  0.003  0.759
 
band     8 # energy   28.63387559 # occ.  0.00000000
 
ion      s     py     pz     px    dxy    dyz    dz2    dxz  x2-y2    tot
    1  0.040  0.147  0.012  0.134  0.103  0.110  0.049  0.073  0.018  0.685
 
band     9 # energy   32.38672232 # occ.  0.00000000
 
ion      s     py     pz     px    dxy    dyz    dz2    dxz  x2-y2    tot
    1  0.011  0.061  0.098  0.025  0.026  0.026  0.323  0.016  0.004  0.590
 
band    10 # energy   34.34066034 # occ.  0.00000000
 
ion      s     py     pz     px    dxy    dyz    dz2    dxz  x2-y2    tot
    1  0.029  0.003  0.077  0.101  0.309  0.001  0.053  0.059  0.001  0.632
 
band    11 # energy   38.89345629 # occ.  0.00000000
 
ion      s     py     pz     px    dxy    dyz    dz2    dxz  x2-y2    tot
    1  0.169  0.184  0.317  0.026  0.016  0.049  0.003  0.006  0.000  0.769
 
band    12 # energy   42.63071097 # occ.  0.00000000
 
ion      s     py     pz     px    dxy    dyz    dz2    dxz  x2-y2    tot
    1  0.030  0.023  0.020  0.002  0.057  0.008  0.178  0.028  0.154  0.501
 

 k-point    11 :    0.43750000 0.18750000 0.06250000     weight = 0.02343750

band     1 # energy    5.15857154 # occ.  1.00000000
 
ion      s     py     pz     px    dxy    dyz    dz2    dxz  x2-y2    tot
    1  0.237  0.018  0.090  0.001  0.155  0.143  0.090  0.084  0.001  0.819
 
band     2 # energy    6.71792378 # occ.  1.00000000
 
ion      s     py     pz     px    dxy    dyz    dz2    dxz  x2-y2    tot
    1  0.014  0.036  0.022  0.037  0.357  0.025  0.331  0.062  0.011  0.895
 
band     3 # energy    7.16001593 # occ.  1.00000000
 
ion      s     py     pz     px    dxy    dyz    dz2    dxz  x2-y2    tot
    1  0.024  0.001  0.020  0.007  0.316  0.273  0.254  0.006  0.042  0.943
 
band     4 # energy    7.78876258 # occ.  1.00000000
 
ion      s     py     pz     px    dxy    dyz    dz2    dxz  x2-y2    tot
    1  0.002  0.004  0.005  0.001  0.039  0.075  0.051  0.295  0.494  0.965
 
band     5 # energy    8.98584629 # occ.  1.00000000
 
ion      s     py     pz     px    dxy    dyz    dz2    dxz  x2-y2    tot
    1  0.003  0.001  0.007  0.004  0.036  0.063  0.053  0.469  0.347  0.981
 
band     6 # energy   10.07282453 # occ.  0.00901430
 
ion      s     py     pz     px    dxy    dyz    dz2    dxz  x2-y2    tot
    1  0.087  0.032  0.083  0.016  0.015  0.389  0.179  0.034  0.080  0.915
 
band     7 # energy   20.32672987 # occ.  0.00000000
 
ion      s     py     pz     px    dxy    dyz    dz2    dxz  x2-y2    tot
    1  0.183  0.101  0.020  0.169  0.155  0.069  0.014  0.089  0.003  0.803
 
band     8 # energy   28.04758343 # occ.  0.00000000
 
ion      s     py     pz     px    dxy    dyz    dz2    dxz  x2-y2    tot
    1  0.018  0.106  0.001  0.171  0.096  0.065  0.110  0.040  0.056  0.663
 
band     9 # energy   29.97351446 # occ.  0.00000000
 
ion      s     py     pz     px    dxy    dyz    dz2    dxz  x2-y2    tot
    1  0.072  0.018  0.226  0.073  0.000  0.000  0.244  0.034  0.019  0.686
 
band    10 # energy   33.96214189 # occ.  0.00000000
 
ion      s     py     pz     px    dxy    dyz    dz2    dxz  x2-y2    tot
    1  0.062  0.143  0.104  0.026  0.228  0.019  0.003  0.014  0.006  0.603
 
band    11 # energy   40.59249472 # occ.  0.00000000
 
ion      s     py     pz     px    dxy    dyz    dz2    dxz  x2-y2    tot
    1  0.016  0.111  0.003  0.003  0.189  0.020  0.093  0.041  0.206  0.681
 
band    12 # energy   42.99287625 # occ.  0.00000000
 
ion      s     py     pz     px    dxy    dyz    dz2    dxz  x2-y2    tot
    1  0.141  0.104  0.101  0.055  0.004  0.001  0.232  0.007  0.004  0.649
 

 k-point    12 :   -0.43750000 0.18750000 0.06250000     weight = 0.02343750

band     1 # energy    5.46341167 # occ.  1.00000000
 
ion      s     py     pz     px    dxy    dyz    dz2    dxz  x2-y2    tot
    1  0.115  0.000  0.023  0.009  0.333  0.237  0.010  0.167  0.000  0.894
 
band     2 # energy    6.74979934 # occ.  1.00000000
 
ion      s     py     pz     px    dxy    dyz    dz2    dxz  x2-y2    tot
    1  0.000  0.026  0.003  0.011  0.031  0.076  0.683  0.011  0.075  0.916
 
band     3 # energy    7.58830231 # occ.  1.00000000
 
ion      s     py     pz     px    dxy    dyz    dz2    dxz  x2-y2    tot
    1  0.002  0.023  0.031  0.044  0.214  0.319  0.086  0.033  0.174  0.924
 
band     4 # energy    7.64809570 # occ.  1.00000000
 
ion      s     py     pz     px    dxy    dyz    dz2    dxz  x2-y2    tot
    1  0.001  0.020  0.033  0.008  0.217  0.013  0.009  0.224  0.415  0.940
 
band     5 # energy    9.17900685 # occ.  1.00000000
 
ion      s     py     pz     px    dxy    dyz    dz2    dxz  x2-y2    tot
    1  0.000  0.000  0.000  0.000  0.037  0.172  0.030  0.466  0.285  0.990
 
band     6 # energy   12.22210424 # occ.  0.00000000
 
ion      s     py     pz     px    dxy    dyz    dz2    dxz  x2-y2    tot
    1  0.013  0.126  0.180  0.126  0.056  0.108  0.155  0.016  0.020  0.798
 
band     7 # energy   16.25812707 # occ.  0.00000000
 
ion      s     py     pz     px    dxy    dyz    dz2    dxz  x2-y2    tot
    1  0.401  0.015  0.009  0.054  0.161  0.115  0.001  0.114  0.001  0.871
 
band     8 # energy   27.47490057 # occ.  0.00000000
 
ion      s     py     pz     px    dxy    dyz    dz2    dxz  x2-y2    tot