<?xml version="1.0" encoding="ISO-8859-1"?>
<modeling>
 <generator>
  <i name="program" type="string">vasp </i>
  <i name="version" type="string">6.3.2  </i>
  <i name="subversion" type="string">27Jun22 (build Aug 12 2022 00:53:59) complex                          parallel </i>
  <i name="platform" type="string">tv2STD </i>
  <i name="date" type="string">2024 12 03 </i>
  <i name="time" type="string">02:19:29 </i>
 </generator>
 <incar>
  <i type="string" name="SYSTEM">Co-fcc</i>
  <i type="int" name="ISTART">     0</i>
  <i type="string" name="PREC">Accurate      normal | accurate</i>
  <i type="string" name="ALGO">Normal     Normal, Fast, Very_Fast</i>
  <i type="logical" name="ADDGRID"> F  </i>
  <i type="int" name="ISPIN">     2</i>
  <i type="int" name="ICHARG">     2</i>
  <i type="int" name="INIWAV">     1</i>
  <i type="int" name="NELM">   100</i>
  <i type="int" name="IBRION">     2</i>
  <i name="EDIFF">      0.00000100</i>
  <i name="EDIFFG">     -0.02000000</i>
  <i type="int" name="NSW">   100</i>
  <i type="int" name="ISIF">     2</i>
  <i type="int" name="ISYM">     1</i>
  <i name="ENCUT">    400.00000000</i>
  <v name="MAGMOM">      3.00000000</v>
  <i type="logical" name="LREAL"> F  </i>
  <i type="int" name="ISMEAR">     0</i>
  <i name="SIGMA">      0.05000000</i>
  <i type="int" name="NWRITE">     2</i>
  <i type="logical" name="LWAVE"> T  </i>
  <i type="logical" name="LCHARG"> T  </i>
  <i type="int" name="LORBIT">    11</i>
 </incar>
 <primitive_cell>
  <structure name="primitive_cell" >
   <crystal>
    <varray name="basis" >
     <v>       0.00000000       1.77181023       1.77181023 </v>
     <v>       1.77181023       0.00000000       1.77181023 </v>
     <v>       1.77181023       1.77181023       0.00000000 </v>
    </varray>
    <i name="volume">     11.12452847 </i>
    <varray name="rec_basis" >
     <v>      -0.28219726       0.28219726       0.28219726 </v>
     <v>       0.28219726      -0.28219726       0.28219726 </v>
     <v>       0.28219726       0.28219726      -0.28219726 </v>
    </varray>
   </crystal>
   <varray name="positions" >
    <v>       0.00000000       0.00000000       0.00000000 </v>
   </varray>
  </structure>
  <varray name="primitive_index" >
   <v type="int" >        1 </v>
  </varray>
 </primitive_cell>
 <kpoints>
  <generation param="Monkhorst-Pack">
   <v type="int" name="divisions">       8        8        8 </v>
   <v name="usershift">      0.00000000       0.00000000       0.00000000 </v>
   <v name="genvec1">      0.12500000       0.00000000       0.00000000 </v>
   <v name="genvec2">      0.00000000       0.12500000       0.00000000 </v>
   <v name="genvec3">      0.00000000       0.00000000       0.12500000 </v>
   <v name="shift">      0.50000000       0.50000000       0.50000000 </v>
  </generation>
  <varray name="kpointlist" >
   <v>       0.06250000       0.06250000       0.06250000 </v>
   <v>       0.18750000       0.06250000       0.06250000 </v>
   <v>       0.31250000       0.06250000       0.06250000 </v>
   <v>       0.43750000       0.06250000       0.06250000 </v>
   <v>      -0.43750000       0.06250000       0.06250000 </v>
   <v>      -0.31250000       0.06250000       0.06250000 </v>
   <v>      -0.18750000       0.06250000       0.06250000 </v>
   <v>      -0.06250000       0.06250000       0.06250000 </v>
   <v>       0.18750000       0.18750000       0.06250000 </v>
   <v>       0.31250000       0.18750000       0.06250000 </v>
   <v>       0.43750000       0.18750000       0.06250000 </v>
   <v>      -0.43750000       0.18750000       0.06250000 </v>
   <v>      -0.31250000       0.18750000       0.06250000 </v>
   <v>      -0.18750000       0.18750000       0.06250000 </v>
   <v>      -0.06250000       0.18750000       0.06250000 </v>
   <v>       0.31250000       0.31250000       0.06250000 </v>
   <v>       0.43750000       0.31250000       0.06250000 </v>
   <v>      -0.43750000       0.31250000       0.06250000 </v>
   <v>      -0.31250000       0.31250000       0.06250000 </v>
   <v>      -0.18750000       0.31250000       0.06250000 </v>
   <v>      -0.06250000       0.31250000       0.06250000 </v>
   <v>       0.43750000       0.43750000       0.06250000 </v>
   <v>      -0.43750000       0.43750000       0.06250000 </v>
   <v>      -0.31250000       0.43750000       0.06250000 </v>
   <v>      -0.18750000       0.43750000       0.06250000 </v>
   <v>      -0.06250000       0.43750000       0.06250000 </v>
   <v>      -0.43750000      -0.43750000       0.06250000 </v>
   <v>      -0.31250000      -0.43750000       0.06250000 </v>
   <v>      -0.18750000      -0.43750000       0.06250000 </v>
   <v>      -0.31250000      -0.31250000       0.06250000 </v>
   <v>      -0.18750000      -0.31250000       0.06250000 </v>
   <v>      -0.18750000      -0.18750000       0.06250000 </v>
   <v>       0.18750000       0.18750000       0.18750000 </v>
   <v>       0.31250000       0.18750000       0.18750000 </v>
   <v>       0.43750000       0.18750000       0.18750000 </v>
   <v>      -0.43750000       0.18750000       0.18750000 </v>
   <v>      -0.31250000       0.18750000       0.18750000 </v>
   <v>      -0.18750000       0.18750000       0.18750000 </v>
   <v>       0.31250000       0.31250000       0.18750000 </v>
   <v>       0.43750000       0.31250000       0.18750000 </v>
   <v>      -0.43750000       0.31250000       0.18750000 </v>
   <v>      -0.31250000       0.31250000       0.18750000 </v>
   <v>      -0.18750000       0.31250000       0.18750000 </v>
   <v>       0.43750000       0.43750000       0.18750000 </v>
   <v>      -0.43750000       0.43750000       0.18750000 </v>
   <v>      -0.31250000       0.43750000       0.18750000 </v>
   <v>      -0.18750000       0.43750000       0.18750000 </v>
   <v>      -0.43750000      -0.43750000       0.18750000 </v>
   <v>      -0.31250000      -0.43750000       0.18750000 </v>
   <v>      -0.31250000      -0.31250000       0.18750000 </v>
   <v>       0.31250000       0.31250000       0.31250000 </v>
   <v>       0.43750000       0.31250000       0.31250000 </v>
   <v>      -0.43750000       0.31250000       0.31250000 </v>
   <v>      -0.31250000       0.31250000       0.31250000 </v>
   <v>       0.43750000       0.43750000       0.31250000 </v>
   <v>      -0.43750000       0.43750000       0.31250000 </v>
   <v>      -0.31250000       0.43750000       0.31250000 </v>
   <v>      -0.43750000      -0.43750000       0.31250000 </v>
   <v>       0.43750000       0.43750000       0.43750000 </v>
   <v>      -0.43750000       0.43750000       0.43750000 </v>
  </varray>
  <varray name="weights" >
   <v>       0.00390625 </v>
   <v>       0.01171875 </v>
   <v>       0.01171875 </v>
   <v>       0.01171875 </v>
   <v>       0.01171875 </v>
   <v>       0.01171875 </v>
   <v>       0.01171875 </v>
   <v>       0.01171875 </v>
   <v>       0.01171875 </v>
   <v>       0.02343750 </v>
   <v>       0.02343750 </v>
   <v>       0.02343750 </v>
   <v>       0.02343750 </v>
   <v>       0.02343750 </v>
   <v>       0.02343750 </v>
   <v>       0.01171875 </v>
   <v>       0.02343750 </v>
   <v>       0.02343750 </v>
   <v>       0.02343750 </v>
   <v>       0.02343750 </v>
   <v>       0.02343750 </v>
   <v>       0.01171875 </v>
   <v>       0.02343750 </v>
   <v>       0.02343750 </v>
   <v>       0.02343750 </v>
   <v>       0.02343750 </v>
   <v>       0.01171875 </v>
   <v>       0.02343750 </v>
   <v>       0.02343750 </v>
   <v>       0.01171875 </v>
   <v>       0.02343750 </v>
   <v>       0.01171875 </v>
   <v>       0.00390625 </v>
   <v>       0.01171875 </v>
   <v>       0.01171875 </v>
   <v>       0.01171875 </v>
   <v>       0.01171875 </v>
   <v>       0.01171875 </v>
   <v>       0.01171875 </v>
   <v>       0.02343750 </v>
   <v>       0.02343750 </v>
   <v>       0.02343750 </v>
   <v>       0.02343750 </v>
   <v>       0.01171875 </v>
   <v>       0.02343750 </v>
   <v>       0.02343750 </v>
   <v>       0.02343750 </v>
   <v>       0.01171875 </v>
   <v>       0.02343750 </v>
   <v>       0.01171875 </v>
   <v>       0.00390625 </v>
   <v>       0.01171875 </v>
   <v>       0.01171875 </v>
   <v>       0.01171875 </v>
   <v>       0.01171875 </v>
   <v>       0.02343750 </v>
   <v>       0.02343750 </v>
   <v>       0.01171875 </v>
   <v>       0.00390625 </v>
   <v>       0.01171875 </v>
  </varray>
 </kpoints>
 <parameters>
  <separator name="general" >
   <i type="string" name="SYSTEM">Co-fcc</i>
   <i type="logical" name="LCOMPAT"> F  </i>
  </separator>
  <separator name="electronic" >
   <i type="string" name="PREC">accura</i>
   <i name="ENMAX">    400.00000000</i>
   <i name="ENAUG">    477.81800000</i>
   <i name="EDIFF">      0.00000100</i>
   <i type="int" name="IALGO">    38</i>
   <i type="int" name="IWAVPR">    11</i>
   <i type="int" name="NBANDS">    12</i>
   <i type="int" name="NBANDSLOW">    -1</i>
   <i type="int" name="NBANDSHIGH">    -1</i>
   <i name="NELECT">      9.00000000</i>
   <i type="int" name="TURBO">     0</i>
   <i type="int" name="IRESTART">     0</i>
   <i type="int" name="NREBOOT">     0</i>
   <i type="int" name="NMIN">     0</i>
   <i name="EREF">      0.00000000</i>
   <separator name="electronic smearing" >
    <i type="int" name="ISMEAR">     0</i>
    <i name="SIGMA">      0.05000000</i>
    <i name="KSPACING">      0.50000000</i>
    <i type="logical" name="KGAMMA"> T  </i>
    <i type="logical" name="KBLOWUP"> T  </i>
   </separator>
   <separator name="electronic projectors" >
    <i type="logical" name="LREAL"> F  </i>
    <v name="ROPT">      0.00000000</v>
    <i type="int" name="LMAXPAW">  -100</i>
    <i type="int" name="LMAXMIX">     2</i>
    <i type="logical" name="NLSPLINE"> F  </i>
   </separator>
   <separator name="electronic startup" >
    <i type="int" name="ISTART">     0</i>
    <i type="int" name="ICHARG">     2</i>
    <i type="int" name="INIWAV">     1</i>
   </separator>
   <separator name="electronic spin" >
    <i type="int" name="ISPIN">     2</i>
    <i type="logical" name="LNONCOLLINEAR"> F  </i>
    <v name="MAGMOM">      3.00000000</v>
    <i name="NUPDOWN">     -1.00000000</i>
    <i type="logical" name="LSORBIT"> F  </i>
    <v name="SAXIS">      0.00000000      0.00000000      1.00000000</v>
    <i type="logical" name="LSPIRAL"> F  </i>
    <v name="QSPIRAL">      0.00000000      0.00000000      0.00000000</v>
    <i type="logical" name="LZEROZ"> F  </i>
   </separator>
   <separator name="electronic exchange-correlation" >
    <i type="logical" name="LASPH"> F  </i>
    <i type="logical" name="LMETAGGA"> F  </i>
   </separator>
   <separator name="electronic convergence" >
    <i type="int" name="NELM">   100</i>
    <i type="int" name="NELMDL">    -5</i>
    <i type="int" name="NELMIN">     2</i>
    <i name="ENINI">    400.00000000</i>
    <separator name="electronic convergence detail" >
     <i type="logical" name="LDIAG"> T  </i>
     <i type="logical" name="LSUBROT"> F  </i>
     <i name="WEIMIN">      0.00100000</i>
     <i name="EBREAK">      0.00000002</i>
     <i name="DEPER">      0.30000000</i>
     <i type="int" name="NRMM">     4</i>
     <i name="TIME">      0.40000000</i>
    </separator>
   </separator>
   <separator name="electronic mixer" >
    <i name="AMIX">      0.40000000</i>
    <i name="BMIX">      1.00000000</i>
    <i name="AMIN">      0.10000000</i>
    <i name="AMIX_MAG">      1.60000000</i>
    <i name="BMIX_MAG">      1.00000000</i>
    <separator name="electronic mixer details" >
     <i type="int" name="IMIX">     4</i>
     <i type="logical" name="MIXFIRST"> F  </i>
     <i type="int" name="MAXMIX">   -45</i>
     <i name="WC">    100.00000000</i>
     <i type="int" name="INIMIX">     1</i>
     <i type="int" name="MIXPRE">     1</i>
     <i type="int" name="MREMOVE">     5</i>
    </separator>
   </separator>
   <separator name="electronic dipolcorrection" >
    <i type="logical" name="LDIPOL"> F  </i>
    <i type="logical" name="LMONO"> F  </i>
    <i type="int" name="IDIPOL">     0</i>
    <i name="EPSILON">      1.00000000</i>
    <v name="DIPOL">   -100.00000000   -100.00000000   -100.00000000</v>
    <i name="EFIELD">      0.00000000</i>
   </separator>
  </separator>
  <separator name="grids" >
   <i type="int" name="NGX">    16</i>
   <i type="int" name="NGY">    16</i>
   <i type="int" name="NGZ">    16</i>
   <i type="int" name="NGXF">    32</i>
   <i type="int" name="NGYF">    32</i>
   <i type="int" name="NGZF">    32</i>
   <i type="logical" name="ADDGRID"> F  </i>
  </separator>
  <separator name="ionic" >
   <i type="int" name="NSW">   100</i>
   <i type="int" name="IBRION">     2</i>
   <i type="int" name="MDALGO">     0</i>
   <i type="int" name="ISIF">     2</i>
   <i name="PSTRESS">      0.00000000</i>
   <i name="EDIFFG">     -0.02000000</i>
   <i type="int" name="NFREE">     1</i>
   <i name="POTIM">      0.50000000</i>
   <i name="SMASS">     -3.00000000</i>
   <i name="SCALEE">      1.00000000</i>
  </separator>
  <separator name="ionic md" >
   <i name="TEBEG">      0.00010000</i>
   <i name="TEEND">      0.00010000</i>
   <i type="int" name="NBLOCK">     1</i>
   <i type="int" name="KBLOCK">   100</i>
   <i type="int" name="NPACO">   256</i>
   <i name="APACO">     10.00000000</i>
  </separator>
  <separator name="symmetry" >
   <i type="int" name="ISYM">     1</i>
   <i name="SYMPREC">      0.00001000</i>
  </separator>
  <separator name="dos" >
   <i type="int" name="LORBIT">    11</i>
   <v name="RWIGS">     -1.00000000</v>
   <i type="int" name="NEDOS">   301</i>
   <i name="EMIN">     10.00000000</i>
   <i name="EMAX">    -10.00000000</i>
   <i name="EFERMI">      0.00000000</i>
  </separator>
  <separator name="writing" >
   <i type="int" name="NWRITE">     2</i>
   <i type="logical" name="LWAVE"> T  </i>
   <i type="logical" name="LDOWNSAMPLE"> F  </i>
   <i type="logical" name="LCHARG"> T  </i>
   <i type="logical" name="LPARD"> F  </i>
   <i type="logical" name="LVTOT"> F  </i>
   <i type="logical" name="LVHAR"> F  </i>
   <i type="logical" name="LELF"> F  </i>
   <i type="logical" name="LOPTICS"> F  </i>
   <v name="STM">      0.00000000      0.00000000      0.00000000      0.00000000      0.00000000      0.00000000      0.00000000</v>
  </separator>
  <separator name="performance" >
   <i type="int" name="NPAR">     4</i>
   <i type="int" name="NSIM">     4</i>
   <i type="int" name="NBLK">    -1</i>
   <i type="logical" name="LPLANE"> T  </i>
   <i type="logical" name="LSCALAPACK"> T  </i>
   <i type="logical" name="LSCAAWARE"> T  </i>
   <i type="logical" name="LSCALU"> F  </i>
   <i type="logical" name="LASYNC"> F  </i>
   <i type="logical" name="LORBITALREAL"> F  </i>
  </separator>
  <separator name="miscellaneous" >
   <i type="int" name="IDIOT">     3</i>
   <i type="int" name="PHON_NSTRUCT">    -1</i>
   <i type="logical" name="LMUSIC"> F  </i>
   <v name="POMASS">     58.93300000</v>
   <v name="DARWINR">      0.00000000</v>
   <v name="DARWINV">      1.00000000</v>
   <i type="logical" name="LCORR"> T  </i>
  </separator>
  <i type="logical" name="GGA_COMPAT"> T  </i>
  <i type="logical" name="LBERRY"> F  </i>
  <i type="int" name="ICORELEVEL">     0</i>
  <i type="logical" name="LDAU"> F  </i>
  <i type="int" name="I_CONSTRAINED_M">     0</i>
  <separator name="electronic exchange-correlation" >
   <i type="string" name="GGA">--</i>
   <i type="int" name="VOSKOWN">     0</i>
   <i type="logical" name="LHFCALC"> F  </i>
   <i type="string" name="PRECFOCK"></i>
   <i type="logical" name="LSYMGRAD"> F  </i>
   <i type="logical" name="LHFONE"> F  </i>
   <i type="logical" name="LRHFCALC"> F  </i>
   <i type="logical" name="LTHOMAS"> F  </i>
   <i type="logical" name="LMODELHF"> F  </i>
   <i type="logical" name="LFOCKACE"> F  </i>
   <i name="ENCUT4O">     -1.00000000</i>
   <i type="int" name="EXXOEP">     0</i>
   <i type="int" name="FOURORBIT">     0</i>
   <i name="AEXX">      0.00000000</i>
   <i name="HFALPHA">      0.00000000</i>
   <i name="MCALPHA">      0.00000000</i>
   <i name="ALDAX">      1.00000000</i>
   <i name="AGGAX">      1.00000000</i>
   <i name="ALDAC">      1.00000000</i>
   <i name="AGGAC">      1.00000000</i>
   <i type="int" name="NKREDX">     1</i>
   <i type="int" name="NKREDY">     1</i>
   <i type="int" name="NKREDZ">     1</i>
   <i type="logical" name="SHIFTRED"> F  </i>
   <i type="logical" name="ODDONLY"> F  </i>
   <i type="logical" name="EVENONLY"> F  </i>
   <i type="int" name="LMAXFOCK">     0</i>
   <i type="int" name="NMAXFOCKAE">     0</i>
   <i type="logical" name="LFOCKAEDFT"> F  </i>
   <i name="HFSCREEN">      0.00000000</i>
   <i name="HFSCREENC">      0.00000000</i>
   <i type="int" name="NBANDSGWLOW">     0</i>
  </separator>
  <separator name="vdW DFT" >
   <i type="logical" name="LUSE_VDW"> F  </i>
   <i name="Zab_VDW">     -0.84910000</i>
   <i name="PARAM1">      0.12340000</i>
   <i name="PARAM2">      1.00000000</i>
   <i name="PARAM3">      0.00000000</i>
  </separator>
  <separator name="model GW" >
   <i type="int" name="MODEL_GW">     0</i>
   <i name="MODEL_EPS0">      6.67471708</i>
   <i name="MODEL_ALPHA">      1.00000000</i>
  </separator>
  <separator name="linear response parameters" >
   <i type="logical" name="LEPSILON"> F  </i>
   <i type="logical" name="LRPA"> F  </i>
   <i type="logical" name="LNABLA"> F  </i>
   <i type="logical" name="LVEL"> F  </i>
   <i name="CSHIFT">      0.10000000</i>
   <i name="OMEGAMAX">     -1.00000000</i>
   <i name="DEG_THRESHOLD">      0.00200000</i>
   <i name="RTIME">     -0.10000000</i>
   <i name="WPLASMAI">      0.00000000</i>
   <v name="DFIELD">      0.00000000      0.00000000      0.00000000</v>
   <v name="WPLASMA">      0.00000000      0.00000000      0.00000000      0.00000000      0.00000000      0.00000000      0.00000000      0.00000000      0.00000000</v>
  </separator>
  <separator name="orbital magnetization" >
   <i type="logical" name="NUCIND"> F  </i>
   <v name="MAGPOS">      0.00000000      0.00000000      0.00000000</v>
   <i type="logical" name="LNICSALL"> T  </i>
   <i type="logical" name="ORBITALMAG"> F  </i>
   <i type="logical" name="LMAGBLOCH"> F  </i>
   <i type="logical" name="LCHIMAG"> F  </i>
   <i type="logical" name="LGAUGE"> T  </i>
   <i type="int" name="MAGATOM">     0</i>
   <v name="MAGDIPOL">      0.00000000      0.00000000      0.00000000</v>
   <v name="AVECCONST">      0.00000000      0.00000000      0.00000000</v>
  </separator>
  <separator name="response functions" >
   <i type="logical" name="LFINITE_TEMPERATURE"> F  </i>
   <i type="logical" name="LADDER"> F  </i>
   <i type="logical" name="LRPAFORCE"> F  </i>
   <i type="logical" name="LFXC"> F  </i>
   <i type="logical" name="LHARTREE"> T  </i>
   <i type="int" name="IBSE">     0</i>
   <v type="int" name="KPOINT">    -1     0     0     0</v>
   <i type="logical" name="LTCTC"> F  </i>
   <i type="logical" name="LTCTE"> F  </i>
   <i type="logical" name="LTETE"> F  </i>
   <i type="logical" name="LTRIPLET"> F  </i>
   <i type="logical" name="LFXCEPS"> F  </i>
   <i type="logical" name="LFXHEG"> F  </i>
   <i type="int" name="NATURALO">     2</i>
   <i type="logical" name="LHOLEGF"> F  </i>
   <i type="logical" name="L2ORDER"> F  </i>
   <i type="logical" name="LDMP1"> F  </i>
   <i type="logical" name="LMP2LT"> F  </i>
   <i type="logical" name="LSMP2LT"> F  </i>
   <i type="logical" name="LGWLF"> F  </i>
   <i name="ENCUTGW">     -2.00000000</i>
   <i name="ENCUTGWSOFT">     -2.00000000</i>
   <i name="ENCUTLF">     -1.00000000</i>
   <i type="logical" name="LESF_SPLINES"> F  </i>
   <i type="int" name="LMAXMP2">    -1</i>
   <i name="SCISSOR">      0.00000000</i>
   <i type="int" name="NOMEGA">     0</i>
   <i type="int" name="NOMEGAR">     0</i>
   <i type="int" name="NBANDSGW">    -1</i>
   <i type="int" name="NBANDSO">    -1</i>
   <i type="int" name="NBANDSV">    -1</i>
   <i type="int" name="NELMGW">     1</i>
   <i type="int" name="NELMHF">     1</i>
   <i type="int" name="DIM">     3</i>
   <i type="int" name="IESPILON">     4</i>
   <i type="int" name="ANTIRES">     0</i>
   <i name="OMEGAMAX">    -30.00000000</i>
   <i name="OMEGAMIN">    -30.00000000</i>
   <i name="OMEGATL">   -200.00000000</i>
   <i type="int" name="OMEGAGRID">     0</i>
   <i name="CSHIFT">     -0.10000000</i>
   <i type="logical" name="LSELFENERGY"> F  </i>
   <i type="logical" name="LSPECTRAL"> F  </i>
   <i type="logical" name="LSPECTRALGW"> F  </i>
   <i type="logical" name="LSINGLES"> F  </i>
   <i type="logical" name="LFERMIGW"> F  </i>
   <i type="logical" name="ODDONLYGW"> F  </i>
   <i type="logical" name="EVENONLYGW"> F  </i>
   <i type="int" name="NKREDLFX">     1</i>
   <i type="int" name="NKREDLFY">     1</i>
   <i type="int" name="NKREDLFZ">     1</i>
   <i type="int" name="MAXMEM">  2800</i>
   <i type="int" name="TELESCOPE">     0</i>
   <i type="int" name="NTAUPAR">    -1</i>
   <i type="int" name="NOMEGAPAR">    -1</i>
   <i name="DAMP_NEWTON">      0.80000001</i>
   <i name="LAMBDA">      1.00000000</i>
  </separator>
  <separator name="External order field" >
   <i name="OFIELD_KAPPA">      0.00000000</i>
   <v name="OFIELD_K">      0.00000000      0.00000000      0.00000000</v>
   <i name="OFIELD_Q6_NEAR">      0.00000000</i>
   <i name="OFIELD_Q6_FAR">      0.00000000</i>
   <i name="OFIELD_A">      0.00000000</i>
  </separator>
  <separator name="optional k-points parameters" >
   <i type="int" name="KPOINTS_OPT_MODE">     1</i>
   <i type="logical" name="LKPOINTS_OPT"> F  </i>
  </separator>
 </parameters>
 <atominfo>
  <atoms>       1 </atoms>
  <types>       1 </types>
  <array name="atoms" >
   <dimension dim="1">ion</dimension>
   <field type="string">element</field>
   <field type="int">atomtype</field>
   <set>
    <rc><c>Co</c><c>   1</c></rc>
   </set>
  </array>
  <array name="atomtypes" >
   <dimension dim="1">type</dimension>
   <field type="int">atomspertype</field>
   <field type="string">element</field>
   <field>mass</field>
   <field>valence</field>
   <field type="string">pseudopotential</field>
   <set>
    <rc><c>   1</c><c>Co</c><c>     58.93300000</c><c>      9.00000000</c><c>  PAW_PBE Co 02Aug2007                  </c></rc>
   </set>
  </array>
 </atominfo>
 <structure name="initialpos" >
  <crystal>
   <varray name="basis" >
    <v>       0.00000000       1.77181023       1.77181023 </v>
    <v>       1.77181023       0.00000000       1.77181023 </v>
    <v>       1.77181023       1.77181023       0.00000000 </v>
   </varray>
   <i name="volume">     11.12452847 </i>
   <varray name="rec_basis" >
    <v>      -0.28219726       0.28219726       0.28219726 </v>
    <v>       0.28219726      -0.28219726       0.28219726 </v>
    <v>       0.28219726       0.28219726      -0.28219726 </v>
   </varray>
  </crystal>
  <varray name="positions" >
   <v>       0.00000000       0.00000000       0.00000000 </v>
  </varray>
 </structure>
 <calculation>
  <scstep>
   <time name="dav">    0.26    0.27</time>
   <time name="total">    0.27    0.28</time>
   <energy>
    <i name="alphaZ">     38.07594273 </i>
    <i name="ewald">   -754.55373047 </i>
    <i name="hartreedc">   -152.63938323 </i>
    <i name="XCdc">     17.73414797 </i>
    <i name="pawpsdc">    719.99081943 </i>
    <i name="pawaedc">   -772.94345096 </i>
    <i name="eentropy">     -0.00130569 </i>
    <i name="bandstr">    114.20214253 </i>
    <i name="atom">    813.35773410 </i>
    <i name="e_fr_energy">     23.22291639 </i>
    <i name="e_wo_entrp">     23.22422209 </i>
    <i name="e_0_energy">     23.22356924 </i>
   </energy>
  </scstep>
  <scstep>
   <time name="dav">    0.25    0.26</time>
   <time name="total">    0.26    0.26</time>
   <energy>
    <i name="e_fr_energy">     -7.02382049 </i>
    <i name="e_wo_entrp">     -7.02236287 </i>
    <i name="e_0_energy">     -7.02309168 </i>
   </energy>
  </scstep>
  <scstep>
   <time name="dav">    0.27    0.27</time>
   <time name="total">    0.27    0.27</time>
   <energy>
    <i name="e_fr_energy">     -7.82125711 </i>
    <i name="e_wo_entrp">     -7.81993831 </i>
    <i name="e_0_energy">     -7.82059771 </i>
   </energy>
  </scstep>
  <scstep>
   <time name="dav">    0.27    0.27</time>
   <time name="total">    0.27    0.27</time>
   <energy>
    <i name="e_fr_energy">     -7.82947847 </i>
    <i name="e_wo_entrp">     -7.82817059 </i>
    <i name="e_0_energy">     -7.82882453 </i>
   </energy>
  </scstep>
  <scstep>
   <time name="dav">    0.29    0.30</time>
   <time name="total">    0.31    0.31</time>
   <energy>
    <i name="e_fr_energy">     -7.82966204 </i>
    <i name="e_wo_entrp">     -7.82835453 </i>
    <i name="e_0_energy">     -7.82900828 </i>
   </energy>
  </scstep>
  <scstep>
   <time name="dav">    0.29    0.29</time>
   <time name="total">    0.31    0.31</time>
   <energy>
    <i name="e_fr_energy">     -7.22312917 </i>
    <i name="e_wo_entrp">     -7.22127727 </i>
    <i name="e_0_energy">     -7.22220322 </i>
   </energy>
  </scstep>
  <scstep>
   <time name="dav">    0.28    0.28</time>
   <time name="total">    0.30    0.30</time>
   <energy>
    <i name="e_fr_energy">     -7.03082559 </i>
    <i name="e_wo_entrp">     -7.02927526 </i>
    <i name="e_0_energy">     -7.03005042 </i>
   </energy>
  </scstep>
  <scstep>
   <time name="dav">    0.29    0.29</time>
   <time name="total">    0.31    0.31</time>
   <energy>
    <i name="e_fr_energy">     -7.02039092 </i>
    <i name="e_wo_entrp">     -7.01877844 </i>
    <i name="e_0_energy">     -7.01958468 </i>
   </energy>
  </scstep>
  <scstep>
   <time name="dav">    0.34    0.34</time>
   <time name="total">    0.35    0.35</time>
   <energy>
    <i name="e_fr_energy">     -7.01452855 </i>
    <i name="e_wo_entrp">     -7.01295497 </i>
    <i name="e_0_energy">     -7.01374176 </i>
   </energy>
  </scstep>
  <scstep>
   <time name="dav">    0.32    0.32</time>
   <time name="total">    0.34    0.34</time>
   <energy>
    <i name="e_fr_energy">     -7.01390429 </i>
    <i name="e_wo_entrp">     -7.01235829 </i>
    <i name="e_0_energy">     -7.01313129 </i>
   </energy>
  </scstep>
  <scstep>
   <time name="dav">    0.28    0.29</time>
   <time name="total">    0.30    0.30</time>
   <energy>
    <i name="e_fr_energy">     -7.01390304 </i>
    <i name="e_wo_entrp">     -7.01234804 </i>
    <i name="e_0_energy">     -7.01312554 </i>
   </energy>
  </scstep>
  <scstep>
   <time name="dav">    0.26    0.26</time>
   <time name="total">    0.27    0.27</time>
   <energy>
    <i name="alphaZ">     38.07594273 </i>
    <i name="ewald">   -754.55373047 </i>
    <i name="hartreedc">   -135.01598976 </i>
    <i name="XCdc">     16.33286834 </i>
    <i name="pawpsdc">    889.16188114 </i>
    <i name="pawaedc">   -942.05995166 </i>
    <i name="eentropy">     -0.00155305 </i>
    <i name="bandstr">     67.68889556 </i>
    <i name="atom">    813.35773410 </i>
    <i name="e_fr_energy">     -7.01390308 </i>
    <i name="e_wo_entrp">     -7.01235003 </i>
    <i name="e_0_energy">     -7.01312655 </i>
   </energy>
  </scstep>
  <structure>
   <crystal>
    <varray name="basis" >
     <v>       0.00000000       1.77181023       1.77181023 </v>
     <v>       1.77181023       0.00000000       1.77181023 </v>
     <v>       1.77181023       1.77181023       0.00000000 </v>
    </varray>
    <i name="volume">     11.12452847 </i>
    <varray name="rec_basis" >
     <v>      -0.28219726       0.28219726       0.28219726 </v>
     <v>       0.28219726      -0.28219726       0.28219726 </v>
     <v>       0.28219726       0.28219726      -0.28219726 </v>
    </varray>
   </crystal>
   <varray name="positions" >
    <v>       0.00000000       0.00000000       0.00000000 </v>
   </varray>
  </structure>
  <varray name="forces" >
   <v>      -0.00000000      -0.00000000       0.00000000 </v>
  </varray>
  <varray name="stress" >
   <v>     -61.30226446      -0.00000000       0.00000000 </v>
   <v>      -0.00000000     -61.30226446       0.00000000 </v>
   <v>      -0.00000000       0.00000000     -61.30226446 </v>
  </varray>
  <energy>
   <i name="e_fr_energy">     -7.01390308 </i>
   <i name="e_wo_entrp">     -7.01235003 </i>
   <i name="e_0_energy">     -7.01312655 </i>
  </energy>
  <time name="totalsc">    3.68    3.73</time>
  <eigenvalues>
   <array>
    <dimension dim="1">band</dimension>
    <dimension dim="2">kpoint</dimension>
    <dimension dim="3">spin</dimension>
    <field>eigene</field>
    <field>occ</field>
    <set>
     <set comment="spin 1">
      <set comment="kpoint 1">
       <r>    1.2975    1.0000 </r>
       <r>    7.2924    1.0000 </r>
       <r>    7.3702    1.0000 </r>
       <r>    7.3702    1.0000 </r>
       <r>    8.3500    1.0000 </r>
       <r>    8.3500    1.0000 </r>
       <r>   32.4634    0.0000 </r>
       <r>   35.2670    0.0000 </r>
       <r>   36.7140    0.0000 </r>
       <r>   36.7140    0.0000 </r>
       <r>   40.5345    0.0000 </r>
       <r>   40.5345    0.0000 </r>
      </set>
      <set comment="kpoint 2">
       <r>    2.0833    1.0000 </r>
       <r>    7.0884    1.0000 </r>
       <r>    7.5221    1.0000 </r>
       <r>    7.5271    1.0000 </r>
       <r>    8.2018    1.0000 </r>
       <r>    8.4370    1.0000 </r>
       <r>   29.5654    0.0000 </r>
       <r>   32.1846    0.0000 </r>
       <r>   35.6717    0.0000 </r>
       <r>   37.7200    0.0000 </r>
       <r>   39.4905    0.0000 </r>
       <r>   40.6723    0.0000 </r>
      </set>
      <set comment="kpoint 3">
       <r>    3.7396    1.0000 </r>
       <r>    6.9833    1.0000 </r>
       <r>    7.4683    1.0000 </r>
       <r>    7.5391    1.0000 </r>
       <r>    8.4100    1.0000 </r>
       <r>    8.8271    1.0000 </r>
       <r>   23.5147    0.0000 </r>
       <r>   31.1100    0.0000 </r>
       <r>   34.6253    0.0000 </r>
       <r>   37.2261    0.0000 </r>
       <r>   38.4287    0.0000 </r>
       <r>   39.4597    0.0000 </r>
      </set>
      <set comment="kpoint 4">
       <r>    4.8749    1.0000 </r>
       <r>    7.2463    1.0000 </r>
       <r>    7.3406    1.0000 </r>
       <r>    8.0213    1.0000 </r>
       <r>    8.9434    1.0000 </r>
       <r>    9.6028    1.0000 </r>
       <r>   18.2108    0.0000 </r>
       <r>   30.6595    0.0000 </r>
       <r>   33.3681    0.0000 </r>
       <r>   35.0922    0.0000 </r>
       <r>   37.5921    0.0000 </r>
       <r>   39.1605    0.0000 </r>
      </set>
      <set comment="kpoint 5">
       <r>    5.0020    1.0000 </r>
       <r>    7.1540    1.0000 </r>
       <r>    7.2894    1.0000 </r>
       <r>    8.5710    1.0000 </r>
       <r>    9.2138    1.0000 </r>
       <r>   10.4146    0.0000 </r>
       <r>   16.0608    0.0000 </r>
       <r>   30.8113    0.0000 </r>
       <r>   33.2721    0.0000 </r>
       <r>   33.4482    0.0000 </r>
       <r>   38.4014    0.0000 </r>
       <r>   38.4512    0.0000 </r>
      </set>
      <set comment="kpoint 6">
       <r>    4.6577    1.0000 </r>
       <r>    7.2828    1.0000 </r>
       <r>    7.4266    1.0000 </r>
       <r>    7.5045    1.0000 </r>
       <r>    9.0154    1.0000 </r>
       <r>    9.0801    1.0000 </r>
       <r>   19.8190    0.0000 </r>
       <r>   31.5301    0.0000 </r>
       <r>   32.7445    0.0000 </r>
       <r>   35.1062    0.0000 </r>
       <r>   38.2913    0.0000 </r>
       <r>   40.1087    0.0000 </r>
      </set>
      <set comment="kpoint 7">
       <r>    3.1434    1.0000 </r>
       <r>    6.9368    1.0000 </r>
       <r>    7.5297    1.0000 </r>
       <r>    7.5860    1.0000 </r>
       <r>    8.3417    1.0000 </r>
       <r>    8.5906    1.0000 </r>
       <r>   25.5054    0.0000 </r>
       <r>   32.5707    0.0000 </r>
       <r>   33.2927    0.0000 </r>
       <r>   37.7610    0.0000 </r>
       <r>   38.1091    0.0000 </r>
       <r>   42.3723    0.0000 </r>
      </set>
      <set comment="kpoint 8">
       <r>    1.6968    1.0000 </r>
       <r>    7.1553    1.0000 </r>
       <r>    7.4759    1.0000 </r>
       <r>    7.4799    1.0000 </r>
       <r>    8.2206    1.0000 </r>
       <r>    8.4141    1.0000 </r>
       <r>   31.3790    0.0000 </r>
       <r>   33.7660    0.0000 </r>
       <r>   34.6859    0.0000 </r>
       <r>   36.5945    0.0000 </r>
       <r>   40.4819    0.0000 </r>
       <r>   42.3570    0.0000 </r>
      </set>
      <set comment="kpoint 9">
       <r>    2.4591    1.0000 </r>
       <r>    6.8902    1.0000 </r>
       <r>    7.6636    1.0000 </r>
       <r>    7.6933    1.0000 </r>
       <r>    8.0452    1.0000 </r>
       <r>    8.5335    1.0000 </r>
       <r>   29.8656    0.0000 </r>
       <r>   32.3769    0.0000 </r>
       <r>   32.4109    0.0000 </r>
       <r>   34.6975    0.0000 </r>
       <r>   39.9633    0.0000 </r>
       <r>   42.8320    0.0000 </r>
      </set>
      <set comment="kpoint 10">
       <r>    3.7951    1.0000 </r>
       <r>    6.6006    1.0000 </r>
       <r>    7.4543    1.0000 </r>
       <r>    7.9412    1.0000 </r>
       <r>    8.3069    1.0000 </r>
       <r>    8.9024    1.0000 </r>
       <r>   26.0494    0.0000 </r>
       <r>   28.6339    0.0000 </r>
       <r>   32.3867    0.0000 </r>
       <r>   34.3407    0.0000 </r>
       <r>   38.8935    0.0000 </r>
       <r>   42.6307    0.0000 </r>
      </set>
      <set comment="kpoint 11">
       <r>    5.1586    1.0000 </r>
       <r>    6.7179    1.0000 </r>
       <r>    7.1600    1.0000 </r>
       <r>    7.7888    1.0000 </r>
       <r>    8.9858    1.0000 </r>
       <r>   10.0728    0.0090 </r>
       <r>   20.3267    0.0000 </r>
       <r>   28.0476    0.0000 </r>
       <r>   29.9735    0.0000 </r>
       <r>   33.9621    0.0000 </r>
       <r>   40.5925    0.0000 </r>
       <r>   42.9929    0.0000 </r>
      </set>
      <set comment="kpoint 12">
       <r>    5.4634    1.0000 </r>
       <r>    6.7498    1.0000 </r>
       <r>    7.5883    1.0000 </r>
       <r>    7.6481    1.0000 </r>
       <r>    9.1790    1.0000 </r>
       <r>   12.2221    0.0000 </r>
       <r>   16.2581    0.0000 </r>
       <r>   27.4749    0.0000 </r>
       <r>   29.2398    0.0000 </r>
       <r>   33.7856    0.0000 </r>
       <r>   39.7281    0.0000 </r>
       <r>   43.3685    0.0000 </r>
      </set>
      <set comment="kpoint 13">
       <r>    5.3929    1.0000 </r>
       <r>    6.8926    1.0000 </r>
       <r>    7.2326    1.0000 </r>
       <r>    7.6815    1.0000 </r>
       <r>    8.8723    1.0000 </r>
       <r>   10.9058    0.0000 </r>
       <r>   18.6804    0.0000 </r>
       <r>   26.6462    0.0000 </r>
       <r>   30.8154    0.0000 </r>
       <r>   34.8686    0.0000 </r>
       <r>   39.1094    0.0000 </r>
       <r>   42.7592    0.0000 </r>
      </set>
      <set comment="kpoint 14">
       <r>    4.3687    1.0000 </r>
       <r>    6.6724    1.0000 </r>
       <r>    7.2876    1.0000 </r>
       <r>    7.8754    1.0000 </r>
       <r>    8.2422    1.0000 </r>
       <r>    9.3872    1.0000 </r>
       <r>   24.0741    0.0000 </r>
       <r>   26.7863    0.0000 </r>
       <r>   33.3411    0.0000 </r>
       <r>   36.8013    0.0000 </r>
       <r>   38.5961    0.0000 </r>
       <r>   41.5211    0.0000 </r>
      </set>
      <set comment="kpoint 15">
       <r>    2.8183    1.0000 </r>
       <r>    6.8883    1.0000 </r>
       <r>    7.5643    1.0000 </r>
       <r>    7.6958    1.0000 </r>
       <r>    8.1204    1.0000 </r>
       <r>    8.6201    1.0000 </r>
       <r>   27.7336    0.0000 </r>
       <r>   30.3549    0.0000 </r>
       <r>   34.7526    0.0000 </r>
       <r>   36.5229    0.0000 </r>
       <r>   39.8840    0.0000 </r>
       <r>   41.3064    0.0000 </r>
      </set>
      <set comment="kpoint 16">
       <r>    4.4661    1.0000 </r>
       <r>    6.1987    1.0000 </r>
       <r>    7.7638    1.0000 </r>
       <r>    8.3519    1.0000 </r>
       <r>    8.6762    1.0000 </r>
       <r>    8.8735    1.0000 </r>
       <r>   26.6359    0.0000 </r>
       <r>   28.2827    0.0000 </r>
       <r>   28.3990    0.0000 </r>
       <r>   31.1710    0.0000 </r>
       <r>   35.5034    0.0000 </r>
       <r>   46.8464    0.0000 </r>
      </set>
      <set comment="kpoint 17">
       <r>    5.2008    1.0000 </r>
       <r>    5.9999    1.0000 </r>
       <r>    7.7109    1.0000 </r>
       <r>    8.5846    1.0000 </r>
       <r>    9.0316    1.0000 </r>
       <r>   10.3293    0.0000 </r>
       <r>   23.2717    0.0000 </r>
       <r>   25.2075    0.0000 </r>
       <r>   26.1264    0.0000 </r>
       <r>   32.3877    0.0000 </r>
       <r>   36.6859    0.0000 </r>
       <r>   46.1591    0.0000 </r>
      </set>
      <set comment="kpoint 18">
       <r>    5.6805    1.0000 </r>
       <r>    6.1287    1.0000 </r>
       <r>    7.4234    1.0000 </r>
       <r>    8.3135    1.0000 </r>
       <r>    9.2415    1.0000 </r>
       <r>   13.4410    0.0000 </r>
       <r>   18.2354    0.0000 </r>
       <r>   23.0259    0.0000 </r>
       <r>   26.3287    0.0000 </r>
       <r>   32.8134    0.0000 </r>
       <r>   41.5772    0.0000 </r>
       <r>   44.4739    0.0000 </r>
      </set>
      <set comment="kpoint 19">
       <r>    6.1394    1.0000 </r>
       <r>    6.2936    1.0000 </r>
       <r>    6.9875    1.0000 </r>
       <r>    8.1219    1.0000 </r>
       <r>    8.9398    1.0000 </r>
       <r>   13.7435    0.0000 </r>
       <r>   18.0814    0.0000 </r>
       <r>   21.7222    0.0000 </r>
       <r>   28.0273    0.0000 </r>
       <r>   33.6831    0.0000 </r>
       <r>   42.3357    0.0000 </r>
       <r>   46.3908    0.0000 </r>
      </set>
      <set comment="kpoint 20">
       <r>    5.6718    1.0000 </r>
       <r>    6.6883    1.0000 </r>
       <r>    6.8348    1.0000 </r>
       <r>    7.9523    1.0000 </r>
       <r>    8.5795    1.0000 </r>
       <r>   10.9908    0.0000 </r>
       <r>   20.8573    0.0000 </r>
       <r>   23.8262    0.0000 </r>
       <r>   30.5759    0.0000 </r>
       <r>   35.4110    0.0000 </r>
       <r>   39.6219    0.0000 </r>
       <r>   44.1675    0.0000 </r>
      </set>
      <set comment="kpoint 21">
       <r>    4.4800    1.0000 </r>
       <r>    6.9419    1.0000 </r>
       <r>    7.3017    1.0000 </r>
       <r>    7.6022    1.0000 </r>
       <r>    8.6343    1.0000 </r>
       <r>    9.2613    1.0000 </r>
       <r>   21.7899    0.0000 </r>
       <r>   29.5220    0.0000 </r>
       <r>   33.0292    0.0000 </r>
       <r>   35.5381    0.0000 </r>
       <r>   39.2245    0.0000 </r>
       <r>   40.7270    0.0000 </r>
      </set>
      <set comment="kpoint 22">
       <r>    4.9969    1.0000 </r>
       <r>    5.6472    1.0000 </r>
       <r>    8.9208    1.0000 </r>
       <r>    8.9517    1.0000 </r>
       <r>    9.2639    1.0000 </r>
       <r>   10.9986    0.0000 </r>
       <r>   21.9573    0.0000 </r>
       <r>   24.3346    0.0000 </r>
       <r>   25.5035    0.0000 </r>
       <r>   30.2996    0.0000 </r>
       <r>   34.1267    0.0000 </r>
       <r>   47.0119    0.0000 </r>
      </set>
      <set comment="kpoint 23">
       <r>    5.1430    1.0000 </r>
       <r>    5.6705    1.0000 </r>
       <r>    8.5214    1.0000 </r>
       <r>    8.9014    1.0000 </r>
       <r>    9.3991    1.0000 </r>
       <r>   13.4974    0.0000 </r>
       <r>   19.8310    0.0000 </r>
       <r>   21.9358    0.0000 </r>
       <r>   24.3656    0.0000 </r>
       <r>   31.7506    0.0000 </r>
       <r>   36.0251    0.0000 </r>
       <r>   46.9854    0.0000 </r>
      </set>
      <set comment="kpoint 24">
       <r>    5.6353    1.0000 </r>
       <r>    6.0376    1.0000 </r>
       <r>    7.5921    1.0000 </r>
       <r>    8.4834    1.0000 </r>
       <r>    9.2318    1.0000 </r>
       <r>   15.4521    0.0000 </r>
       <r>   17.6073    0.0000 </r>
       <r>   20.5518    0.0000 </r>
       <r>   25.8655    0.0000 </r>
       <r>   32.6496    0.0000 </r>
       <r>   41.5403    0.0000 </r>
       <r>   45.6194    0.0000 </r>
      </set>
      <set comment="kpoint 25">
       <r>    5.8256    1.0000 </r>
       <r>    6.4607    1.0000 </r>
       <r>    7.2783    1.0000 </r>
       <r>    7.8902    1.0000 </r>
       <r>    9.0849    1.0000 </r>
       <r>   13.4359    0.0000 </r>
       <r>   16.5154    0.0000 </r>
       <r>   24.4583    0.0000 </r>
       <r>   28.3885    0.0000 </r>
       <r>   33.7009    0.0000 </r>
       <r>   41.0655    0.0000 </r>
       <r>   45.4910    0.0000 </r>
      </set>
      <set comment="kpoint 26">
       <r>    5.1404    1.0000 </r>
       <r>    7.0472    1.0000 </r>
       <r>    7.4240    1.0000 </r>
       <r>    7.9271    1.0000 </r>
       <r>    9.1249    1.0000 </r>
       <r>   10.6994    0.0000 </r>
       <r>   16.9889    0.0000 </r>
       <r>   29.4442    0.0000 </r>
       <r>   31.4706    0.0000 </r>
       <r>   34.0518    0.0000 </r>
       <r>   38.6633    0.0000 </r>
       <r>   40.8191    0.0000 </r>
      </set>
      <set comment="kpoint 27">
       <r>    4.9390    1.0000 </r>
       <r>    5.5221    1.0000 </r>
       <r>    9.0633    1.0000 </r>
       <r>    9.1949    1.0000 </r>
       <r>    9.4111    1.0000 </r>
       <r>   12.5280    0.0000 </r>
       <r>   19.7321    0.0000 </r>
       <r>   23.7581    0.0000 </r>
       <r>   24.8855    0.0000 </r>
       <r>   30.1580    0.0000 </r>
       <r>   33.9515    0.0000 </r>
       <r>   47.0560    0.0000 </r>
      </set>
      <set comment="kpoint 28">
       <r>    5.2146    1.0000 </r>
       <r>    5.7845    1.0000 </r>
       <r>    8.1955    1.0000 </r>
       <r>    8.8296    1.0000 </r>
       <r>    9.2546    1.0000 </r>
       <r>   11.8984    0.0000 </r>
       <r>   21.9763    0.0000 </r>
       <r>   22.6250    0.0000 </r>
       <r>   24.9151    0.0000 </r>
       <r>   31.9526    0.0000 </r>
       <r>   36.2213    0.0000 </r>
       <r>   46.8557    0.0000 </r>
      </set>
      <set comment="kpoint 29">
       <r>    5.5734    1.0000 </r>
       <r>    6.3777    1.0000 </r>
       <r>    7.2246    1.0000 </r>
       <r>    8.0506    1.0000 </r>
       <r>    9.1835    1.0000 </r>
       <r>   11.5122    0.0000 </r>
       <r>   19.1327    0.0000 </r>
       <r>   26.0645    0.0000 </r>
       <r>   27.3509    0.0000 </r>
       <r>   33.2009    0.0000 </r>
       <r>   41.4087    0.0000 </r>
       <r>   43.5175    0.0000 </r>
      </set>
      <set comment="kpoint 30">
       <r>    4.9578    1.0000 </r>
       <r>    5.8827    1.0000 </r>
       <r>    8.3551    1.0000 </r>
       <r>    8.7018    1.0000 </r>
       <r>    9.0645    1.0000 </r>
       <r>    9.5056    1.0000 </r>
       <r>   24.8614    0.0000 </r>
       <r>   25.5445    0.0000 </r>
       <r>   26.6704    0.0000 </r>
       <r>   30.6087    0.0000 </r>
       <r>   34.5757    0.0000 </r>
       <r>   46.9522    0.0000 </r>
      </set>
      <set comment="kpoint 31">
       <r>    4.7387    1.0000 </r>
       <r>    6.2871    1.0000 </r>
       <r>    7.3936    1.0000 </r>
       <r>    8.2510    1.0000 </r>
       <r>    8.7035    1.0000 </r>
       <r>    9.3627    1.0000 </r>
       <r>   24.5493    0.0000 </r>
       <r>   27.0333    0.0000 </r>
       <r>   29.0654    0.0000 </r>
       <r>   33.1268    0.0000 </r>
       <r>   37.5378    0.0000 </r>
       <r>   44.5634    0.0000 </r>
      </set>
      <set comment="kpoint 32">
       <r>    3.4783    1.0000 </r>
       <r>    6.5524    1.0000 </r>
       <r>    7.6666    1.0000 </r>
       <r>    7.9948    1.0000 </r>
       <r>    8.1960    1.0000 </r>
       <r>    8.6926    1.0000 </r>
       <r>   28.2336    0.0000 </r>
       <r>   30.2319    0.0000 </r>
       <r>   30.9813    0.0000 </r>
       <r>   32.4486    0.0000 </r>
       <r>   37.2422    0.0000 </r>
       <r>   45.3240    0.0000 </r>
      </set>
      <set comment="kpoint 33">
       <r>    2.4506    1.0000 </r>
       <r>    7.0625    1.0000 </r>
       <r>    7.5293    1.0000 </r>
       <r>    7.5293    1.0000 </r>
       <r>    8.3544    1.0000 </r>
       <r>    8.3544    1.0000 </r>
       <r>   27.4523    0.0000 </r>
       <r>   33.5548    0.0000 </r>
       <r>   35.6083    0.0000 </r>
       <r>   35.6083    0.0000 </r>
       <r>   41.0330    0.0000 </r>
       <r>   41.4784    0.0000 </r>
      </set>
      <set comment="kpoint 34">
       <r>    3.4927    1.0000 </r>
       <r>    6.8261    1.0000 </r>
       <r>    7.4773    1.0000 </r>
       <r>    7.7528    1.0000 </r>
       <r>    8.0802    1.0000 </r>
       <r>    8.9261    1.0000 </r>
       <r>   25.7895    0.0000 </r>
       <r>   28.4602    0.0000 </r>
       <r>   36.0167    0.0000 </r>
       <r>   37.9486    0.0000 </r>
       <r>   38.0453    0.0000 </r>
       <r>   39.9055    0.0000 </r>
      </set>
      <set comment="kpoint 35">
       <r>    5.0604    1.0000 </r>
       <r>    6.7199    1.0000 </r>
       <r>    7.1225    1.0000 </r>
       <r>    7.8071    1.0000 </r>
       <r>    8.3215    1.0000 </r>
       <r>   10.0427    0.0651 </r>
       <r>   22.3432    0.0000 </r>
       <r>   25.1635    0.0000 </r>
       <r>   34.0721    0.0000 </r>
       <r>   34.5500    0.0000 </r>
       <r>   39.8838    0.0000 </r>
       <r>   41.5474    0.0000 </r>
      </set>
      <set comment="kpoint 36">
       <r>    5.6047    1.0000 </r>
       <r>    6.7432    1.0000 </r>
       <r>    7.3725    1.0000 </r>
       <r>    7.6964    1.0000 </r>
       <r>    8.9318    1.0000 </r>
       <r>   12.0312    0.0000 </r>
       <r>   17.3728    0.0000 </r>
       <r>   25.4082    0.0000 </r>
       <r>   31.5056    0.0000 </r>
       <r>   32.4524    0.0000 </r>
       <r>   41.7839    0.0000 </r>
       <r>   41.9381    0.0000 </r>
      </set>
      <set comment="kpoint 37">
       <r>    5.5090    1.0000 </r>
       <r>    6.6068    1.0000 </r>
       <r>    7.4074    1.0000 </r>
       <r>    7.7702    1.0000 </r>
       <r>    9.2462    1.0000 </r>
       <r>   11.8770    0.0000 </r>
       <r>   17.3354    0.0000 </r>
       <r>   26.7412    0.0000 </r>
       <r>   29.6419    0.0000 </r>
       <r>   31.9684    0.0000 </r>
       <r>   42.8554    0.0000 </r>
       <r>   42.9478    0.0000 </r>
      </set>
      <set comment="kpoint 38">
       <r>    4.9093    1.0000 </r>
       <r>    6.4301    1.0000 </r>
       <r>    7.2911    1.0000 </r>
       <r>    7.9525    1.0000 </r>
       <r>    9.0753    1.0000 </r>
       <r>    9.4692    1.0000 </r>
       <r>   22.2975    0.0000 </r>
       <r>   28.8678    0.0000 </r>
       <r>   29.2396    0.0000 </r>
       <r>   32.3446    0.0000 </r>
       <r>   39.9341    0.0000 </r>
       <r>   44.1023    0.0000 </r>
      </set>
      <set comment="kpoint 39">
       <r>    4.0485    1.0000 </r>
       <r>    6.7134    1.0000 </r>
       <r>    7.3902    1.0000 </r>
       <r>    7.7278    1.0000 </r>
       <r>    8.6849    1.0000 </r>
       <r>    8.8473    1.0000 </r>
       <r>   23.7853    0.0000 </r>
       <r>   31.1286    0.0000 </r>
       <r>   31.2116    0.0000 </r>
       <r>   34.4260    0.0000 </r>
       <r>   40.5121    0.0000 </r>
       <r>   41.8404    0.0000 </r>
      </set>
      <set comment="kpoint 40">
       <r>    5.2015    1.0000 </r>
       <r>    6.4594    1.0000 </r>
       <r>    7.0588    1.0000 </r>
       <r>    8.1257    1.0000 </r>
       <r>    8.5917    1.0000 </r>
       <r>   10.0992    0.0009 </r>
       <r>   22.5933    0.0000 </r>
       <r>   25.3498    0.0000 </r>
       <r>   29.6952    0.0000 </r>
       <r>   35.8739    0.0000 </r>
       <r>   38.9516    0.0000 </r>
       <r>   42.3021    0.0000 </r>
      </set>
      <set comment="kpoint 41">
       <r>    6.0280    1.0000 </r>
       <r>    6.4520    1.0000 </r>
       <r>    6.7447    1.0000 </r>
       <r>    8.1872    1.0000 </r>
       <r>    8.9060    1.0000 </r>
       <r>   12.4226    0.0000 </r>
       <r>   19.6302    0.0000 </r>
       <r>   22.7944    0.0000 </r>
       <r>   26.9814    0.0000 </r>
       <r>   36.7303    0.0000 </r>
       <r>   39.0145    0.0000 </r>
       <r>   44.3088    0.0000 </r>
      </set>
      <set comment="kpoint 42">
       <r>    6.0104    1.0000 </r>
       <r>    6.2441    1.0000 </r>
       <r>    7.0798    1.0000 </r>
       <r>    8.1388    1.0000 </r>
       <r>    9.1796    1.0000 </r>
       <r>   14.3663    0.0000 </r>
       <r>   16.8529    0.0000 </r>
       <r>   23.7502    0.0000 </r>
       <r>   25.1978    0.0000 </r>
       <r>   35.5767    0.0000 </r>
       <r>   40.3499    0.0000 </r>
       <r>   45.4185    0.0000 </r>
      </set>
      <set comment="kpoint 43">
       <r>    5.6121    1.0000 </r>
       <r>    6.2295    1.0000 </r>
       <r>    7.1135    1.0000 </r>
       <r>    8.4127    1.0000 </r>
       <r>    8.9406    1.0000 </r>
       <r>   11.3113    0.0000 </r>
       <r>   21.3688    0.0000 </r>
       <r>   24.1514    0.0000 </r>
       <r>   26.1864    0.0000 </r>
       <r>   35.1479    0.0000 </r>
       <r>   39.0383    0.0000 </r>
       <r>   43.0508    0.0000 </r>
      </set>
      <set comment="kpoint 44">
       <r>    5.3541    1.0000 </r>
       <r>    6.1337    1.0000 </r>
       <r>    7.5120    1.0000 </r>
       <r>    8.2338    1.0000 </r>
       <r>    9.2354    1.0000 </r>
       <r>   10.7560    0.0000 </r>
       <r>   21.0622    0.0000 </r>
       <r>   25.6550    0.0000 </r>
       <r>   27.7158    0.0000 </r>
       <r>   31.5601    0.0000 </r>
       <r>   39.1493    0.0000 </r>
       <r>   46.2782    0.0000 </r>
      </set>
      <set comment="kpoint 45">
       <r>    5.5811    1.0000 </r>
       <r>    6.0540    1.0000 </r>
       <r>    7.4455    1.0000 </r>
       <r>    8.5832    1.0000 </r>
       <r>    9.2204    1.0000 </r>
       <r>   13.0621    0.0000 </r>
       <r>   20.4463    0.0000 </r>
       <r>   22.5929    0.0000 </r>
       <r>   23.6882    0.0000 </r>
       <r>   34.6701    0.0000 </r>
       <r>   39.0150    0.0000 </r>
       <r>   44.1995    0.0000 </r>
      </set>
      <set comment="kpoint 46">
       <r>    5.7796    1.0000 </r>
       <r>    6.4001    1.0000 </r>
       <r>    6.9967    1.0000 </r>
       <r>    8.3440    1.0000 </r>
       <r>    9.3942    1.0000 </r>
       <r>   16.4292    0.0000 </r>
       <r>   18.1644    0.0000 </r>
       <r>   20.6581    0.0000 </r>
       <r>   22.0444    0.0000 </r>
       <r>   37.6151    0.0000 </r>
       <r>   40.9812    0.0000 </r>
       <r>   42.6614    0.0000 </r>
      </set>
      <set comment="kpoint 47">
       <r>    5.9340    1.0000 </r>
       <r>    6.4038    1.0000 </r>
       <r>    6.8496    1.0000 </r>
       <r>    8.3212    1.0000 </r>
       <r>    9.2046    1.0000 </r>
       <r>   14.3454    0.0000 </r>
       <r>   18.7135    0.0000 </r>
       <r>   22.0260    0.0000 </r>
       <r>   23.7366    0.0000 </r>
       <r>   37.6034    0.0000 </r>
       <r>   39.3702    0.0000 </r>
       <r>   43.6662    0.0000 </r>
      </set>
      <set comment="kpoint 48">
       <r>    5.3245    1.0000 </r>
       <r>    5.7994    1.0000 </r>
       <r>    8.1783    1.0000 </r>
       <r>    8.7252    1.0000 </r>
       <r>    9.2982    1.0000 </r>
       <r>   14.2663    0.0000 </r>
       <r>   19.3370    0.0000 </r>
       <r>   20.3882    0.0000 </r>
       <r>   26.0798    0.0000 </r>
       <r>   31.0916    0.0000 </r>
       <r>   38.4504    0.0000 </r>
       <r>   46.9569    0.0000 </r>
      </set>
      <set comment="kpoint 49">
       <r>    5.4806    1.0000 </r>
       <r>    5.9657    1.0000 </r>
       <r>    7.7185    1.0000 </r>
       <r>    8.6080    1.0000 </r>
       <r>    9.3954    1.0000 </r>
       <r>   14.8806    0.0000 </r>
       <r>   19.7033    0.0000 </r>
       <r>   20.4623    0.0000 </r>
       <r>   23.1063    0.0000 </r>
       <r>   34.4354    0.0000 </r>
       <r>   38.9943    0.0000 </r>
       <r>   45.3368    0.0000 </r>
      </set>
      <set comment="kpoint 50">
       <r>    5.3895    1.0000 </r>
       <r>    5.9092    1.0000 </r>
       <r>    7.9128    1.0000 </r>
       <r>    8.5201    1.0000 </r>
       <r>    9.3041    1.0000 </r>
       <r>   12.5130    0.0000 </r>
       <r>   20.1162    0.0000 </r>
       <r>   22.5428    0.0000 </r>
       <r>   26.6392    0.0000 </r>
       <r>   31.2255    0.0000 </r>
       <r>   38.6682    0.0000 </r>
       <r>   46.8150    0.0000 </r>
      </set>
      <set comment="kpoint 51">
       <r>    4.1656    1.0000 </r>
       <r>    7.2851    1.0000 </r>
       <r>    7.4235    1.0000 </r>
       <r>    7.4235    1.0000 </r>
       <r>    8.7396    1.0000 </r>
       <r>    8.7396    1.0000 </r>
       <r>   21.5150    0.0000 </r>
       <r>   32.4408    0.0000 </r>
       <r>   34.8408    0.0000 </r>
       <r>   34.8408    0.0000 </r>
       <r>   39.1021    0.0000 </r>
       <r>   39.1021    0.0000 </r>
      </set>
      <set comment="kpoint 52">
       <r>    4.9607    1.0000 </r>
       <r>    7.1775    1.0000 </r>
       <r>    7.1892    1.0000 </r>
       <r>    7.5439    1.0000 </r>
       <r>    8.6415    1.0000 </r>
       <r>    9.9006    0.9939 </r>
       <r>   20.0896    0.0000 </r>
       <r>   27.9678    0.0000 </r>
       <r>   33.6576    0.0000 </r>
       <r>   34.8004    0.0000 </r>
       <r>   39.3603    0.0000 </r>
       <r>   39.8417    0.0000 </r>
      </set>
      <set comment="kpoint 53">
       <r>    5.9764    1.0000 </r>
       <r>    6.5981    1.0000 </r>
       <r>    6.8961    1.0000 </r>
       <r>    7.9441    1.0000 </r>
       <r>    8.7051    1.0000 </r>
       <r>   12.1624    0.0000 </r>
       <r>   19.3468    0.0000 </r>
       <r>   22.6075    0.0000 </r>
       <r>   31.1449    0.0000 </r>
       <r>   32.4962    0.0000 </r>
       <r>   42.8910    0.0000 </r>
       <r>   43.5199    0.0000 </r>
      </set>
      <set comment="kpoint 54">
       <r>    5.8797    1.0000 </r>
       <r>    6.1830    1.0000 </r>
       <r>    7.3256    1.0000 </r>
       <r>    8.2822    1.0000 </r>
       <r>    9.0519    1.0000 </r>
       <r>   15.2942    0.0000 </r>
       <r>   16.8261    0.0000 </r>
       <r>   20.9868    0.0000 </r>
       <r>   28.2517    0.0000 </r>
       <r>   31.6042    0.0000 </r>
       <r>   44.6024    0.0000 </r>
       <r>   45.9828    0.0000 </r>
      </set>
      <set comment="kpoint 55">
       <r>    5.1206    1.0000 </r>
       <r>    6.9827    1.0000 </r>
       <r>    7.4802    1.0000 </r>
       <r>    7.5485    1.0000 </r>
       <r>    9.1935    1.0000 </r>
       <r>   10.1983    0.0000 </r>
       <r>   18.4225    0.0000 </r>
       <r>   29.7307    0.0000 </r>
       <r>   30.9961    0.0000 </r>
       <r>   32.8439    0.0000 </r>
       <r>   40.7738    0.0000 </r>
       <r>   41.4076    0.0000 </r>
      </set>
      <set comment="kpoint 56">
       <r>    5.7567    1.0000 </r>
       <r>    6.5190    1.0000 </r>
       <r>    7.1683    1.0000 </r>
       <r>    7.9133    1.0000 </r>
       <r>    9.0846    1.0000 </r>
       <r>   12.4466    0.0000 </r>
       <r>   17.5715    0.0000 </r>
       <r>   25.5558    0.0000 </r>
       <r>   27.3791    0.0000 </r>
       <r>   35.3613    0.0000 </r>
       <r>   39.3362    0.0000 </r>
       <r>   45.8584    0.0000 </r>
      </set>
      <set comment="kpoint 57">
       <r>    5.9560    1.0000 </r>
       <r>    6.3087    1.0000 </r>
       <r>    7.0084    1.0000 </r>
       <r>    8.2770    1.0000 </r>
       <r>    9.2061    1.0000 </r>
       <r>   15.6983    0.0000 </r>
       <r>   17.1795    0.0000 </r>
       <r>   21.1386    0.0000 </r>
       <r>   24.7359    0.0000 </r>
       <r>   35.6201    0.0000 </r>
       <r>   41.6801    0.0000 </r>
       <r>   44.8148    0.0000 </r>
      </set>
      <set comment="kpoint 58">
       <r>    5.7826    1.0000 </r>
       <r>    6.3028    1.0000 </r>
       <r>    7.3518    1.0000 </r>
       <r>    8.0469    1.0000 </r>
       <r>    9.1765    1.0000 </r>
       <r>   13.8508    0.0000 </r>
       <r>   16.6404    0.0000 </r>
       <r>   23.5956    0.0000 </r>
       <r>   28.7188    0.0000 </r>
       <r>   31.6900    0.0000 </r>
       <r>   44.2644    0.0000 </r>
       <r>   44.6084    0.0000 </r>
      </set>
      <set comment="kpoint 59">
       <r>    4.8781    1.0000 </r>
       <r>    7.2508    1.0000 </r>
       <r>    7.2508    1.0000 </r>
       <r>    9.1438    1.0000 </r>
       <r>    9.1475    1.0000 </r>
       <r>    9.1475    1.0000 </r>
       <r>   16.8291    0.0000 </r>
       <r>   31.5435    0.0000 </r>
       <r>   34.4982    0.0000 </r>
       <r>   34.4982    0.0000 </r>
       <r>   37.3428    0.0000 </r>
       <r>   37.3428    0.0000 </r>
      </set>
      <set comment="kpoint 60">
       <r>    5.2514    1.0000 </r>
       <r>    6.9625    1.0000 </r>
       <r>    7.4485    1.0000 </r>
       <r>    7.9565    1.0000 </r>
       <r>    9.1327    1.0000 </r>
       <r>   11.4993    0.0000 </r>
       <r>   16.1563    0.0000 </r>
       <r>   28.4410    0.0000 </r>
       <r>   32.2236    0.0000 </r>
       <r>   32.5408    0.0000 </r>
       <r>   39.9544    0.0000 </r>
       <r>   40.4868    0.0000 </r>
      </set>
     </set>
     <set comment="spin 2">
      <set comment="kpoint 1">
       <r>    1.2876    1.0000 </r>
       <r>    8.8506    1.0000 </r>
       <r>    8.9446    1.0000 </r>
       <r>    8.9446    1.0000 </r>
       <r>   10.2469    0.0000 </r>
       <r>   10.2469    0.0000 </r>
       <r>   32.2160    0.0000 </r>
       <r>   35.3550    0.0000 </r>
       <r>   36.8852    0.0000 </r>
       <r>   36.8852    0.0000 </r>
       <r>   40.7629    0.0000 </r>
       <r>   40.7629    0.0000 </r>
      </set>
      <set comment="kpoint 2">
       <r>    2.0803    1.0000 </r>
       <r>    8.5861    1.0000 </r>
       <r>    9.1149    1.0000 </r>
       <r>    9.1227    1.0000 </r>
       <r>   10.0661    0.0148 </r>
       <r>   10.3216    0.0000 </r>
       <r>   29.7452    0.0000 </r>
       <r>   32.2543    0.0000 </r>
       <r>   35.6905    0.0000 </r>
       <r>   37.8929    0.0000 </r>
       <r>   39.4420    0.0000 </r>
       <r>   40.8635    0.0000 </r>
      </set>
      <set comment="kpoint 3">
       <r>    3.8359    1.0000 </r>
       <r>    8.2714    1.0000 </r>
       <r>    9.1021    1.0000 </r>
       <r>    9.2011    1.0000 </r>
       <r>   10.2165    0.0000 </r>
       <r>   10.6594    0.0000 </r>
       <r>   23.9411    0.0000 </r>
       <r>   31.1710    0.0000 </r>
       <r>   34.6507    0.0000 </r>
       <r>   37.5413    0.0000 </r>
       <r>   38.6515    0.0000 </r>
       <r>   39.5019    0.0000 </r>
      </set>
      <set comment="kpoint 4">
       <r>    5.5319    1.0000 </r>
       <r>    8.6810    1.0000 </r>
       <r>    8.9087    1.0000 </r>
       <r>    9.0055    1.0000 </r>
       <r>   10.7800    0.0000 </r>
       <r>   11.2365    0.0000 </r>
       <r>   18.9161    0.0000 </r>
       <r>   30.6007    0.0000 </r>
       <r>   33.4825    0.0000 </r>
       <r>   35.4020    0.0000 </r>
       <r>   37.8444    0.0000 </r>
       <r>   39.3365    0.0000 </r>
      </set>
      <set comment="kpoint 5">
       <r>    5.9016    1.0000 </r>
       <r>    8.7550    1.0000 </r>
       <r>    8.9466    1.0000 </r>
       <r>    9.3396    1.0000 </r>
       <r>   11.0860    0.0000 </r>
       <r>   11.5056    0.0000 </r>
       <r>   17.0163    0.0000 </r>
       <r>   30.6160    0.0000 </r>
       <r>   33.5686    0.0000 </r>
       <r>   33.7004    0.0000 </r>
       <r>   38.6430    0.0000 </r>
       <r>   38.6431    0.0000 </r>
      </set>
      <set comment="kpoint 6">
       <r>    5.0896    1.0000 </r>
       <r>    8.3911    1.0000 </r>
       <r>    8.9476    1.0000 </r>
       <r>    9.0855    1.0000 </r>
       <r>   10.7768    0.0000 </r>
       <r>   10.8806    0.0000 </r>
       <r>   20.4123    0.0000 </r>
       <r>   31.3231    0.0000 </r>
       <r>   33.0634    0.0000 </r>
       <r>   35.4320    0.0000 </r>
       <r>   38.4462    0.0000 </r>
       <r>   40.2963    0.0000 </r>
      </set>
      <set comment="kpoint 7">
       <r>    3.1791    1.0000 </r>
       <r>    8.3273    1.0000 </r>
       <r>    9.1690    1.0000 </r>
       <r>    9.2184    1.0000 </r>
       <r>   10.1353    0.0000 </r>
       <r>   10.4607    0.0000 </r>
       <r>   25.8595    0.0000 </r>
       <r>   32.4162    0.0000 </r>
       <r>   33.6131    0.0000 </r>
       <r>   37.9337    0.0000 </r>
       <r>   38.2634    0.0000 </r>
       <r>   42.4495    0.0000 </r>
      </set>
      <set comment="kpoint 8">
       <r>    1.6893    1.0000 </r>
       <r>    8.6844    1.0000 </r>
       <r>    9.0586    1.0000 </r>
       <r>    9.0636    1.0000 </r>
       <r>   10.0904    0.0021 </r>
       <r>   10.3163    0.0000 </r>
       <r>   31.3711    0.0000 </r>
       <r>   33.7511    0.0000 </r>
       <r>   34.9548    0.0000 </r>
       <r>   36.6590    0.0000 </r>
       <r>   40.6451    0.0000 </r>
       <r>   42.4175    0.0000 </r>
      </set>
      <set comment="kpoint 9">
       <r>    2.4629    1.0000 </r>
       <r>    8.3694    1.0000 </r>
       <r>    9.2757    1.0000 </r>
       <r>    9.2969    1.0000 </r>
       <r>    9.8418    1.0000 </r>
       <r>   10.4450    0.0000 </r>
       <r>   30.0529    0.0000 </r>
       <r>   32.3432    0.0000 </r>
       <r>   32.7171    0.0000 </r>
       <r>   34.7362    0.0000 </r>
       <r>   40.5957    0.0000 </r>
       <r>   42.9087    0.0000 </r>
      </set>
      <set comment="kpoint 10">
       <r>    3.8682    1.0000 </r>
       <r>    7.9968    1.0000 </r>
       <r>    9.0964    1.0000 </r>
       <r>    9.5982    1.0000 </r>
       <r>   10.0135    0.2457 </r>
       <r>   10.7535    0.0000 </r>
       <r>   26.3871    0.0000 </r>
       <r>   28.8721    0.0000 </r>
       <r>   32.4958    0.0000 </r>
       <r>   34.4755    0.0000 </r>
       <r>   39.3985    0.0000 </r>
       <r>   42.6541    0.0000 </r>
      </set>
      <set comment="kpoint 11">
       <r>    5.6579    1.0000 </r>
       <r>    7.8981    1.0000 </r>
       <r>    8.6829    1.0000 </r>
       <r>    9.4789    1.0000 </r>
       <r>   10.7860    0.0000 </r>
       <r>   11.5746    0.0000 </r>
       <r>   20.8618    0.0000 </r>
       <r>   28.2577    0.0000 </r>
       <r>   30.2240    0.0000 </r>
       <r>   34.1426    0.0000 </r>
       <r>   40.6993    0.0000 </r>
       <r>   43.2427    0.0000 </r>
      </set>
      <set comment="kpoint 12">
       <r>    6.4348    1.0000 </r>
       <r>    8.0838    1.0000 </r>
       <r>    8.7739    1.0000 </r>
       <r>    9.3256    1.0000 </r>
       <r>   11.0331    0.0000 </r>
       <r>   13.0983    0.0000 </r>
       <r>   17.1243    0.0000 </r>
       <r>   27.6727    0.0000 </r>
       <r>   29.5535    0.0000 </r>
       <r>   33.8764    0.0000 </r>
       <r>   39.9167    0.0000 </r>
       <r>   43.4483    0.0000 </r>
      </set>
      <set comment="kpoint 13">
       <r>    6.1029    1.0000 </r>
       <r>    8.1245    1.0000 </r>
       <r>    8.5722    1.0000 </r>
       <r>    9.3762    1.0000 </r>
       <r>   10.6688    0.0000 </r>
       <r>   12.2433    0.0000 </r>
       <r>   19.3172    0.0000 </r>
       <r>   26.9158    0.0000 </r>
       <r>   31.0297    0.0000 </r>
       <r>   34.9684    0.0000 </r>
       <r>   39.2882    0.0000 </r>
       <r>   42.8541    0.0000 </r>
      </set>
      <set comment="kpoint 14">
       <r>    4.4983    1.0000 </r>
       <r>    8.0230    1.0000 </r>
       <r>    8.8949    1.0000 </r>
       <r>    9.5807    1.0000 </r>
       <r>    9.9736    0.6710 </r>
       <r>   11.1483    0.0000 </r>
       <r>   24.4799    0.0000 </r>
       <r>   27.0723    0.0000 </r>
       <r>   33.4520    0.0000 </r>
       <r>   36.8889    0.0000 </r>
       <r>   38.7001    0.0000 </r>
       <r>   41.8162    0.0000 </r>
      </set>
      <set comment="kpoint 15">
       <r>    2.8322    1.0000 </r>
       <r>    8.3390    1.0000 </r>
       <r>    9.1847    1.0000 </r>
       <r>    9.3145    1.0000 </r>
       <r>    9.9254    0.9645 </r>
       <r>   10.4950    0.0000 </r>
       <r>   28.0124    0.0000 </r>
       <r>   30.5217    0.0000 </r>
       <r>   34.7915    0.0000 </r>
       <r>   36.5418    0.0000 </r>
       <r>   40.1727    0.0000 </r>
       <r>   41.5191    0.0000 </r>
      </set>
      <set comment="kpoint 16">
       <r>    4.7144    1.0000 </r>
       <r>    7.5593    1.0000 </r>
       <r>    9.2227    1.0000 </r>
       <r>   10.0414    0.0699 </r>
       <r>   10.2833    0.0000 </r>
       <r>   10.8006    0.0000 </r>
       <r>   26.9261    0.0000 </r>
       <r>   28.5599    0.0000 </r>
       <r>   28.6170    0.0000 </r>
       <r>   31.3858    0.0000 </r>
       <r>   35.9926    0.0000 </r>
       <r>   47.9629    0.0000 </r>
      </set>
      <set comment="kpoint 17">
       <r>    5.9045    1.0000 </r>
       <r>    7.2992    1.0000 </r>
       <r>    9.0089    1.0000 </r>
       <r>   10.3452    0.0000 </r>
       <r>   10.8428    0.0000 </r>
       <r>   11.6751    0.0000 </r>
       <r>   23.6320    0.0000 </r>
       <r>   25.5500    0.0000 </r>
       <r>   26.4505    0.0000 </r>
       <r>   32.5977    0.0000 </r>
       <r>   37.0554    0.0000 </r>
       <r>   46.5030    0.0000 </r>
      </set>
      <set comment="kpoint 18">
       <r>    6.8157    1.0000 </r>
       <r>    7.3218    1.0000 </r>
       <r>    8.6807    1.0000 </r>
       <r>   10.1027    0.0007 </r>
       <r>   11.0787    0.0000 </r>
       <r>   14.2765    0.0000 </r>
       <r>   18.7798    0.0000 </r>
       <r>   23.4858    0.0000 </r>
       <r>   26.6232    0.0000 </r>
       <r>   32.9984    0.0000 </r>
       <r>   41.8339    0.0000 </r>
       <r>   44.7271    0.0000 </r>
      </set>
      <set comment="kpoint 19">
       <r>    7.1491    1.0000 </r>
       <r>    7.5895    1.0000 </r>
       <r>    8.2415    1.0000 </r>
       <r>    9.9218    0.9718 </r>
       <r>   10.7053    0.0000 </r>
       <r>   14.6185    0.0000 </r>
       <r>   18.6691    0.0000 </r>
       <r>   22.2077    0.0000 </r>
       <r>   28.3285    0.0000 </r>
       <r>   33.8140    0.0000 </r>
       <r>   42.3798    0.0000 </r>
       <r>   47.1106    0.0000 </r>
      </set>
      <set comment="kpoint 20">
       <r>    6.1834    1.0000 </r>
       <r>    7.9323    1.0000 </r>
       <r>    8.3463    1.0000 </r>
       <r>    9.7095    1.0000 </r>
       <r>   10.3090    0.0000 </r>
       <r>   12.3976    0.0000 </r>
       <r>   21.3700    0.0000 </r>
       <r>   24.2010    0.0000 </r>
       <r>   30.8100    0.0000 </r>
       <r>   35.5264    0.0000 </r>
       <r>   39.6667    0.0000 </r>
       <r>   44.3036    0.0000 </r>
      </set>
      <set comment="kpoint 21">
       <r>    4.7154    1.0000 </r>
       <r>    8.1338    1.0000 </r>
       <r>    8.9323    1.0000 </r>
       <r>    9.2749    1.0000 </r>
       <r>   10.3989    0.0000 </r>
       <r>   11.0264    0.0000 </r>
       <r>   22.2800    0.0000 </r>
       <r>   29.6809    0.0000 </r>
       <r>   33.0972    0.0000 </r>
       <r>   35.8060    0.0000 </r>
       <r>   39.3632    0.0000 </r>
       <r>   40.8602    0.0000 </r>
      </set>
      <set comment="kpoint 22">
       <r>    6.0045    1.0000 </r>
       <r>    6.9233    1.0000 </r>
       <r>   10.2910    0.0000 </r>
       <r>   10.8346    0.0000 </r>
       <r>   11.1265    0.0000 </r>
       <r>   11.7635    0.0000 </r>
       <r>   22.5325    0.0000 </r>
       <r>   24.5755    0.0000 </r>
       <r>   25.6873    0.0000 </r>
       <r>   30.6260    0.0000 </r>
       <r>   34.5316    0.0000 </r>
       <r>   50.5954    0.0000 </r>
      </set>
      <set comment="kpoint 23">
       <r>    6.2969    1.0000 </r>
       <r>    6.9220    1.0000 </r>
       <r>    9.8803    0.9990 </r>
       <r>   10.8265    0.0000 </r>
       <r>   11.2135    0.0000 </r>
       <r>   13.9925    0.0000 </r>
       <r>   20.5752    0.0000 </r>
       <r>   22.2468    0.0000 </r>
       <r>   24.5931    0.0000 </r>
       <r>   32.0131    0.0000 </r>
       <r>   36.3886    0.0000 </r>
       <r>   49.3903    0.0000 </r>
      </set>
      <set comment="kpoint 24">
       <r>    6.8773    1.0000 </r>
       <r>    7.2181    1.0000 </r>
       <r>    8.8485    1.0000 </r>
       <r>   10.3376    0.0000 </r>
       <r>   11.0302    0.0000 </r>
       <r>   16.0467    0.0000 </r>
       <r>   18.1407    0.0000 </r>
       <r>   21.1679    0.0000 </r>
       <r>   26.1522    0.0000 </r>
       <r>   32.8510    0.0000 </r>
       <r>   41.8554    0.0000 </r>
       <r>   45.7104    0.0000 </r>
      </set>
      <set comment="kpoint 25">
       <r>    6.8650    1.0000 </r>
       <r>    7.7214    1.0000 </r>
       <r>    8.5171    1.0000 </r>
       <r>    9.6325    1.0000 </r>
       <r>   10.9056    0.0000 </r>
       <r>   14.2409    0.0000 </r>
       <r>   17.2995    0.0000 </r>
       <r>   24.8203    0.0000 </r>
       <r>   28.6826    0.0000 </r>
       <r>   33.8088    0.0000 </r>
       <r>   41.1933    0.0000 </r>
       <r>   45.5629    0.0000 </r>
      </set>
      <set comment="kpoint 26">
       <r>    5.9842    1.0000 </r>
       <r>    8.5013    1.0000 </r>
       <r>    8.9066    1.0000 </r>
       <r>    9.1015    1.0000 </r>
       <r>   10.9721    0.0000 </r>
       <r>   11.8990    0.0000 </r>
       <r>   17.7964    0.0000 </r>
       <r>   29.4932    0.0000 </r>
       <r>   31.7249    0.0000 </r>
       <r>   34.2046    0.0000 </r>
       <r>   38.8898    0.0000 </r>
       <r>   40.9549    0.0000 </r>
      </set>
      <set comment="kpoint 27">
       <r>    6.0667    1.0000 </r>
       <r>    6.7801    1.0000 </r>
       <r>   10.7626    0.0000 </r>
       <r>   11.0288    0.0000 </r>
       <r>   11.2312    0.0000 </r>
       <r>   12.8111    0.0000 </r>
       <r>   20.5190    0.0000 </r>
       <r>   23.9629    0.0000 </r>
       <r>   25.0364    0.0000 </r>
       <r>   30.5101    0.0000 </r>
       <r>   34.3555    0.0000 </r>
       <r>   50.6694    0.0000 </r>
      </set>
      <set comment="kpoint 28">
       <r>    6.2527    1.0000 </r>
       <r>    7.0524    1.0000 </r>
       <r>    9.4789    1.0000 </r>
       <r>   10.6788    0.0000 </r>
       <r>   11.0818    0.0000 </r>
       <r>   12.7745    0.0000 </r>
       <r>   22.4405    0.0000 </r>
       <r>   23.0396    0.0000 </r>
       <r>   25.1688    0.0000 </r>
       <r>   32.1960    0.0000 </r>
       <r>   36.5823    0.0000 </r>
       <r>   48.1733    0.0000 </r>
      </set>
      <set comment="kpoint 29">
       <r>    6.4265    1.0000 </r>
       <r>    7.5883    1.0000 </r>
       <r>    8.5693    1.0000 </r>
       <r>    9.7788    1.0000 </r>
       <r>   11.0331    0.0000 </r>
       <r>   12.6525    0.0000 </r>
       <r>   19.6852    0.0000 </r>
       <r>   26.3593    0.0000 </r>
       <r>   27.6773    0.0000 </r>
       <r>   33.3673    0.0000 </r>
       <r>   41.5534    0.0000 </r>
       <r>   43.8888    0.0000 </r>
      </set>
      <set comment="kpoint 30">
       <r>    5.6333    1.0000 </r>
       <r>    7.1938    1.0000 </r>
       <r>    9.5438    1.0000 </r>
       <r>   10.4712    0.0000 </r>
       <r>   10.8888    0.0000 </r>
       <r>   10.9778    0.0000 </r>
       <r>   25.2078    0.0000 </r>
       <r>   25.8720    0.0000 </r>
       <r>   26.9028    0.0000 </r>
       <r>   30.8859    0.0000 </r>
       <r>   34.9992    0.0000 </r>
       <r>   50.3053    0.0000 </r>
      </set>
      <set comment="kpoint 31">
       <r>    5.0127    1.0000 </r>
       <r>    7.6301    1.0000 </r>
       <r>    8.9118    1.0000 </r>
       <r>    9.9512    0.8591 </r>
       <r>   10.4177    0.0000 </r>
       <r>   11.0841    0.0000 </r>
       <r>   24.9130    0.0000 </r>
       <r>   27.3021    0.0000 </r>
       <r>   29.3279    0.0000 </r>
       <r>   33.2996    0.0000 </r>
       <r>   37.9491    0.0000 </r>
       <r>   44.6655    0.0000 </r>
      </set>
      <set comment="kpoint 32">
       <r>    3.5319    1.0000 </r>
       <r>    7.9717    1.0000 </r>
       <r>    9.3300    1.0000 </r>
       <r>    9.6321    1.0000 </r>
       <r>    9.8467    1.0000 </r>
       <r>   10.6144    0.0000 </r>
       <r>   28.5076    0.0000 </r>
       <r>   30.5369    0.0000 </r>
       <r>   31.0055    0.0000 </r>
       <r>   32.5886    0.0000 </r>
       <r>   37.8430    0.0000 </r>
       <r>   45.2866    0.0000 </r>
      </set>
      <set comment="kpoint 33">
       <r>    2.4572    1.0000 </r>
       <r>    8.5144    1.0000 </r>
       <r>    9.1405    1.0000 </r>
       <r>    9.1405    1.0000 </r>
       <r>   10.2176    0.0000 </r>
       <r>   10.2176    0.0000 </r>
       <r>   27.7327    0.0000 </r>
       <r>   33.3082    0.0000 </r>
       <r>   35.8970    0.0000 </r>
       <r>   35.8970    0.0000 </r>
       <r>   40.9189    0.0000 </r>
       <r>   41.5648    0.0000 </r>
      </set>
      <set comment="kpoint 34">
       <r>    3.5374    1.0000 </r>
       <r>    8.2287    1.0000 </r>
       <r>    9.0887    1.0000 </r>
       <r>    9.4103    1.0000 </r>
       <r>    9.8778    0.9992 </r>
       <r>   10.7527    0.0000 </r>
       <r>   26.1391    0.0000 </r>
       <r>   28.6920    0.0000 </r>
       <r>   35.9548    0.0000 </r>
       <r>   37.8878    0.0000 </r>
       <r>   38.2131    0.0000 </r>
       <r>   40.2595    0.0000 </r>
      </set>
      <set comment="kpoint 35">
       <r>    5.3249    1.0000 </r>
       <r>    8.0119    1.0000 </r>
       <r>    8.6774    1.0000 </r>
       <r>    9.5643    1.0000 </r>
       <r>   10.0392    0.0786 </r>
       <r>   11.6839    0.0000 </r>
       <r>   22.8112    0.0000 </r>
       <r>   25.4977    0.0000 </r>
       <r>   34.0503    0.0000 </r>
       <r>   34.8685    0.0000 </r>
       <r>   39.8080    0.0000 </r>
       <r>   41.7635    0.0000 </r>
      </set>
      <set comment="kpoint 36">
       <r>    6.5036    1.0000 </r>
       <r>    8.0649    1.0000 </r>
       <r>    8.5604    1.0000 </r>
       <r>    9.4180    1.0000 </r>
       <r>   10.7406    0.0000 </r>
       <r>   13.0969    0.0000 </r>
       <r>   18.1023    0.0000 </r>
       <r>   25.7268    0.0000 </r>
       <r>   31.8215    0.0000 </r>
       <r>   32.4887    0.0000 </r>
       <r>   41.9698    0.0000 </r>
       <r>   41.9836    0.0000 </r>
      </set>
      <set comment="kpoint 37">
       <r>    6.4478    1.0000 </r>
       <r>    7.8314    1.0000 </r>
       <r>    8.6844    1.0000 </r>
       <r>    9.4815    1.0000 </r>
       <r>   11.1180    0.0000 </r>
       <r>   12.8793    0.0000 </r>
       <r>   18.0425    0.0000 </r>
       <r>   27.0066    0.0000 </r>
       <r>   29.9334    0.0000 </r>
       <r>   32.1151    0.0000 </r>
       <r>   42.8863    0.0000 </r>
       <r>   43.1148    0.0000 </r>
      </set>
      <set comment="kpoint 38">
       <r>    5.2528    1.0000 </r>
       <r>    7.7134    1.0000 </r>
       <r>    8.8189    1.0000 </r>
       <r>    9.6526    1.0000 </r>
       <r>   10.9660    0.0000 </r>
       <r>   10.9712    0.0000 </r>
       <r>   22.7387    0.0000 </r>
       <r>   29.0221    0.0000 </r>
       <r>   29.5319    0.0000 </r>
       <r>   32.5971    0.0000 </r>
       <r>   40.2743    0.0000 </r>
       <r>   44.1205    0.0000 </r>
      </set>
      <set comment="kpoint 39">
       <r>    4.1675    1.0000 </r>
       <r>    8.0431    1.0000 </r>
       <r>    9.0345    1.0000 </r>
       <r>    9.3884    1.0000 </r>
       <r>   10.3545    0.0000 </r>
       <r>   10.7292    0.0000 </r>
       <r>   24.1952    0.0000 </r>
       <r>   31.1546    0.0000 </r>
       <r>   31.4442    0.0000 </r>
       <r>   34.6935    0.0000 </r>
       <r>   40.7946    0.0000 </r>
       <r>   41.9487    0.0000 </r>
      </set>
      <set comment="kpoint 40">
       <r>    5.5476    1.0000 </r>
       <r>    7.7641    1.0000 </r>
       <r>    8.6003    1.0000 </r>
       <r>    9.8490    1.0000 </r>
       <r>   10.3217    0.0000 </r>
       <r>   11.6806    0.0000 </r>
       <r>   23.0337    0.0000 </r>
       <r>   25.6705    0.0000 </r>
       <r>   29.9448    0.0000 </r>
       <r>   35.9828    0.0000 </r>
       <r>   39.1079    0.0000 </r>
       <r>   42.6878    0.0000 </r>
      </set>
      <set comment="kpoint 41">
       <r>    6.8618    1.0000 </r>
       <r>    7.7530    1.0000 </r>
       <r>    8.0881    1.0000 </r>
       <r>    9.9649    0.7537 </r>
       <r>   10.6631    0.0000 </r>
       <r>   13.5018    0.0000 </r>
       <r>   20.1600    0.0000 </r>
       <r>   23.2020    0.0000 </r>
       <r>   27.3092    0.0000 </r>
       <r>   36.8175    0.0000 </r>
       <r>   39.1015    0.0000 </r>
       <r>   44.8856    0.0000 </r>
      </set>
      <set comment="kpoint 42">
       <r>    7.1576    1.0000 </r>
       <r>    7.4407    1.0000 </r>
       <r>    8.3437    1.0000 </r>
       <r>    9.9141    0.9832 </r>
       <r>   10.9908    0.0000 </r>
       <r>   15.1084    0.0000 </r>
       <r>   17.5411    0.0000 </r>
       <r>   24.1454    0.0000 </r>
       <r>   25.5580    0.0000 </r>
       <r>   35.6786    0.0000 </r>
       <r>   40.4692    0.0000 </r>
       <r>   45.9961    0.0000 </r>
      </set>
      <set comment="kpoint 43">
       <r>    6.3718    1.0000 </r>
       <r>    7.5061    1.0000 </r>
       <r>    8.4696    1.0000 </r>
       <r>   10.1807    0.0000 </r>
       <r>   10.7115    0.0000 </r>
       <r>   12.5489    0.0000 </r>
       <r>   21.8169    0.0000 </r>
       <r>   24.4898    0.0000 </r>
       <r>   26.5497    0.0000 </r>
       <r>   35.2831    0.0000 </r>
       <r>   39.2671    0.0000 </r>
       <r>   43.3662    0.0000 </r>
      </set>
      <set comment="kpoint 44">
       <r>    6.1112    1.0000 </r>
       <r>    7.3928    1.0000 </r>
       <r>    8.8233    1.0000 </r>
       <r>    9.9872    0.5231 </r>
       <r>   11.1230    0.0000 </r>
       <r>   11.9784    0.0000 </r>
       <r>   21.5056    0.0000 </r>
       <r>   26.0056    0.0000 </r>
       <r>   27.9764    0.0000 </r>
       <r>   31.7998    0.0000 </r>
       <r>   39.4708    0.0000 </r>
       <r>   46.5319    0.0000 </r>
      </set>
      <set comment="kpoint 45">
       <r>    6.6749    1.0000 </r>
       <r>    7.3073    1.0000 </r>
       <r>    8.6985    1.0000 </r>
       <r>   10.4160    0.0000 </r>
       <r>   11.0149    0.0000 </r>
       <r>   13.9276    0.0000 </r>
       <r>   20.8830    0.0000 </r>
       <r>   23.0602    0.0000 </r>
       <r>   24.0490    0.0000 </r>
       <r>   34.8280    0.0000 </r>
       <r>   39.3099    0.0000 </r>
       <r>   44.4263    0.0000 </r>
      </set>
      <set comment="kpoint 46">
       <r>    7.0163    1.0000 </r>
       <r>    7.6324    1.0000 </r>
       <r>    8.2406    1.0000 </r>
       <r>   10.1658    0.0000 </r>
       <r>   11.2036    0.0000 </r>
       <r>   16.9904    0.0000 </r>
       <r>   18.6721    0.0000 </r>
       <r>   21.2269    0.0000 </r>
       <r>   22.4750    0.0000 </r>
       <r>   37.7193    0.0000 </r>
       <r>   41.0759    0.0000 </r>
       <r>   42.9215    0.0000 </r>
      </set>
      <set comment="kpoint 47">
       <r>    7.0960    1.0000 </r>
       <r>    7.6343    1.0000 </r>
       <r>    8.0926    1.0000 </r>
       <r>   10.1314    0.0000 </r>
       <r>   10.9902    0.0000 </r>
       <r>   15.1320    0.0000 </r>
       <r>   19.2342    0.0000 </r>
       <r>   22.4666    0.0000 </r>
       <r>   24.1534    0.0000 </r>
       <r>   37.6938    0.0000 </r>
       <r>   39.4661    0.0000 </r>
       <r>   44.1090    0.0000 </r>
      </set>
      <set comment="kpoint 48">
       <r>    6.5118    1.0000 </r>
       <r>    7.0260    1.0000 </r>
       <r>    9.4673    1.0000 </r>
       <r>   10.6205    0.0000 </r>
       <r>   11.1123    0.0000 </r>
       <r>   14.8305    0.0000 </r>
       <r>   19.8402    0.0000 </r>
[...]
       </set>
       <set comment="band 5">
        <r>  0.0001  0.0000  0.0004  0.0006  0.0025  0.0310  0.0001  0.9515  0.0065 </r>
       </set>
       <set comment="band 6">
        <r>  0.0261  0.0065  0.4532  0.0009  0.0002  0.2941  0.0314  0.0145  0.0018 </r>
       </set>
       <set comment="band 7">
        <r>  0.0016  0.1310  0.0109  0.2694  0.1459  0.0075  0.1868  0.0044  0.0170 </r>
       </set>
       <set comment="band 8">
        <r>  0.3231  0.0112  0.0357  0.0897  0.0714  0.0048  0.2662  0.0003  0.0000 </r>
       </set>
       <set comment="band 9">
        <r>  0.2291  0.1796  0.0028  0.1546  0.0532  0.0013  0.0111  0.0013  0.0840 </r>
       </set>
       <set comment="band 10">
        <r>  0.0247  0.0316  0.0005  0.0687  0.5808  0.0000  0.0169  0.0009  0.0042 </r>
       </set>
       <set comment="band 11">
        <r>  0.1847  0.2491  0.0044  0.0160  0.0725  0.0000  0.1597  0.0002  0.0079 </r>
       </set>
       <set comment="band 12">
        <r>  0.0295  0.0023  0.0303  0.0002  0.0001  0.3563  0.0169  0.0020  0.0284 </r>
       </set>
      </set>
      <set comment="kpoint 50">
       <set comment="band 1">
        <r>  0.0835  0.0088  0.0483  0.0088  0.0538  0.0092  0.6090  0.0092  0.0000 </r>
       </set>
       <set comment="band 2">
        <r>  0.0005  0.0230  0.0002  0.0230  0.7996  0.0078  0.0502  0.0078  0.0000 </r>
       </set>
       <set comment="band 3">
        <r>  0.0340  0.0000  0.1582  0.0000  0.0337  0.2887  0.0941  0.2887  0.0000 </r>
       </set>
       <set comment="band 4">
        <r>  0.0000  0.0046  0.0000  0.0046  0.0000  0.1690  0.0000  0.1690  0.6268 </r>
       </set>
       <set comment="band 5">
        <r>  0.0000  0.0000  0.0000  0.0000  0.0000  0.3227  0.0000  0.3227  0.3477 </r>
       </set>
       <set comment="band 6">
        <r>  0.0740  0.0138  0.2625  0.0138  0.0044  0.1871  0.1297  0.1871  0.0000 </r>
       </set>
       <set comment="band 7">
        <r>  0.1115  0.1875  0.0006  0.1875  0.1609  0.0290  0.0573  0.0290  0.0000 </r>
       </set>
       <set comment="band 8">
        <r>  0.2235  0.0006  0.1705  0.0006  0.0141  0.0054  0.3580  0.0054  0.0000 </r>
       </set>
       <set comment="band 9">
        <r>  0.0000  0.2839  0.0000  0.2839  0.0000  0.0190  0.0000  0.0190  0.0746 </r>
       </set>
       <set comment="band 10">
        <r>  0.1380  0.0015  0.0191  0.0015  0.5573  0.0001  0.0417  0.0001  0.0000 </r>
       </set>
       <set comment="band 11">
        <r>  0.1796  0.0989  0.0279  0.0989  0.1867  0.0049  0.1097  0.0049  0.0000 </r>
       </set>
       <set comment="band 12">
        <r>  0.0000  0.0206  0.0000  0.0206  0.0000  0.1078  0.0000  0.1077  0.2092 </r>
       </set>
      </set>
      <set comment="kpoint 51">
       <set comment="band 1">
        <r>  0.4482  0.0482  0.0482  0.0482  0.0487  0.0487  0.0000  0.0487  0.0000 </r>
       </set>
       <set comment="band 2">
        <r>  0.0171  0.0477  0.0477  0.0477  0.2400  0.2400  0.0000  0.2400  0.0000 </r>
       </set>
       <set comment="band 3">
        <r>  0.0000  0.0003  0.0001  0.0005  0.0655  0.2790  0.0752  0.2018  0.3430 </r>
       </set>
       <set comment="band 4">
        <r>  0.0000  0.0003  0.0005  0.0001  0.2987  0.0852  0.3430  0.1624  0.0752 </r>
       </set>
       <set comment="band 5">
        <r>  0.0000  0.0005  0.0006  0.0007  0.1433  0.1679  0.2792  0.1154  0.2748 </r>
       </set>
       <set comment="band 6">
        <r>  0.0000  0.0007  0.0006  0.0005  0.1411  0.1165  0.2748  0.1691  0.2792 </r>
       </set>
       <set comment="band 7">
        <r>  0.1726  0.0828  0.0828  0.0828  0.1265  0.1265  0.0000  0.1265  0.0000 </r>
       </set>
       <set comment="band 8">
        <r>  0.0104  0.0029  0.0029  0.0029  0.0194  0.0194  0.0000  0.0194  0.0000 </r>
       </set>
       <set comment="band 9">
        <r>  0.0000  0.1829  0.1334  0.0776  0.1137  0.0662  0.0385  0.1560  0.0373 </r>
       </set>
       <set comment="band 10">
        <r>  0.0000  0.0797  0.1292  0.1850  0.1102  0.1578  0.0373  0.0679  0.0385 </r>
       </set>
       <set comment="band 11">
        <r>  0.0000  0.0773  0.0481  0.0055  0.0104  0.0012  0.3320  0.0167  0.2708 </r>
       </set>
       <set comment="band 12">
        <r>  0.0000  0.0100  0.0392  0.0817  0.0085  0.0177  0.2708  0.0021  0.3320 </r>
       </set>
      </set>
      <set comment="kpoint 52">
       <set comment="band 1">
        <r>  0.3338  0.0769  0.0769  0.0042  0.0616  0.1426  0.0032  0.0616  0.0095 </r>
       </set>
       <set comment="band 2">
        <r>  0.0141  0.0496  0.0496  0.0725  0.3011  0.0171  0.0151  0.3011  0.0454 </r>
       </set>
       <set comment="band 3">
        <r>  0.0009  0.0023  0.0023  0.0020  0.0593  0.3434  0.1201  0.0593  0.3602 </r>
       </set>
       <set comment="band 4">
        <r>  0.0000  0.0005  0.0005  0.0000  0.1925  0.0000  0.4332  0.1925  0.1444 </r>
       </set>
       <set comment="band 5">
        <r>  0.0000  0.0009  0.0009  0.0000  0.2960  0.0000  0.2889  0.2960  0.0963 </r>
       </set>
       <set comment="band 6">
        <r>  0.0333  0.0225  0.0225  0.0058  0.0068  0.4538  0.1033  0.0068  0.3100 </r>
       </set>
       <set comment="band 7">
        <r>  0.1990  0.0456  0.0456  0.1518  0.1386  0.0853  0.0038  0.1386  0.0113 </r>
       </set>
       <set comment="band 8">
        <r>  0.0498  0.0319  0.0319  0.1794  0.0819  0.0616  0.0292  0.0819  0.0875 </r>
       </set>
       <set comment="band 9">
        <r>  0.0335  0.0939  0.0939  0.0666  0.0013  0.0000  0.0049  0.0013  0.0146 </r>
       </set>
       <set comment="band 10">
        <r>  0.0000  0.1857  0.1857  0.0000  0.0007  0.0000  0.3164  0.0007  0.1055 </r>
       </set>
       <set comment="band 11">
        <r>  0.0000  0.0746  0.0746  0.0000  0.2436  0.0000  0.1863  0.2436  0.0621 </r>
       </set>
       <set comment="band 12">
        <r>  0.0601  0.0084  0.0084  0.0262  0.0162  0.1381  0.0575  0.0162  0.1725 </r>
       </set>
      </set>
      <set comment="kpoint 53">
       <set comment="band 1">
        <r>  0.1598  0.0931  0.0931  0.0011  0.0246  0.3821  0.0094  0.0246  0.0281 </r>
       </set>
       <set comment="band 2">
        <r>  0.0004  0.0275  0.0275  0.0291  0.0850  0.0947  0.1329  0.0850  0.3986 </r>
       </set>
       <set comment="band 3">
        <r>  0.0031  0.0002  0.0002  0.0665  0.2977  0.1254  0.0326  0.2977  0.0979 </r>
       </set>
       <set comment="band 4">
        <r>  0.0000  0.0037  0.0037  0.0000  0.0467  0.0000  0.6465  0.0467  0.2155 </r>
       </set>
       <set comment="band 5">
        <r>  0.0000  0.0003  0.0003  0.0000  0.4434  0.0000  0.0697  0.4434  0.0232 </r>
       </set>
       <set comment="band 6">
        <r>  0.1163  0.0752  0.0752  0.0047  0.0002  0.3925  0.0592  0.0002  0.1777 </r>
       </set>
       <set comment="band 7">
        <r>  0.1060  0.0107  0.0107  0.3309  0.1628  0.0237  0.0070  0.1628  0.0211 </r>
       </set>
       <set comment="band 8">
        <r>  0.2211  0.0471  0.0471  0.1124  0.0352  0.0548  0.0460  0.0352  0.1380 </r>
       </set>
       <set comment="band 9">
        <r>  0.0000  0.2235  0.2235  0.0000  0.0008  0.0000  0.2524  0.0008  0.0841 </r>
       </set>
       <set comment="band 10">
        <r>  0.1017  0.0612  0.0612  0.0044  0.0000  0.1415  0.0227  0.0000  0.0681 </r>
       </set>
       <set comment="band 11">
        <r>  0.0118  0.0002  0.0002  0.0813  0.0489  0.0309  0.0064  0.0489  0.0193 </r>
       </set>
       <set comment="band 12">
        <r>  0.0000  0.0141  0.0141  0.0000  0.3248  0.0000  0.0451  0.3248  0.0150 </r>
       </set>
      </set>
      <set comment="kpoint 54">
       <set comment="band 1">
        <r>  0.0501  0.0050  0.0050  0.0056  0.0123  0.6036  0.0531  0.0123  0.1594 </r>
       </set>
       <set comment="band 2">
        <r>  0.0014  0.0712  0.0712  0.0007  0.0013  0.1469  0.1367  0.0013  0.4101 </r>
       </set>
       <set comment="band 3">
        <r>  0.0012  0.0011  0.0011  0.1393  0.3627  0.0312  0.0016  0.3627  0.0048 </r>
       </set>
       <set comment="band 4">
        <r>  0.0000  0.0051  0.0051  0.0000  0.0376  0.0000  0.6615  0.0376  0.2205 </r>
       </set>
       <set comment="band 5">
        <r>  0.0000  0.0001  0.0001  0.0000  0.4552  0.0000  0.0567  0.4552  0.0189 </r>
       </set>
       <set comment="band 6">
        <r>  0.0753  0.1440  0.1440  0.0639  0.0134  0.2059  0.0384  0.0134  0.1152 </r>
       </set>
       <set comment="band 7">
        <r>  0.1206  0.0067  0.0067  0.3504  0.1563  0.0451  0.0004  0.1563  0.0011 </r>
       </set>
       <set comment="band 8">
        <r>  0.3244  0.0203  0.0203  0.0655  0.0104  0.0286  0.0739  0.0104  0.2216 </r>
       </set>
       <set comment="band 9">
        <r>  0.0000  0.2628  0.2628  0.0000  0.0015  0.0000  0.1469  0.0015  0.0490 </r>
       </set>
       <set comment="band 10">
        <r>  0.1397  0.0253  0.0253  0.0030  0.0000  0.3492  0.0207  0.0000  0.0621 </r>
       </set>
       <set comment="band 11">
        <r>  0.1384  0.1009  0.1009  0.0088  0.0007  0.3197  0.0193  0.0007  0.0578 </r>
       </set>
       <set comment="band 12">
        <r>  0.0000  0.0065  0.0065  0.0000  0.2445  0.0000  0.0335  0.2438  0.0113 </r>
       </set>
      </set>
      <set comment="kpoint 55">
       <set comment="band 1">
        <r>  0.2553  0.0091  0.0841  0.0091  0.1524  0.1374  0.0291  0.1374  0.0000 </r>
       </set>
       <set comment="band 2">
        <r>  0.0113  0.0779  0.0559  0.0779  0.2253  0.0463  0.2955  0.0463  0.0000 </r>
       </set>
       <set comment="band 3">
        <r>  0.0109  0.0067  0.0227  0.0067  0.4189  0.0764  0.3242  0.0764  0.0000 </r>
       </set>
       <set comment="band 4">
        <r>  0.0000  0.0025  0.0000  0.0025  0.0000  0.2245  0.0000  0.2245  0.5095 </r>
       </set>
       <set comment="band 5">
        <r>  0.0000  0.0002  0.0000  0.0002  0.0000  0.2641  0.0000  0.2641  0.4629 </r>
       </set>
       <set comment="band 6">
        <r>  0.0336  0.0280  0.0669  0.0280  0.0933  0.1854  0.3081  0.1854  0.0000 </r>
       </set>
       <set comment="band 7">
        <r>  0.2627  0.0875  0.0141  0.0875  0.1682  0.1057  0.0083  0.1057  0.0000 </r>
       </set>
       <set comment="band 8">
        <r>  0.0042  0.0000  0.0920  0.0000  0.0709  0.0078  0.2588  0.0078  0.0000 </r>
       </set>
       <set comment="band 9">
        <r>  0.0000  0.2403  0.0000  0.2403  0.0000  0.0712  0.0000  0.0712  0.1228 </r>
       </set>
       <set comment="band 10">
        <r>  0.1078  0.0411  0.2433  0.0411  0.1429  0.0053  0.0333  0.0053  0.0000 </r>
       </set>
       <set comment="band 11">
        <r>  0.0171  0.0003  0.0133  0.0003  0.2576  0.0191  0.3857  0.0191  0.0000 </r>
       </set>
       <set comment="band 12">
        <r>  0.0000  0.0551  0.0000  0.0551  0.0000  0.0745  0.0000  0.0745  0.4887 </r>
       </set>
      </set>
      <set comment="kpoint 56">
       <set comment="band 1">
        <r>  0.1352  0.0172  0.0766  0.0050  0.2196  0.2442  0.0620  0.0928  0.0019 </r>
       </set>
       <set comment="band 2">
        <r>  0.0001  0.0685  0.0239  0.0503  0.1143  0.0243  0.4352  0.0270  0.1067 </r>
       </set>
       <set comment="band 3">
        <r>  0.0093  0.0052  0.0379  0.0338  0.3896  0.3232  0.0784  0.0041  0.0424 </r>
       </set>
       <set comment="band 4">
        <r>  0.0000  0.0013  0.0104  0.0021  0.0326  0.0110  0.1471  0.2448  0.5125 </r>
       </set>
       <set comment="band 5">
        <r>  0.0006  0.0003  0.0022  0.0015  0.0863  0.0626  0.0647  0.5438  0.2238 </r>
       </set>
       <set comment="band 6">
        <r>  0.0660  0.0623  0.1428  0.0410  0.0204  0.3009  0.1608  0.0122  0.0697 </r>
       </set>
       <set comment="band 7">
        <r>  0.2624  0.0367  0.0002  0.1667  0.1884  0.0673  0.0120  0.0991  0.0117 </r>
       </set>
       <set comment="band 8">
        <r>  0.0417  0.0962  0.0017  0.1793  0.0823  0.0467  0.1226  0.0183  0.1048 </r>
       </set>
       <set comment="band 9">
        <r>  0.1527  0.0031  0.2661  0.0583  0.0004  0.0214  0.1801  0.0227  0.0212 </r>
       </set>
       <set comment="band 10">
        <r>  0.0043  0.2500  0.0381  0.0322  0.0945  0.0053  0.0001  0.0026  0.0004 </r>
       </set>
       <set comment="band 11">
        <r>  0.0532  0.0201  0.0006  0.0052  0.2417  0.1464  0.0670  0.0329  0.2146 </r>
       </set>
       <set comment="band 12">
        <r>  0.0097  0.0520  0.0255  0.0032  0.0434  0.0473  0.2606  0.0218  0.0217 </r>
       </set>
      </set>
      <set comment="kpoint 57">
       <set comment="band 1">
        <r>  0.0003  0.0672  0.0216  0.0028  0.0002  0.0021  0.4399  0.0000  0.3112 </r>
       </set>
       <set comment="band 2">
        <r>  0.0364  0.0051  0.0660  0.0063  0.0375  0.7210  0.0015  0.0128  0.0171 </r>
       </set>
       <set comment="band 3">
        <r>  0.0007  0.0009  0.0045  0.1135  0.6684  0.0524  0.0055  0.0617  0.0015 </r>
       </set>
       <set comment="band 4">
        <r>  0.0073  0.0009  0.0065  0.0013  0.0005  0.0035  0.3874  0.0283  0.5281 </r>
       </set>
       <set comment="band 5">
        <r>  0.0007  0.0000  0.0000  0.0023  0.1101  0.0060  0.0114  0.8428  0.0150 </r>
       </set>
       <set comment="band 6">
        <r>  0.0674  0.0934  0.2230  0.0514  0.0210  0.2120  0.0984  0.0004  0.0506 </r>
       </set>
       <set comment="band 7">
        <r>  0.1139  0.0001  0.0174  0.3638  0.2301  0.0390  0.0005  0.0662  0.0054 </r>
       </set>
       <set comment="band 8">
        <r>  0.2678  0.0782  0.0001  0.0741  0.0227  0.0264  0.0985  0.0039  0.1951 </r>
       </set>
       <set comment="band 9">
        <r>  0.1689  0.0783  0.2435  0.0026  0.0004  0.0628  0.1772  0.0017  0.0038 </r>
       </set>
       <set comment="band 10">
        <r>  0.0342  0.1563  0.0344  0.0021  0.0003  0.2870  0.0016  0.0004  0.0704 </r>
       </set>
       <set comment="band 11">
        <r>  0.0047  0.0209  0.0004  0.0469  0.3944  0.0340  0.0132  0.0130  0.0156 </r>
       </set>
       <set comment="band 12">
        <r>  0.0591  0.2512  0.0252  0.0007  0.0434  0.2498  0.0345  0.0001  0.0504 </r>
       </set>
      </set>
      <set comment="kpoint 58">
       <set comment="band 1">
        <r>  0.0855  0.0025  0.0368  0.0025  0.4699  0.0850  0.1216  0.0850  0.0000 </r>
       </set>
       <set comment="band 2">
        <r>  0.0000  0.0677  0.0098  0.0677  0.1094  0.0067  0.5740  0.0067  0.0000 </r>
       </set>
       <set comment="band 3">
        <r>  0.0082  0.0073  0.1047  0.0073  0.2182  0.2570  0.0523  0.2570  0.0000 </r>
       </set>
       <set comment="band 4">
        <r>  0.0000  0.0044  0.0000  0.0044  0.0000  0.1400  0.0000  0.1400  0.6766 </r>
       </set>
       <set comment="band 5">
        <r>  0.0000  0.0002  0.0000  0.0002  0.0000  0.3520  0.0000  0.3520  0.2853 </r>
       </set>
       <set comment="band 6">
        <r>  0.0091  0.0852  0.2096  0.0852  0.0639  0.0927  0.1971  0.0927  0.0000 </r>
       </set>
       <set comment="band 7">
        <r>  0.3129  0.0626  0.0350  0.0626  0.1853  0.0923  0.0068  0.0923  0.0000 </r>
       </set>
       <set comment="band 8">
        <r>  0.1583  0.0157  0.1951  0.0157  0.0193  0.0252  0.2863  0.0252  0.0000 </r>
       </set>
       <set comment="band 9">
        <r>  0.0000  0.2595  0.0000  0.2595  0.0000  0.0134  0.0000  0.0134  0.1801 </r>
       </set>
       <set comment="band 10">
        <r>  0.1343  0.0283  0.0286  0.0283  0.3155  0.0001  0.0529  0.0001  0.0000 </r>
       </set>
       <set comment="band 11">
        <r>  0.0014  0.0621  0.0321  0.0621  0.3484  0.0039  0.0102  0.0039  0.0000 </r>
       </set>
       <set comment="band 12">
        <r>  0.0000  0.0314  0.0000  0.0314  0.0000  0.1767  0.0000  0.1768  0.2342 </r>
       </set>
      </set>
      <set comment="kpoint 59">
       <set comment="band 1">
        <r>  0.2346  0.0094  0.0094  0.0094  0.1956  0.1956  0.0000  0.1956  0.0000 </r>
       </set>
       <set comment="band 2">
        <r>  0.0000  0.0001  0.0000  0.0000  0.0803  0.0591  0.1581  0.2762  0.3878 </r>
       </set>
       <set comment="band 3">
        <r>  0.0000  0.0000  0.0001  0.0001  0.1968  0.2180  0.3878  0.0009  0.1581 </r>
       </set>
       <set comment="band 4">
        <r>  0.0262  0.1797  0.1797  0.1797  0.0457  0.0457  0.0000  0.0457  0.0000 </r>
       </set>
       <set comment="band 5">
        <r>  0.0000  0.0000  0.0002  0.0002  0.2964  0.2676  0.3330  0.0018  0.0907 </r>
       </set>
       <set comment="band 6">
        <r>  0.0000  0.0003  0.0001  0.0001  0.0808  0.1096  0.0907  0.3754  0.3330 </r>
       </set>
       <set comment="band 7">
        <r>  0.3524  0.0249  0.0249  0.0249  0.1526  0.1526  0.0000  0.1526  0.0000 </r>
       </set>
       <set comment="band 8">
        <r>  0.0010  0.0091  0.0091  0.0091  0.0025  0.0025  0.0000  0.0025  0.0000 </r>
       </set>
       <set comment="band 9">
        <r>  0.0000  0.2581  0.0015  0.2985  0.0002  0.0353  0.0001  0.0306  0.0156 </r>
       </set>
       <set comment="band 10">
        <r>  0.0000  0.1139  0.3706  0.0736  0.0439  0.0087  0.0156  0.0135  0.0001 </r>
       </set>
       <set comment="band 11">
        <r>  0.0000  0.0115  0.0005  0.0164  0.0045  0.1610  0.0166  0.1124  0.6713 </r>
       </set>
       <set comment="band 12">
        <r>  0.0000  0.0074  0.0185  0.0025  0.1808  0.0243  0.6713  0.0728  0.0166 </r>
       </set>
      </set>
      <set comment="kpoint 60">
       <set comment="band 1">
        <r>  0.1716  0.0099  0.0099  0.0090  0.1989  0.2740  0.0000  0.1989  0.0000 </r>
       </set>
       <set comment="band 2">
        <r>  0.0002  0.0560  0.0560  0.0285  0.0053  0.0484  0.1659  0.0053  0.4978 </r>
       </set>
       <set comment="band 3">
        <r>  0.0008  0.0678  0.0678  0.0956  0.1505  0.3240  0.0024  0.1505  0.0072 </r>
       </set>
       <set comment="band 4">
        <r>  0.0000  0.0014  0.0014  0.0000  0.1831  0.0000  0.4444  0.1831  0.1481 </r>
       </set>
       <set comment="band 5">
        <r>  0.0000  0.0002  0.0002  0.0000  0.3081  0.0000  0.2793  0.3081  0.0931 </r>
       </set>
       <set comment="band 6">
        <r>  0.0075  0.0860  0.0860  0.0837  0.0322  0.2538  0.0738  0.0322  0.2213 </r>
       </set>
       <set comment="band 7">
        <r>  0.3849  0.0000  0.0000  0.0414  0.1621  0.1439  0.0006  0.1621  0.0017 </r>
       </set>
       <set comment="band 8">
        <r>  0.0308  0.0103  0.0103  0.1767  0.0401  0.0423  0.0512  0.0401  0.1537 </r>
       </set>
       <set comment="band 9">
        <r>  0.0000  0.2337  0.2337  0.0000  0.0187  0.0000  0.1787  0.0187  0.0596 </r>
       </set>
       <set comment="band 10">
        <r>  0.0690  0.0803  0.0803  0.1290  0.0049  0.0457  0.0002  0.0049  0.0005 </r>
       </set>
       <set comment="band 11">
        <r>  0.0000  0.0587  0.0587  0.0000  0.1692  0.0000  0.3029  0.1692  0.1010 </r>
       </set>
       <set comment="band 12">
        <r>  0.0522  0.0002  0.0002  0.0007  0.0000  0.2832  0.0967  0.0000  0.2900 </r>
       </set>
      </set>
     </set>
    </set>
   </array>
  </projected>
 </calculation>
 <structure name="finalpos" >
  <crystal>
   <varray name="basis" >
    <v>       0.00000000       1.77181023       1.77181023 </v>
    <v>       1.77181023       0.00000000       1.77181023 </v>
    <v>       1.77181023       1.77181023       0.00000000 </v>
   </varray>
   <i name="volume">     11.12452847 </i>
   <varray name="rec_basis" >
    <v>      -0.28219726       0.28219726       0.28219726 </v>
    <v>       0.28219726      -0.28219726       0.28219726 </v>
    <v>       0.28219726       0.28219726      -0.28219726 </v>
   </varray>
  </crystal>
  <varray name="positions" >
   <v>       0.00000000       0.00000000       0.00000000 </v>
  </varray>
 </structure>
</modeling>
