Co-hcc                                  
   1.00000000000000     
     2.464457    0.000000    0.000000
    -1.232229    2.134283    0.000000
     0.000000    0.000000    3.987391
   Co
     2
Direct
  0.000000  0.000000  0.000000
  0.333333  0.666667  0.500000
 
   32   32   56
  198.61      194.28      181.85      162.94      139.78      114.77      90.060      67.400      48.011      32.625    
  21.473      14.291      10.347      8.5707      7.7683      7.2924      7.1389      7.2932      7.7658      8.5731    
  10.346      14.291      21.473      32.625      48.011      67.400      90.060      114.77      139.78      162.94    
  181.85      194.28      194.28      194.28      185.90      170.25      149.28      125.30      100.59      77.088    
  56.269      39.101      26.062      17.134      11.809      9.1714      8.0459      7.4305      7.1199      7.1178    
  7.4327      8.0454      9.1700      11.810      17.134      26.062      39.101      56.269      77.088      100.59    
  125.30      149.28      170.25      185.90      181.85      185.90      181.85      170.25      152.59      130.91    
  107.46      84.270      62.991      44.811      30.437      20.089      13.496      9.9313      8.3396      7.5841    
  7.1270      6.9810      7.1275      7.5820      8.3423      9.9297      13.497      20.089      30.437      44.811    
  62.991      84.270      107.46      130.91      152.59      170.25      162.94      170.24      170.24      162.94    
  149.28      130.91      109.85      88.095      67.387      49.071      34.055      22.775      15.194      10.789    
  8.6731      7.7302      7.1599      6.8777      6.8756      7.1626      7.7281      8.6739      10.789      15.193    
  22.776      34.054      49.071      67.387      88.096      109.85      130.91      149.28      139.78      149.26    
  152.56      149.26      139.78      125.30      107.46      88.095      68.916      51.348      36.442      24.820    
  16.649      11.620      9.0257      7.8625      7.2058      6.8076      6.6795      6.8072      7.2056      7.8635    
  9.0245      11.622      16.648      24.821      36.441      51.349      68.916      88.096      107.46      125.30    
  114.77      125.27      130.88      130.88      125.28      114.77      100.59      84.270      67.387      51.348    
  37.275      25.925      17.630      12.282      9.3466      7.9808      7.2504      6.7677      6.5332      6.5335    
  6.7680      7.2494      7.9819      9.3453      12.282      17.629      25.926      37.274      51.349      67.387    
  84.270      100.59      90.060      100.57      107.43      109.81      107.43      100.57      90.060      77.088    
  62.991      49.071      36.441      25.925      17.977      12.647      9.5738      8.0729      7.2884      6.7457    
  6.4350      6.3305      6.4345      6.7467      7.2874      8.0740      9.5732      12.648      17.976      25.926    
  36.441      49.071      62.991      77.088      67.400      77.080      84.248      88.064      88.064      84.248    
  77.080      67.400      56.269      44.811      34.054      24.821      17.630      12.647      9.6557      8.1251    
  7.3120      6.7369      6.3725      6.1955      6.1965      6.3712      6.7380      7.3109      8.1259      9.6546    
  12.648      17.629      24.821      34.054      44.811      56.269      48.011      56.277      62.994      67.383    
  68.908      67.382      62.994      56.277      48.011      39.101      30.436      22.776      16.648      12.282    
  9.5734      8.1251      7.3203      6.7337      6.3392      6.1135      6.0422      6.1140      6.3389      6.7344    
  7.3201      8.1259      9.5732      12.282      16.648      22.776      30.437      39.101      32.625      39.126    
  44.846      49.108      51.384      51.385      49.108      44.847      39.126      32.625      26.062      20.090    
  15.192      11.622      9.3461      8.0735      7.3120      6.7338      6.3289      6.0756      5.9579      5.9566    
  6.0764      6.3278      6.7344      7.3109      8.0740      9.3453      11.622      15.193      20.089      26.062    
  21.473      26.103      30.506      34.138      36.532      37.367      36.532      34.138      30.505      26.103    
  21.473      17.134      13.496      10.790      9.0237      7.9817      7.2874      6.7373      6.3389      6.0759    
  5.9303      5.8842      5.9304      6.0764      6.3389      6.7380      7.2874      7.9819      9.0245      10.789    
  13.497      17.134      14.291      17.188      20.184      22.902      24.966      26.079      26.079      24.966    
  22.903      20.186      17.188      14.291      11.810      9.9311      8.6717      7.8647      7.2494      6.7469    
  6.3721      6.1138      5.9577      5.8834      5.8842      5.9566      6.1140      6.3712      6.7467      7.2494    
  7.8635      8.6739      9.9297      11.810      10.346      11.871      13.612      15.351      16.837      17.837    
  18.191      17.838      16.837      15.350      13.611      11.870      10.348      9.1693      8.3411      7.7309    
  7.2037      6.7687      6.4335      6.1962      6.0415      5.9577      5.9303      5.9579      6.0422      6.1965    
  6.4345      6.7680      7.2056      7.7281      8.3423      9.1700      8.5731      9.2342      10.055      10.966    
  11.840      12.530      12.909      12.909      12.529      11.841      10.967      10.056      9.2335      8.5709    
  8.0482      7.5811      7.1608      6.8088      6.5330      6.3317      6.1962      6.1138      6.0759      6.0756    
  6.1135      6.1955      6.3305      6.5335      6.8072      7.1626      7.5820      8.0454      7.7658      8.1109    
  8.4708      8.8586      9.2582      9.6164      9.8677      9.9576      9.8679      9.6169      9.2576      8.8563    
  8.4697      8.1136      7.7658      7.4303      7.1294      6.8766      6.6784      6.5330      6.4335      6.3721    
  6.3389      6.3289      6.3392      6.3725      6.4350      6.5332      6.6795      6.8756      7.1275      7.4327    
  7.2932      7.4987      7.7119      7.9166      8.1058      8.2672      8.3886      8.4555      8.4551      8.3883    
  8.2669      8.1071      7.9193      7.7111      7.4963      7.2947      7.1191      6.9792      6.8766      6.8088    
  6.7687      6.7469      6.7373      6.7338      6.7337      6.7369      6.7457      6.7677      6.8076      6.8777    
  6.9810      7.1178      7.1389      7.1841      7.2584      7.3540      7.4521      7.5417      7.6131      7.6583    
  7.6744      7.6588      7.6134      7.5414      7.4504      7.3521      7.2603      7.1854      7.1373      7.1191    
  7.1294      7.1608      7.2037      7.2494      7.2874      7.3120      7.3203      7.3120      7.2884      7.2504    
  7.2058      7.1599      7.1270      7.1199      7.2924      7.1862      7.1122      7.0683      7.0566      7.0654    
  7.0832      7.1019      7.1123      7.1124      7.1011      7.0835      7.0660      7.0580      7.0693      7.1104    
  7.1854      7.2947      7.4303      7.5811      7.7309      7.8647      7.9817      8.0735      8.1251      8.1251    
  8.0729      7.9808      7.8625      7.7302      7.5841      7.4305      7.7683      7.4965      7.2579      7.0705    
  6.9296      6.8342      6.7776      6.7460      6.7327      6.7287      6.7330      6.7463      6.7768      6.8336    
  6.9287      7.0693      7.2603      7.4963      7.7658      8.0482      8.3411      8.6717      9.0237      9.3461    
  9.5734      9.6557      9.5738      9.3466      9.0257      8.6731      8.3396      8.0459      8.5707      8.1114    
  7.7140      7.3513      7.0570      6.8338      6.6759      6.5760      6.5181      6.4928      6.4923      6.5183    
  6.5757      6.6770      6.8336      7.0580      7.3521      7.7111      8.1136      8.5709      9.1693      9.9311    
  10.790      11.622      12.282      12.647      12.647      12.282      11.620      10.789      9.9313      9.1714    
  10.347      9.2357      8.4681      7.9189      7.4522      7.0652      6.7780      6.5755      6.4503      6.3821    
  6.3618      6.3822      6.4500      6.5757      6.7768      7.0660      7.4504      7.9193      8.4697      9.2335    
  10.348      11.810      13.496      15.192      16.648      17.630      17.977      17.630      16.649      15.194    
  13.496      11.809      14.291      11.869      10.056      8.8576      8.1050      7.5424      7.0823      6.7467    
  6.5179      6.3824      6.3192      6.3198      6.3822      6.5183      6.7463      7.0835      7.5414      8.1071    
  8.8563      10.056      11.870      14.291      17.134      20.090      22.776      24.821      25.925      25.925    
  24.820      22.775      20.089      17.134      21.473      17.188      13.611      10.966      9.2593      8.2662    
  7.6140      7.1012      6.7330      6.4925      6.3619      6.3192      6.3618      6.4923      6.7330      7.1011    
  7.6134      8.2669      9.2576      10.967      13.611      17.188      21.473      26.062      30.436      34.054    
  36.441      37.275      36.442      34.055      30.437      26.062      32.625      26.103      20.185      15.351    
  11.839      9.6172      8.3881      7.6586      7.1124      6.7286      6.4925      6.3824      6.3821      6.4928    
  6.7287      7.1124      7.6588      8.3883      9.6169      11.841      15.350      20.186      26.103      32.625    
  39.101      44.811      49.071      51.348      51.348      49.071      44.811      39.101      48.011      39.126    
  30.505      22.902      16.838      12.529      9.8680      8.4554      7.6743      7.1124      6.7330      6.5179    
  6.4503      6.5181      6.7327      7.1123      7.6744      8.4551      9.8679      12.529      16.837      22.903    
  30.505      39.126      48.011      56.269      62.991      67.387      68.916      67.387      62.991      56.269    
  67.400      56.276      44.846      34.138      24.965      17.838      12.909      9.9576      8.4554      7.6586    
  7.1012      6.7467      6.5755      6.5760      6.7460      7.1019      7.6583      8.4555      9.9576      12.909    
  17.838      24.966      34.138      44.847      56.277      67.400      77.088      84.270      88.095      88.095    
  84.270      77.088      90.060      77.080      62.994      49.108      36.533      26.079      18.191      12.909    
  9.8680      8.3881      7.6140      7.0823      6.7780      6.6759      6.7776      7.0832      7.6131      8.3886    
  9.8677      12.909      18.191      26.079      36.532      49.108      62.994      77.080      90.060      100.59    
  107.46      109.85      107.46      100.59      114.77      100.57      84.248      67.383      51.384      37.368    
  26.079      17.838      12.529      9.6172      8.2662      7.5424      7.0652      6.8338      6.8342      7.0654    
  7.5417      8.2672      9.6164      12.530      17.837      26.079      37.367      51.385      67.382      84.248    
  100.57      114.77      125.30      130.91      130.91      125.30      139.78      125.27      107.43      88.064    
  68.909      51.384      36.533      24.965      16.838      11.839      9.2593      8.1050      7.4522      7.0570    
  6.9296      7.0566      7.4521      8.1058      9.2582      11.840      16.837      24.966      36.532      51.384    
  68.908      88.064      107.43      125.28      139.78      149.28      152.59      149.28      162.94      149.26    
  130.88      109.81      88.064      67.383      49.108      34.138      22.902      15.351      10.966      8.8576    
  7.9189      7.3513      7.0705      7.0683      7.3540      7.9166      8.8586      10.966      15.351      22.902    
  34.138      49.108      67.383      88.064      109.81      130.88      149.26      162.94      170.25      170.25    
  181.85      170.24      152.56      130.88      107.43      84.248      62.994      44.846      30.505      20.185    
  13.611      10.056      8.4681      7.7140      7.2579      7.1122      7.2584      7.7119      8.4708      10.055    
  13.612      20.184      30.506      44.846      62.994      84.248      107.43      130.88      152.56      170.24    
  181.85      185.90      194.28      185.90      170.24      149.26      125.27      100.57      77.080      56.276    
  39.126      26.103      17.188      11.869      9.2357      8.1114      7.4965      7.1862      7.1841      7.4987    
  8.1109      9.2342      11.871      17.188      26.103      39.126      56.277      77.080      100.57      125.27    
  149.26      170.24      185.90      194.28      194.90      190.65      178.46      159.92      137.19      112.63    
  88.371      66.116      47.082      31.994      21.078      14.071      10.238      8.5178      7.7298      7.2595    
  7.1082      7.2602      7.7274      8.5204      10.238      14.070      21.078      31.994      47.082      66.116    
  88.371      112.63      137.19      159.92      178.46      190.65      190.65      190.65      182.43      167.09    
  146.51      122.97      98.706      75.628      55.184      38.338      25.564      16.839      11.654      9.0974    
  8.0025      7.3937      7.0876      7.0853      7.3963      8.0014      9.0964      11.655      16.838      25.563    
  38.338      55.184      75.628      98.706      122.97      146.51      167.09      182.43      178.46      182.43    
  178.46      167.09      149.76      128.48      105.45      82.678      61.781      43.936      29.843      19.720    
  13.291      9.8299      8.2874      7.5439      7.0928      6.9486      7.0932      7.5419      8.2902      9.8282    
  13.292      19.720      29.844      43.936      61.781      82.679      105.45      128.48      149.76      167.09    
  159.92      167.08      167.08      159.92      146.51      128.48      107.80      86.435      66.096      48.113    
  33.386      22.343      14.941      10.658      8.6085      7.6872      7.1234      6.8452      6.8431      7.1261    
  7.6848      8.6096      10.657      14.941      22.343      33.386      48.114      66.095      86.435      107.80    
  128.48      146.51      137.19      146.50      149.74      146.50      137.19      122.97      105.45      86.434    
  67.597      50.347      35.724      24.341      16.358      11.462      8.9472      7.8161      7.1672      6.7747    
  6.6482      6.7742      7.1673      7.8169      8.9462      11.463      16.357      24.342      35.724      50.348    
  67.596      86.435      105.45      122.97      112.63      122.95      128.46      128.46      122.95      112.63    
  98.706      82.679      66.095      50.347      36.541      25.421      17.313      12.103      9.2551      7.9304    
  7.2100      6.7342      6.5025      6.5033      6.7339      7.2096      7.9309      9.2542      12.103      17.312    
  25.422      36.540      50.348      66.095      82.678      98.706      88.371      98.694      105.43      107.77    
  105.43      98.694      88.371      75.627      61.781      48.114      35.724      25.421      17.651      12.457    
  9.4736      8.0184      7.2470      6.7111      6.4050      6.3020      6.4045      6.7121      7.2460      8.0196    
  9.4730      12.458      17.651      25.422      35.723      48.114      61.781      75.627      66.116      75.625    
  82.668      86.417      86.418      82.669      75.625      66.116      55.184      43.936      33.385      24.342    
  17.313      12.457      9.5522      8.0685      7.2697      6.7019      6.3423      6.1682      6.1689      6.3414    
  6.7027      7.2687      8.0690      9.5512      12.457      17.312      24.342      33.386      43.936      55.184    
  47.082      55.198      61.796      66.107      67.606      66.107      61.795      55.197      47.082      38.338    
  29.843      22.344      16.356      12.103      9.4731      8.0684      7.2779      6.6982      6.3092      6.0867    
  6.0165      6.0872      6.3088      6.6990      7.2776      8.0693      9.4729      12.104      16.356      22.343    
  29.844      38.338      31.994      38.369      43.982      48.166      50.402      50.402      48.167      43.983    
  38.369      31.994      25.564      19.721      14.940      11.464      9.2546      8.0191      7.2697      6.6984    
  6.2986      6.0492      5.9330      5.9319      6.0498      6.2976      6.6987      7.2687      8.0194      9.2539    
  11.463      14.941      19.720      25.564      21.078      25.610      29.923      33.485      35.832      36.652    
  35.832      33.484      29.922      25.610      21.078      16.838      13.291      10.659      8.9451      7.9312    
  7.2458      6.7022      6.3088      6.0494      5.9057      5.8604      5.9059      6.0501      6.3088      6.7030    
  7.2459      7.9315      8.9459      10.658      13.292      16.838      14.070      16.896      19.825      22.483    
  24.503      25.594      25.594      24.504      22.484      19.826      16.897      14.070      11.654      9.8295    
  8.6073      7.8183      7.2092      6.7125      6.3420      6.0871      5.9329      5.8597      5.8603      5.9317    
  6.0872      6.3411      6.7121      7.2092      7.8171      8.6095      9.8284      11.655      10.238      11.719    
  13.414      15.111      16.561      17.538      17.883      17.538      16.561      15.109      13.413      11.719    
  10.240      9.0953      8.2891      7.6877      7.1652      6.7349      6.4034      6.1688      6.0158      5.9329    
  5.9058      5.9332      6.0166      6.1692      6.4045      6.7344      7.1670      7.6850      8.2899      9.0962    
  8.5203      9.1637      9.9604      10.845      11.696      12.366      12.736      12.736      12.366      11.696    
  10.847      9.9617      9.1628      8.5183      8.0045      7.5409      7.1244      6.7757      6.5026      6.3031    
  6.1688      6.0871      6.0493      6.0490      6.0867      6.1680      6.3020      6.5029      6.7744      7.1260    
  7.5421      8.0016      7.7275      8.0704      8.4249      8.8038      9.1917      9.5392      9.7830      9.8703    
  9.7833      9.5397      9.1910      8.8012      8.4242      8.0731      7.7272      7.3938      7.0950      6.8441    
  6.6473      6.5027      6.4034      6.3420      6.3088      6.2989      6.3092      6.3426      6.4050      6.5029    
  6.6480      6.8432      7.0930      7.3961      7.2601      7.4650      7.6782      7.8822      8.0705      8.2300    
  8.3491      8.4146      8.4142      8.3489      8.2298      8.0719      7.8848      7.6770      7.4628      7.2618    
  7.0866      6.9469      6.8441      6.7757      6.7349      6.7124      6.7021      6.6982      6.6982      6.7016    
  6.7111      6.7338      6.7749      6.8451      6.9488      7.0855      7.1083      7.1548      7.2297      7.3260    
  7.4244      7.5144      7.5862      7.6314      7.6476      7.6319      7.5863      7.5139      7.4228      7.3243    
  7.2318      7.1559      7.1065      7.0866      7.0950      7.1244      7.1653      7.2092      7.2459      7.2699    
  7.2779      7.2700      7.2470      7.2104      7.1670      7.1235      7.0926      7.0874      7.2594      7.1567    
  7.0858      7.0442      7.0343      7.0441      7.0623      7.0815      7.0920      7.0921      7.0807      7.0630    
  7.0446      7.0355      7.0451      7.0839      7.1559      7.2618      7.3937      7.5409      7.6876      7.8183    
  7.9311      8.0190      8.0684      8.0683      8.0184      7.9299      7.8163      7.6871      7.5441      7.3939    
  7.7299      7.4630      7.2293      7.0463      6.9086      6.8160      6.7612      6.7307      6.7180      6.7141    
  6.7182      6.7308      6.7604      6.8155      6.9080      7.0451      7.2318      7.4627      7.7272      8.0045    
  8.2892      8.6073      8.9452      9.2548      9.4732      9.5524      9.4736      9.2555      8.9470      8.6086    
  8.2873      8.0023      8.5177      8.0708      7.6801      7.3233      7.0348      6.8157      6.6608      6.5632    
  6.5063      6.4817      6.4812      6.5068      6.5628      6.6620      6.8155      7.0356      7.3242      7.6770    
  8.0730      8.5184      9.0952      9.8296      10.659      11.464      12.103      12.457      12.456      12.102    
  11.462      10.658      9.8300      9.0976      10.238      9.1653      8.4222      7.8847      7.4242      7.0439    
  6.7615      6.5627      6.4397      6.3729      6.3528      6.3728      6.4394      6.5630      6.7603      7.0447    
  7.4227      7.8849      8.4242      9.1629      10.239      11.655      13.291      14.940      16.356      17.313    
  17.651      17.314      16.357      14.941      13.291      11.654      14.071      11.718      9.9622      8.8024    
  8.0700      7.5151      7.0616      6.7313      6.5062      6.3730      6.3110      6.3116      6.3729      6.5066    
  6.7310      7.0628      7.5141      8.0718      8.8014      9.9615      11.719      14.070      16.838      19.721    
  22.344      24.342      25.421      25.421      24.341      22.343      19.721      16.839      21.078      16.897    
  13.413      10.845      9.1928      8.2288      7.5872      7.0807      6.7183      6.4813      6.3531      6.3108    
  6.3529      6.4812      6.7182      7.0807      7.5864      8.2297      9.1911      10.847      13.413      16.897    
  21.078      25.564      29.843      33.385      35.724      36.541      35.724      33.386      29.843      25.563    
  31.994      25.609      19.826      15.111      11.694      9.5403      8.3485      7.6317      7.0920      6.7140    
  6.4813      6.3732      6.3727      6.4816      6.7140      7.0921      7.6318      8.3489      9.5397      11.696    
  15.109      19.826      25.610      31.994      38.338      43.936      48.114      50.347      50.347      48.113    
  43.936      38.339      47.082      38.369      29.922      22.483      16.562      12.366      9.7834      8.4143    
  7.6475      7.0921      6.7183      6.5060      6.4398      6.5064      6.7180      7.0920      7.6475      8.4141    
  9.7833      12.366      16.561      22.484      29.922      38.369      47.082      55.184      61.781      66.096    
  67.596      66.096      61.781      55.184      66.116      55.197      43.983      33.485      24.503      17.538    
  12.736      9.8703      8.4144      7.6317      7.0808      6.7315      6.5626      6.5631      6.7307      7.0814    
  7.6314      8.4146      9.8703      12.736      17.538      24.504      33.484      43.983      55.197      66.116    
  75.627      82.678      86.435      86.435      82.678      75.628      88.371      75.626      61.796      48.166    
  35.833      25.593      17.883      12.736      9.7834      8.3485      7.5871      7.0615      6.7616      6.6609    
  6.7612      7.0624      7.5862      8.3491      9.7830      12.736      17.883      25.594      35.832      48.167    
  61.795      75.626      88.371      98.706      105.45      107.80      105.45      98.706      112.63      98.693    
  82.668      66.107      50.401      36.652      25.594      17.538      12.366      9.5400      8.2291      7.5150    
  7.0441      6.8154      6.8163      7.0438      7.5147      8.2298      9.5394      12.366      17.538      25.594    
  36.652      50.402      66.107      82.668      98.694      112.63      122.97      128.48      128.48      122.97    
  137.19      122.95      105.43      86.417      67.607      50.401      35.833      24.503      16.562      11.694    
  9.1929      8.0696      7.4245      7.0346      6.9088      7.0341      7.4246      8.0703      9.1919      11.695    
  16.561      24.503      35.833      50.402      67.606      86.418      105.43      122.95      137.19      146.51    
  149.76      146.51      159.92      146.50      128.46      107.77      86.417      66.107      48.166      33.485    
  22.483      15.111      10.846      8.8026      7.8845      7.3232      7.0463      7.0443      7.3259      7.8823    
  8.8037      10.845      15.111      22.483      33.485      48.166      66.107      86.417      107.77      128.46    
  146.50      159.92      167.09      167.09      178.46      167.08      149.74      128.46      105.43      82.668    
  61.796      43.982      29.922      19.826      13.413      9.9619      8.4224      7.6800      7.2295      7.0856    
  7.2299      7.6780      8.4251      9.9602      13.414      19.825      29.923      43.982      61.796      82.668    
  105.43      128.46      149.74      167.08      178.46      182.43      190.65      182.43      167.08      146.50    
  122.95      98.694      75.626      55.197      38.369      25.610      16.897      11.718      9.1649      8.0711    
  7.4627      7.1570      7.1545      7.4654      8.0700      9.1641      11.719      16.897      25.610      38.369    
  55.197      75.625      98.694      122.95      146.50      167.08      182.43      190.65      184.19      180.18    
  168.69      151.18      129.71      106.46      83.482      62.401      44.397      30.175      19.947      13.443    
  9.9329      8.3670      7.6179      7.1643      7.0193      7.1647      7.6159      8.3698      9.9314      13.443    
  19.947      30.175      44.397      62.402      83.482      106.46      129.70      151.18      168.69      180.18    
  180.18      180.18      172.43      157.95      138.51      116.24      93.265      71.401      52.047      36.138    
  24.132      15.995      11.214      8.8881      7.8760      7.2872      6.9938      6.9913      7.2901      7.8740    
  8.8881      11.214      15.994      24.131      36.138      52.046      71.401      93.265      116.24      138.51    
  157.95      172.43      168.69      172.43      168.69      157.95      141.58      121.46      99.653      78.073    
  58.281      41.409      28.137      18.665      12.708      9.5436      8.1379      7.4269      6.9933      6.8547    
  6.9934      7.4256      8.1404      9.5415      12.709      18.664      28.138      41.409      58.281      78.074    
  99.653      121.46      141.58      157.95      151.18      157.95      157.95      151.18      138.51      121.46    
  101.87      81.628      62.360      45.348      31.461      21.104      14.221      10.287      8.4249      7.5616    
  7.0174      6.7506      6.7489      7.0196      7.5591      8.4266      10.286      14.222      21.104      31.460    
  45.348      62.359      81.628      101.87      121.46      138.51      129.71      138.51      141.57      138.51    
  129.71      116.24      99.653      81.628      63.780      47.455      33.656      22.966      15.527      11.013    
  8.7248      7.6817      7.0547      6.6789      6.5572      6.6784      7.0553      7.6818      8.7242      11.014    
  15.526      22.967      33.656      47.456      63.779      81.628      99.653      116.24      106.46      116.24    
  121.45      121.45      116.24      106.46      93.265      78.074      62.359      47.456      34.424      23.975    
  16.408      11.595      8.9967      7.7848      7.0924      6.6364      6.4135      6.4152      6.6350      7.0930    
  7.7845      8.9963      11.595      16.408      23.975      34.423      47.456      62.360      78.073      93.266    
  83.482      93.270      99.656      101.88      99.655      93.269      83.482      71.400      58.280      45.349    
  33.656      23.974      16.721      11.916      9.1905      7.8621      7.1260      6.6106      6.3173      6.2190    
  6.3171      6.6114      7.1251      7.8635      9.1897      11.918      16.721      23.976      33.655      45.348    
  58.281      71.401      62.401      71.416      78.094      81.651      81.651      78.096      71.416      62.402    
  52.046      41.410      31.459      22.968      16.408      11.917      9.2598      7.9062      7.1463      6.5996    
  6.2546      6.0886      6.0887      6.2543      6.6000      7.1455      7.9064      9.2590      11.917      16.408    
  22.967      31.460      41.409      52.047      44.397      52.078      58.329      62.416      63.837      62.415    
  58.328      52.077      44.397      36.138      28.137      21.105      15.525      11.595      9.1898      7.9060    
  7.1538      6.5947      6.2215      6.0087      5.9416      6.0091      6.2211      6.5957      7.1535      7.9071    
  9.1896      11.596      15.525      21.104      28.138      36.138      30.175      36.185      41.488      45.446    
  47.562      47.563      45.447      41.489      36.185      30.175      24.132      18.665      14.220      11.015    
  8.9961      7.8632      7.1462      6.5950      6.2107      5.9719      5.8604      5.8598      5.9723      6.2098    
  6.5952      7.1453      7.8631      8.9958      11.015      14.222      18.664      24.132      19.947      24.193    
  28.246      31.602      33.816      34.589      33.816      31.600      28.245      24.192      19.947      15.994    
  12.708      10.288      8.7227      7.7856      7.1246      6.6000      6.2209      5.9722      5.8341      5.7908    
  5.8342      5.9729      6.2210      6.6007      7.1249      7.7856      8.7236      10.286      12.708      15.994    
  13.443      16.065      18.796      21.282      23.177      24.201      24.200      23.177      21.283      18.796    
  16.066      13.443      11.215      9.5425      8.4243      7.6835      7.0918      6.6121      6.2544      6.0090    
  5.8604      5.7902      5.7906      5.8593      6.0090      6.2536      6.6115      7.0921      7.6823      8.4265    
  9.5418      11.215      9.9315      11.291      12.854      14.426      15.773      16.683      17.005      16.683    
  15.773      14.424      12.853      11.291      9.9332      8.8862      8.1402      7.5613      7.0534      6.6365    