    2    2  100    2
  0.1048654E+02  0.2464457E-09  0.2464457E-09  0.3987391E-09  0.5000000E-15
  1.000000000000000E-004
  CAR 
 Co-hcc                                  
     18     70     16
 
  0.0000000E+00  0.0000000E+00  0.0000000E+00  0.1250000E-02
      1          1.626527        1.646785   1.000000   1.000000
      2          5.431188        6.403570   1.000000   1.000000
      3          8.051786        9.717057   1.000000   1.000000
      4          8.072611        9.746359   1.000000   1.000000
      5          8.072612        9.746359   1.000000   1.000000
      6          8.400925       10.130350   1.000000   1.000000
      7          8.400926       10.130350   1.000000   1.000000
      8          8.775060       10.570157   1.000000   0.999201
      9          8.775060       10.570158   1.000000   0.999201
     10          9.929594       10.601060   1.000000   0.988761
     11          9.929595       11.844690   1.000000   0.000000
     12         10.640507       11.844691   0.878289   0.000000
     13         17.375800       18.427669   0.000000   0.000000
     14         33.012817       32.758499   0.000000   0.000000
     15         35.915059       36.089171   0.000000   0.000000
     16         35.917586       36.323709   0.000000   0.000000
 
  0.1000000E+00  0.6938894E-17  0.0000000E+00  0.7500000E-02
      1          1.984659        2.006559   1.000000   1.000000
      2          5.643543        6.645336   1.000000   1.000000
      3          7.770276        9.381694   1.000000   1.000000
      4          8.242512        9.696414   1.000000   1.000000
      5          8.273921        9.933019   1.000000   1.000000
      6          8.360314        9.970052   1.000000   1.000000
      7          8.507559       10.068234   1.000000   1.000000
      8          8.551556       10.295840   1.000000   1.000000
      9          8.670095       10.447906   1.000000   1.000000
     10          8.987831       10.482551   1.000000   1.000000
     11          9.973514       11.896734   1.000000   0.000000
     12         12.089306       13.053516   0.000000   0.000000
     13         17.435530       18.454166   0.000000   0.000000
     14         30.538207       30.718486   0.000000   0.000000
     15         33.214453       33.479660   0.000000   0.000000
     16         33.409180       33.567985   0.000000   0.000000
 
  0.2000000E+00  0.1387779E-16  0.0000000E+00  0.7500000E-02
      1          2.997722        3.035527   1.000000   1.000000
      2          6.102365        7.204853   1.000000   1.000000
      3          7.442934        8.671060   1.000000   1.000000
      4          7.541895        8.938022   1.000000   1.000000
      5          8.114535        9.748726   1.000000   1.000000
      6          8.429043       10.169491   1.000000   1.000000
      7          8.645329       10.251906   1.000000   1.000000
      8          8.709249       10.449972   1.000000   1.000000
      9          8.734251       10.463724   1.000000   1.000000
     10          8.960067       10.746069   1.000000   0.034434
     11         10.056460       11.993624   1.000000   0.000000
     12         14.137948       14.985026   0.000000   0.000000
     13         17.654809       18.567861   0.000000   0.000000
     14         25.899020       26.315820   0.000000   0.000000
     15         30.374268       30.696577   0.000000   0.000000
     16         32.266233       32.424410   0.000000   0.000000
 
  0.3000000E+00  0.0000000E+00  0.0000000E+00  0.7500000E-02
      1          4.403898        4.544062   1.000000   1.000000
      2          6.226344        7.488245   1.000000   1.000000
      3          6.750881        7.931402   1.000000   1.000000
      4          7.414778        8.685323   1.000000   1.000000
      5          8.128769        9.700293   1.000000   1.000000
      6          8.170892        9.873569   1.000000   1.000000
      7          8.405676        9.973256   1.000000   1.000000
      8          9.331806       11.145828   1.000000   0.000000
      9          9.419644       11.151112   1.000000   0.000000
     10          9.503654       11.348782   1.000000   0.000000
     11         10.121446       12.068271   1.000000   0.000000
     12         16.454501       17.189222   0.000000   0.000000
     13         17.982094       18.712415   0.000000   0.000000
     14         21.738886       22.328513   0.000000   0.000000
     15         28.063194       28.329200   0.000000   0.000000
     16         29.266099       29.503426   0.000000   0.000000
 
  0.4000000E+00  0.2775558E-16  0.0000000E+00  0.7500000E-02
      1          5.491838        6.044061   1.000000   1.000000
      2          6.001716        7.268963   1.000000   1.000000
      3          6.273207        7.494638   1.000000   1.000000
      4          7.802652        8.709473   1.000000   1.000000
      5          7.982516        9.658750   1.000000   1.000000
      6          8.225203        9.752531   1.000000   1.000000
      7          8.388468        9.973349   1.000000   1.000000
      8          9.861704       11.758945   1.000000   0.000000
      9         10.002438       11.909986   1.000000   0.000000
     10         10.156159       12.107563   1.000000   0.000000
     11         10.642325       12.222482   0.867589   0.000000
     12         16.474800       17.226602   0.000000   0.000000
     13         18.935738       19.534562   0.000000   0.000000
     14         20.515660       21.089361   0.000000   0.000000
     15         25.846478       26.258840   0.000000   0.000000
     16         26.499751       26.698373   0.000000   0.000000
 
  0.5000000E+00  0.5551115E-16  0.0000000E+00  0.3750000E-02
      1          5.803009        6.750864   1.000000   1.000000
      2          5.854928        7.030707   1.000000   1.000000
      3          6.114021        7.350647   1.000000   1.000000
      4          7.913779        8.844748   1.000000   1.000000
      5          8.154081        9.580505   1.000000   1.000000
      6          8.157747        9.668995   1.000000   1.000000
      7          8.503743       10.106179   1.000000   1.000000
      8         10.062197       11.988030   1.000000   0.000000
      9         10.166269       12.118870   1.000000   0.000000
     10         10.218969       12.161228   1.000000   0.000000
     11         12.121129       13.400325   0.000000   0.000000
     12         14.217134       15.227597   0.000000   0.000000
     13         20.692914       21.141231   0.000000   0.000000
     14         21.384459       21.801631   0.000000   0.000000
     15         23.782246       24.360277   0.000000   0.000000
     16         25.136424       25.730340   0.000000   0.000000
 
  0.1000000E+00  0.1000000E+00  0.0000000E+00  0.7500000E-02
      1          2.673328        2.702725   1.000000   1.000000
      2          5.998625        7.060856   1.000000   1.000000
      3          7.481855        8.937563   1.000000   1.000000
      4          7.835110        9.025136   1.000000   1.000000
      5          8.193291        9.850909   1.000000   1.000000
      6          8.384857       10.106016   1.000000   1.000000
      7          8.501799       10.224127   1.000000   1.000000
      8          8.589755       10.312368   1.000000   1.000000
      9          8.806509       10.461868   1.000000   1.000000
     10          8.892891       10.661746   1.000000   0.714217
     11         10.017991       11.948393   1.000000   0.000000
     12         13.564623       14.443829   0.000000   0.000000
     13         17.581686       18.531169   0.000000   0.000000
     14         28.061539       28.359817   0.000000   0.000000
     15         28.778115       29.165187   0.000000   0.000000
     16         34.979275       34.909961   0.000000   0.000000
 
  0.2000000E+00  0.1000000E+00  0.0000000E+00  0.1500000E-01
      1          3.915329        3.988570   1.000000   1.000000
      2          6.377377        7.568544   1.000000   1.000000
      3          7.041638        8.198769   1.000000   1.000000
      4          7.190433        8.599210   1.000000   1.000000
      5          8.101121        9.693506   1.000000   1.000000
      6          8.106168        9.766702   1.000000   1.000000
      7          8.609042       10.250512   1.000000   1.000000
      8          8.857892       10.612934   1.000000   0.974194
      9          9.185803       10.970177   1.000000   0.000000
     10          9.516977       11.308570   1.000000   0.000000
     11         10.063996       12.001535   1.000000   0.000000
     12         15.627667       16.411348   0.000000   0.000000
     13         17.951964       18.757992   0.000000   0.000000
     14         23.814470       24.297521   0.000000   0.000000
     15         26.459444       26.836295   0.000000   0.000000
     16         31.287172       31.404142   0.000000   0.000000
 
  0.3000000E+00  0.1000000E+00  0.0000000E+00  0.1500000E-01
      1          5.260032        5.558917   1.000000   1.000000
      2          6.254463        7.543929   1.000000   1.000000
      3          6.474426        7.687853   1.000000   1.000000
      4          7.339963        8.495420   1.000000   1.000000
      5          7.925005        9.546852   1.000000   1.000000
      6          8.274624        9.849434   1.000000   1.000000
      7          8.352550        9.944221   1.000000   1.000000
      8          9.425209       11.224988   1.000000   0.000000
      9          9.771678       11.633812   1.000000   0.000000
     10         10.095580       12.037579   1.000000   0.000000
     11         10.415606       12.138938   1.000000   0.000000
     12         17.944413       18.593539   0.000000   0.000000
     13         18.003987       18.675380   0.000000   0.000000
     14         20.589156       21.213817   0.000000   0.000000
     15         24.849386       25.197542   0.000000   0.000000
     16         27.665316       27.974149   0.000000   0.000000
 
  0.4000000E+00  0.1000000E+00  0.0000000E+00  0.1500000E-01
      1          5.894738        6.723872   1.000000   1.000000
      2          6.044768        7.267798   1.000000   1.000000
      3          6.187134        7.434071   1.000000   1.000000
      4          7.801910        8.621462   1.000000   1.000000
      5          7.863970        9.492397   1.000000   1.000000
      6          8.153080        9.682829   1.000000   1.000000
      7          8.497119       10.104678   1.000000   1.000000
      8          9.956299       11.843776   1.000000   0.000000
      9         10.081261       11.993556   1.000000   0.000000
     10         10.109009       12.052592   1.000000   0.000000
     11         11.914027       13.274275   0.000000   0.000000
     12         15.292485       16.183748   0.000000   0.000000
     13         20.423242       20.945456   0.000000   0.000000
     14         21.249890       21.718749   0.000000   0.000000
     15         23.808201       24.144506   0.000000   0.000000
     16         24.625778       25.123332   0.000000   0.000000
 
  0.2000000E+00  0.2000000E+00  0.0000000E+00  0.7500000E-02
      1          5.194037        5.386385   1.000000   1.000000
      2          6.603453        7.813988   1.000000   1.000000
      3          6.658051        7.904716   1.000000   1.000000
      4          6.833059        8.159114   1.000000   1.000000
      5          7.826381        9.428815   1.000000   1.000000
      6          8.234062        9.807881   1.000000   1.000000
      7          8.446751       10.058179   1.000000   1.000000
      8          9.067378       10.856318   1.000000   0.000000
      9          9.776875       11.629473   1.000000   0.000000
     10         10.037266       11.970590   1.000000   0.000000
     11         10.449727       12.175000   1.000000   0.000000
     12         17.694129       18.397735   0.000000   0.000000
     13         18.571554       19.221509   0.000000   0.000000
     14         21.884096       22.403757   0.000000   0.000000
     15         22.538104       23.021838   0.000000   0.000000
     16         29.659899       29.750462   0.000000   0.000000
 
  0.3000000E+00  0.2000000E+00  0.0000000E+00  0.1500000E-01
      1          6.167631        6.761984   1.000000   1.000000
      2          6.323835        7.590528   1.000000   1.000000
      3          6.452247        7.710867   1.000000   1.000000
      4          7.089424        8.172518   1.000000   1.000000
      5          7.732604        9.298854   1.000000   1.000000
      6          8.181337        9.738239   1.000000   1.000000
      7          8.493142       10.101548   1.000000   1.000000
      8          9.469156       11.298813   1.000000   0.000000
      9         10.013437       11.943161   1.000000   0.000000
     10         10.084958       11.990044   1.000000   0.000000
     11         11.871727       13.323602   0.000000   0.000000
     12         17.506490       18.180484   0.000000   0.000000
     13         20.115226       20.715927   0.000000   0.000000
     14         20.260635       20.798431   0.000000   0.000000
     15         21.662678       22.128065   0.000000   0.000000
     16         26.575271       26.944420   0.000000   0.000000
 
  0.4000000E+00  0.2000000E+00  0.0000000E+00  0.7500000E-02
      1          6.229538        7.324241   1.000000   1.000000
      2          6.332397        7.520188   1.000000   1.000000
      3          6.365018        7.553271   1.000000   1.000000
      4          7.400137        8.294189   1.000000   1.000000
      5          7.765744        9.345283   1.000000   1.000000
      6          8.010583        9.516119   1.000000   1.000000
      7          8.622576       10.258039   1.000000   1.000000
      8          9.825345       11.695218   1.000000   0.000000
      9         10.004468       11.932737   1.000000   0.000000
     10         10.030775       11.935713   1.000000   0.000000
     11         13.579404       14.608461   0.000000   0.000000
     12         15.041838       16.027842   0.000000   0.000000
     13         20.245018       20.727160   0.000000   0.000000
     14         22.058926       22.535363   0.000000   0.000000
     15         22.377827       22.786512   0.000000   0.000000
     16         24.311786       24.839183   0.000000   0.000000
 
  0.3000000E+00  0.3000000E+00  0.0000000E+00  0.7500000E-02
      1          6.277897        7.585101   1.000000   1.000000
      2          6.568710        7.596305   1.000000   1.000000
      3          6.728269        7.895389   1.000000   1.000000
      4          6.966353        7.942273   1.000000   1.000000
      5          7.725760        9.251227   1.000000   1.000000
      6          7.930204        9.447931   1.000000   1.000000
      7          8.717202       10.359765   1.000000   1.000000
      8          9.657775       11.517600   1.000000   0.000000
      9          9.952324       11.873487   1.000000   0.000000
     10          9.986548       11.884301   1.000000   0.000000
     11         14.010773       15.053107   0.000000   0.000000
     12         17.052797       17.775380   0.000000   0.000000
     13         17.095811       17.784279   0.000000   0.000000
     14         22.611357       23.128700   0.000000   0.000000
     15         22.865910       23.287370   0.000000   0.000000
     16         25.512504       25.968248   0.000000   0.000000
 
  0.0000000E+00  0.0000000E+00  0.1250000E+00  0.2500000E-02
      1          1.788245        1.809149   1.000000   1.000000
      2          5.402686        6.293915   1.000000   1.000000
      3          8.009191        9.662347   1.000000   1.000000
      4          8.029503        9.700941   1.000000   1.000000
      5          8.029504        9.700942   1.000000   1.000000
      6          8.356105       10.078899   1.000000   1.000000
      7          8.356106       10.078900   1.000000   1.000000
      8          8.876811       10.195877   1.000000   1.000000
      9          8.876811       10.681711   1.000000   0.500422
     10          9.920954       10.681711   1.000000   0.500412
     11          9.920954       11.837261   1.000000   0.000000
     12         10.022502       11.837262   1.000000   0.000000
     13         18.306331       19.226510   0.000000   0.000000
     14         32.942874       32.662044   0.000000   0.000000
     15         35.318745       35.326462   0.000000   0.000000
     16         35.889125       35.732335   0.000000   0.000000
 
  0.1000000E+00  0.6938894E-17  0.1250000E+00  0.1500000E-01
      1          2.142582        2.165621   1.000000   1.000000
      2          5.627319        6.548163   1.000000   1.000000
      3          7.773527        9.385592   1.000000   1.000000
      4          8.158923        9.422586   1.000000   1.000000
      5          8.179827        9.842453   1.000000   1.000000
      6          8.180308        9.867639   1.000000   1.000000
      7          8.498501       10.094544   1.000000   1.000000
      8          8.652470       10.233602   1.000000   1.000000
      9          8.803392       10.594480   1.000000   0.993212
     10          8.962947       10.626305   1.000000   0.941578
     11          9.958596       11.881731   1.000000   0.000000
     12         11.521920       12.748821   0.000000   0.000000
     13         18.438469       19.320203   0.000000   0.000000
     14         30.633003       30.793327   0.000000   0.000000
     15         33.352515       33.396815   0.000000   0.000000
     16         33.374208       33.725047   0.000000   0.000000
 
  0.2000000E+00  0.1387779E-16  0.1250000E+00  0.1500000E-01
      1          3.139554        3.182005   1.000000   1.000000
      2          6.121495        7.149718   1.000000   1.000000
      3          7.399392        8.525212   1.000000   1.000000
      4          7.479762        8.967690   1.000000   1.000000
      5          8.044642        9.691905   1.000000   1.000000
      6          8.387301       10.091376   1.000000   1.000000
      7          8.511699       10.114220   1.000000   1.000000
      8          8.792486       10.544024   1.000000   0.999951
      9          8.931697       10.677794   1.000000   0.544524
     10          8.941118       10.731460   1.000000   0.079853
     11         10.028761       11.963234   1.000000   0.000000
     12         13.239035       14.296243   0.000000   0.000000
     13         18.898124       19.667207   0.000000   0.000000
     14         26.036342       26.448516   0.000000   0.000000
     15         30.569191       30.894232   0.000000   0.000000
     16         31.560807       31.725806   0.000000   0.000000
 
  0.3000000E+00  0.0000000E+00  0.1250000E+00  0.1500000E-01
      1          4.492489        4.656278   1.000000   1.000000
      2          6.262677        7.471133   1.000000   1.000000
      3          6.722738        7.888525   1.000000   1.000000
      4          7.394852        8.715223   1.000000   1.000000
      5          8.031735        9.581152   1.000000   1.000000
      6          8.216679        9.922651   1.000000   1.000000
      7          8.547179       10.047513   1.000000   1.000000
      8          9.352696       11.170905   1.000000   0.000000
      9          9.413956       11.172590   1.000000   0.000000
     10          9.456565       11.299659   1.000000   0.000000
     11         10.085325       12.027094   1.000000   0.000000
     12         14.977686       15.866020   0.000000   0.000000
     13         19.661841       20.284579   0.000000   0.000000
     14         21.920892       22.497619   0.000000   0.000000
     15         28.027041       28.373955   0.000000   0.000000
     16         28.287270       28.561404   0.000000   0.000000
 
  0.4000000E+00  0.2775558E-16  0.1250000E+00  0.1500000E-01
      1          5.435597        6.062162   1.000000   1.000000
      2          5.996428        7.229094   1.000000   1.000000
      3          6.461494        7.621774   1.000000   1.000000
      4          7.398487        8.561508   1.000000   1.000000
      5          8.047561        9.729651   1.000000   1.000000
      6          8.378309        9.905336   1.000000   1.000000
      7          8.752116       10.064434   1.000000   1.000000
      8          9.863797       11.764723   1.000000   0.000000
      9          9.924205       11.820090   1.000000   0.000000
     10         10.138592       12.082513   1.000000   0.000000
     11         10.554913       12.141672   0.999833   0.000000
     12         15.768893       16.478637   0.000000   0.000000
     13         18.702743       19.476061   0.000000   0.000000
     14         21.482074       21.933455   0.000000   0.000000
     15         24.930039       25.451115   0.000000   0.000000
     16         26.745563       26.957614   0.000000   0.000000
 
  0.5000000E+00  0.5551115E-16  0.1250000E+00  0.7500000E-02
      1          5.626716        6.612160   1.000000   1.000000
      2          5.836919        7.047466   1.000000   1.000000
      3          6.448887        7.621664   1.000000   1.000000
      4          7.429444        8.486863   1.000000   1.000000
      5          7.983843        9.657020   1.000000   1.000000
      6          8.504923       10.075512   1.000000   1.000000
      7          8.992080       10.179456   1.000000   1.000000
      8         10.006797       11.931460   1.000000   0.000000
      9         10.122312       12.058213   1.000000   0.000000
     10         10.214361       12.156079   1.000000   0.000000
     11         11.999520       13.216367   0.000000   0.000000
     12         14.116459       15.091746   0.000000   0.000000
     13         20.123031       20.675463   0.000000   0.000000
     14         20.501963       21.077980   0.000000   0.000000
     15         24.963016       25.403318   0.000000   0.000000
     16         26.030961       26.371906   0.000000   0.000000
 
  0.1000000E+00  0.1000000E+00  0.1250000E+00  0.1500000E-01
      1          2.821675        2.854006   1.000000   1.000000
      2          6.007757        6.991652   1.000000   1.000000
      3          7.501939        8.756465   1.000000   1.000000
      4          7.649111        9.049417   1.000000   1.000000
      5          8.180054        9.856414   1.000000   1.000000
      6          8.264005        9.899906   1.000000   1.000000
      7          8.485349       10.161591   1.000000   1.000000
      8          8.656529       10.396757   1.000000   1.000000
      9          8.914405       10.641639   1.000000   0.871696
     10          8.922209       10.695949   1.000000   0.343967
     11          9.997742       11.925673   1.000000   0.000000
     12         12.776237       13.874603   0.000000   0.000000
     13         18.740718       19.547009   0.000000   0.000000
     14         28.181343       28.471932   0.000000   0.000000
     15         28.928645       29.313348   0.000000   0.000000
     16         33.864389       33.888828   0.000000   0.000000
 
  0.2000000E+00  0.1000000E+00  0.1250000E+00  0.3000000E-01
      1          4.033457        4.118523   1.000000   1.000000
      2          6.425007        7.557411   1.000000   1.000000
      3          6.942454        8.092542   1.000000   1.000000
      4          7.231407        8.639463   1.000000   1.000000
      5          7.973738        9.591012   1.000000   1.000000
      6          8.218724        9.832597   1.000000   1.000000
      7          8.522981       10.170276   1.000000   1.000000
      8          8.908921       10.670126   1.000000   0.628820
      9          9.268473       11.055481   1.000000   0.000000
     10          9.466252       11.267294   1.000000   0.000000
     11         10.052742       11.980006   1.000000   0.000000
     12         14.409453       15.372660   0.000000   0.000000
     13         19.455355       20.128612   0.000000   0.000000
     14         23.963313       24.443483   0.000000   0.000000
     15         26.619599       26.998993   0.000000   0.000000
     16         30.200165       30.423532   0.000000   0.000000
 
  0.3000000E+00  0.1000000E+00  0.1250000E+00  0.3000000E-01
      1          5.283414        5.633089   1.000000   1.000000
      2          6.289619        7.517544   1.000000   1.000000
      3          6.512998        7.713439   1.000000   1.000000
      4          7.269818        8.519722   1.000000   1.000000
      5          7.962424        9.524239   1.000000   1.000000
      6          8.293676        9.905100   1.000000   1.000000
      7          8.449001        9.950681   1.000000   1.000000
      8          9.409574       11.216200   1.000000   0.000000
      9          9.817909       11.682398   1.000000   0.000000
     10          9.954845       11.838416   1.000000   0.000000
     11         10.455819       12.226202   1.000000   0.000000
     12         16.006799       16.762753   0.000000   0.000000
     13         19.540698       20.216924   0.000000   0.000000
     14         21.294987       21.823250   0.000000   0.000000
     15         24.994239       25.361828   0.000000   0.000000
     16         26.597562       26.994434   0.000000   0.000000
 
  0.4000000E+00  0.1000000E+00  0.1250000E+00  0.3000000E-01
      1          5.737373        6.653003   1.000000   1.000000
      2          6.032386        7.254590   1.000000   1.000000
      3          6.502544        7.654391   1.000000   1.000000
      4          7.350093        8.429609   1.000000   1.000000
      5          7.898842        9.523330   1.000000   1.000000
      6          8.523621        9.922238   1.000000   1.000000
      7          8.624849       10.130596   1.000000   1.000000
      8          9.914965       11.805769   1.000000   0.000000
      9         10.020663       11.933808   1.000000   0.000000
     10         10.111457       12.029068   1.000000   0.000000
     11         11.895577       13.222427   0.000000   0.000000
     12         15.129031       15.972653   0.000000   0.000000
     13         19.442579       20.114064   0.000000   0.000000
     14         21.580864       22.040141   0.000000   0.000000
     15         23.941917       24.324554   0.000000   0.000000
     16         24.898413       25.345813   0.000000   0.000000
 
  0.2000000E+00  0.2000000E+00  0.1250000E+00  0.1500000E-01
      1          5.256645        5.480611   1.000000   1.000000
      2          6.514411        7.725844   1.000000   1.000000
      3          6.781490        7.981872   1.000000   1.000000
      4          6.862711        8.200752   1.000000   1.000000
      5          7.871146        9.429831   1.000000   1.000000
      6          8.217477        9.799480   1.000000   1.000000
      7          8.375597        9.984580   1.000000   1.000000
      8          9.098280       10.887251   1.000000   0.000000
      9          9.837915       11.698290   1.000000   0.000000
     10          9.885233       11.772795   1.000000   0.000000
     11         10.525972       12.283081   0.999995   0.000000
     12         15.978801       16.786910   0.000000   0.000000
     13         20.468362       21.045496   0.000000   0.000000
     14         22.039370       22.559858   0.000000   0.000000
     15         22.742479       23.222003   0.000000   0.000000
     16         28.570090       28.793151   0.000000   0.000000
 
  0.3000000E+00  0.2000000E+00  0.1250000E+00  0.3000000E-01
      1          6.066287        6.781799   1.000000   1.000000
      2          6.442990        7.580323   1.000000   1.000000
      3          6.511477        7.769322   1.000000   1.000000
      4          7.052416        8.232632   1.000000   1.000000
      5          7.814313        9.328350   1.000000   1.000000
      6          8.153159        9.664797   1.000000   1.000000
      7          8.510389       10.117580   1.000000   1.000000
      8          9.477143       11.308329   1.000000   0.000000
      9          9.884359       11.790074   1.000000   0.000000
     10         10.126710       12.039895   1.000000   0.000000
     11         11.938515       13.378572   0.000000   0.000000
     12         17.013360       17.660968   0.000000   0.000000
     13         19.214498       19.912880   0.000000   0.000000
     14         21.067693       21.588586   0.000000   0.000000
     15         22.507921       22.939884   0.000000   0.000000
     16         25.633717       26.085717   0.000000   0.000000
 
  0.4000000E+00  0.2000000E+00  0.1250000E+00  0.1500000E-01
      1          6.071587        7.185135   1.000000   1.000000
      2          6.382791        7.596092   1.000000   1.000000
      3          6.630992        7.782375   1.000000   1.000000
      4          7.191869        8.202339   1.000000   1.000000
      5          7.738628        9.302980   1.000000   1.000000
      6          8.167815        9.572994   1.000000   1.000000
      7          8.654711       10.287056   1.000000   1.000000
      8          9.829235       11.700581   1.000000   0.000000
      9          9.862575       11.765531   1.000000   0.000000
     10         10.066021       11.976670   1.000000   0.000000
     11         13.675523       14.677425   0.000000   0.000000
     12         15.036389       15.998137   0.000000   0.000000
     13         20.177371       20.696292   0.000000   0.000000
     14         21.318135       21.855897   0.000000   0.000000
     15         21.606048       22.121687   0.000000   0.000000
     16         25.547731       25.983994   0.000000   0.000000
 
  0.3000000E+00  0.3000000E+00  0.1250000E+00  0.1500000E-01
      1          6.306426        7.601191   1.000000   1.000000
      2          6.589758        7.619507   1.000000   1.000000
      3          6.782361        7.956503   1.000000   1.000000
      4          6.934126        7.982004   1.000000   1.000000
      5          7.776295        9.252420   1.000000   1.000000
      6          7.874892        9.364760   1.000000   1.000000