       N       E                     dE             d eps       ncg     rms          rms(c)
DAV:   1     0.684654883837E+02    0.68465E+02   -0.67200E+03  4704   0.120E+03
DAV:   2    -0.135356135436E+02   -0.82001E+02   -0.75580E+02  4512   0.223E+02
DAV:   3    -0.155339700514E+02   -0.19984E+01   -0.19688E+01  5696   0.476E+01
DAV:   4    -0.155691120666E+02   -0.35142E-01   -0.35136E-01  6424   0.477E+00
DAV:   5    -0.155693333630E+02   -0.22130E-03   -0.22130E-03  5632   0.368E-01    0.168E+01
DAV:   6    -0.143845326693E+02    0.11848E+01   -0.10216E+01  4816   0.663E+01    0.613E+00
DAV:   7    -0.140941205789E+02    0.29041E+00   -0.13424E+00  5176   0.228E+01    0.384E+00
DAV:   8    -0.140696478141E+02    0.24473E-01   -0.18840E-02  6400   0.189E+00    0.183E+00
DAV:   9    -0.140551532355E+02    0.14495E-01   -0.55484E-03  6672   0.135E+00    0.512E-01
DAV:  10    -0.140543039792E+02    0.84926E-03   -0.68940E-04  6112   0.349E-01    0.776E-02
DAV:  11    -0.140543449700E+02   -0.40991E-04   -0.69953E-05  6664   0.141E-01    0.287E-02
DAV:  12    -0.140543437856E+02    0.11844E-05   -0.65644E-06  5032   0.274E-02    0.137E-02
DAV:  13    -0.140543429097E+02    0.87593E-06   -0.10919E-06  3184   0.158E-02
   1 F= -.14054343E+02 E0= -.14052848E+02  d E =-.140543E+02  mag=     3.2947
