PROCAR lm decomposed
# of k-points:   70         # of bands:   16         # of ions:    2

 k-point     1 :    0.00000000 0.00000000 0.00000000     weight = 0.00125000

band     1 # energy    1.62652667 # occ.  1.00000000
 
ion      s     py     pz     px    dxy    dyz    dz2    dxz  x2-y2    tot
    1  0.377  0.000  0.000  0.000  0.000  0.000  0.000  0.000  0.000  0.377
    2  0.377  0.000  0.000  0.000  0.000  0.000  0.000  0.000  0.000  0.377
tot    0.754  0.000  0.000  0.000  0.000  0.000  0.000  0.000  0.000  0.754
 
band     2 # energy    5.43118845 # occ.  1.00000000
 
ion      s     py     pz     px    dxy    dyz    dz2    dxz  x2-y2    tot
    1  0.083  0.000  0.000  0.000  0.000  0.000  0.370  0.000  0.000  0.453
    2  0.083  0.000  0.000  0.000  0.000  0.000  0.370  0.000  0.000  0.453
tot    0.167  0.000  0.000  0.000  0.000  0.000  0.739  0.000  0.000  0.906
 
band     3 # energy    8.05178583 # occ.  1.00000000
 
ion      s     py     pz     px    dxy    dyz    dz2    dxz  x2-y2    tot
    1  0.000  0.000  0.000  0.000  0.000  0.000  0.487  0.000  0.000  0.487
    2  0.000  0.000  0.000  0.000  0.000  0.000  0.487  0.000  0.000  0.487
tot    0.000  0.000  0.000  0.000  0.000  0.000  0.975  0.000  0.000  0.975
 
band     4 # energy    8.07261085 # occ.  1.00000000
 
ion      s     py     pz     px    dxy    dyz    dz2    dxz  x2-y2    tot
    1  0.000  0.000  0.000  0.000  0.363  0.000  0.000  0.000  0.121  0.484
    2  0.000  0.000  0.000  0.000  0.363  0.000  0.000  0.000  0.121  0.484
tot    0.000  0.000  0.000  0.001  0.725  0.000  0.000  0.000  0.242  0.968
 
band     5 # energy    8.07261161 # occ.  1.00000000
 
ion      s     py     pz     px    dxy    dyz    dz2    dxz  x2-y2    tot
    1  0.000  0.000  0.000  0.000  0.121  0.000  0.000  0.000  0.363  0.484
    2  0.000  0.000  0.000  0.000  0.121  0.000  0.000  0.000  0.363  0.484
tot    0.000  0.001  0.000  0.000  0.242  0.000  0.000  0.000  0.725  0.968
 
band     6 # energy    8.40092508 # occ.  1.00000000
 
ion      s     py     pz     px    dxy    dyz    dz2    dxz  x2-y2    tot
    1  0.000  0.000  0.000  0.001  0.366  0.000  0.000  0.000  0.122  0.488
    2  0.000  0.000  0.000  0.001  0.366  0.000  0.000  0.000  0.122  0.488
tot    0.000  0.000  0.000  0.001  0.732  0.000  0.000  0.000  0.244  0.977
 
band     7 # energy    8.40092589 # occ.  1.00000000
 
ion      s     py     pz     px    dxy    dyz    dz2    dxz  x2-y2    tot
    1  0.000  0.001  0.000  0.000  0.122  0.000  0.000  0.000  0.366  0.488
    2  0.000  0.001  0.000  0.000  0.122  0.000  0.000  0.000  0.366  0.488
tot    0.000  0.001  0.000  0.000  0.244  0.000  0.000  0.000  0.732  0.977
 
band     8 # energy    8.77505958 # occ.  1.00000000
 
ion      s     py     pz     px    dxy    dyz    dz2    dxz  x2-y2    tot
    1  0.000  0.000  0.000  0.000  0.000  0.368  0.000  0.123  0.000  0.490
    2  0.000  0.000  0.000  0.000  0.000  0.368  0.000  0.123  0.000  0.490
tot    0.000  0.000  0.000  0.000  0.000  0.736  0.000  0.245  0.000  0.981
 
band     9 # energy    8.77505999 # occ.  1.00000000
 
ion      s     py     pz     px    dxy    dyz    dz2    dxz  x2-y2    tot
    1  0.000  0.000  0.000  0.000  0.000  0.123  0.000  0.368  0.000  0.490
    2  0.000  0.000  0.000  0.000  0.000  0.123  0.000  0.368  0.000  0.490
tot    0.000  0.000  0.000  0.000  0.000  0.245  0.000  0.736  0.000  0.981
 
band    10 # energy    9.92959410 # occ.  1.00000000
 
ion      s     py     pz     px    dxy    dyz    dz2    dxz  x2-y2    tot
    1  0.000  0.000  0.000  0.000  0.000  0.369  0.000  0.123  0.000  0.493
    2  0.000  0.000  0.000  0.000  0.000  0.369  0.000  0.123  0.000  0.493
tot    0.000  0.000  0.000  0.000  0.000  0.739  0.000  0.246  0.000  0.985
 
band    11 # energy    9.92959466 # occ.  1.00000000
 
ion      s     py     pz     px    dxy    dyz    dz2    dxz  x2-y2    tot
    1  0.000  0.000  0.000  0.000  0.000  0.123  0.000  0.369  0.000  0.493
    2  0.000  0.000  0.000  0.000  0.000  0.123  0.000  0.369  0.000  0.493
tot    0.000  0.000  0.000  0.000  0.000  0.246  0.000  0.739  0.000  0.985
 
band    12 # energy   10.64050679 # occ.  0.87828939
 
ion      s     py     pz     px    dxy    dyz    dz2    dxz  x2-y2    tot
    1  0.000  0.000  0.360  0.000  0.000  0.000  0.000  0.000  0.000  0.360
    2  0.000  0.000  0.360  0.000  0.000  0.000  0.000  0.000  0.000  0.360
tot    0.000  0.000  0.719  0.000  0.000  0.000  0.000  0.000  0.000  0.719
 
band    13 # energy   17.37579990 # occ.  0.00000000
 
ion      s     py     pz     px    dxy    dyz    dz2    dxz  x2-y2    tot
    1  0.227  0.000  0.000  0.000  0.000  0.000  0.235  0.000  0.000  0.462
    2  0.227  0.000  0.000  0.000  0.000  0.000  0.235  0.000  0.000  0.462
tot    0.454  0.000  0.000  0.000  0.000  0.000  0.470  0.000  0.000  0.924
 
band    14 # energy   33.01281662 # occ.  0.00000000
 
ion      s     py     pz     px    dxy    dyz    dz2    dxz  x2-y2    tot
    1  0.007  0.000  0.000  0.000  0.000  0.000  0.033  0.000  0.000  0.039
    2  0.007  0.000  0.000  0.000  0.000  0.000  0.033  0.000  0.000  0.039
tot    0.013  0.000  0.000  0.000  0.000  0.000  0.065  0.000  0.000  0.079
 
band    15 # energy   35.91505879 # occ.  0.00000000
 
ion      s     py     pz     px    dxy    dyz    dz2    dxz  x2-y2    tot
    1  0.000  0.240  0.000  0.028  0.014  0.000  0.000  0.000  0.115  0.397
    2  0.000  0.240  0.000  0.028  0.014  0.000  0.000  0.000  0.115  0.397
tot    0.000  0.480  0.000  0.057  0.027  0.000  0.000  0.000  0.231  0.795
 
band    16 # energy   35.91758609 # occ.  0.00000000
 
ion      s     py     pz     px    dxy    dyz    dz2    dxz  x2-y2    tot
    1  0.000  0.028  0.000  0.239  0.114  0.000  0.000  0.000  0.014  0.395
    2  0.000  0.028  0.000  0.237  0.116  0.000  0.000  0.000  0.014  0.396
tot    0.000  0.056  0.000  0.476  0.231  0.000  0.001  0.000  0.027  0.791
 

 k-point     2 :    0.10000000 0.00000000 0.00000000     weight = 0.00750000

band     1 # energy    1.98465856 # occ.  1.00000000
 
ion      s     py     pz     px    dxy    dyz    dz2    dxz  x2-y2    tot
    1  0.364  0.003  0.000  0.009  0.000  0.000  0.000  0.000  0.000  0.377
    2  0.364  0.003  0.000  0.009  0.000  0.000  0.000  0.000  0.000  0.377
tot    0.728  0.006  0.000  0.019  0.000  0.000  0.000  0.000  0.000  0.754
 
band     2 # energy    5.64354320 # occ.  1.00000000
 
ion      s     py     pz     px    dxy    dyz    dz2    dxz  x2-y2    tot
    1  0.072  0.002  0.000  0.006  0.003  0.000  0.370  0.000  0.001  0.454
    2  0.072  0.002  0.000  0.006  0.003  0.000  0.370  0.000  0.001  0.454
tot    0.144  0.004  0.000  0.011  0.007  0.000  0.740  0.000  0.002  0.908
 
band     3 # energy    7.77027628 # occ.  1.00000000
 
ion      s     py     pz     px    dxy    dyz    dz2    dxz  x2-y2    tot
    1  0.000  0.000  0.000  0.001  0.245  0.000  0.153  0.000  0.082  0.481
    2  0.000  0.000  0.000  0.001  0.245  0.000  0.153  0.000  0.082  0.481
tot    0.000  0.001  0.000  0.003  0.490  0.000  0.306  0.000  0.163  0.962
 
band     4 # energy    8.24251161 # occ.  1.00000000
 
ion      s     py     pz     px    dxy    dyz    dz2    dxz  x2-y2    tot
    1  0.000  0.001  0.000  0.000  0.121  0.000  0.000  0.000  0.362  0.484
    2  0.000  0.001  0.000  0.000  0.121  0.000  0.000  0.000  0.362  0.484
tot    0.000  0.002  0.000  0.001  0.241  0.000  0.000  0.000  0.724  0.968
 
band     5 # energy    8.27392107 # occ.  1.00000000
 
ion      s     py     pz     px    dxy    dyz    dz2    dxz  x2-y2    tot
    1  0.001  0.000  0.000  0.001  0.233  0.000  0.175  0.000  0.078  0.487
    2  0.001  0.000  0.000  0.001  0.233  0.000  0.175  0.000  0.078  0.487
tot    0.001  0.000  0.000  0.001  0.465  0.000  0.350  0.000  0.155  0.974
 
band     6 # energy    8.36031410 # occ.  1.00000000
 
ion      s     py     pz     px    dxy    dyz    dz2    dxz  x2-y2    tot
    1  0.001  0.000  0.000  0.000  0.242  0.000  0.162  0.000  0.081  0.487
    2  0.001  0.000  0.000  0.000  0.242  0.000  0.162  0.000  0.081  0.487
tot    0.002  0.000  0.000  0.001  0.484  0.000  0.325  0.000  0.161  0.974
 
band     7 # energy    8.50755884 # occ.  1.00000000
 
ion      s     py     pz     px    dxy    dyz    dz2    dxz  x2-y2    tot
    1  0.000  0.000  0.030  0.000  0.000  0.111  0.000  0.333  0.000  0.474
    2  0.000  0.000  0.030  0.000  0.000  0.111  0.000  0.333  0.000  0.474
tot    0.000  0.000  0.060  0.000  0.000  0.222  0.000  0.666  0.000  0.948
 
band     8 # energy    8.55155552 # occ.  1.00000000
 
ion      s     py     pz     px    dxy    dyz    dz2    dxz  x2-y2    tot
    1  0.000  0.001  0.000  0.000  0.122  0.000  0.000  0.000  0.365  0.489
    2  0.000  0.001  0.000  0.000  0.122  0.000  0.000  0.000  0.365  0.489
tot    0.000  0.002  0.000  0.001  0.244  0.000  0.000  0.000  0.731  0.977
 
band     9 # energy    8.67009464 # occ.  1.00000000
 
ion      s     py     pz     px    dxy    dyz    dz2    dxz  x2-y2    tot
    1  0.000  0.000  0.000  0.000  0.000  0.367  0.000  0.122  0.000  0.489
    2  0.000  0.000  0.000  0.000  0.000  0.367  0.000  0.122  0.000  0.489
tot    0.000  0.000  0.000  0.000  0.000  0.734  0.000  0.245  0.000  0.978
 
band    10 # energy    8.98783125 # occ.  1.00000000
 
ion      s     py     pz     px    dxy    dyz    dz2    dxz  x2-y2    tot
    1  0.000  0.000  0.080  0.000  0.000  0.095  0.000  0.284  0.000  0.459
    2  0.000  0.000  0.080  0.000  0.000  0.095  0.000  0.284  0.000  0.459
tot    0.000  0.000  0.160  0.000  0.000  0.189  0.000  0.568  0.000  0.918
 
band    11 # energy    9.97351383 # occ.  1.00000000
 
ion      s     py     pz     px    dxy    dyz    dz2    dxz  x2-y2    tot
    1  0.000  0.000  0.000  0.000  0.000  0.370  0.000  0.123  0.000  0.493
    2  0.000  0.000  0.000  0.000  0.000  0.370  0.000  0.123  0.000  0.493
tot    0.000  0.000  0.000  0.000  0.000  0.740  0.000  0.247  0.000  0.987
 
band    12 # energy   12.08930649 # occ.  0.00000000
 
ion      s     py     pz     px    dxy    dyz    dz2    dxz  x2-y2    tot
    1  0.000  0.000  0.244  0.000  0.000  0.041  0.000  0.124  0.000  0.410
    2  0.000  0.000  0.244  0.000  0.000  0.041  0.000  0.124  0.000  0.410
tot    0.000  0.000  0.489  0.000  0.000  0.083  0.000  0.249  0.000  0.820
 
band    13 # energy   17.43553023 # occ.  0.00000000
 
ion      s     py     pz     px    dxy    dyz    dz2    dxz  x2-y2    tot
    1  0.221  0.003  0.000  0.008  0.000  0.000  0.226  0.000  0.000  0.459
    2  0.221  0.003  0.000  0.008  0.000  0.000  0.226  0.000  0.000  0.459
tot    0.443  0.005  0.000  0.016  0.000  0.000  0.452  0.000  0.000  0.917
 
band    14 # energy   30.53820654 # occ.  0.00000000
 
ion      s     py     pz     px    dxy    dyz    dz2    dxz  x2-y2    tot
    1  0.018  0.027  0.000  0.082  0.123  0.000  0.024  0.000  0.041  0.316
    2  0.018  0.027  0.000  0.082  0.123  0.000  0.024  0.000  0.041  0.316
tot    0.036  0.055  0.000  0.164  0.247  0.000  0.048  0.000  0.082  0.631
 
band    15 # energy   33.21445272 # occ.  0.00000000
 
ion      s     py     pz     px    dxy    dyz    dz2    dxz  x2-y2    tot
    1  0.000  0.177  0.000  0.059  0.043  0.000  0.000  0.000  0.129  0.408
    2  0.000  0.177  0.000  0.059  0.043  0.000  0.000  0.000  0.129  0.408
tot    0.000  0.354  0.000  0.118  0.086  0.000  0.000  0.000  0.257  0.815
 
band    16 # energy   33.40917972 # occ.  0.00000000
 
ion      s     py     pz     px    dxy    dyz    dz2    dxz  x2-y2    tot
    1  0.024  0.017  0.000  0.051  0.077  0.000  0.044  0.000  0.026  0.238
    2  0.024  0.017  0.000  0.051  0.077  0.000  0.044  0.000  0.026  0.238
tot    0.047  0.034  0.000  0.102  0.155  0.000  0.088  0.000  0.052  0.477
 

 k-point     3 :    0.20000000 0.00000000 0.00000000     weight = 0.00750000

band     1 # energy    2.99772210 # occ.  1.00000000
 
ion      s     py     pz     px    dxy    dyz    dz2    dxz  x2-y2    tot
    1  0.325  0.011  0.000  0.034  0.005  0.000  0.002  0.000  0.002  0.379
    2  0.325  0.011  0.000  0.034  0.005  0.000  0.002  0.000  0.002  0.379
tot    0.651  0.023  0.000  0.068  0.010  0.000  0.004  0.000  0.003  0.759
 
band     2 # energy    6.10236541 # occ.  1.00000000
 
ion      s     py     pz     px    dxy    dyz    dz2    dxz  x2-y2    tot
    1  0.043  0.005  0.000  0.015  0.042  0.000  0.341  0.000  0.014  0.459
    2  0.043  0.005  0.000  0.015  0.042  0.000  0.341  0.000  0.014  0.459
tot    0.085  0.010  0.000  0.029  0.084  0.000  0.681  0.000  0.028  0.918
 
band     3 # energy    7.44293447 # occ.  1.00000000
 
ion      s     py     pz     px    dxy    dyz    dz2    dxz  x2-y2    tot
    1  0.001  0.003  0.000  0.009  0.259  0.000  0.114  0.000  0.086  0.472
    2  0.001  0.003  0.000  0.009  0.259  0.000  0.114  0.000  0.086  0.472
tot    0.001  0.006  0.000  0.018  0.519  0.000  0.229  0.000  0.173  0.945
 
band     4 # energy    7.54189512 # occ.  1.00000000
 
ion      s     py     pz     px    dxy    dyz    dz2    dxz  x2-y2    tot
    1  0.000  0.000  0.064  0.000  0.000  0.097  0.000  0.290  0.000  0.450
    2  0.000  0.000  0.064  0.000  0.000  0.097  0.000  0.290  0.000  0.450
tot    0.000  0.000  0.128  0.000  0.000  0.193  0.000  0.580  0.000  0.901
 
band     5 # energy    8.11453505 # occ.  1.00000000
 
ion      s     py     pz     px    dxy    dyz    dz2    dxz  x2-y2    tot
    1  0.007  0.001  0.000  0.002  0.299  0.000  0.074  0.000  0.100  0.482
    2  0.007  0.001  0.000  0.002  0.299  0.000  0.074  0.000  0.100  0.482
tot    0.014  0.002  0.000  0.005  0.598  0.000  0.148  0.000  0.199  0.965
 
band     6 # energy    8.42904312 # occ.  1.00000000
 
ion      s     py     pz     px    dxy    dyz    dz2    dxz  x2-y2    tot
    1  0.000  0.000  0.000  0.000  0.000  0.365  0.000  0.122  0.000  0.487
    2  0.000  0.000  0.000  0.000  0.000  0.365  0.000  0.122  0.000  0.487
tot    0.000  0.000  0.000  0.000  0.000  0.730  0.000  0.243  0.000  0.974
 
band     7 # energy    8.64532864 # occ.  1.00000000
 
ion      s     py     pz     px    dxy    dyz    dz2    dxz  x2-y2    tot
    1  0.000  0.000  0.032  0.000  0.000  0.111  0.000  0.334  0.000  0.477
    2  0.000  0.000  0.032  0.000  0.000  0.111  0.000  0.334  0.000  0.477
tot    0.000  0.000  0.063  0.000  0.000  0.223  0.000  0.668  0.000  0.954
 
band     8 # energy    8.70924906 # occ.  1.00000000
 
ion      s     py     pz     px    dxy    dyz    dz2    dxz  x2-y2    tot
    1  0.000  0.002  0.000  0.001  0.121  0.000  0.000  0.000  0.362  0.485
    2  0.000  0.002  0.000  0.001  0.121  0.000  0.000  0.000  0.362  0.485
tot    0.000  0.004  0.000  0.001  0.241  0.000  0.000  0.000  0.724  0.970
 
band     9 # energy    8.73425092 # occ.  1.00000000
 
ion      s     py     pz     px    dxy    dyz    dz2    dxz  x2-y2    tot
    1  0.003  0.001  0.000  0.002  0.105  0.000  0.341  0.000  0.035  0.487
    2  0.003  0.001  0.000  0.002  0.105  0.000  0.341  0.000  0.035  0.487
tot    0.005  0.002  0.000  0.005  0.211  0.000  0.681  0.000  0.070  0.974
 
band    10 # energy    8.96006692 # occ.  1.00000000
 
ion      s     py     pz     px    dxy    dyz    dz2    dxz  x2-y2    tot
    1  0.000  0.002  0.000  0.001  0.122  0.000  0.000  0.000  0.365  0.489
    2  0.000  0.002  0.000  0.001  0.122  0.000  0.000  0.000  0.365  0.489
tot    0.000  0.004  0.000  0.001  0.243  0.000  0.000  0.000  0.730  0.979
 
band    11 # energy   10.05645959 # occ.  1.00000000
 
ion      s     py     pz     px    dxy    dyz    dz2    dxz  x2-y2    tot
    1  0.000  0.000  0.000  0.000  0.000  0.371  0.000  0.124  0.000  0.495
    2  0.000  0.000  0.000  0.000  0.000  0.371  0.000  0.124  0.000  0.495
tot    0.000  0.000  0.000  0.000  0.000  0.742  0.000  0.247  0.000  0.990
 
band    12 # energy   14.13794750 # occ.  0.00000000
 
ion      s     py     pz     px    dxy    dyz    dz2    dxz  x2-y2    tot
    1  0.000  0.000  0.245  0.000  0.000  0.043  0.000  0.129  0.000  0.417
    2  0.000  0.000  0.245  0.000  0.000  0.043  0.000  0.129  0.000  0.417
tot    0.000  0.000  0.489  0.000  0.000  0.086  0.000  0.258  0.000  0.834
 
band    13 # energy   17.65480885 # occ.  0.00000000
 
ion      s     py     pz     px    dxy    dyz    dz2    dxz  x2-y2    tot
    1  0.197  0.013  0.000  0.038  0.001  0.000  0.200  0.000  0.000  0.448
    2  0.197  0.013  0.000  0.038  0.001  0.000  0.200  0.000  0.000  0.448
tot    0.395  0.025  0.000  0.075  0.001  0.000  0.400  0.000  0.000  0.897
 
band    14 # energy   25.89902039 # occ.  0.00000000
 
ion      s     py     pz     px    dxy    dyz    dz2    dxz  x2-y2    tot
    1  0.060  0.038  0.000  0.113  0.120  0.000  0.022  0.000  0.040  0.392
    2  0.060  0.038  0.000  0.113  0.120  0.000  0.022  0.000  0.040  0.392
tot    0.119  0.075  0.000  0.226  0.240  0.000  0.045  0.000  0.080  0.784
 
band    15 # energy   30.37426808 # occ.  0.00000000
 
ion      s     py     pz     px    dxy    dyz    dz2    dxz  x2-y2    tot
    1  0.000  0.199  0.000  0.066  0.030  0.000  0.000  0.000  0.089  0.384
    2  0.000  0.199  0.000  0.066  0.030  0.000  0.000  0.000  0.089  0.384
tot    0.000  0.398  0.000  0.133  0.059  0.000  0.000  0.000  0.177  0.767
 
band    16 # energy   32.26623283 # occ.  0.00000000
 
ion      s     py     pz     px    dxy    dyz    dz2    dxz  x2-y2    tot
    1  0.017  0.005  0.000  0.014  0.185  0.000  0.048  0.000  0.062  0.330
    2  0.017  0.005  0.000  0.014  0.185  0.000  0.048  0.000  0.062  0.330
tot    0.033  0.009  0.000  0.027  0.371  0.000  0.097  0.000  0.124  0.660
 

 k-point     4 :    0.30000000 0.00000000 0.00000000     weight = 0.00750000

band     1 # energy    4.40389771 # occ.  1.00000000
 
ion      s     py     pz     px    dxy    dyz    dz2    dxz  x2-y2    tot
    1  0.252  0.019  0.000  0.056  0.039  0.000  0.012  0.000  0.013  0.391
    2  0.252  0.019  0.000  0.056  0.039  0.000  0.012  0.000  0.013  0.391
tot    0.503  0.038  0.000  0.113  0.079  0.000  0.023  0.000  0.026  0.781
 
band     2 # energy    6.22634395 # occ.  1.00000000
 
ion      s     py     pz     px    dxy    dyz    dz2    dxz  x2-y2    tot
    1  0.017  0.002  0.000  0.006  0.180  0.000  0.200  0.000  0.060  0.465
    2  0.017  0.002  0.000  0.006  0.180  0.000  0.200  0.000  0.060  0.465
tot    0.035  0.004  0.000  0.012  0.361  0.000  0.399  0.000  0.120  0.931
 
band     3 # energy    6.75088065 # occ.  1.00000000
 
ion      s     py     pz     px    dxy    dyz    dz2    dxz  x2-y2    tot
    1  0.000  0.000  0.044  0.000  0.000  0.102  0.000  0.305  0.000  0.450
    2  0.000  0.000  0.044  0.000  0.000  0.102  0.000  0.305  0.000  0.450
tot    0.000  0.000  0.087  0.000  0.000  0.203  0.000  0.609  0.000  0.899
 
band     4 # energy    7.41477779 # occ.  1.00000000
 
ion      s     py     pz     px    dxy    dyz    dz2    dxz  x2-y2    tot
    1  0.004  0.013  0.000  0.040  0.195  0.000  0.139  0.000  0.065  0.457
    2  0.004  0.013  0.000  0.040  0.195  0.000  0.139  0.000  0.065  0.457
tot    0.008  0.027  0.000  0.080  0.391  0.000  0.278  0.000  0.130  0.913
 
band     5 # energy    8.12876931 # occ.  1.00000000
 
ion      s     py     pz     px    dxy    dyz    dz2    dxz  x2-y2    tot
    1  0.011  0.003  0.000  0.008  0.176  0.000  0.223  0.000  0.059  0.480
    2  0.011  0.003  0.000  0.008  0.176  0.000  0.223  0.000  0.059  0.480
tot    0.023  0.006  0.000  0.017  0.352  0.000  0.445  0.000  0.117  0.959
 
band     6 # energy    8.17089248 # occ.  1.00000000
 
ion      s     py     pz     px    dxy    dyz    dz2    dxz  x2-y2    tot
    1  0.000  0.000  0.000  0.000  0.000  0.364  0.000  0.121  0.000  0.485
    2  0.000  0.000  0.000  0.000  0.000  0.364  0.000  0.121  0.000  0.485
tot    0.000  0.000  0.000  0.000  0.000  0.728  0.000  0.243  0.000  0.970
 
band     7 # energy    8.40567569 # occ.  1.00000000
 
ion      s     py     pz     px    dxy    dyz    dz2    dxz  x2-y2    tot
    1  0.000  0.000  0.029  0.000  0.000  0.112  0.000  0.336  0.000  0.477
    2  0.000  0.000  0.029  0.000  0.000  0.112  0.000  0.336  0.000  0.477
tot    0.000  0.000  0.058  0.000  0.000  0.224  0.000  0.672  0.000  0.954
 
band     8 # energy    9.33180563 # occ.  1.00000000
 
ion      s     py     pz     px    dxy    dyz    dz2    dxz  x2-y2    tot
    1  0.000  0.001  0.000  0.000  0.122  0.000  0.000  0.000  0.365  0.488
    2  0.000  0.001  0.000  0.000  0.122  0.000  0.000  0.000  0.365  0.488
tot    0.000  0.003  0.000  0.001  0.243  0.000  0.000  0.000  0.730  0.977
 
band     9 # energy    9.41964434 # occ.  1.00000000
 
ion      s     py     pz     px    dxy    dyz    dz2    dxz  x2-y2    tot
    1  0.012  0.004  0.000  0.012  0.103  0.000  0.319  0.000  0.034  0.484
    2  0.012  0.004  0.000  0.012  0.103  0.000  0.319  0.000  0.034  0.484
tot    0.024  0.008  0.000  0.023  0.206  0.000  0.639  0.000  0.069  0.968
 
band    10 # energy    9.50365372 # occ.  1.00000000
 
ion      s     py     pz     px    dxy    dyz    dz2    dxz  x2-y2    tot
    1  0.000  0.003  0.000  0.001  0.122  0.000  0.000  0.000  0.366  0.492
    2  0.000  0.003  0.000  0.001  0.122  0.000  0.000  0.000  0.366  0.492
tot    0.000  0.005  0.000  0.002  0.244  0.000  0.000  0.000  0.732  0.983
 
band    11 # energy   10.12144586 # occ.  1.00000000
 
ion      s     py     pz     px    dxy    dyz    dz2    dxz  x2-y2    tot
    1  0.000  0.000  0.000  0.000  0.000  0.372  0.000  0.124  0.000  0.496
    2  0.000  0.000  0.000  0.000  0.000  0.372  0.000  0.124  0.000  0.496
tot    0.000  0.000  0.000  0.000  0.000  0.744  0.000  0.248  0.000  0.992
 
band    12 # energy   16.45450077 # occ.  0.00000000
 
ion      s     py     pz     px    dxy    dyz    dz2    dxz  x2-y2    tot
    1  0.000  0.000  0.249  0.000  0.000  0.043  0.000  0.128  0.000  0.419
    2  0.000  0.000  0.249  0.000  0.000  0.043  0.000  0.128  0.000  0.419
tot    0.000  0.000  0.498  0.000  0.000  0.085  0.000  0.255  0.000  0.838
 
band    13 # energy   17.98209357 # occ.  0.00000000
 
ion      s     py     pz     px    dxy    dyz    dz2    dxz  x2-y2    tot
    1  0.109  0.040  0.000  0.119  0.000  0.000  0.164  0.000  0.000  0.433
    2  0.109  0.040  0.000  0.119  0.000  0.000  0.164  0.000  0.000  0.433
tot    0.219  0.079  0.000  0.238  0.001  0.000  0.329  0.000  0.000  0.866
 
band    14 # energy   21.73888623 # occ.  0.00000000
 
ion      s     py     pz     px    dxy    dyz    dz2    dxz  x2-y2    tot
    1  0.159  0.024  0.000  0.071  0.109  0.000  0.011  0.000  0.036  0.410
    2  0.159  0.024  0.000  0.071  0.109  0.000  0.011  0.000  0.036  0.410
tot    0.318  0.047  0.000  0.142  0.218  0.000  0.023  0.000  0.073  0.821
 
band    15 # energy   28.06319378 # occ.  0.00000000
 
ion      s     py     pz     px    dxy    dyz    dz2    dxz  x2-y2    tot
    1  0.000  0.221  0.000  0.074  0.016  0.000  0.000  0.000  0.047  0.357
    2  0.000  0.221  0.000  0.074  0.016  0.000  0.000  0.000  0.047  0.357
tot    0.000  0.443  0.000  0.148  0.031  0.000  0.000  0.000  0.094  0.715
 
band    16 # energy   29.26609862 # occ.  0.00000000
 
ion      s     py     pz     px    dxy    dyz    dz2    dxz  x2-y2    tot
    1  0.000  0.000  0.089  0.000  0.000  0.064  0.000  0.191  0.000  0.345
    2  0.000  0.000  0.089  0.000  0.000  0.064  0.000  0.191  0.000  0.345
tot    0.000  0.000  0.179  0.000  0.000  0.128  0.000  0.383  0.000  0.689
 

 k-point     5 :    0.40000000 0.00000000 0.00000000     weight = 0.00750000

band     1 # energy    5.49183816 # occ.  1.00000000
 
ion      s     py     pz     px    dxy    dyz    dz2    dxz  x2-y2    tot
    1  0.129  0.012  0.000  0.037  0.162  0.000  0.032  0.000  0.054  0.427
    2  0.129  0.012  0.000  0.037  0.162  0.000  0.032  0.000  0.054  0.427
tot    0.258  0.025  0.000  0.074  0.325  0.000  0.064  0.000  0.108  0.854
 
band     2 # energy    6.00171638 # occ.  1.00000000
 
ion      s     py     pz     px    dxy    dyz    dz2    dxz  x2-y2    tot
    1  0.021  0.001  0.000  0.002  0.245  0.000  0.114  0.000  0.082  0.464
    2  0.021  0.001  0.000  0.002  0.245  0.000  0.114  0.000  0.082  0.464
tot    0.042  0.001  0.000  0.004  0.490  0.000  0.228  0.000  0.163  0.928
 
band     3 # energy    6.27320748 # occ.  1.00000000
 
ion      s     py     pz     px    dxy    dyz    dz2    dxz  x2-y2    tot
    1  0.000  0.000  0.025  0.000  0.000  0.107  0.000  0.320  0.000  0.451
    2  0.000  0.000  0.025  0.000  0.000  0.107  0.000  0.320  0.000  0.451
tot    0.000  0.000  0.049  0.000  0.000  0.213  0.000  0.640  0.000  0.902
 
band     4 # energy    7.80265173 # occ.  1.00000000
 
ion      s     py     pz     px    dxy    dyz    dz2    dxz  x2-y2    tot
    1  0.026  0.029  0.000  0.088  0.091  0.000  0.166  0.000  0.030  0.431
    2  0.026  0.029  0.000  0.088  0.091  0.000  0.166  0.000  0.030  0.431
tot    0.052  0.059  0.000  0.176  0.182  0.000  0.333  0.000  0.061  0.862
 
band     5 # energy    7.98251572 # occ.  1.00000000
 
ion      s     py     pz     px    dxy    dyz    dz2    dxz  x2-y2    tot
    1  0.000  0.000  0.000  0.000  0.000  0.363  0.000  0.121  0.000  0.484
    2  0.000  0.000  0.000  0.000  0.000  0.363  0.000  0.121  0.000  0.484
tot    0.000  0.000  0.000  0.000  0.000  0.726  0.000  0.242  0.000  0.968
 
band     6 # energy    8.22520308 # occ.  1.00000000
 
ion      s     py     pz     px    dxy    dyz    dz2    dxz  x2-y2    tot
    1  0.000  0.000  0.031  0.000  0.000  0.111  0.000  0.334  0.000  0.476
    2  0.000  0.000  0.031  0.000  0.000  0.111  0.000  0.334  0.000  0.476
tot    0.000  0.000  0.061  0.000  0.000  0.222  0.000  0.667  0.000  0.951
 
band     7 # energy    8.38846802 # occ.  1.00000000
 
ion      s     py     pz     px    dxy    dyz    dz2    dxz  x2-y2    tot
    1  0.003  0.005  0.000  0.015  0.077  0.000  0.356  0.000  0.026  0.482
    2  0.003  0.005  0.000  0.015  0.077  0.000  0.356  0.000  0.026  0.482
tot    0.007  0.010  0.000  0.031  0.153  0.000  0.711  0.000  0.051  0.963
 
band     8 # energy    9.86170385 # occ.  1.00000000
 
ion      s     py     pz     px    dxy    dyz    dz2    dxz  x2-y2    tot
    1  0.000  0.000  0.000  0.000  0.123  0.000  0.000  0.000  0.370  0.493
    2  0.000  0.000  0.000  0.000  0.123  0.000  0.000  0.000  0.370  0.493
tot    0.000  0.001  0.000  0.000  0.246  0.000  0.000  0.000  0.739  0.987
 
band     9 # energy   10.00243837 # occ.  1.00000000
 
ion      s     py     pz     px    dxy    dyz    dz2    dxz  x2-y2    tot
    1  0.000  0.001  0.000  0.000  0.123  0.000  0.000  0.000  0.370  0.495
    2  0.000  0.001  0.000  0.000  0.123  0.000  0.000  0.000  0.370  0.495
tot    0.000  0.003  0.000  0.001  0.246  0.000  0.000  0.000  0.739  0.989
 
band    10 # energy   10.15615870 # occ.  1.00000000
 
ion      s     py     pz     px    dxy    dyz    dz2    dxz  x2-y2    tot
    1  0.000  0.000  0.000  0.000  0.000  0.372  0.000  0.124  0.000  0.496
    2  0.000  0.000  0.000  0.000  0.000  0.372  0.000  0.124  0.000  0.496
tot    0.000  0.000  0.000  0.000  0.000  0.745  0.000  0.248  0.000  0.993
 
band    11 # energy   10.64232454 # occ.  0.86758854
 
ion      s     py     pz     px    dxy    dyz    dz2    dxz  x2-y2    tot
    1  0.036  0.015  0.000  0.046  0.098  0.000  0.240  0.000  0.033  0.469
    2  0.036  0.015  0.000  0.046  0.098  0.000  0.240  0.000  0.033  0.469
tot    0.072  0.031  0.000  0.092  0.197  0.000  0.480  0.000  0.066  0.938
 
band    12 # energy   16.47479965 # occ.  0.00000000
 
ion      s     py     pz     px    dxy    dyz    dz2    dxz  x2-y2    tot
    1  0.031  0.058  0.000  0.173  0.047  0.000  0.106  0.000  0.016  0.430
    2  0.031  0.058  0.000  0.173  0.047  0.000  0.106  0.000  0.016  0.430
tot    0.062  0.115  0.000  0.346  0.094  0.000  0.211  0.000  0.031  0.861
 
band    13 # energy   18.93573815 # occ.  0.00000000
 
ion      s     py     pz     px    dxy    dyz    dz2    dxz  x2-y2    tot
    1  0.000  0.000  0.255  0.000  0.000  0.041  0.000  0.122  0.000  0.418
    2  0.000  0.000  0.255  0.000  0.000  0.041  0.000  0.122  0.000  0.418
tot    0.000  0.000  0.510  0.000  0.000  0.082  0.000  0.245  0.000  0.836
 
band    14 # energy   20.51565978 # occ.  0.00000000
 
ion      s     py     pz     px    dxy    dyz    dz2    dxz  x2-y2    tot
    1  0.225  0.017  0.000  0.052  0.067  0.000  0.022  0.000  0.022  0.406
    2  0.225  0.017  0.000  0.052  0.067  0.000  0.022  0.000  0.022  0.406
tot    0.450  0.035  0.000  0.104  0.134  0.000  0.045  0.000  0.045  0.812
 
band    15 # energy   25.84647783 # occ.  0.00000000
 
ion      s     py     pz     px    dxy    dyz    dz2    dxz  x2-y2    tot
    1  0.000  0.000  0.112  0.000  0.000  0.068  0.000  0.203  0.000  0.382
    2  0.000  0.000  0.112  0.000  0.000  0.068  0.000  0.203  0.000  0.382
tot    0.000  0.000  0.224  0.000  0.000  0.135  0.000  0.406  0.000  0.765
 
band    16 # energy   26.49975072 # occ.  0.00000000
 
ion      s     py     pz     px    dxy    dyz    dz2    dxz  x2-y2    tot
    1  0.000  0.239  0.000  0.079  0.004  0.000  0.000  0.000  0.013  0.336
    2  0.000  0.239  0.000  0.079  0.004  0.000  0.000  0.000  0.013  0.336
tot    0.000  0.477  0.000  0.159  0.009  0.000  0.000  0.000  0.027  0.672
 

 k-point     6 :    0.50000000 0.00000000 0.00000000     weight = 0.00375000

band     1 # energy    5.80300933 # occ.  1.00000000
 
ion      s     py     pz     px    dxy    dyz    dz2    dxz  x2-y2    tot
    1  0.010  0.000  0.000  0.001  0.264  0.000  0.096  0.000  0.088  0.459
    2  0.010  0.000  0.000  0.001  0.264  0.000  0.096  0.000  0.088  0.459
tot    0.019  0.001  0.000  0.002  0.528  0.000  0.191  0.000  0.176  0.917
 
band     2 # energy    5.85492815 # occ.  1.00000000
 
ion      s     py     pz     px    dxy    dyz    dz2    dxz  x2-y2    tot
    1  0.088  0.006  0.000  0.019  0.227  0.000  0.035  0.000  0.076  0.450
    2  0.088  0.006  0.000  0.019  0.227  0.000  0.035  0.000  0.076  0.450
tot    0.177  0.013  0.000  0.038  0.453  0.000  0.069  0.000  0.151  0.901