<?xml version="1.0" encoding="ISO-8859-1"?>
<modeling>
 <generator>
  <i name="program" type="string">vasp </i>
  <i name="version" type="string">6.3.2  </i>
  <i name="subversion" type="string">27Jun22 (build Aug 12 2022 00:53:59) complex                          parallel </i>
  <i name="platform" type="string">tv2STD </i>
  <i name="date" type="string">2024 11 30 </i>
  <i name="time" type="string">17:13:00 </i>
 </generator>
 <incar>
  <i type="string" name="SYSTEM">Co-hcc</i>
  <i type="int" name="ISTART">     0</i>
  <i type="string" name="PREC">Accurate      normal | accurate</i>
  <i type="string" name="ALGO">Normal     Normal, Fast, Very_Fast</i>
  <i type="logical" name="ADDGRID"> F  </i>
  <i type="int" name="ISPIN">     2</i>
  <i type="int" name="ICHARG">     2</i>
  <i type="int" name="INIWAV">     1</i>
  <i type="int" name="NELM">   100</i>
  <i type="int" name="IBRION">     2</i>
  <i name="EDIFF">      0.00000100</i>
  <i name="EDIFFG">     -0.02000000</i>
  <i type="int" name="NSW">   100</i>
  <i type="int" name="ISIF">     2</i>
  <i type="int" name="ISYM">     1</i>
  <i name="ENCUT">    400.00000000</i>
  <v name="MAGMOM">      3.00000000      3.00000000</v>
  <i type="logical" name="LREAL"> F  </i>
  <i type="int" name="ISMEAR">     0</i>
  <i name="SIGMA">      0.05000000</i>
  <i type="int" name="NWRITE">     2</i>
  <i type="logical" name="LWAVE"> T  </i>
  <i type="logical" name="LCHARG"> T  </i>
  <i type="int" name="LORBIT">    11</i>
 </incar>
 <primitive_cell>
  <structure name="primitive_cell" >
   <crystal>
    <varray name="basis" >
     <v>       2.46445715       0.00000000       0.00000000 </v>
     <v>      -1.23222858       2.13428250       0.00000000 </v>
     <v>       0.00000000       0.00000000       3.98739137 </v>
    </varray>
    <i name="volume">     20.97307169 </i>
    <varray name="rec_basis" >
     <v>       0.40576887       0.23427077       0.00000000 </v>
     <v>       0.00000000       0.46854154       0.00000000 </v>
     <v>       0.00000000       0.00000000       0.25079053 </v>
    </varray>
   </crystal>
   <varray name="positions" >
    <v>       0.00000000       0.00000000       0.00000000 </v>
    <v>       0.33333333       0.66666667       0.50000000 </v>
   </varray>
  </structure>
  <varray name="primitive_index" >
   <v type="int" >        1 </v>
   <v type="int" >        2 </v>
  </varray>
 </primitive_cell>
 <kpoints>
  <generation param="Gamma">
   <v type="int" name="divisions">      10       10        8 </v>
   <v name="usershift">      0.00000000       0.00000000       0.00000000 </v>
   <v name="genvec1">      0.10000000       0.00000000       0.00000000 </v>
   <v name="genvec2">      0.00000000       0.10000000       0.00000000 </v>
   <v name="genvec3">      0.00000000       0.00000000       0.12500000 </v>
   <v name="shift">      0.00000000       0.00000000       0.00000000 </v>
  </generation>
  <varray name="kpointlist" >
   <v>       0.00000000       0.00000000       0.00000000 </v>
   <v>       0.10000000       0.00000000       0.00000000 </v>
   <v>       0.20000000       0.00000000       0.00000000 </v>
   <v>       0.30000000       0.00000000       0.00000000 </v>
   <v>       0.40000000       0.00000000       0.00000000 </v>
   <v>       0.50000000       0.00000000       0.00000000 </v>
   <v>       0.10000000       0.10000000       0.00000000 </v>
   <v>       0.20000000       0.10000000       0.00000000 </v>
   <v>       0.30000000       0.10000000       0.00000000 </v>
   <v>       0.40000000       0.10000000       0.00000000 </v>
   <v>       0.20000000       0.20000000       0.00000000 </v>
   <v>       0.30000000       0.20000000       0.00000000 </v>
   <v>       0.40000000       0.20000000       0.00000000 </v>
   <v>       0.30000000       0.30000000       0.00000000 </v>
   <v>       0.00000000       0.00000000       0.12500000 </v>
   <v>       0.10000000       0.00000000       0.12500000 </v>
   <v>       0.20000000       0.00000000       0.12500000 </v>
   <v>       0.30000000       0.00000000       0.12500000 </v>
   <v>       0.40000000       0.00000000       0.12500000 </v>
   <v>       0.50000000       0.00000000       0.12500000 </v>
   <v>       0.10000000       0.10000000       0.12500000 </v>
   <v>       0.20000000       0.10000000       0.12500000 </v>
   <v>       0.30000000       0.10000000       0.12500000 </v>
   <v>       0.40000000       0.10000000       0.12500000 </v>
   <v>       0.20000000       0.20000000       0.12500000 </v>
   <v>       0.30000000       0.20000000       0.12500000 </v>
   <v>       0.40000000       0.20000000       0.12500000 </v>
   <v>       0.30000000       0.30000000       0.12500000 </v>
   <v>       0.00000000       0.00000000       0.25000000 </v>
   <v>       0.10000000       0.00000000       0.25000000 </v>
   <v>       0.20000000       0.00000000       0.25000000 </v>
   <v>       0.30000000       0.00000000       0.25000000 </v>
   <v>       0.40000000       0.00000000       0.25000000 </v>
   <v>       0.50000000       0.00000000       0.25000000 </v>
   <v>       0.10000000       0.10000000       0.25000000 </v>
   <v>       0.20000000       0.10000000       0.25000000 </v>
   <v>       0.30000000       0.10000000       0.25000000 </v>
   <v>       0.40000000       0.10000000       0.25000000 </v>
   <v>       0.20000000       0.20000000       0.25000000 </v>
   <v>       0.30000000       0.20000000       0.25000000 </v>
   <v>       0.40000000       0.20000000       0.25000000 </v>
   <v>       0.30000000       0.30000000       0.25000000 </v>
   <v>       0.00000000       0.00000000       0.37500000 </v>
   <v>       0.10000000       0.00000000       0.37500000 </v>
   <v>       0.20000000       0.00000000       0.37500000 </v>
   <v>       0.30000000       0.00000000       0.37500000 </v>
   <v>       0.40000000       0.00000000       0.37500000 </v>
   <v>       0.50000000       0.00000000       0.37500000 </v>
   <v>       0.10000000       0.10000000       0.37500000 </v>
   <v>       0.20000000       0.10000000       0.37500000 </v>
   <v>       0.30000000       0.10000000       0.37500000 </v>
   <v>       0.40000000       0.10000000       0.37500000 </v>
   <v>       0.20000000       0.20000000       0.37500000 </v>
   <v>       0.30000000       0.20000000       0.37500000 </v>
   <v>       0.40000000       0.20000000       0.37500000 </v>
   <v>       0.30000000       0.30000000       0.37500000 </v>
   <v>       0.00000000       0.00000000       0.50000000 </v>
   <v>       0.10000000       0.00000000       0.50000000 </v>
   <v>       0.20000000       0.00000000       0.50000000 </v>
   <v>       0.30000000       0.00000000       0.50000000 </v>
   <v>       0.40000000       0.00000000       0.50000000 </v>
   <v>       0.50000000       0.00000000       0.50000000 </v>
   <v>       0.10000000       0.10000000       0.50000000 </v>
   <v>       0.20000000       0.10000000       0.50000000 </v>
   <v>       0.30000000       0.10000000       0.50000000 </v>
   <v>       0.40000000       0.10000000       0.50000000 </v>
   <v>       0.20000000       0.20000000       0.50000000 </v>
   <v>       0.30000000       0.20000000       0.50000000 </v>
   <v>       0.40000000       0.20000000       0.50000000 </v>
   <v>       0.30000000       0.30000000       0.50000000 </v>
  </varray>
  <varray name="weights" >
   <v>       0.00125000 </v>
   <v>       0.00750000 </v>
   <v>       0.00750000 </v>
   <v>       0.00750000 </v>
   <v>       0.00750000 </v>
   <v>       0.00375000 </v>
   <v>       0.00750000 </v>
   <v>       0.01500000 </v>
   <v>       0.01500000 </v>
   <v>       0.01500000 </v>
   <v>       0.00750000 </v>
   <v>       0.01500000 </v>
   <v>       0.00750000 </v>
   <v>       0.00750000 </v>
   <v>       0.00250000 </v>
   <v>       0.01500000 </v>
   <v>       0.01500000 </v>
   <v>       0.01500000 </v>
   <v>       0.01500000 </v>
   <v>       0.00750000 </v>
   <v>       0.01500000 </v>
   <v>       0.03000000 </v>
   <v>       0.03000000 </v>
   <v>       0.03000000 </v>
   <v>       0.01500000 </v>
   <v>       0.03000000 </v>
   <v>       0.01500000 </v>
   <v>       0.01500000 </v>
   <v>       0.00250000 </v>
   <v>       0.01500000 </v>
   <v>       0.01500000 </v>
   <v>       0.01500000 </v>
   <v>       0.01500000 </v>
   <v>       0.00750000 </v>
   <v>       0.01500000 </v>
   <v>       0.03000000 </v>
   <v>       0.03000000 </v>
   <v>       0.03000000 </v>
   <v>       0.01500000 </v>
   <v>       0.03000000 </v>
   <v>       0.01500000 </v>
   <v>       0.01500000 </v>
   <v>       0.00250000 </v>
   <v>       0.01500000 </v>
   <v>       0.01500000 </v>
   <v>       0.01500000 </v>
   <v>       0.01500000 </v>
   <v>       0.00750000 </v>
   <v>       0.01500000 </v>
   <v>       0.03000000 </v>
   <v>       0.03000000 </v>
   <v>       0.03000000 </v>
   <v>       0.01500000 </v>
   <v>       0.03000000 </v>
   <v>       0.01500000 </v>
   <v>       0.01500000 </v>
   <v>       0.00125000 </v>
   <v>       0.00750000 </v>
   <v>       0.00750000 </v>
   <v>       0.00750000 </v>
   <v>       0.00750000 </v>
   <v>       0.00375000 </v>
   <v>       0.00750000 </v>
   <v>       0.01500000 </v>
   <v>       0.01500000 </v>
   <v>       0.01500000 </v>
   <v>       0.00750000 </v>
   <v>       0.01500000 </v>
   <v>       0.00750000 </v>
   <v>       0.00750000 </v>
  </varray>
 </kpoints>
 <parameters>
  <separator name="general" >
   <i type="string" name="SYSTEM">Co-hcc</i>
   <i type="logical" name="LCOMPAT"> F  </i>
  </separator>
  <separator name="electronic" >
   <i type="string" name="PREC">accura</i>
   <i name="ENMAX">    400.00000000</i>
   <i name="ENAUG">    477.81800000</i>
   <i name="EDIFF">      0.00000100</i>
   <i type="int" name="IALGO">    38</i>
   <i type="int" name="IWAVPR">    11</i>
   <i type="int" name="NBANDS">    16</i>
   <i type="int" name="NBANDSLOW">    -1</i>
   <i type="int" name="NBANDSHIGH">    -1</i>
   <i name="NELECT">     18.00000000</i>
   <i type="int" name="TURBO">     0</i>
   <i type="int" name="IRESTART">     0</i>
   <i type="int" name="NREBOOT">     0</i>
   <i type="int" name="NMIN">     0</i>
   <i name="EREF">      0.00000000</i>
   <separator name="electronic smearing" >
    <i type="int" name="ISMEAR">     0</i>
    <i name="SIGMA">      0.05000000</i>
    <i name="KSPACING">      0.50000000</i>
    <i type="logical" name="KGAMMA"> T  </i>
    <i type="logical" name="KBLOWUP"> T  </i>
   </separator>
   <separator name="electronic projectors" >
    <i type="logical" name="LREAL"> F  </i>
    <v name="ROPT">      0.00000000</v>
    <i type="int" name="LMAXPAW">  -100</i>
    <i type="int" name="LMAXMIX">     2</i>
    <i type="logical" name="NLSPLINE"> F  </i>
   </separator>
   <separator name="electronic startup" >
    <i type="int" name="ISTART">     0</i>
    <i type="int" name="ICHARG">     2</i>
    <i type="int" name="INIWAV">     1</i>
   </separator>
   <separator name="electronic spin" >
    <i type="int" name="ISPIN">     2</i>
    <i type="logical" name="LNONCOLLINEAR"> F  </i>
    <v name="MAGMOM">      3.00000000      3.00000000</v>
    <i name="NUPDOWN">     -1.00000000</i>
    <i type="logical" name="LSORBIT"> F  </i>
    <v name="SAXIS">      0.00000000      0.00000000      1.00000000</v>
    <i type="logical" name="LSPIRAL"> F  </i>
    <v name="QSPIRAL">      0.00000000      0.00000000      0.00000000</v>
    <i type="logical" name="LZEROZ"> F  </i>
   </separator>
   <separator name="electronic exchange-correlation" >
    <i type="logical" name="LASPH"> F  </i>
    <i type="logical" name="LMETAGGA"> F  </i>
   </separator>
   <separator name="electronic convergence" >
    <i type="int" name="NELM">   100</i>
    <i type="int" name="NELMDL">    -5</i>
    <i type="int" name="NELMIN">     2</i>
    <i name="ENINI">    400.00000000</i>
    <separator name="electronic convergence detail" >
     <i type="logical" name="LDIAG"> T  </i>
     <i type="logical" name="LSUBROT"> F  </i>
     <i name="WEIMIN">      0.00100000</i>
     <i name="EBREAK">      0.00000002</i>
     <i name="DEPER">      0.30000000</i>
     <i type="int" name="NRMM">     4</i>
     <i name="TIME">      0.40000000</i>
    </separator>
   </separator>
   <separator name="electronic mixer" >
    <i name="AMIX">      0.40000000</i>
    <i name="BMIX">      1.00000000</i>
    <i name="AMIN">      0.10000000</i>
    <i name="AMIX_MAG">      1.60000000</i>
    <i name="BMIX_MAG">      1.00000000</i>
    <separator name="electronic mixer details" >
     <i type="int" name="IMIX">     4</i>
     <i type="logical" name="MIXFIRST"> F  </i>
     <i type="int" name="MAXMIX">   -45</i>
     <i name="WC">    100.00000000</i>
     <i type="int" name="INIMIX">     1</i>
     <i type="int" name="MIXPRE">     1</i>
     <i type="int" name="MREMOVE">     5</i>
    </separator>
   </separator>
   <separator name="electronic dipolcorrection" >
    <i type="logical" name="LDIPOL"> F  </i>
    <i type="logical" name="LMONO"> F  </i>
    <i type="int" name="IDIPOL">     0</i>
    <i name="EPSILON">      1.00000000</i>
    <v name="DIPOL">   -100.00000000   -100.00000000   -100.00000000</v>
    <i name="EFIELD">      0.00000000</i>
   </separator>
  </separator>
  <separator name="grids" >
   <i type="int" name="NGX">    16</i>
   <i type="int" name="NGY">    16</i>
   <i type="int" name="NGZ">    28</i>
   <i type="int" name="NGXF">    32</i>
   <i type="int" name="NGYF">    32</i>
   <i type="int" name="NGZF">    56</i>
   <i type="logical" name="ADDGRID"> F  </i>
  </separator>
  <separator name="ionic" >
   <i type="int" name="NSW">   100</i>
   <i type="int" name="IBRION">     2</i>
   <i type="int" name="MDALGO">     0</i>
   <i type="int" name="ISIF">     2</i>
   <i name="PSTRESS">      0.00000000</i>
   <i name="EDIFFG">     -0.02000000</i>
   <i type="int" name="NFREE">     1</i>
   <i name="POTIM">      0.50000000</i>
   <i name="SMASS">     -3.00000000</i>
   <i name="SCALEE">      1.00000000</i>
  </separator>
  <separator name="ionic md" >
   <i name="TEBEG">      0.00010000</i>
   <i name="TEEND">      0.00010000</i>
   <i type="int" name="NBLOCK">     1</i>
   <i type="int" name="KBLOCK">   100</i>
   <i type="int" name="NPACO">   256</i>
   <i name="APACO">     10.00000000</i>
  </separator>
  <separator name="symmetry" >
   <i type="int" name="ISYM">     1</i>
   <i name="SYMPREC">      0.00001000</i>
  </separator>
  <separator name="dos" >
   <i type="int" name="LORBIT">    11</i>
   <v name="RWIGS">     -1.00000000</v>
   <i type="int" name="NEDOS">   301</i>
   <i name="EMIN">     10.00000000</i>
   <i name="EMAX">    -10.00000000</i>
   <i name="EFERMI">      0.00000000</i>
  </separator>
  <separator name="writing" >
   <i type="int" name="NWRITE">     2</i>
   <i type="logical" name="LWAVE"> T  </i>
   <i type="logical" name="LDOWNSAMPLE"> F  </i>
   <i type="logical" name="LCHARG"> T  </i>
   <i type="logical" name="LPARD"> F  </i>
   <i type="logical" name="LVTOT"> F  </i>
   <i type="logical" name="LVHAR"> F  </i>
   <i type="logical" name="LELF"> F  </i>
   <i type="logical" name="LOPTICS"> F  </i>
   <v name="STM">      0.00000000      0.00000000      0.00000000      0.00000000      0.00000000      0.00000000      0.00000000</v>
  </separator>
  <separator name="performance" >
   <i type="int" name="NPAR">     4</i>
   <i type="int" name="NSIM">     4</i>
   <i type="int" name="NBLK">    -1</i>
   <i type="logical" name="LPLANE"> T  </i>
   <i type="logical" name="LSCALAPACK"> T  </i>
   <i type="logical" name="LSCAAWARE"> F  </i>
   <i type="logical" name="LSCALU"> F  </i>
   <i type="logical" name="LASYNC"> F  </i>
   <i type="logical" name="LORBITALREAL"> F  </i>
  </separator>
  <separator name="miscellaneous" >
   <i type="int" name="IDIOT">     3</i>
   <i type="int" name="PHON_NSTRUCT">    -1</i>
   <i type="logical" name="LMUSIC"> F  </i>
   <v name="POMASS">     58.93300000</v>
   <v name="DARWINR">      0.00000000</v>
   <v name="DARWINV">      1.00000000</v>
   <i type="logical" name="LCORR"> T  </i>
  </separator>
  <i type="logical" name="GGA_COMPAT"> T  </i>
  <i type="logical" name="LBERRY"> F  </i>
  <i type="int" name="ICORELEVEL">     0</i>
  <i type="logical" name="LDAU"> F  </i>
  <i type="int" name="I_CONSTRAINED_M">     0</i>
  <separator name="electronic exchange-correlation" >
   <i type="string" name="GGA">--</i>
   <i type="int" name="VOSKOWN">     0</i>
   <i type="logical" name="LHFCALC"> F  </i>
   <i type="string" name="PRECFOCK"></i>
   <i type="logical" name="LSYMGRAD"> F  </i>
   <i type="logical" name="LHFONE"> F  </i>
   <i type="logical" name="LRHFCALC"> F  </i>
   <i type="logical" name="LTHOMAS"> F  </i>
   <i type="logical" name="LMODELHF"> F  </i>
   <i type="logical" name="LFOCKACE"> F  </i>
   <i name="ENCUT4O">     -1.00000000</i>
   <i type="int" name="EXXOEP">     0</i>
   <i type="int" name="FOURORBIT">     0</i>
   <i name="AEXX">      0.00000000</i>
   <i name="HFALPHA">      0.00000000</i>
   <i name="MCALPHA">      0.00000000</i>
   <i name="ALDAX">      1.00000000</i>
   <i name="AGGAX">      1.00000000</i>
   <i name="ALDAC">      1.00000000</i>
   <i name="AGGAC">      1.00000000</i>
   <i type="int" name="NKREDX">     1</i>
   <i type="int" name="NKREDY">     1</i>
   <i type="int" name="NKREDZ">     1</i>
   <i type="logical" name="SHIFTRED"> F  </i>
   <i type="logical" name="ODDONLY"> F  </i>
   <i type="logical" name="EVENONLY"> F  </i>
   <i type="int" name="LMAXFOCK">     0</i>
   <i type="int" name="NMAXFOCKAE">     0</i>
   <i type="logical" name="LFOCKAEDFT"> F  </i>
   <i name="HFSCREEN">      0.00000000</i>
   <i name="HFSCREENC">      0.00000000</i>
   <i type="int" name="NBANDSGWLOW">     0</i>
  </separator>
  <separator name="vdW DFT" >
   <i type="logical" name="LUSE_VDW"> F  </i>
   <i name="Zab_VDW">     -0.84910000</i>
   <i name="PARAM1">      0.12340000</i>
   <i name="PARAM2">      1.00000000</i>
   <i name="PARAM3">      0.00000000</i>
  </separator>
  <separator name="model GW" >
   <i type="int" name="MODEL_GW">     0</i>
   <i name="MODEL_EPS0">      6.29192151</i>
   <i name="MODEL_ALPHA">      1.00000000</i>
  </separator>
  <separator name="linear response parameters" >
   <i type="logical" name="LEPSILON"> F  </i>
   <i type="logical" name="LRPA"> F  </i>
   <i type="logical" name="LNABLA"> F  </i>
   <i type="logical" name="LVEL"> F  </i>
   <i name="CSHIFT">      0.10000000</i>
   <i name="OMEGAMAX">     -1.00000000</i>
   <i name="DEG_THRESHOLD">      0.00200000</i>
   <i name="RTIME">     -0.10000000</i>
   <i name="WPLASMAI">      0.00000000</i>
   <v name="DFIELD">      0.00000000      0.00000000      0.00000000</v>
   <v name="WPLASMA">      0.00000000      0.00000000      0.00000000      0.00000000      0.00000000      0.00000000      0.00000000      0.00000000      0.00000000</v>
  </separator>
  <separator name="orbital magnetization" >
   <i type="logical" name="NUCIND"> F  </i>
   <v name="MAGPOS">      0.00000000      0.00000000      0.00000000</v>
   <i type="logical" name="LNICSALL"> T  </i>
   <i type="logical" name="ORBITALMAG"> F  </i>
   <i type="logical" name="LMAGBLOCH"> F  </i>
   <i type="logical" name="LCHIMAG"> F  </i>
   <i type="logical" name="LGAUGE"> T  </i>
   <i type="int" name="MAGATOM">     0</i>
   <v name="MAGDIPOL">      0.00000000      0.00000000      0.00000000</v>
   <v name="AVECCONST">      0.00000000      0.00000000      0.00000000</v>
  </separator>
  <separator name="response functions" >
   <i type="logical" name="LFINITE_TEMPERATURE"> F  </i>
   <i type="logical" name="LADDER"> F  </i>
   <i type="logical" name="LRPAFORCE"> F  </i>
   <i type="logical" name="LFXC"> F  </i>
   <i type="logical" name="LHARTREE"> T  </i>
   <i type="int" name="IBSE">     0</i>
   <v type="int" name="KPOINT">    -1     0     0     0</v>
   <i type="logical" name="LTCTC"> F  </i>
   <i type="logical" name="LTCTE"> F  </i>
   <i type="logical" name="LTETE"> F  </i>
   <i type="logical" name="LTRIPLET"> F  </i>
   <i type="logical" name="LFXCEPS"> F  </i>
   <i type="logical" name="LFXHEG"> F  </i>
   <i type="int" name="NATURALO">     2</i>
   <i type="logical" name="LHOLEGF"> F  </i>
   <i type="logical" name="L2ORDER"> F  </i>
   <i type="logical" name="LDMP1"> F  </i>
   <i type="logical" name="LMP2LT"> F  </i>
   <i type="logical" name="LSMP2LT"> F  </i>
   <i type="logical" name="LGWLF"> F  </i>
   <i name="ENCUTGW">     -2.00000000</i>
   <i name="ENCUTGWSOFT">     -2.00000000</i>
   <i name="ENCUTLF">     -1.00000000</i>
   <i type="logical" name="LESF_SPLINES"> F  </i>
   <i type="int" name="LMAXMP2">    -1</i>
   <i name="SCISSOR">      0.00000000</i>
   <i type="int" name="NOMEGA">     0</i>
   <i type="int" name="NOMEGAR">     0</i>
   <i type="int" name="NBANDSGW">    -1</i>
   <i type="int" name="NBANDSO">    -1</i>
   <i type="int" name="NBANDSV">    -1</i>
   <i type="int" name="NELMGW">     1</i>
   <i type="int" name="NELMHF">     1</i>
   <i type="int" name="DIM">     3</i>
   <i type="int" name="IESPILON">     4</i>
   <i type="int" name="ANTIRES">     0</i>
   <i name="OMEGAMAX">    -30.00000000</i>
   <i name="OMEGAMIN">    -30.00000000</i>
   <i name="OMEGATL">   -200.00000000</i>
   <i type="int" name="OMEGAGRID">     0</i>
   <i name="CSHIFT">     -0.10000000</i>
   <i type="logical" name="LSELFENERGY"> F  </i>
   <i type="logical" name="LSPECTRAL"> F  </i>
   <i type="logical" name="LSPECTRALGW"> F  </i>
   <i type="logical" name="LSINGLES"> F  </i>
   <i type="logical" name="LFERMIGW"> F  </i>
   <i type="logical" name="ODDONLYGW"> F  </i>
   <i type="logical" name="EVENONLYGW"> F  </i>
   <i type="int" name="NKREDLFX">     1</i>
   <i type="int" name="NKREDLFY">     1</i>
   <i type="int" name="NKREDLFZ">     1</i>
   <i type="int" name="MAXMEM">  2800</i>
   <i type="int" name="TELESCOPE">     0</i>
   <i type="int" name="NTAUPAR">    -1</i>
   <i type="int" name="NOMEGAPAR">    -1</i>
   <i name="DAMP_NEWTON">      0.80000001</i>
   <i name="LAMBDA">      1.00000000</i>
  </separator>
  <separator name="External order field" >
   <i name="OFIELD_KAPPA">      0.00000000</i>
   <v name="OFIELD_K">      0.00000000      0.00000000      0.00000000</v>
   <i name="OFIELD_Q6_NEAR">      0.00000000</i>
   <i name="OFIELD_Q6_FAR">      0.00000000</i>
   <i name="OFIELD_A">      0.00000000</i>
  </separator>
  <separator name="optional k-points parameters" >
   <i type="int" name="KPOINTS_OPT_MODE">     1</i>
   <i type="logical" name="LKPOINTS_OPT"> F  </i>
  </separator>
 </parameters>
 <atominfo>
  <atoms>       2 </atoms>
  <types>       1 </types>
  <array name="atoms" >
   <dimension dim="1">ion</dimension>
   <field type="string">element</field>
   <field type="int">atomtype</field>
   <set>
    <rc><c>Co</c><c>   1</c></rc>
    <rc><c>Co</c><c>   1</c></rc>
   </set>
  </array>
  <array name="atomtypes" >
   <dimension dim="1">type</dimension>
   <field type="int">atomspertype</field>
   <field type="string">element</field>
   <field>mass</field>
   <field>valence</field>
   <field type="string">pseudopotential</field>
   <set>
    <rc><c>   2</c><c>Co</c><c>     58.93300000</c><c>      9.00000000</c><c>  PAW_PBE Co 02Aug2007                  </c></rc>
   </set>
  </array>
 </atominfo>
 <structure name="initialpos" >
  <crystal>
   <varray name="basis" >
    <v>       2.46445715       0.00000000       0.00000000 </v>
    <v>      -1.23222858       2.13428250       0.00000000 </v>
    <v>       0.00000000       0.00000000       3.98739137 </v>
   </varray>
   <i name="volume">     20.97307169 </i>
   <varray name="rec_basis" >
    <v>       0.40576887       0.23427077       0.00000000 </v>
    <v>       0.00000000       0.46854154       0.00000000 </v>
    <v>       0.00000000       0.00000000       0.25079053 </v>
   </varray>
  </crystal>
  <varray name="positions" >
   <v>       0.00000000       0.00000000       0.00000000 </v>
   <v>       0.33333333       0.66666667       0.50000000 </v>
  </varray>
 </structure>
 <calculation>
  <scstep>
   <time name="dav">    0.42    0.42</time>
   <time name="total">    0.43    0.43</time>
   <energy>
    <i name="alphaZ">     80.78490654 </i>
    <i name="ewald">  -1539.02558642 </i>
    <i name="hartreedc">   -292.80172177 </i>
    <i name="XCdc">     35.85356469 </i>
    <i name="pawpsdc">   1439.98163886 </i>
    <i name="pawaedc">  -1545.88690193 </i>
    <i name="eentropy">     -0.00287526 </i>
    <i name="bandstr">    262.84699547 </i>
    <i name="atom">   1626.71546820 </i>
    <i name="e_fr_energy">     68.46548838 </i>
    <i name="e_wo_entrp">     68.46836365 </i>
    <i name="e_0_energy">     68.46692602 </i>
   </energy>
  </scstep>
  <scstep>
   <time name="dav">    0.39    0.39</time>
   <time name="total">    0.39    0.39</time>
   <energy>
    <i name="e_fr_energy">    -13.53561354 </i>
    <i name="e_wo_entrp">    -13.53403891 </i>
    <i name="e_0_energy">    -13.53482623 </i>
   </energy>
  </scstep>
  <scstep>
   <time name="dav">    0.47    0.48</time>
   <time name="total">    0.48    0.48</time>
   <energy>
    <i name="e_fr_energy">    -15.53397005 </i>
    <i name="e_wo_entrp">    -15.53214221 </i>
    <i name="e_0_energy">    -15.53305613 </i>
   </energy>
  </scstep>
  <scstep>
   <time name="dav">    0.54    0.54</time>
   <time name="total">    0.54    0.54</time>
   <energy>
    <i name="e_fr_energy">    -15.56911207 </i>
    <i name="e_wo_entrp">    -15.56727922 </i>
    <i name="e_0_energy">    -15.56819564 </i>
   </energy>
  </scstep>
  <scstep>
   <time name="dav">    0.47    0.47</time>
   <time name="total">    0.49    0.50</time>
   <energy>
    <i name="e_fr_energy">    -15.56933336 </i>
    <i name="e_wo_entrp">    -15.56750052 </i>
    <i name="e_0_energy">    -15.56841694 </i>
   </energy>
  </scstep>
  <scstep>
   <time name="dav">    0.41    0.41</time>
   <time name="total">    0.44    0.44</time>
   <energy>
    <i name="e_fr_energy">    -14.38453267 </i>
    <i name="e_wo_entrp">    -14.38209044 </i>
    <i name="e_0_energy">    -14.38331155 </i>
   </energy>
  </scstep>
  <scstep>
   <time name="dav">    0.43    0.43</time>
   <time name="total">    0.46    0.46</time>
   <energy>
    <i name="e_fr_energy">    -14.09412058 </i>
    <i name="e_wo_entrp">    -14.09099251 </i>
    <i name="e_0_energy">    -14.09255654 </i>
   </energy>
  </scstep>
  <scstep>
   <time name="dav">    0.53    0.53</time>
   <time name="total">    0.56    0.56</time>
   <energy>
    <i name="e_fr_energy">    -14.06964781 </i>
    <i name="e_wo_entrp">    -14.06659016 </i>
    <i name="e_0_energy">    -14.06811899 </i>
   </energy>
  </scstep>
  <scstep>
   <time name="dav">    0.54    0.54</time>
   <time name="total">    0.57    0.57</time>
   <energy>
    <i name="e_fr_energy">    -14.05515324 </i>
    <i name="e_wo_entrp">    -14.05232149 </i>
    <i name="e_0_energy">    -14.05373736 </i>
   </energy>
  </scstep>
  <scstep>
   <time name="dav">    0.50    0.50</time>
   <time name="total">    0.53    0.53</time>
   <energy>
    <i name="e_fr_energy">    -14.05430398 </i>
    <i name="e_wo_entrp">    -14.05144803 </i>
    <i name="e_0_energy">    -14.05287600 </i>
   </energy>
  </scstep>
  <scstep>
   <time name="dav">    0.54    0.54</time>
   <time name="total">    0.57    0.57</time>
   <energy>
    <i name="e_fr_energy">    -14.05434497 </i>
    <i name="e_wo_entrp">    -14.05138154 </i>
    <i name="e_0_energy">    -14.05286326 </i>
   </energy>
  </scstep>
  <scstep>
   <time name="dav">    0.42    0.43</time>
   <time name="total">    0.45    0.45</time>
   <energy>
    <i name="e_fr_energy">    -14.05434379 </i>
    <i name="e_wo_entrp">    -14.05136834 </i>
    <i name="e_0_energy">    -14.05285606 </i>
   </energy>
  </scstep>
  <scstep>
   <time name="dav">    0.32    0.32</time>
   <time name="total">    0.33    0.33</time>
   <energy>
    <i name="alphaZ">     80.78490654 </i>
    <i name="ewald">  -1539.02558642 </i>
    <i name="hartreedc">   -257.37676401 </i>
    <i name="XCdc">     33.07885646 </i>
    <i name="pawpsdc">   1846.83590774 </i>
    <i name="pawaedc">  -1953.24021422 </i>
    <i name="eentropy">     -0.00298929 </i>
    <i name="bandstr">    148.17607210 </i>
    <i name="atom">   1626.71546820 </i>
    <i name="e_fr_energy">    -14.05434291 </i>
    <i name="e_wo_entrp">    -14.05135362 </i>
    <i name="e_0_energy">    -14.05284826 </i>
   </energy>
  </scstep>
  <structure>
   <crystal>
    <varray name="basis" >
     <v>       2.46445715       0.00000000       0.00000000 </v>
     <v>      -1.23222858       2.13428250       0.00000000 </v>
     <v>       0.00000000       0.00000000       3.98739137 </v>
    </varray>
    <i name="volume">     20.97307169 </i>
    <varray name="rec_basis" >
     <v>       0.40576887       0.23427077       0.00000000 </v>
     <v>       0.00000000       0.46854154       0.00000000 </v>
     <v>       0.00000000       0.00000000       0.25079053 </v>
    </varray>
   </crystal>
   <varray name="positions" >
    <v>       0.00000000       0.00000000       0.00000000 </v>
    <v>       0.33333333       0.66666667       0.50000000 </v>
   </varray>
  </structure>
  <varray name="forces" >
   <v>      -0.00000000       0.00000000       0.00000000 </v>
   <v>       0.00000000       0.00000000       0.00000000 </v>
  </varray>
  <varray name="stress" >
   <v>      78.83030710      -0.00000000       0.00000000 </v>
   <v>       0.00000000      78.83030710       0.00000000 </v>
   <v>       0.00000000      -0.00000000      73.92171860 </v>
  </varray>
  <energy>
   <i name="e_fr_energy">    -14.05434291 </i>
   <i name="e_wo_entrp">    -14.05135362 </i>
   <i name="e_0_energy">    -14.05284826 </i>
  </energy>
  <time name="totalsc">    6.47    6.62</time>
  <eigenvalues>
   <array>
    <dimension dim="1">band</dimension>
    <dimension dim="2">kpoint</dimension>
    <dimension dim="3">spin</dimension>
    <field>eigene</field>
    <field>occ</field>
    <set>
     <set comment="spin 1">
      <set comment="kpoint 1">
       <r>    1.6265    1.0000 </r>
       <r>    5.4312    1.0000 </r>
       <r>    8.0518    1.0000 </r>
       <r>    8.0726    1.0000 </r>
       <r>    8.0726    1.0000 </r>
       <r>    8.4009    1.0000 </r>
       <r>    8.4009    1.0000 </r>
       <r>    8.7751    1.0000 </r>
       <r>    8.7751    1.0000 </r>
       <r>    9.9296    1.0000 </r>
       <r>    9.9296    1.0000 </r>
       <r>   10.6405    0.8783 </r>
       <r>   17.3758    0.0000 </r>
       <r>   33.0128    0.0000 </r>
       <r>   35.9151    0.0000 </r>
       <r>   35.9176    0.0000 </r>
      </set>
      <set comment="kpoint 2">
       <r>    1.9847    1.0000 </r>
       <r>    5.6435    1.0000 </r>
       <r>    7.7703    1.0000 </r>
       <r>    8.2425    1.0000 </r>
       <r>    8.2739    1.0000 </r>
       <r>    8.3603    1.0000 </r>
       <r>    8.5076    1.0000 </r>
       <r>    8.5516    1.0000 </r>
       <r>    8.6701    1.0000 </r>
       <r>    8.9878    1.0000 </r>
       <r>    9.9735    1.0000 </r>
       <r>   12.0893    0.0000 </r>
       <r>   17.4355    0.0000 </r>
       <r>   30.5382    0.0000 </r>
       <r>   33.2145    0.0000 </r>
       <r>   33.4092    0.0000 </r>
      </set>
      <set comment="kpoint 3">
       <r>    2.9977    1.0000 </r>
       <r>    6.1024    1.0000 </r>
       <r>    7.4429    1.0000 </r>
       <r>    7.5419    1.0000 </r>
       <r>    8.1145    1.0000 </r>
       <r>    8.4290    1.0000 </r>
       <r>    8.6453    1.0000 </r>
       <r>    8.7092    1.0000 </r>
       <r>    8.7343    1.0000 </r>
       <r>    8.9601    1.0000 </r>
       <r>   10.0565    1.0000 </r>
       <r>   14.1379    0.0000 </r>
       <r>   17.6548    0.0000 </r>
       <r>   25.8990    0.0000 </r>
       <r>   30.3743    0.0000 </r>
       <r>   32.2662    0.0000 </r>
      </set>
      <set comment="kpoint 4">
       <r>    4.4039    1.0000 </r>
       <r>    6.2263    1.0000 </r>
       <r>    6.7509    1.0000 </r>
       <r>    7.4148    1.0000 </r>
       <r>    8.1288    1.0000 </r>
       <r>    8.1709    1.0000 </r>
       <r>    8.4057    1.0000 </r>
       <r>    9.3318    1.0000 </r>
       <r>    9.4196    1.0000 </r>
       <r>    9.5037    1.0000 </r>
       <r>   10.1214    1.0000 </r>
       <r>   16.4545    0.0000 </r>
       <r>   17.9821    0.0000 </r>
       <r>   21.7389    0.0000 </r>
       <r>   28.0632    0.0000 </r>
       <r>   29.2661    0.0000 </r>
      </set>
      <set comment="kpoint 5">
       <r>    5.4918    1.0000 </r>
       <r>    6.0017    1.0000 </r>
       <r>    6.2732    1.0000 </r>
       <r>    7.8027    1.0000 </r>
       <r>    7.9825    1.0000 </r>
       <r>    8.2252    1.0000 </r>
       <r>    8.3885    1.0000 </r>
       <r>    9.8617    1.0000 </r>
       <r>   10.0024    1.0000 </r>
       <r>   10.1562    1.0000 </r>
       <r>   10.6423    0.8676 </r>
       <r>   16.4748    0.0000 </r>
       <r>   18.9357    0.0000 </r>
       <r>   20.5157    0.0000 </r>
       <r>   25.8465    0.0000 </r>
       <r>   26.4998    0.0000 </r>
      </set>
      <set comment="kpoint 6">
       <r>    5.8030    1.0000 </r>
       <r>    5.8549    1.0000 </r>
       <r>    6.1140    1.0000 </r>
       <r>    7.9138    1.0000 </r>
       <r>    8.1541    1.0000 </r>
       <r>    8.1577    1.0000 </r>
       <r>    8.5037    1.0000 </r>
       <r>   10.0622    1.0000 </r>
       <r>   10.1663    1.0000 </r>
       <r>   10.2190    1.0000 </r>
       <r>   12.1211    0.0000 </r>
       <r>   14.2171    0.0000 </r>
       <r>   20.6929    0.0000 </r>
       <r>   21.3845    0.0000 </r>
       <r>   23.7822    0.0000 </r>
       <r>   25.1364    0.0000 </r>
      </set>
      <set comment="kpoint 7">
       <r>    2.6733    1.0000 </r>
       <r>    5.9986    1.0000 </r>
       <r>    7.4819    1.0000 </r>
       <r>    7.8351    1.0000 </r>
       <r>    8.1933    1.0000 </r>
       <r>    8.3849    1.0000 </r>
       <r>    8.5018    1.0000 </r>
       <r>    8.5898    1.0000 </r>
       <r>    8.8065    1.0000 </r>
       <r>    8.8929    1.0000 </r>
       <r>   10.0180    1.0000 </r>
       <r>   13.5646    0.0000 </r>
       <r>   17.5817    0.0000 </r>
       <r>   28.0615    0.0000 </r>
       <r>   28.7781    0.0000 </r>
       <r>   34.9793    0.0000 </r>
      </set>
      <set comment="kpoint 8">
       <r>    3.9153    1.0000 </r>
       <r>    6.3774    1.0000 </r>
       <r>    7.0416    1.0000 </r>
       <r>    7.1904    1.0000 </r>
       <r>    8.1011    1.0000 </r>
       <r>    8.1062    1.0000 </r>
       <r>    8.6090    1.0000 </r>
       <r>    8.8579    1.0000 </r>
       <r>    9.1858    1.0000 </r>
       <r>    9.5170    1.0000 </r>
       <r>   10.0640    1.0000 </r>
       <r>   15.6277    0.0000 </r>
       <r>   17.9520    0.0000 </r>
       <r>   23.8145    0.0000 </r>
       <r>   26.4594    0.0000 </r>
       <r>   31.2872    0.0000 </r>
      </set>
      <set comment="kpoint 9">
       <r>    5.2600    1.0000 </r>
       <r>    6.2545    1.0000 </r>
       <r>    6.4744    1.0000 </r>
       <r>    7.3400    1.0000 </r>
       <r>    7.9250    1.0000 </r>
       <r>    8.2746    1.0000 </r>
       <r>    8.3526    1.0000 </r>
       <r>    9.4252    1.0000 </r>
       <r>    9.7717    1.0000 </r>
       <r>   10.0956    1.0000 </r>
       <r>   10.4156    1.0000 </r>
       <r>   17.9444    0.0000 </r>
       <r>   18.0040    0.0000 </r>
       <r>   20.5892    0.0000 </r>
       <r>   24.8494    0.0000 </r>
       <r>   27.6653    0.0000 </r>
      </set>
      <set comment="kpoint 10">
       <r>    5.8947    1.0000 </r>
       <r>    6.0448    1.0000 </r>
       <r>    6.1871    1.0000 </r>
       <r>    7.8019    1.0000 </r>
       <r>    7.8640    1.0000 </r>
       <r>    8.1531    1.0000 </r>
       <r>    8.4971    1.0000 </r>
       <r>    9.9563    1.0000 </r>
       <r>   10.0813    1.0000 </r>
       <r>   10.1090    1.0000 </r>
       <r>   11.9140    0.0000 </r>
       <r>   15.2925    0.0000 </r>
       <r>   20.4232    0.0000 </r>
       <r>   21.2499    0.0000 </r>
       <r>   23.8082    0.0000 </r>
       <r>   24.6258    0.0000 </r>
      </set>
      <set comment="kpoint 11">
       <r>    5.1940    1.0000 </r>
       <r>    6.6035    1.0000 </r>
       <r>    6.6581    1.0000 </r>
       <r>    6.8331    1.0000 </r>
       <r>    7.8264    1.0000 </r>
       <r>    8.2341    1.0000 </r>
       <r>    8.4468    1.0000 </r>
       <r>    9.0674    1.0000 </r>
       <r>    9.7769    1.0000 </r>
       <r>   10.0373    1.0000 </r>
       <r>   10.4497    1.0000 </r>
       <r>   17.6941    0.0000 </r>
       <r>   18.5716    0.0000 </r>
       <r>   21.8841    0.0000 </r>
       <r>   22.5381    0.0000 </r>
       <r>   29.6599    0.0000 </r>
      </set>
      <set comment="kpoint 12">
       <r>    6.1676    1.0000 </r>
       <r>    6.3238    1.0000 </r>
       <r>    6.4522    1.0000 </r>
       <r>    7.0894    1.0000 </r>
       <r>    7.7326    1.0000 </r>
       <r>    8.1813    1.0000 </r>
       <r>    8.4931    1.0000 </r>
       <r>    9.4692    1.0000 </r>
       <r>   10.0134    1.0000 </r>
       <r>   10.0850    1.0000 </r>
       <r>   11.8717    0.0000 </r>
       <r>   17.5065    0.0000 </r>
       <r>   20.1152    0.0000 </r>
       <r>   20.2606    0.0000 </r>
       <r>   21.6627    0.0000 </r>
       <r>   26.5753    0.0000 </r>
      </set>
      <set comment="kpoint 13">
       <r>    6.2295    1.0000 </r>
       <r>    6.3324    1.0000 </r>
       <r>    6.3650    1.0000 </r>
       <r>    7.4001    1.0000 </r>
       <r>    7.7657    1.0000 </r>
       <r>    8.0106    1.0000 </r>
       <r>    8.6226    1.0000 </r>
       <r>    9.8253    1.0000 </r>
       <r>   10.0045    1.0000 </r>
       <r>   10.0308    1.0000 </r>
       <r>   13.5794    0.0000 </r>
       <r>   15.0418    0.0000 </r>
       <r>   20.2450    0.0000 </r>
       <r>   22.0589    0.0000 </r>
       <r>   22.3778    0.0000 </r>
       <r>   24.3118    0.0000 </r>
      </set>
      <set comment="kpoint 14">
       <r>    6.2779    1.0000 </r>
       <r>    6.5687    1.0000 </r>
       <r>    6.7283    1.0000 </r>
       <r>    6.9664    1.0000 </r>
       <r>    7.7258    1.0000 </r>
       <r>    7.9302    1.0000 </r>
       <r>    8.7172    1.0000 </r>
       <r>    9.6578    1.0000 </r>
       <r>    9.9523    1.0000 </r>
       <r>    9.9865    1.0000 </r>
       <r>   14.0108    0.0000 </r>
       <r>   17.0528    0.0000 </r>
       <r>   17.0958    0.0000 </r>
       <r>   22.6114    0.0000 </r>
       <r>   22.8659    0.0000 </r>
       <r>   25.5125    0.0000 </r>
      </set>
      <set comment="kpoint 15">
       <r>    1.7882    1.0000 </r>
       <r>    5.4027    1.0000 </r>
       <r>    8.0092    1.0000 </r>
       <r>    8.0295    1.0000 </r>
       <r>    8.0295    1.0000 </r>
       <r>    8.3561    1.0000 </r>
       <r>    8.3561    1.0000 </r>
       <r>    8.8768    1.0000 </r>
       <r>    8.8768    1.0000 </r>
       <r>    9.9210    1.0000 </r>
       <r>    9.9210    1.0000 </r>
       <r>   10.0225    1.0000 </r>
       <r>   18.3063    0.0000 </r>
       <r>   32.9429    0.0000 </r>
       <r>   35.3187    0.0000 </r>
       <r>   35.8891    0.0000 </r>
      </set>
      <set comment="kpoint 16">
       <r>    2.1426    1.0000 </r>
       <r>    5.6273    1.0000 </r>
       <r>    7.7735    1.0000 </r>
       <r>    8.1589    1.0000 </r>
       <r>    8.1798    1.0000 </r>
       <r>    8.1803    1.0000 </r>
       <r>    8.4985    1.0000 </r>
       <r>    8.6525    1.0000 </r>
       <r>    8.8034    1.0000 </r>
       <r>    8.9629    1.0000 </r>
       <r>    9.9586    1.0000 </r>
       <r>   11.5219    0.0000 </r>
       <r>   18.4385    0.0000 </r>
       <r>   30.6330    0.0000 </r>
       <r>   33.3525    0.0000 </r>
       <r>   33.3742    0.0000 </r>
      </set>
      <set comment="kpoint 17">
       <r>    3.1396    1.0000 </r>
       <r>    6.1215    1.0000 </r>
       <r>    7.3994    1.0000 </r>
       <r>    7.4798    1.0000 </r>
       <r>    8.0446    1.0000 </r>
       <r>    8.3873    1.0000 </r>
       <r>    8.5117    1.0000 </r>
       <r>    8.7925    1.0000 </r>
       <r>    8.9317    1.0000 </r>
       <r>    8.9411    1.0000 </r>
       <r>   10.0288    1.0000 </r>
       <r>   13.2390    0.0000 </r>
       <r>   18.8981    0.0000 </r>
       <r>   26.0363    0.0000 </r>
       <r>   30.5692    0.0000 </r>
       <r>   31.5608    0.0000 </r>
      </set>
      <set comment="kpoint 18">
       <r>    4.4925    1.0000 </r>
       <r>    6.2627    1.0000 </r>
       <r>    6.7227    1.0000 </r>
       <r>    7.3949    1.0000 </r>
       <r>    8.0317    1.0000 </r>
       <r>    8.2167    1.0000 </r>
       <r>    8.5472    1.0000 </r>
       <r>    9.3527    1.0000 </r>
       <r>    9.4140    1.0000 </r>
       <r>    9.4566    1.0000 </r>
       <r>   10.0853    1.0000 </r>
       <r>   14.9777    0.0000 </r>
       <r>   19.6618    0.0000 </r>
       <r>   21.9209    0.0000 </r>
       <r>   28.0270    0.0000 </r>
       <r>   28.2873    0.0000 </r>
      </set>
      <set comment="kpoint 19">
       <r>    5.4356    1.0000 </r>
       <r>    5.9964    1.0000 </r>
       <r>    6.4615    1.0000 </r>
       <r>    7.3985    1.0000 </r>
       <r>    8.0476    1.0000 </r>
       <r>    8.3783    1.0000 </r>
       <r>    8.7521    1.0000 </r>
       <r>    9.8638    1.0000 </r>
       <r>    9.9242    1.0000 </r>
       <r>   10.1386    1.0000 </r>
       <r>   10.5549    0.9998 </r>
       <r>   15.7689    0.0000 </r>
       <r>   18.7027    0.0000 </r>
       <r>   21.4821    0.0000 </r>
       <r>   24.9300    0.0000 </r>
       <r>   26.7456    0.0000 </r>
      </set>
      <set comment="kpoint 20">
       <r>    5.6267    1.0000 </r>
       <r>    5.8369    1.0000 </r>
       <r>    6.4489    1.0000 </r>
       <r>    7.4294    1.0000 </r>
       <r>    7.9838    1.0000 </r>
       <r>    8.5049    1.0000 </r>
       <r>    8.9921    1.0000 </r>
       <r>   10.0068    1.0000 </r>
       <r>   10.1223    1.0000 </r>
       <r>   10.2144    1.0000 </r>
       <r>   11.9995    0.0000 </r>
       <r>   14.1165    0.0000 </r>
       <r>   20.1230    0.0000 </r>
       <r>   20.5020    0.0000 </r>
       <r>   24.9630    0.0000 </r>
       <r>   26.0310    0.0000 </r>
      </set>
      <set comment="kpoint 21">
       <r>    2.8217    1.0000 </r>
       <r>    6.0078    1.0000 </r>
       <r>    7.5019    1.0000 </r>
       <r>    7.6491    1.0000 </r>
       <r>    8.1801    1.0000 </r>
       <r>    8.2640    1.0000 </r>
       <r>    8.4853    1.0000 </r>
       <r>    8.6565    1.0000 </r>
       <r>    8.9144    1.0000 </r>
       <r>    8.9222    1.0000 </r>
       <r>    9.9977    1.0000 </r>
       <r>   12.7762    0.0000 </r>
       <r>   18.7407    0.0000 </r>
       <r>   28.1813    0.0000 </r>
       <r>   28.9286    0.0000 </r>
       <r>   33.8644    0.0000 </r>
      </set>
      <set comment="kpoint 22">
       <r>    4.0335    1.0000 </r>
       <r>    6.4250    1.0000 </r>
       <r>    6.9425    1.0000 </r>
       <r>    7.2314    1.0000 </r>
       <r>    7.9737    1.0000 </r>
       <r>    8.2187    1.0000 </r>
       <r>    8.5230    1.0000 </r>
       <r>    8.9089    1.0000 </r>
       <r>    9.2685    1.0000 </r>
       <r>    9.4663    1.0000 </r>
       <r>   10.0527    1.0000 </r>
       <r>   14.4095    0.0000 </r>
       <r>   19.4554    0.0000 </r>
       <r>   23.9633    0.0000 </r>
       <r>   26.6196    0.0000 </r>
       <r>   30.2002    0.0000 </r>
      </set>
      <set comment="kpoint 23">
       <r>    5.2834    1.0000 </r>
       <r>    6.2896    1.0000 </r>
       <r>    6.5130    1.0000 </r>
       <r>    7.2698    1.0000 </r>
       <r>    7.9624    1.0000 </r>
       <r>    8.2937    1.0000 </r>
       <r>    8.4490    1.0000 </r>
       <r>    9.4096    1.0000 </r>
       <r>    9.8179    1.0000 </r>
       <r>    9.9548    1.0000 </r>
       <r>   10.4558    1.0000 </r>
       <r>   16.0068    0.0000 </r>
       <r>   19.5407    0.0000 </r>
       <r>   21.2950    0.0000 </r>
       <r>   24.9942    0.0000 </r>
       <r>   26.5976    0.0000 </r>
      </set>
      <set comment="kpoint 24">
       <r>    5.7374    1.0000 </r>
       <r>    6.0324    1.0000 </r>
       <r>    6.5025    1.0000 </r>
       <r>    7.3501    1.0000 </r>
       <r>    7.8988    1.0000 </r>
       <r>    8.5236    1.0000 </r>
       <r>    8.6248    1.0000 </r>
       <r>    9.9150    1.0000 </r>
       <r>   10.0207    1.0000 </r>
       <r>   10.1115    1.0000 </r>
       <r>   11.8956    0.0000 </r>
       <r>   15.1290    0.0000 </r>
       <r>   19.4426    0.0000 </r>
       <r>   21.5809    0.0000 </r>
       <r>   23.9419    0.0000 </r>
       <r>   24.8984    0.0000 </r>
      </set>
      <set comment="kpoint 25">
       <r>    5.2566    1.0000 </r>
       <r>    6.5144    1.0000 </r>
       <r>    6.7815    1.0000 </r>
       <r>    6.8627    1.0000 </r>
       <r>    7.8711    1.0000 </r>
       <r>    8.2175    1.0000 </r>
       <r>    8.3756    1.0000 </r>
       <r>    9.0983    1.0000 </r>
       <r>    9.8379    1.0000 </r>
       <r>    9.8852    1.0000 </r>
       <r>   10.5260    1.0000 </r>
       <r>   15.9788    0.0000 </r>
       <r>   20.4684    0.0000 </r>
       <r>   22.0394    0.0000 </r>
       <r>   22.7425    0.0000 </r>
       <r>   28.5701    0.0000 </r>
      </set>
      <set comment="kpoint 26">
       <r>    6.0663    1.0000 </r>
       <r>    6.4430    1.0000 </r>
       <r>    6.5115    1.0000 </r>
       <r>    7.0524    1.0000 </r>
       <r>    7.8143    1.0000 </r>
       <r>    8.1532    1.0000 </r>
       <r>    8.5104    1.0000 </r>
       <r>    9.4771    1.0000 </r>
       <r>    9.8844    1.0000 </r>
       <r>   10.1267    1.0000 </r>
       <r>   11.9385    0.0000 </r>
       <r>   17.0134    0.0000 </r>
       <r>   19.2145    0.0000 </r>
       <r>   21.0677    0.0000 </r>
       <r>   22.5079    0.0000 </r>
       <r>   25.6337    0.0000 </r>
      </set>
      <set comment="kpoint 27">
       <r>    6.0716    1.0000 </r>
       <r>    6.3828    1.0000 </r>
       <r>    6.6310    1.0000 </r>
       <r>    7.1919    1.0000 </r>
       <r>    7.7386    1.0000 </r>
       <r>    8.1678    1.0000 </r>
       <r>    8.6547    1.0000 </r>
       <r>    9.8292    1.0000 </r>
       <r>    9.8626    1.0000 </r>
       <r>   10.0660    1.0000 </r>
       <r>   13.6755    0.0000 </r>
       <r>   15.0364    0.0000 </r>
       <r>   20.1774    0.0000 </r>
       <r>   21.3181    0.0000 </r>
       <r>   21.6060    0.0000 </r>
       <r>   25.5477    0.0000 </r>
      </set>
      <set comment="kpoint 28">
       <r>    6.3064    1.0000 </r>
       <r>    6.5898    1.0000 </r>
       <r>    6.7824    1.0000 </r>
       <r>    6.9341    1.0000 </r>
       <r>    7.7763    1.0000 </r>
       <r>    7.8749    1.0000 </r>
       <r>    8.7058    1.0000 </r>
       <r>    9.6792    1.0000 </r>
       <r>    9.8131    1.0000 </r>
       <r>   10.0142    1.0000 </r>
       <r>   14.1386    0.0000 </r>
       <r>   17.0658    0.0000 </r>
       <r>   17.2050    0.0000 </r>
       <r>   21.2746    0.0000 </r>
       <r>   23.3108    0.0000 </r>
       <r>   24.4834    0.0000 </r>
      </set>
      <set comment="kpoint 29">
       <r>    2.2617    1.0000 </r>
       <r>    5.2446    1.0000 </r>
       <r>    7.8975    1.0000 </r>
       <r>    7.9663    1.0000 </r>
       <r>    7.9663    1.0000 </r>
       <r>    8.2437    1.0000 </r>
       <r>    8.2437    1.0000 </r>
       <r>    8.8700    1.0000 </r>
       <r>    9.1067    1.0000 </r>
       <r>    9.1067    1.0000 </r>
       <r>    9.8799    1.0000 </r>
       <r>    9.8799    1.0000 </r>
       <r>   20.4598    0.0000 </r>
       <r>   32.0599    0.0000 </r>
       <r>   33.5129    0.0000 </r>
       <r>   35.1483    0.0000 </r>
      </set>
      <set comment="kpoint 30">
       <r>    2.6047    1.0000 </r>
       <r>    5.5009    1.0000 </r>
       <r>    7.7986    1.0000 </r>
       <r>    7.8551    1.0000 </r>
       <r>    7.9342    1.0000 </r>
       <r>    8.1019    1.0000 </r>
       <r>    8.3842    1.0000 </r>
       <r>    8.5312    1.0000 </r>
       <r>    9.0590    1.0000 </r>
       <r>    9.1209    1.0000 </r>
       <r>    9.9014    1.0000 </r>
       <r>   10.6607    0.7241 </r>
       <r>   20.6624    0.0000 </r>
       <r>   30.9001    0.0000 </r>
       <r>   32.4340    0.0000 </r>
       <r>   33.5385    0.0000 </r>
      </set>
      <set comment="kpoint 31">
       <r>    3.5521    1.0000 </r>
       <r>    6.0889    1.0000 </r>
       <r>    7.1277    1.0000 </r>
       <r>    7.5442    1.0000 </r>
       <r>    7.8501    1.0000 </r>
       <r>    8.3555    1.0000 </r>
       <r>    8.3813    1.0000 </r>
       <r>    8.7613    1.0000 </r>
       <r>    9.0791    1.0000 </r>
       <r>    9.2199    1.0000 </r>
       <r>    9.9410    1.0000 </r>
       <r>   11.8885    0.0000 </r>
       <r>   21.2902    0.0000 </r>
       <r>   26.4437    0.0000 </r>
       <r>   30.2763    0.0000 </r>
       <r>   31.1448    0.0000 </r>
      </set>
      <set comment="kpoint 32">
       <r>    4.7431    1.0000 </r>
       <r>    6.2603    1.0000 </r>
       <r>    6.6797    1.0000 </r>
       <r>    7.3839    1.0000 </r>
       <r>    7.9630    1.0000 </r>
       <r>    8.3486    1.0000 </r>
       <r>    8.6917    1.0000 </r>
       <r>    9.2825    1.0000 </r>
       <r>    9.4520    1.0000 </r>
       <r>    9.4915    1.0000 </r>
       <r>    9.9881    1.0000 </r>
       <r>   13.2077    0.0000 </r>
       <r>   21.7053    0.0000 </r>
       <r>   22.7559    0.0000 </r>
       <r>   26.5796    0.0000 </r>
       <r>   28.9427    0.0000 </r>
      </set>
      <set comment="kpoint 33">
       <r>    5.3830    1.0000 </r>
       <r>    6.0011    1.0000 </r>
       <r>    6.6809    1.0000 </r>
       <r>    7.1045    1.0000 </r>
       <r>    8.2373    1.0000 </r>
       <r>    8.4399    1.0000 </r>
       <r>    9.5268    1.0000 </r>
       <r>    9.6580    1.0000 </r>
       <r>    9.9085    1.0000 </r>
       <r>   10.1027    1.0000 </r>
       <r>   10.2963    1.0000 </r>
       <r>   14.3085    0.0000 </r>
       <r>   18.8403    0.0000 </r>
       <r>   21.8728    0.0000 </r>
       <r>   25.3159    0.0000 </r>
       <r>   27.4580    0.0000 </r>
      </set>
      <set comment="kpoint 34">
       <r>    5.4559    1.0000 </r>
       <r>    5.8884    1.0000 </r>
       <r>    6.8430    1.0000 </r>
       <r>    6.9027    1.0000 </r>
       <r>    8.1890    1.0000 </r>
       <r>    8.6044    1.0000 </r>
       <r>    9.7405    1.0000 </r>
       <r>    9.8252    1.0000 </r>
       <r>   10.1177    1.0000 </r>
       <r>   10.2013    1.0000 </r>
       <r>   11.6971    0.0000 </r>
       <r>   13.7873    0.0000 </r>
       <r>   19.1857    0.0000 </r>
       <r>   19.3293    0.0000 </r>
       <r>   26.9254    0.0000 </r>
       <r>   27.0454    0.0000 </r>
      </set>
      <set comment="kpoint 35">
       <r>    3.2547    1.0000 </r>
       <r>    5.9475    1.0000 </r>
       <r>    7.3102    1.0000 </r>
       <r>    7.5663    1.0000 </r>
       <r>    7.9088    1.0000 </r>
       <r>    8.3069    1.0000 </r>
       <r>    8.3373    1.0000 </r>
       <r>    8.6377    1.0000 </r>
       <r>    9.1224    1.0000 </r>
       <r>    9.1411    1.0000 </r>
       <r>    9.9284    1.0000 </r>
       <r>   11.5560    0.0000 </r>
       <r>   21.0853    0.0000 </r>
       <r>   28.5339    0.0000 </r>
       <r>   29.3618    0.0000 </r>
       <r>   32.4736    0.0000 </r>
      </set>
      <set comment="kpoint 36">
       <r>    4.3725    1.0000 </r>
       <r>    6.4645    1.0000 </r>
       <r>    6.7575    1.0000 </r>
       <r>    7.3272    1.0000 </r>
       <r>    7.8188    1.0000 </r>
       <r>    8.2616    1.0000 </r>
       <r>    8.4157    1.0000 </r>
       <r>    9.0137    1.0000 </r>
       <r>    9.4011    1.0000 </r>
       <r>    9.4455    1.0000 </r>
       <r>   10.0098    1.0000 </r>
       <r>   12.7804    0.0000 </r>
       <r>   21.9301    0.0000 </r>
       <r>   24.4070    0.0000 </r>
       <r>   27.0513    0.0000 </r>
       <r>   28.7734    0.0000 </r>
      </set>
      <set comment="kpoint 37">
       <r>    5.3674    1.0000 </r>
       <r>    6.2753    1.0000 </r>
       <r>    6.6036    1.0000 </r>
       <r>    7.2685    1.0000 </r>
       <r>    7.9606    1.0000 </r>
       <r>    8.3708    1.0000 </r>
       <r>    8.6749    1.0000 </r>
       <r>    9.3835    1.0000 </r>
       <r>    9.7027    1.0000 </r>
       <r>    9.9424    1.0000 </r>
       <r>   10.4998    1.0000 </r>
       <r>   14.1721    0.0000 </r>
       <r>   20.2965    0.0000 </r>
       <r>   22.9811    0.0000 </r>
       <r>   25.0668    0.0000 </r>
       <r>   26.0334    0.0000 </r>
      </set>
      <set comment="kpoint 38">
       <r>    5.5990    1.0000 </r>
       <r>    6.0868    1.0000 </r>
       <r>    6.7932    1.0000 </r>
       <r>    7.0407    1.0000 </r>
       <r>    7.9244    1.0000 </r>
       <r>    8.6846    1.0000 </r>
       <r>    9.1262    1.0000 </r>
       <r>    9.6503    1.0000 </r>
       <r>    9.9565    1.0000 </r>
       <r>   10.1853    1.0000 </r>
       <r>   11.8996    0.0000 </r>
       <r>   14.5751    0.0000 </r>
       <r>   18.6387    0.0000 </r>
       <r>   20.7086    0.0000 </r>
       <r>   24.7140    0.0000 </r>
       <r>   26.4992    0.0000 </r>
      </set>
      <set comment="kpoint 39">
       <r>    5.4303    1.0000 </r>
       <r>    6.3898    1.0000 </r>
       <r>    6.9636    1.0000 </r>
       <r>    6.9764    1.0000 </r>
       <r>    7.9097    1.0000 </r>
       <r>    8.0829    1.0000 </r>
       <r>    8.3339    1.0000 </r>
       <r>    9.2193    1.0000 </r>
       <r>    9.6330    1.0000 </r>
       <r>    9.9678    1.0000 </r>
       <r>   10.6401    0.8806 </r>
       <r>   14.1423    0.0000 </r>
       <r>   22.4872    0.0000 </r>
       <r>   22.5587    0.0000 </r>
       <r>   23.5666    0.0000 </r>
       <r>   27.2142    0.0000 </r>
      </set>
      <set comment="kpoint 40">
       <r>    5.9949    1.0000 </r>
       <r>    6.4552    1.0000 </r>
       <r>    6.6611    1.0000 </r>
       <r>    7.1863    1.0000 </r>
       <r>    7.7739    1.0000 </r>
       <r>    8.1738    1.0000 </r>
       <r>    8.5818    1.0000 </r>
       <r>    9.4427    1.0000 </r>
       <r>    9.6780    1.0000 </r>
       <r>   10.2076    1.0000 </r>
       <r>   12.1348    0.0000 </r>
       <r>   15.6973    0.0000 </r>
       <r>   19.2469    0.0000 </r>
       <r>   21.5927    0.0000 </r>
       <r>   22.8827    0.0000 </r>
       <r>   25.6872    0.0000 </r>
      </set>
      <set comment="kpoint 41">
       <r>    5.9797    1.0000 </r>
       <r>    6.4970    1.0000 </r>
       <r>    6.8739    1.0000 </r>
       <r>    7.0398    1.0000 </r>
       <r>    7.6270    1.0000 </r>
       <r>    8.3515    1.0000 </r>
       <r>    8.7634    1.0000 </r>
       <r>    9.5298    1.0000 </r>
       <r>    9.8512    1.0000 </r>
       <r>   10.1209    1.0000 </r>
       <r>   13.9349    0.0000 </r>
       <r>   15.0072    0.0000 </r>
       <r>   19.5636    0.0000 </r>
       <r>   19.9527    0.0000 </r>
       <r>   21.5839    0.0000 </r>
       <r>   25.7738    0.0000 </r>
      </set>
      <set comment="kpoint 42">
       <r>    6.3783    1.0000 </r>
       <r>    6.6182    1.0000 </r>
       <r>    6.9127    1.0000 </r>
       <r>    6.9305    1.0000 </r>
       <r>    7.7463    1.0000 </r>
       <r>    7.8515    1.0000 </r>
       <r>    8.6857    1.0000 </r>
       <r>    9.4556    1.0000 </r>
       <r>    9.7711    1.0000 </r>
       <r>   10.0652    1.0000 </r>
       <r>   14.4775    0.0000 </r>
       <r>   16.8685    0.0000 </r>
       <r>   17.6499    0.0000 </r>
       <r>   20.1636    0.0000 </r>
       <r>   22.2938    0.0000 </r>
       <r>   23.0197    0.0000 </r>
      </set>
      <set comment="kpoint 43">
       <r>    3.0047    1.0000 </r>
       <r>    4.7581    1.0000 </r>
       <r>    7.7689    1.0000 </r>
       <r>    7.9516    1.0000 </r>
       <r>    7.9516    1.0000 </r>
       <r>    8.0257    1.0000 </r>
       <r>    8.1111    1.0000 </r>
       <r>    8.1111    1.0000 </r>
       <r>    9.3681    1.0000 </r>
       <r>    9.3681    1.0000 </r>
       <r>    9.7783    1.0000 </r>
       <r>    9.7783    1.0000 </r>
       <r>   23.1610    0.0000 </r>
       <r>   29.2206    0.0000 </r>
       <r>   33.4189    0.0000 </r>
       <r>   34.3710    0.0000 </r>
      </set>
      <set comment="kpoint 44">
       <r>    3.3293    1.0000 </r>
       <r>    5.0416    1.0000 </r>
       <r>    7.5511    1.0000 </r>
       <r>    7.6932    1.0000 </r>
       <r>    7.8744    1.0000 </r>
       <r>    8.0856    1.0000 </r>
       <r>    8.2463    1.0000 </r>
       <r>    8.2505    1.0000 </r>
       <r>    9.3362    1.0000 </r>
       <r>    9.4205    1.0000 </r>
       <r>    9.7802    1.0000 </r>
       <r>   10.1108    1.0000 </r>
       <r>   23.3942    0.0000 </r>
       <r>   29.4642    0.0000 </r>
       <r>   31.4418    0.0000 </r>
       <r>   32.8247    0.0000 </r>
      </set>
      <set comment="kpoint 45">
       <r>    4.1919    1.0000 </r>
       <r>    5.6995    1.0000 </r>
       <r>    7.0524    1.0000 </r>
       <r>    7.5088    1.0000 </r>
       <r>    7.7609    1.0000 </r>
       <r>    8.1912    1.0000 </r>
       <r>    8.3876    1.0000 </r>
       <r>    8.6205    1.0000 </r>
       <r>    9.3279    1.0000 </r>
       <r>    9.5958    1.0000 </r>
       <r>    9.7880    1.0000 </r>
       <r>   10.8297    0.0000 </r>
       <r>   24.0584    0.0000 </r>
       <r>   27.1062    0.0000 </r>
       <r>   28.9548    0.0000 </r>
       <r>   30.4425    0.0000 </r>
      </set>
      <set comment="kpoint 46">
       <r>    5.1142    1.0000 </r>
       <r>    5.9731    1.0000 </r>
       <r>    6.8386    1.0000 </r>
       <r>    7.3029    1.0000 </r>
       <r>    8.0842    1.0000 </r>
       <r>    8.5521    1.0000 </r>
       <r>    8.6095    1.0000 </r>
       <r>    9.0612    1.0000 </r>
       <r>    9.5644    1.0000 </r>
       <r>    9.8537    1.0000 </r>
       <r>    9.8714    1.0000 </r>
       <r>   11.7302    0.0000 </r>
       <r>   22.7148    0.0000 </r>
       <r>   24.2819    0.0000 </r>
       <r>   26.1255    0.0000 </r>
       <r>   29.9850    0.0000 </r>
      </set>
      <set comment="kpoint 47">
       <r>    5.4391    1.0000 </r>
       <r>    5.8554    1.0000 </r>
       <r>    6.7505    1.0000 </r>
       <r>    7.0744    1.0000 </r>
       <r>    8.5335    1.0000 </r>
       <r>    8.7641    1.0000 </r>
       <r>    9.2998    1.0000 </r>
       <r>    9.8584    1.0000 </r>
       <r>    9.9515    1.0000 </r>
       <r>   10.0563    1.0000 </r>
       <r>   10.4423    1.0000 </r>
       <r>   12.8172    0.0000 </r>
       <r>   19.3217    0.0000 </r>
       <r>   20.9873    0.0000 </r>
       <r>   27.4683    0.0000 </r>
       <r>   28.5744    0.0000 </r>
      </set>
      <set comment="kpoint 48">
       <r>    5.4457    1.0000 </r>
       <r>    5.7957    1.0000 </r>
       <r>    6.7334    1.0000 </r>
       <r>    6.9726    1.0000 </r>
       <r>    8.5096    1.0000 </r>
       <r>    9.0142    1.0000 </r>
       <r>    9.3454    1.0000 </r>
       <r>   10.1351    1.0000 </r>
       <r>   10.1815    1.0000 </r>
       <r>   10.1831    1.0000 </r>
       <r>   11.6821    0.0000 </r>
       <r>   13.1911    0.0000 </r>
       <r>   18.5238    0.0000 </r>
       <r>   18.5596    0.0000 </r>
       <r>   28.0693    0.0000 </r>
       <r>   29.2757    0.0000 </r>
      </set>
      <set comment="kpoint 49">
       <r>    3.9304    1.0000 </r>
       <r>    5.5340    1.0000 </r>
       <r>    7.1600    1.0000 </r>
       <r>    7.5637    1.0000 </r>
       <r>    7.7464    1.0000 </r>
       <r>    8.1406    1.0000 </r>
       <r>    8.3349    1.0000 </r>
       <r>    8.5168    1.0000 </r>
       <r>    9.3567    1.0000 </r>
       <r>    9.5023    1.0000 </r>
       <r>    9.8034    1.0000 </r>
       <r>   10.6235    0.9503 </r>
       <r>   23.8568    0.0000 </r>
       <r>   29.0980    0.0000 </r>
       <r>   29.8618    0.0000 </r>
       <r>   29.9412    0.0000 </r>
      </set>
      <set comment="kpoint 50">
       <r>    4.8846    1.0000 </r>
       <r>    6.0708    1.0000 </r>
       <r>    6.9137    1.0000 </r>
       <r>    7.3925    1.0000 </r>
       <r>    7.6943    1.0000 </r>
       <r>    8.0749    1.0000 </r>
       <r>    8.5267    1.0000 </r>
       <r>    8.9265    1.0000 </r>
       <r>    9.5701    1.0000 </r>
       <r>    9.7104    1.0000 </r>
       <r>    9.9599    1.0000 </r>
       <r>   11.4374    0.0000 </r>
       <r>   24.5042    0.0000 </r>
       <r>   25.2279    0.0000 </r>
       <r>   27.0834    0.0000 </r>
       <r>   28.2493    0.0000 </r>
      </set>
      <set comment="kpoint 51">
       <r>    5.5306    1.0000 </r>
       <r>    6.0507    1.0000 </r>
       <r>    6.8178    1.0000 </r>
       <r>    7.2738    1.0000 </r>
       <r>    8.0714    1.0000 </r>
       <r>    8.4640    1.0000 </r>
       <r>    8.7696    1.0000 </r>
       <r>    9.1617    1.0000 </r>
       <r>    9.7991    1.0000 </r>
       <r>   10.0732    1.0000 </r>
       <r>   10.6637    0.6953 </r>
       <r>   12.5975    0.0000 </r>
       <r>   21.0169    0.0000 </r>
       <r>   22.8803    0.0000 </r>
       <r>   26.1993    0.0000 </r>
       <r>   27.1576    0.0000 </r>
      </set>
      <set comment="kpoint 52">
       <r>    5.6062    1.0000 </r>
       <r>    5.9775    1.0000 </r>
       <r>    6.7766    1.0000 </r>
       <r>    7.1212    1.0000 </r>
       <r>    8.1420    1.0000 </r>
       <r>    8.9681    1.0000 </r>
       <r>    9.1294    1.0000 </r>
       <r>    9.4754    1.0000 </r>
       <r>    9.9613    1.0000 </r>
       <r>   10.2070    1.0000 </r>
       <r>   12.1447    0.0000 </r>
       <r>   13.6964    0.0000 </r>
       <r>   18.5117    0.0000 </r>
       <r>   19.6792    0.0000 </r>
       <r>   25.6811    0.0000 </r>
       <r>   28.1132    0.0000 </r>
      </set>
      <set comment="kpoint 53">
       <r>    5.6783    1.0000 </r>
       <r>    6.2029    1.0000 </r>
       <r>    7.1387    1.0000 </r>
       <r>    7.1960    1.0000 </r>
       <r>    7.8194    1.0000 </r>
       <r>    7.8373    1.0000 </r>
       <r>    8.4677    1.0000 </r>
       <r>    9.0679    1.0000 </r>
       <r>    9.8135    1.0000 </r>
       <r>   10.0796    1.0000 </r>
       <r>   10.8263    0.0000 </r>
       <r>   12.5942    0.0000 </r>
       <r>   23.1775    0.0000 </r>
       <r>   23.6866    0.0000 </r>
       <r>   24.7951    0.0000 </r>
       <r>   26.1419    0.0000 </r>
      </set>
      <set comment="kpoint 54">
       <r>    6.0171    1.0000 </r>
       <r>    6.2931    1.0000 </r>
       <r>    6.9116    1.0000 </r>
       <r>    7.4438    1.0000 </r>
       <r>    7.6276    1.0000 </r>
       <r>    8.1485    1.0000 </r>
       <r>    8.6783    1.0000 </r>
       <r>    9.1074    1.0000 </r>
       <r>    9.8658    1.0000 </r>
       <r>   10.2333    1.0000 </r>
       <r>   12.5198    0.0000 </r>
       <r>   14.3233    0.0000 </r>
       <r>   19.7999    0.0000 </r>
       <r>   21.5567    0.0000 </r>
       <r>   22.7019    0.0000 </r>
       <r>   24.7881    0.0000 </r>
      </set>
      <set comment="kpoint 55">
       <r>    6.0107    1.0000 </r>
       <r>    6.3928    1.0000 </r>
       <r>    6.8805    1.0000 </r>
       <r>    7.4114    1.0000 </r>
       <r>    7.5120    1.0000 </r>
       <r>    8.3237    1.0000 </r>
       <r>    8.9151    1.0000 </r>
       <r>    9.2023    1.0000 </r>
       <r>    9.9178    1.0000 </r>
       <r>   10.1214    1.0000 </r>
       <r>   14.2974    0.0000 </r>
       <r>   14.9062    0.0000 </r>
       <r>   18.8314    0.0000 </r>
       <r>   18.9669    0.0000 </r>
       <r>   22.2592    0.0000 </r>
       <r>   24.4603    0.0000 </r>
      </set>
      <set comment="kpoint 56">
       <r>    6.4630    1.0000 </r>
       <r>    6.5936    1.0000 </r>
       <r>    6.9918    1.0000 </r>
       <r>    7.0971    1.0000 </r>
       <r>    7.6447    1.0000 </r>
       <r>    7.8381    1.0000 </r>
       <r>    8.6999    1.0000 </r>
       <r>    9.0784    1.0000 </r>
       <r>    9.8948    1.0000 </r>
       <r>   10.0780    1.0000 </r>
       <r>   14.9754    0.0000 </r>
       <r>   16.3334    0.0000 </r>
       <r>   18.3367    0.0000 </r>
       <r>   19.6491    0.0000 </r>
       <r>   21.2642    0.0000 </r>
       <r>   21.8140    0.0000 </r>
      </set>
      <set comment="kpoint 57">
       <r>    3.9141    1.0000 </r>
       <r>    3.9141    1.0000 </r>
       <r>    7.7365    1.0000 </r>
       <r>    7.7365    1.0000 </r>
       <r>    8.0035    1.0000 </r>
       <r>    8.0035    1.0000 </r>
       <r>    8.0035    1.0000 </r>
       <r>    8.0035    1.0000 </r>
       <r>    9.6036    1.0000 </r>
       <r>    9.6036    1.0000 </r>
       <r>    9.6036    1.0000 </r>
       <r>    9.6036    1.0000 </r>
       <r>   26.1357    0.0000 </r>
       <r>   26.1357    0.0000 </r>
       <r>   33.7643    0.0000 </r>
       <r>   33.7644    0.0000 </r>
      </set>
      <set comment="kpoint 58">
       <r>    4.2168    1.0000 </r>
       <r>    4.2168    1.0000 </r>
       <r>    7.5215    1.0000 </r>
       <r>    7.5215    1.0000 </r>
       <r>    8.0209    1.0000 </r>
       <r>    8.0209    1.0000 </r>
       <r>    8.1404    1.0000 </r>
       <r>    8.1404    1.0000 </r>
       <r>    9.5872    1.0000 </r>
       <r>    9.5872    1.0000 </r>
       <r>    9.7440    1.0000 </r>
       <r>    9.7440    1.0000 </r>
       <r>   26.3824    0.0000 </r>
       <r>   26.3824    0.0000 </r>
       <r>   32.0702    0.0000 </r>
       <r>   32.0702    0.0000 </r>
      </set>
      <set comment="kpoint 59">
       <r>    4.9672    1.0000 </r>
       <r>    4.9672    1.0000 </r>
       <r>    7.2474    1.0000 </r>
       <r>    7.2474    1.0000 </r>
       <r>    7.9549    1.0000 </r>
       <r>    7.9549    1.0000 </r>
       <r>    8.4829    1.0000 </r>
       <r>    8.4829    1.0000 </r>
       <r>    9.5763    1.0000 </r>
       <r>    9.5763    1.0000 </r>
       <r>   10.1031    1.0000 </r>
       <r>   10.1031    1.0000 </r>
       <r>   26.9021    0.0000 </r>
       <r>   26.9021    0.0000 </r>
       <r>   28.2259    0.0000 </r>
       <r>   28.2259    0.0000 </r>
      </set>
      <set comment="kpoint 60">
       <r>    5.5477    1.0000 </r>
       <r>    5.5477    1.0000 </r>
       <r>    7.0902    1.0000 </r>
       <r>    7.0902    1.0000 </r>
       <r>    8.3574    1.0000 </r>
       <r>    8.3574    1.0000 </r>
       <r>    8.8019    1.0000 </r>
       <r>    8.8019    1.0000 </r>
       <r>    9.7056    1.0000 </r>
       <r>    9.7056    1.0000 </r>
       <r>   10.6140    0.9723 </r>
       <r>   10.6140    0.9723 </r>
       <r>   23.6256    0.0000 </r>
       <r>   23.6256    0.0000 </r>
       <r>   28.4894    0.0000 </r>
       <r>   28.4894    0.0000 </r>
      </set>
      <set comment="kpoint 61">
       <r>    5.6146    1.0000 </r>
       <r>    5.6146    1.0000 </r>
       <r>    6.9263    1.0000 </r>
       <r>    6.9263    1.0000 </r>
       <r>    8.9035    1.0000 </r>
       <r>    8.9035    1.0000 </r>
       <r>    9.3135    1.0000 </r>
       <r>    9.3135    1.0000 </r>
       <r>   10.0037    1.0000 </r>
       <r>   10.0037    1.0000 </r>
       <r>   11.5160    0.0000 </r>
       <r>   11.5160    0.0000 </r>
       <r>   20.0558    0.0000 </r>
       <r>   20.0558    0.0000 </r>
       <r>   29.8686    0.0000 </r>
       <r>   29.8699    0.0000 </r>
      </set>
      <set comment="kpoint 62">
       <r>    5.5833    1.0000 </r>
       <r>    5.5833    1.0000 </r>
       <r>    6.8547    1.0000 </r>
       <r>    6.8547    1.0000 </r>
       <r>    8.9119    1.0000 </r>
       <r>    8.9119    1.0000 </r>
       <r>    9.6765    1.0000 </r>
       <r>    9.6765    1.0000 </r>
       <r>   10.1581    1.0000 </r>
       <r>   10.1581    1.0000 </r>
       <r>   12.3906    0.0000 </r>
       <r>   12.3906    0.0000 </r>
       <r>   18.2988    0.0000 </r>
       <r>   18.2988    0.0000 </r>
       <r>   29.5378    0.0000 </r>
       <r>   29.5378    0.0000 </r>
      </set>
      <set comment="kpoint 63">
       <r>    4.7561    1.0000 </r>
       <r>    4.7561    1.0000 </r>
       <r>    7.3093    1.0000 </r>
       <r>    7.3093    1.0000 </r>
       <r>    7.9189    1.0000 </r>
       <r>    7.9189    1.0000 </r>
       <r>    8.4030    1.0000 </r>
       <r>    8.4030    1.0000 </r>
       <r>    9.5840    1.0000 </r>
       <r>    9.5840    1.0000 </r>
       <r>    9.9945    1.0000 </r>
       <r>    9.9945    1.0000 </r>
       <r>   26.8438    0.0000 </r>
       <r>   26.8438    0.0000 </r>
       <r>   29.7893    0.0000 </r>
       <r>   29.7893    0.0000 </r>
      </set>
      <set comment="kpoint 64">
       <r>    5.4871    1.0000 </r>
       <r>    5.4871    1.0000 </r>
       <r>    7.1898    1.0000 </r>
       <r>    7.1898    1.0000 </r>
       <r>    7.8391    1.0000 </r>
       <r>    7.8391    1.0000 </r>
       <r>    8.7192    1.0000 </r>
       <r>    8.7192    1.0000 </r>
       <r>    9.7373    1.0000 </r>
       <r>    9.7373    1.0000 </r>
       <r>   10.4521    1.0000 </r>
       <r>   10.4521    1.0000 </r>
       <r>   25.8062    0.0000 </r>
       <r>   25.8062    0.0000 </r>
       <r>   27.8301    0.0000 </r>
       <r>   27.8301    0.0000 </r>
      </set>
      <set comment="kpoint 65">
       <r>    5.7700    1.0000 </r>
       <r>    5.7700    1.0000 </r>
       <r>    7.0807    1.0000 </r>
       <r>    7.0807    1.0000 </r>
       <r>    8.3535    1.0000 </r>
       <r>    8.3535    1.0000 </r>
       <r>    8.8734    1.0000 </r>
       <r>    8.8734    1.0000 </r>
       <r>   10.0247    1.0000 </r>
       <r>   10.0247    1.0000 </r>
       <r>   11.3714    0.0000 </r>
       <r>   11.3714    0.0000 </r>
       <r>   21.9017    0.0000 </r>
       <r>   21.9017    0.0000 </r>
       <r>   27.4999    0.0000 </r>
       <r>   27.4999    0.0000 </r>
      </set>
      <set comment="kpoint 66">
       <r>    5.7523    1.0000 </r>
       <r>    5.7523    1.0000 </r>
       <r>    6.9612    1.0000 </r>
       <r>    6.9612    1.0000 </r>
       <r>    8.6033    1.0000 </r>
       <r>    8.6033    1.0000 </r>
       <r>    9.3382    1.0000 </r>
       <r>    9.3382    1.0000 </r>
       <r>   10.0803    1.0000 </r>
       <r>   10.0803    1.0000 </r>
       <r>   12.7945    0.0000 </r>
       <r>   12.7945    0.0000 </r>
       <r>   18.9076    0.0000 </r>
       <r>   18.9076    0.0000 </r>
       <r>   26.8382    0.0000 </r>
       <r>   26.8382    0.0000 </r>
      </set>
      <set comment="kpoint 67">
       <r>    5.9525    1.0000 </r>
       <r>    5.9525    1.0000 </r>
       <r>    7.3011    1.0000 </r>
       <r>    7.3011    1.0000 </r>
       <r>    7.6981    1.0000 </r>
       <r>    7.6981    1.0000 </r>
       <r>    8.7346    1.0000 </r>
       <r>    8.7346    1.0000 </r>
       <r>   10.0791    1.0000 </r>
       <r>   10.0791    1.0000 </r>
       <r>   11.4294    0.0000 </r>
       <r>   11.4294    0.0000 </r>
       <r>   23.9872    0.0000 </r>
       <r>   23.9872    0.0000 </r>
       <r>   24.9278    0.0000 </r>
       <r>   24.9278    0.0000 </r>
      </set>
      <set comment="kpoint 68">
       <r>    6.1262    1.0000 </r>
       <r>    6.1262    1.0000 </r>
       <r>    7.2072    1.0000 </r>
       <r>    7.2072    1.0000 </r>
       <r>    7.9316    1.0000 </r>
       <r>    7.9316    1.0000 </r>
       <r>    8.8236    1.0000 </r>
       <r>    8.8236    1.0000 </r>
       <r>   10.1185    1.0000 </r>
       <r>   10.1185    1.0000 </r>
       <r>   13.2298    0.0000 </r>
       <r>   13.2298    0.0000 </r>
       <r>   20.6238    0.0000 </r>
       <r>   20.6238    0.0000 </r>
       <r>   23.6129    0.0000 </r>
       <r>   23.6129    0.0000 </r>
      </set>
      <set comment="kpoint 69">
       <r>    6.1591    1.0000 </r>
       <r>    6.1591    1.0000 </r>
       <r>    7.1393    1.0000 </r>
       <r>    7.1393    1.0000 </r>
       <r>    7.9865    1.0000 </r>
       <r>    7.9865    1.0000 </r>
       <r>    9.0397    1.0000 </r>
       <r>    9.0397    1.0000 </r>
       <r>   10.0325    1.0000 </r>
       <r>   10.0325    1.0000 </r>
       <r>   14.6633    0.0000 </r>
       <r>   14.6633    0.0000 </r>
       <r>   18.5723    0.0000 </r>
       <r>   18.5723    0.0000 </r>
       <r>   23.2542    0.0000 </r>
       <r>   23.2542    0.0000 </r>
      </set>
      <set comment="kpoint 70">
       <r>    6.5366    1.0000 </r>
       <r>    6.5366    1.0000 </r>
       <r>    7.1060    1.0000 </r>
       <r>    7.1060    1.0000 </r>
       <r>    7.7138    1.0000 </r>
       <r>    7.7138    1.0000 </r>
       <r>    8.8130    1.0000 </r>
       <r>    8.8130    1.0000 </r>
       <r>   10.0164    1.0000 </r>
       <r>   10.0164    1.0000 </r>
       <r>   15.6194    0.0000 </r>
       <r>   15.6194    0.0000 </r>
       <r>   19.1237    0.0000 </r>
       <r>   19.1237    0.0000 </r>
       <r>   21.0805    0.0000 </r>
       <r>   21.0805    0.0000 </r>
      </set>
     </set>
     <set comment="spin 2">
      <set comment="kpoint 1">
       <r>    1.6468    1.0000 </r>
       <r>    6.4036    1.0000 </r>
       <r>    9.7171    1.0000 </r>
       <r>    9.7464    1.0000 </r>
       <r>    9.7464    1.0000 </r>
       <r>   10.1303    1.0000 </r>
       <r>   10.1304    1.0000 </r>
       <r>   10.5702    0.9992 </r>
       <r>   10.5702    0.9992 </r>
       <r>   10.6011    0.9888 </r>
       <r>   11.8447    0.0000 </r>
       <r>   11.8447    0.0000 </r>
       <r>   18.4277    0.0000 </r>
       <r>   32.7585    0.0000 </r>
       <r>   36.0892    0.0000 </r>
       <r>   36.3237    0.0000 </r>
      </set>
      <set comment="kpoint 2">
       <r>    2.0066    1.0000 </r>
       <r>    6.6453    1.0000 </r>
       <r>    9.3817    1.0000 </r>
       <r>    9.6964    1.0000 </r>
       <r>    9.9330    1.0000 </r>
       <r>    9.9701    1.0000 </r>
       <r>   10.0682    1.0000 </r>
       <r>   10.2958    1.0000 </r>
       <r>   10.4479    1.0000 </r>
       <r>   10.4826    1.0000 </r>
       <r>   11.8967    0.0000 </r>
       <r>   13.0535    0.0000 </r>
       <r>   18.4542    0.0000 </r>
       <r>   30.7185    0.0000 </r>
       <r>   33.4797    0.0000 </r>
       <r>   33.5680    0.0000 </r>
      </set>
      <set comment="kpoint 3">
       <r>    3.0355    1.0000 </r>
       <r>    7.2049    1.0000 </r>
       <r>    8.6711    1.0000 </r>
       <r>    8.9380    1.0000 </r>
       <r>    9.7487    1.0000 </r>
       <r>   10.1695    1.0000 </r>
       <r>   10.2519    1.0000 </r>
       <r>   10.4500    1.0000 </r>
       <r>   10.4637    1.0000 </r>
       <r>   10.7461    0.0344 </r>
       <r>   11.9936    0.0000 </r>
       <r>   14.9850    0.0000 </r>
       <r>   18.5679    0.0000 </r>
       <r>   26.3158    0.0000 </r>
       <r>   30.6966    0.0000 </r>
       <r>   32.4244    0.0000 </r>
      </set>
      <set comment="kpoint 4">
       <r>    4.5441    1.0000 </r>
       <r>    7.4882    1.0000 </r>
       <r>    7.9314    1.0000 </r>
       <r>    8.6853    1.0000 </r>
       <r>    9.7003    1.0000 </r>
       <r>    9.8736    1.0000 </r>
       <r>    9.9733    1.0000 </r>
       <r>   11.1458    0.0000 </r>
       <r>   11.1511    0.0000 </r>
       <r>   11.3488    0.0000 </r>
       <r>   12.0683    0.0000 </r>
       <r>   17.1892    0.0000 </r>
       <r>   18.7124    0.0000 </r>
       <r>   22.3285    0.0000 </r>
       <r>   28.3292    0.0000 </r>
       <r>   29.5034    0.0000 </r>
      </set>
      <set comment="kpoint 5">
       <r>    6.0441    1.0000 </r>
       <r>    7.2690    1.0000 </r>
       <r>    7.4946    1.0000 </r>
       <r>    8.7095    1.0000 </r>
       <r>    9.6588    1.0000 </r>
       <r>    9.7525    1.0000 </r>
       <r>    9.9733    1.0000 </r>
       <r>   11.7589    0.0000 </r>
       <r>   11.9100    0.0000 </r>
       <r>   12.1076    0.0000 </r>
       <r>   12.2225    0.0000 </r>
       <r>   17.2266    0.0000 </r>
       <r>   19.5346    0.0000 </r>
       <r>   21.0894    0.0000 </r>
       <r>   26.2588    0.0000 </r>
       <r>   26.6984    0.0000 </r>
      </set>
      <set comment="kpoint 6">
       <r>    6.7509    1.0000 </r>
       <r>    7.0307    1.0000 </r>
       <r>    7.3506    1.0000 </r>
       <r>    8.8447    1.0000 </r>
       <r>    9.5805    1.0000 </r>
       <r>    9.6690    1.0000 </r>
       <r>   10.1062    1.0000 </r>
       <r>   11.9880    0.0000 </r>
       <r>   12.1189    0.0000 </r>
       <r>   12.1612    0.0000 </r>
       <r>   13.4003    0.0000 </r>
       <r>   15.2276    0.0000 </r>
       <r>   21.1412    0.0000 </r>
       <r>   21.8016    0.0000 </r>
       <r>   24.3603    0.0000 </r>
       <r>   25.7303    0.0000 </r>
      </set>
      <set comment="kpoint 7">
       <r>    2.7027    1.0000 </r>
       <r>    7.0609    1.0000 </r>
       <r>    8.9376    1.0000 </r>
       <r>    9.0251    1.0000 </r>
       <r>    9.8509    1.0000 </r>
       <r>   10.1060    1.0000 </r>
       <r>   10.2241    1.0000 </r>
       <r>   10.3124    1.0000 </r>
       <r>   10.4619    1.0000 </r>
       <r>   10.6617    0.7142 </r>
       <r>   11.9484    0.0000 </r>
       <r>   14.4438    0.0000 </r>
       <r>   18.5312    0.0000 </r>
       <r>   28.3598    0.0000 </r>
       <r>   29.1652    0.0000 </r>
       <r>   34.9100    0.0000 </r>
      </set>
      <set comment="kpoint 8">
       <r>    3.9886    1.0000 </r>
       <r>    7.5685    1.0000 </r>
       <r>    8.1988    1.0000 </r>
       <r>    8.5992    1.0000 </r>
       <r>    9.6935    1.0000 </r>
       <r>    9.7667    1.0000 </r>
       <r>   10.2505    1.0000 </r>
       <r>   10.6129    0.9742 </r>
       <r>   10.9702    0.0000 </r>
       <r>   11.3086    0.0000 </r>
       <r>   12.0015    0.0000 </r>
       <r>   16.4113    0.0000 </r>
       <r>   18.7580    0.0000 </r>
       <r>   24.2975    0.0000 </r>
       <r>   26.8363    0.0000 </r>
       <r>   31.4041    0.0000 </r>
      </set>
      <set comment="kpoint 9">
       <r>    5.5589    1.0000 </r>
       <r>    7.5439    1.0000 </r>
       <r>    7.6879    1.0000 </r>
       <r>    8.4954    1.0000 </r>
       <r>    9.5469    1.0000 </r>
       <r>    9.8494    1.0000 </r>
       <r>    9.9442    1.0000 </r>
       <r>   11.2250    0.0000 </r>
       <r>   11.6338    0.0000 </r>
       <r>   12.0376    0.0000 </r>
       <r>   12.1389    0.0000 </r>
       <r>   18.5935    0.0000 </r>
       <r>   18.6754    0.0000 </r>
       <r>   21.2138    0.0000 </r>
       <r>   25.1975    0.0000 </r>
       <r>   27.9741    0.0000 </r>
      </set>
      <set comment="kpoint 10">
       <r>    6.7239    1.0000 </r>
       <r>    7.2678    1.0000 </r>
       <r>    7.4341    1.0000 </r>
       <r>    8.6215    1.0000 </r>
       <r>    9.4924    1.0000 </r>
       <r>    9.6828    1.0000 </r>
       <r>   10.1047    1.0000 </r>
       <r>   11.8438    0.0000 </r>
       <r>   11.9936    0.0000 </r>
       <r>   12.0526    0.0000 </r>
       <r>   13.2743    0.0000 </r>
       <r>   16.1837    0.0000 </r>
       <r>   20.9455    0.0000 </r>
       <r>   21.7187    0.0000 </r>
       <r>   24.1445    0.0000 </r>
       <r>   25.1233    0.0000 </r>
      </set>
      <set comment="kpoint 11">
       <r>    5.3864    1.0000 </r>
       <r>    7.8140    1.0000 </r>
[...]
       </set>
       <set comment="band 12">
        <r>  0.0677  0.0481  0.0000  0.0512  0.1567  0.0000  0.1196  0.0000  0.1059 </r>
        <r>  0.0000  0.0000  0.0471  0.0000  0.0000  0.1608  0.0000  0.1762  0.0000 </r>
       </set>
       <set comment="band 13">
        <r>  0.1761  0.0186  0.0005  0.1946  0.1254  0.0003  0.0372  0.0013  0.0955 </r>
        <r>  0.0018  0.0002  0.0475  0.0020  0.0013  0.0245  0.0004  0.1263  0.0010 </r>
       </set>
       <set comment="band 14">
        <r>  0.0018  0.0002  0.0475  0.0020  0.0013  0.0245  0.0004  0.1263  0.0010 </r>
        <r>  0.1761  0.0186  0.0005  0.1946  0.1254  0.0003  0.0372  0.0013  0.0955 </r>
       </set>
       <set comment="band 15">
        <r>  0.0005  0.0027  0.0099  0.0002  0.0003  0.1451  0.0007  0.0152  0.0010 </r>
        <r>  0.0546  0.3101  0.0001  0.0233  0.0337  0.0013  0.0812  0.0001  0.1108 </r>
       </set>
       <set comment="band 16">
        <r>  0.0546  0.3101  0.0001  0.0233  0.0337  0.0013  0.0812  0.0001  0.1108 </r>
        <r>  0.0005  0.0027  0.0099  0.0002  0.0003  0.1451  0.0007  0.0152  0.0010 </r>
       </set>
      </set>
      <set comment="kpoint 66">
       <set comment="band 1">
        <r>  0.0000  0.0000  0.0104  0.0000  0.0000  0.1201  0.0000  0.2753  0.0000 </r>
        <r>  0.1221  0.0191  0.0000  0.0100  0.2227  0.0000  0.0231  0.0000  0.0668 </r>
       </set>
       <set comment="band 2">
        <r>  0.1221  0.0191  0.0000  0.0100  0.2227  0.0000  0.0231  0.0000  0.0668 </r>
        <r>  0.0000  0.0000  0.0104  0.0000  0.0000  0.1201  0.0000  0.2753  0.0000 </r>
       </set>
       <set comment="band 3">
        <r>  0.0000  0.0000  0.0137  0.0000  0.0000  0.0711  0.0000  0.1280  0.0000 </r>
        <r>  0.0017  0.0129  0.0000  0.0247  0.3120  0.0000  0.2404  0.0000  0.1317 </r>
       </set>
       <set comment="band 4">
        <r>  0.0017  0.0129  0.0000  0.0247  0.3120  0.0000  0.2404  0.0000  0.1317 </r>
        <r>  0.0000  0.0000  0.0137  0.0000  0.0000  0.0711  0.0000  0.1280  0.0000 </r>
       </set>
       <set comment="band 5">
        <r>  0.0000  0.0000  0.0397  0.0000  0.0000  0.3068  0.0000  0.1687  0.0000 </r>
        <r>  0.0151  0.0361  0.0000  0.1018  0.0110  0.0000  0.1409  0.0000  0.0785 </r>
       </set>
       <set comment="band 6">
        <r>  0.0151  0.0361  0.0000  0.1018  0.0110  0.0000  0.1409  0.0000  0.0785 </r>
        <r>  0.0000  0.0000  0.0397  0.0000  0.0000  0.3068  0.0000  0.1687  0.0000 </r>
       </set>
       <set comment="band 7">
        <r>  0.0000  0.0000  0.0186  0.0000  0.0000  0.2693  0.0000  0.1428  0.0000 </r>
        <r>  0.0033  0.0206  0.0000  0.0553  0.0411  0.0000  0.1158  0.0000  0.2830 </r>
       </set>
       <set comment="band 8">
        <r>  0.0033  0.0206  0.0000  0.0553  0.0411  0.0000  0.1158  0.0000  0.2830 </r>
        <r>  0.0000  0.0000  0.0186  0.0000  0.0000  0.2693  0.0000  0.1428  0.0000 </r>
       </set>
       <set comment="band 9">
        <r>  0.0000  0.0000  0.0027  0.0000  0.0000  0.1085  0.0000  0.1124  0.0000 </r>
        <r>  0.0005  0.0017  0.0000  0.0005  0.1668  0.0000  0.3864  0.0000  0.2083 </r>
       </set>
       <set comment="band 10">
        <r>  0.0005  0.0017  0.0000  0.0005  0.1668  0.0000  0.3864  0.0000  0.2083 </r>
        <r>  0.0000  0.0000  0.0027  0.0000  0.0000  0.1085  0.0000  0.1124  0.0000 </r>
       </set>
       <set comment="band 11">
        <r>  0.0000  0.0000  0.0726  0.0000  0.0000  0.0674  0.0000  0.0685  0.0000 </r>
        <r>  0.0305  0.0853  0.0000  0.1752  0.1570  0.0000  0.0544  0.0000  0.1753 </r>
       </set>
       <set comment="band 12">
        <r>  0.0305  0.0853  0.0000  0.1752  0.1570  0.0000  0.0544  0.0000  0.1753 </r>
        <r>  0.0000  0.0000  0.0726  0.0000  0.0000  0.0674  0.0000  0.0685  0.0000 </r>
       </set>
       <set comment="band 13">
        <r>  0.3224  0.0045  0.0000  0.0750  0.1474  0.0000  0.0228  0.0000  0.0814 </r>
        <r>  0.0001  0.0000  0.0368  0.0000  0.0000  0.0428  0.0000  0.1628  0.0000 </r>
       </set>
       <set comment="band 14">
        <r>  0.0001  0.0000  0.0368  0.0000  0.0000  0.0428  0.0000  0.1628  0.0000 </r>
        <r>  0.3224  0.0045  0.0000  0.0750  0.1474  0.0000  0.0228  0.0000  0.0814 </r>
       </set>
       <set comment="band 15">
        <r>  0.0782  0.2905  0.0001  0.0686  0.0610  0.0011  0.0456  0.0003  0.0524 </r>
        <r>  0.0007  0.0026  0.0102  0.0006  0.0005  0.1274  0.0004  0.0337  0.0005 </r>
       </set>
       <set comment="band 16">
        <r>  0.0007  0.0026  0.0102  0.0006  0.0005  0.1274  0.0004  0.0337  0.0005 </r>
        <r>  0.0782  0.2905  0.0001  0.0686  0.0610  0.0011  0.0456  0.0003  0.0524 </r>
       </set>
      </set>
      <set comment="kpoint 67">
       <set comment="band 1">
        <r>  0.0003  0.0001  0.0741  0.0000  0.0001  0.2372  0.0000  0.0792  0.0000 </r>
        <r>  0.2377  0.0774  0.0001  0.0275  0.0474  0.0003  0.0078  0.0001  0.0237 </r>
       </set>
       <set comment="band 2">
        <r>  0.2377  0.0774  0.0001  0.0275  0.0474  0.0003  0.0078  0.0001  0.0237 </r>
        <r>  0.0003  0.0001  0.0741  0.0000  0.0001  0.2372  0.0000  0.0792  0.0000 </r>
       </set>
       <set comment="band 3">
        <r>  0.0000  0.0000  0.0245  0.0000  0.0000  0.0466  0.0000  0.0178  0.0000 </r>
        <r>  0.0250  0.0339  0.0000  0.0337  0.1898  0.0000  0.0827  0.0000  0.4671 </r>
       </set>
       <set comment="band 4">
        <r>  0.0250  0.0339  0.0000  0.0337  0.1898  0.0000  0.0827  0.0000  0.4671 </r>
        <r>  0.0000  0.0000  0.0245  0.0000  0.0000  0.0466  0.0000  0.0178  0.0000 </r>
       </set>
       <set comment="band 5">
        <r>  0.0000  0.0000  0.0009  0.0000  0.0000  0.0824  0.0000  0.1112  0.0000 </r>
        <r>  0.0014  0.0330  0.0000  0.0156  0.0761  0.0000  0.4815  0.0000  0.1361 </r>
       </set>
       <set comment="band 6">
        <r>  0.0014  0.0330  0.0000  0.0156  0.0761  0.0000  0.4815  0.0000  0.1361 </r>
        <r>  0.0000  0.0000  0.0009  0.0000  0.0000  0.0824  0.0000  0.1112  0.0000 </r>
       </set>
       <set comment="band 7">
        <r>  0.0000  0.0000  0.0011  0.0000  0.0000  0.2026  0.0000  0.5178  0.0000 </r>
        <r>  0.0037  0.0028  0.0000  0.0011  0.1356  0.0000  0.0067  0.0000  0.0947 </r>
       </set>
       <set comment="band 8">
        <r>  0.0037  0.0028  0.0000  0.0011  0.1356  0.0000  0.0067  0.0000  0.0947 </r>
        <r>  0.0000  0.0000  0.0011  0.0000  0.0000  0.2026  0.0000  0.5178  0.0000 </r>
       </set>
       <set comment="band 9">
        <r>  0.0000  0.0000  0.0020  0.0000  0.0000  0.1496  0.0000  0.1378  0.0000 </r>
        <r>  0.0000  0.0000  0.0000  0.0000  0.2843  0.0000  0.3194  0.0000  0.0985 </r>
       </set>
       <set comment="band 10">
        <r>  0.0000  0.0000  0.0000  0.0000  0.2843  0.0000  0.3194  0.0000  0.0985 </r>
        <r>  0.0000  0.0000  0.0020  0.0000  0.0000  0.1496  0.0000  0.1378  0.0000 </r>
       </set>
       <set comment="band 11">
        <r>  0.0000  0.0000  0.0516  0.0000  0.0000  0.2392  0.0000  0.0862  0.0000 </r>
        <r>  0.0778  0.0712  0.0000  0.0248  0.2343  0.0000  0.0494  0.0000  0.0988 </r>
       </set>
       <set comment="band 12">
        <r>  0.0778  0.0712  0.0000  0.0248  0.2343  0.0000  0.0494  0.0000  0.0988 </r>
        <r>  0.0000  0.0000  0.0516  0.0000  0.0000  0.2392  0.0000  0.0862  0.0000 </r>
       </set>
       <set comment="band 13">
        <r>  0.0000  0.0000  0.0665  0.0001  0.0000  0.0506  0.0000  0.0513  0.0001 </r>
        <r>  0.0020  0.0806  0.0000  0.2049  0.0873  0.0000  0.0113  0.0000  0.2619 </r>
       </set>
       <set comment="band 14">
        <r>  0.0020  0.0806  0.0000  0.2049  0.0873  0.0000  0.0113  0.0000  0.2619 </r>
        <r>  0.0000  0.0000  0.0665  0.0001  0.0000  0.0506  0.0000  0.0513  0.0001 </r>
       </set>
       <set comment="band 15">
        <r>  0.2306  0.2053  0.0000  0.0766  0.0112  0.0000  0.0962  0.0000  0.0136 </r>
        <r>  0.0000  0.0000  0.0035  0.0000  0.0000  0.1084  0.0000  0.0936  0.0000 </r>
       </set>
       <set comment="band 16">
        <r>  0.0000  0.0000  0.0035  0.0000  0.0000  0.1084  0.0000  0.0936  0.0000 </r>
        <r>  0.2306  0.2053  0.0000  0.0766  0.0112  0.0000  0.0962  0.0000  0.0136 </r>
       </set>
      </set>
      <set comment="kpoint 68">
       <set comment="band 1">
        <r>  0.0000  0.0000  0.0212  0.0000  0.0000  0.2441  0.0000  0.2079  0.0000 </r>
        <r>  0.1162  0.0510  0.0000  0.0175  0.1264  0.0001  0.0447  0.0001  0.0296 </r>
       </set>
       <set comment="band 2">
        <r>  0.1162  0.0510  0.0000  0.0175  0.1264  0.0001  0.0447  0.0001  0.0296 </r>
        <r>  0.0000  0.0000  0.0212  0.0000  0.0000  0.2441  0.0000  0.2079  0.0000 </r>
       </set>
       <set comment="band 3">
        <r>  0.0000  0.0000  0.0265  0.0000  0.0000  0.0917  0.0000  0.0153  0.0000 </r>
        <r>  0.0147  0.0265  0.0000  0.0363  0.2928  0.0000  0.1076  0.0000  0.3134 </r>
       </set>
       <set comment="band 4">
        <r>  0.0147  0.0265  0.0000  0.0363  0.2928  0.0000  0.1076  0.0000  0.3134 </r>
        <r>  0.0000  0.0000  0.0265  0.0000  0.0000  0.0917  0.0000  0.0153  0.0000 </r>
       </set>
       <set comment="band 5">
        <r>  0.0000  0.0000  0.0216  0.0000  0.0000  0.0822  0.0000  0.2145  0.0000 </r>
        <r>  0.0117  0.0486  0.0000  0.0740  0.0444  0.0000  0.2523  0.0000  0.1547 </r>
       </set>
       <set comment="band 6">
        <r>  0.0117  0.0486  0.0000  0.0740  0.0444  0.0000  0.2523  0.0000  0.1547 </r>
        <r>  0.0000  0.0000  0.0216  0.0000  0.0000  0.0822  0.0000  0.2145  0.0000 </r>
       </set>
       <set comment="band 7">
        <r>  0.0000  0.0000  0.0012  0.0000  0.0000  0.2537  0.0000  0.3071  0.0000 </r>
        <r>  0.0085  0.0031  0.0000  0.0066  0.1160  0.0000  0.0466  0.0000  0.2218 </r>
       </set>
       <set comment="band 8">
        <r>  0.0085  0.0031  0.0000  0.0066  0.1160  0.0000  0.0466  0.0000  0.2218 </r>
        <r>  0.0000  0.0000  0.0012  0.0000  0.0000  0.2537  0.0000  0.3071  0.0000 </r>
       </set>
       <set comment="band 9">
        <r>  0.0000  0.0000  0.0036  0.0000  0.0000  0.1718  0.0000  0.1263  0.0000 </r>
        <r>  0.0001  0.0027  0.0000  0.0008  0.1281  0.0000  0.5017  0.0000  0.0540 </r>
       </set>
       <set comment="band 10">
        <r>  0.0001  0.0027  0.0000  0.0008  0.1281  0.0000  0.5017  0.0000  0.0540 </r>
        <r>  0.0000  0.0000  0.0036  0.0000  0.0000  0.1718  0.0000  0.1263  0.0000 </r>
       </set>
       <set comment="band 11">
        <r>  0.0000  0.0000  0.0777  0.0000  0.0000  0.1038  0.0000  0.0440  0.0000 </r>
        <r>  0.0725  0.1182  0.0000  0.0880  0.2512  0.0000  0.0050  0.0000  0.1405 </r>
       </set>
       <set comment="band 12">
        <r>  0.0725  0.1182  0.0000  0.0880  0.2512  0.0000  0.0050  0.0000  0.1405 </r>
        <r>  0.0000  0.0000  0.0777  0.0000  0.0000  0.1038  0.0000  0.0440  0.0000 </r>
       </set>
       <set comment="band 13">
        <r>  0.0418  0.0017  0.0363  0.0571  0.0248  0.0146  0.0049  0.1022  0.0394 </r>
        <r>  0.1191  0.0048  0.0127  0.1625  0.0706  0.0051  0.0139  0.0359  0.1120 </r>
       </set>
       <set comment="band 14">
        <r>  0.1191  0.0048  0.0127  0.1625  0.0706  0.0051  0.0139  0.0359  0.1120 </r>
        <r>  0.0418  0.0017  0.0363  0.0571  0.0248  0.0146  0.0049  0.1022  0.0394 </r>
       </set>
       <set comment="band 15">
        <r>  0.2191  0.2407  0.0000  0.0176  0.0304  0.0001  0.0494  0.0000  0.0612 </r>
        <r>  0.0001  0.0001  0.0195  0.0000  0.0000  0.1410  0.0000  0.0417  0.0000 </r>
       </set>
       <set comment="band 16">
        <r>  0.0001  0.0001  0.0195  0.0000  0.0000  0.1410  0.0000  0.0417  0.0000 </r>
        <r>  0.2191  0.2407  0.0000  0.0176  0.0304  0.0001  0.0494  0.0000  0.0612 </r>
       </set>
      </set>
      <set comment="kpoint 69">
       <set comment="band 1">
        <r>  0.0000  0.0000  0.0031  0.0000  0.0000  0.1138  0.0000  0.3414  0.0000 </r>
        <r>  0.0791  0.0289  0.0000  0.0218  0.1740  0.0000  0.0512  0.0000  0.0636 </r>
       </set>
       <set comment="band 2">
        <r>  0.0791  0.0289  0.0000  0.0218  0.1740  0.0000  0.0512  0.0000  0.0636 </r>
        <r>  0.0000  0.0000  0.0031  0.0000  0.0000  0.1138  0.0000  0.3414  0.0000 </r>
       </set>
       <set comment="band 3">
        <r>  0.0000  0.0000  0.0098  0.0000  0.0000  0.1046  0.0000  0.1069  0.0000 </r>
        <r>  0.0014  0.0304  0.0000  0.0159  0.3228  0.0000  0.2280  0.0000  0.1154 </r>
       </set>
       <set comment="band 4">
        <r>  0.0014  0.0304  0.0000  0.0159  0.3228  0.0000  0.2280  0.0000  0.1154 </r>
        <r>  0.0000  0.0000  0.0098  0.0000  0.0000  0.1046  0.0000  0.1069  0.0000 </r>
       </set>
       <set comment="band 5">
        <r>  0.0000  0.0000  0.0410  0.0000  0.0000  0.2706  0.0000  0.1003  0.0000 </r>
        <r>  0.0178  0.0369  0.0000  0.1108  0.0911  0.0000  0.0443  0.0000  0.1739 </r>
       </set>
       <set comment="band 6">
        <r>  0.0178  0.0369  0.0000  0.1108  0.0911  0.0000  0.0443  0.0000  0.1739 </r>
        <r>  0.0000  0.0000  0.0410  0.0000  0.0000  0.2706  0.0000  0.1003  0.0000 </r>
       </set>
       <set comment="band 7">
        <r>  0.0000  0.0000  0.0056  0.0000  0.0000  0.2782  0.0000  0.1379  0.0000 </r>
        <r>  0.0008  0.0096  0.0000  0.0260  0.1488  0.0000  0.0175  0.0000  0.3379 </r>
       </set>
       <set comment="band 8">
        <r>  0.0008  0.0096  0.0000  0.0260  0.1488  0.0000  0.0175  0.0000  0.3379 </r>
        <r>  0.0000  0.0000  0.0056  0.0000  0.0000  0.2782  0.0000  0.1379  0.0000 </r>
       </set>
       <set comment="band 9">
        <r>  0.0000  0.0000  0.0013  0.0000  0.0000  0.1181  0.0000  0.1664  0.0000 </r>
        <r>  0.0007  0.0011  0.0000  0.0004  0.0434  0.0000  0.6164  0.0000  0.0393 </r>
       </set>
       <set comment="band 10">
        <r>  0.0007  0.0011  0.0000  0.0004  0.0434  0.0000  0.6164  0.0000  0.0393 </r>
        <r>  0.0000  0.0000  0.0013  0.0000  0.0000  0.1181  0.0000  0.1664  0.0000 </r>
       </set>
       <set comment="band 11">
        <r>  0.0000  0.0000  0.1063  0.0000  0.0000  0.0340  0.0000  0.0324  0.0000 </r>
        <r>  0.0087  0.0857  0.0000  0.2441  0.1038  0.0000  0.0076  0.0000  0.2469 </r>
       </set>
       <set comment="band 12">
        <r>  0.0087  0.0857  0.0000  0.2441  0.1038  0.0000  0.0076  0.0000  0.2469 </r>
        <r>  0.0000  0.0000  0.1063  0.0000  0.0000  0.0340  0.0000  0.0324  0.0000 </r>
       </set>
       <set comment="band 13">
        <r>  0.2799  0.0738  0.0000  0.0400  0.1766  0.0000  0.0133  0.0000  0.0634 </r>
        <r>  0.0000  0.0000  0.0306  0.0000  0.0000  0.0530  0.0000  0.1586  0.0000 </r>
       </set>
       <set comment="band 14">
        <r>  0.0000  0.0000  0.0306  0.0000  0.0000  0.0530  0.0000  0.1586  0.0000 </r>
        <r>  0.2799  0.0738  0.0000  0.0400  0.1766  0.0000  0.0133  0.0000  0.0634 </r>
       </set>
       <set comment="band 15">
        <r>  0.2201  0.1940  0.0000  0.0649  0.0683  0.0001  0.0411  0.0001  0.0228 </r>
        <r>  0.0003  0.0002  0.0205  0.0001  0.0001  0.1287  0.0000  0.0547  0.0000 </r>
       </set>
       <set comment="band 16">
        <r>  0.0003  0.0002  0.0205  0.0001  0.0001  0.1287  0.0000  0.0547  0.0000 </r>
        <r>  0.2201  0.1940  0.0000  0.0649  0.0683  0.0001  0.0411  0.0001  0.0228 </r>
       </set>
      </set>
      <set comment="kpoint 70">
       <set comment="band 1">
        <r>  0.0000  0.0000  0.0020  0.0000  0.0000  0.3823  0.0000  0.1275  0.0000 </r>
        <r>  0.0522  0.0391  0.0000  0.0329  0.0693  0.0001  0.0909  0.0000  0.0826 </r>
       </set>
       <set comment="band 2">
        <r>  0.0522  0.0391  0.0000  0.0329  0.0693  0.0001  0.0909  0.0000  0.0826 </r>
        <r>  0.0000  0.0000  0.0020  0.0000  0.0000  0.3823  0.0000  0.1275  0.0000 </r>
       </set>
       <set comment="band 3">
        <r>  0.0000  0.0000  0.0050  0.0000  0.0000  0.1135  0.0000  0.3087  0.0000 </r>
        <r>  0.0274  0.0195  0.0000  0.0396  0.0635  0.0000  0.1562  0.0000  0.1750 </r>
       </set>
       <set comment="band 4">
        <r>  0.0274  0.0195  0.0000  0.0396  0.0635  0.0000  0.1562  0.0000  0.1750 </r>
        <r>  0.0000  0.0000  0.0050  0.0000  0.0000  0.1135  0.0000  0.3087  0.0000 </r>
       </set>
       <set comment="band 5">
        <r>  0.0000  0.0000  0.0449  0.0000  0.0000  0.0155  0.0000  0.0463  0.0000 </r>
        <r>  0.0010  0.0906  0.0000  0.0527  0.3134  0.0000  0.0426  0.0000  0.3014 </r>
       </set>
       <set comment="band 6">
        <r>  0.0010  0.0906  0.0000  0.0527  0.3134  0.0000  0.0426  0.0000  0.3014 </r>
        <r>  0.0000  0.0000  0.0449  0.0000  0.0000  0.0155  0.0000  0.0463  0.0000 </r>
       </set>
       <set comment="band 7">
        <r>  0.0000  0.0000  0.0003  0.0000  0.0000  0.1882  0.0000  0.2676  0.0000 </r>
        <r>  0.0028  0.0065  0.0000  0.0027  0.2718  0.0000  0.0151  0.0000  0.2101 </r>
       </set>
       <set comment="band 8">
        <r>  0.0028  0.0065  0.0000  0.0027  0.2718  0.0000  0.0151  0.0000  0.2101 </r>
        <r>  0.0000  0.0000  0.0003  0.0000  0.0000  0.1882  0.0000  0.2676  0.0000 </r>
       </set>
       <set comment="band 9">
        <r>  0.0000  0.0000  0.0007  0.0000  0.0000  0.1606  0.0000  0.1280  0.0000 </r>
        <r>  0.0022  0.0010  0.0000  0.0004  0.0244  0.0000  0.6591  0.0000  0.0103 </r>
       </set>
       <set comment="band 10">
        <r>  0.0022  0.0010  0.0000  0.0004  0.0244  0.0000  0.6591  0.0000  0.0103 </r>
        <r>  0.0000  0.0000  0.0007  0.0000  0.0000  0.1606  0.0000  0.1280  0.0000 </r>
       </set>
       <set comment="band 11">
        <r>  0.0000  0.0000  0.1217  0.0000  0.0000  0.0451  0.0000  0.0191  0.0000 </r>
        <r>  0.0341  0.2173  0.0000  0.0864  0.2475  0.0000  0.0004  0.0000  0.1076 </r>
       </set>
       <set comment="band 12">
        <r>  0.0341  0.2173  0.0000  0.0864  0.2475  0.0000  0.0004  0.0000  0.1076 </r>
        <r>  0.0000  0.0000  0.1217  0.0000  0.0000  0.0451  0.0000  0.0191  0.0000 </r>
       </set>
       <set comment="band 13">
        <r>  0.0000  0.0005  0.0455  0.0013  0.0005  0.0804  0.0000  0.0595  0.0012 </r>
        <r>  0.0045  0.0986  0.0002  0.2477  0.0831  0.0004  0.0001  0.0003  0.2231 </r>
       </set>
       <set comment="band 14">
        <r>  0.0045  0.0986  0.0002  0.2477  0.0831  0.0004  0.0001  0.0003  0.2231 </r>
        <r>  0.0000  0.0005  0.0455  0.0013  0.0005  0.0804  0.0000  0.0595  0.0012 </r>
       </set>
       <set comment="band 15">
        <r>  0.4950  0.0381  0.0000  0.0127  0.0018  0.0000  0.0509  0.0000  0.0006 </r>
        <r>  0.0000  0.0000  0.0019  0.0000  0.0000  0.1134  0.0000  0.1409  0.0000 </r>
       </set>
       <set comment="band 16">
        <r>  0.0000  0.0000  0.0019  0.0000  0.0000  0.1134  0.0000  0.1409  0.0000 </r>
        <r>  0.4950  0.0381  0.0000  0.0127  0.0018  0.0000  0.0509  0.0000  0.0006 </r>
       </set>
      </set>
     </set>
    </set>
   </array>
  </projected>
 </calculation>
 <structure name="finalpos" >
  <crystal>
   <varray name="basis" >
    <v>       2.46445715       0.00000000       0.00000000 </v>
    <v>      -1.23222858       2.13428250       0.00000000 </v>
    <v>       0.00000000       0.00000000       3.98739137 </v>
   </varray>
   <i name="volume">     20.97307169 </i>
   <varray name="rec_basis" >
    <v>       0.40576887       0.23427077       0.00000000 </v>
    <v>       0.00000000       0.46854154       0.00000000 </v>
    <v>       0.00000000       0.00000000       0.25079053 </v>
   </varray>
  </crystal>
  <varray name="positions" >
   <v>       0.00000000       0.00000000       0.00000000 </v>
   <v>       0.33333333       0.66666667       0.50000000 </v>
  </varray>
 </structure>
</modeling>
