   2   2   1   0
  0.1539126E+02  0.2737592E-09  0.2737592E-09  0.4742815E-09  0.5000000E-15
  1.000000000000000E-004
  CAR 
 Pt-hcc                                  
     36.64112333    -45.01214826  301     11.62689029      1.00000000
    -45.012  0.0000E+00  0.0000E+00
    -44.740  0.0000E+00  0.0000E+00
    -44.468  0.0000E+00  0.0000E+00
    -44.196  0.0000E+00  0.0000E+00
    -43.923  0.0000E+00  0.0000E+00
    -43.651  0.0000E+00  0.0000E+00
    -43.379  0.0000E+00  0.0000E+00
    -43.107  0.0000E+00  0.0000E+00
    -42.835  0.0000E+00  0.0000E+00
    -42.563  0.0000E+00  0.0000E+00
    -42.290  0.0000E+00  0.0000E+00
    -42.018  0.0000E+00  0.0000E+00
    -41.746  0.0000E+00  0.0000E+00
    -41.474  0.9648E-09  0.2626E-09
    -41.202  0.6124E-01  0.1667E-01
    -40.929  0.2040E+00  0.7219E-01
    -40.657  0.1756E+00  0.1200E+00
    -40.385  0.8420E-04  0.1200E+00
    -40.113  0.0000E+00  0.1200E+00
    -39.841  0.0000E+00  0.1200E+00
    -39.569  0.0000E+00  0.1200E+00
    -39.296  0.0000E+00  0.1200E+00
    -39.024  0.0000E+00  0.1200E+00
    -38.752  0.0000E+00  0.1200E+00
    -38.480  0.0000E+00  0.1200E+00
    -38.208  0.0000E+00  0.1200E+00
    -37.936  0.0000E+00  0.1200E+00
    -37.663  0.0000E+00  0.1200E+00
    -37.391  0.0000E+00  0.1200E+00
    -37.119  0.0000E+00  0.1200E+00
    -36.847  0.0000E+00  0.1200E+00
    -36.575  0.0000E+00  0.1200E+00
    -36.302  0.0000E+00  0.1200E+00
    -36.030  0.0000E+00  0.1200E+00
    -35.758  0.0000E+00  0.1200E+00
    -35.486  0.0000E+00  0.1200E+00
    -35.214  0.0000E+00  0.1200E+00
    -34.942  0.0000E+00  0.1200E+00
    -34.669  0.0000E+00  0.1200E+00
    -34.397  0.0000E+00  0.1200E+00
    -34.125  0.0000E+00  0.1200E+00
    -33.853  0.0000E+00  0.1200E+00
    -33.581  0.0000E+00  0.1200E+00
    -33.309  0.0000E+00  0.1200E+00
    -33.036  0.0000E+00  0.1200E+00
    -32.764  0.0000E+00  0.1200E+00
    -32.492  0.0000E+00  0.1200E+00
    -32.220  0.0000E+00  0.1200E+00
    -31.948  0.0000E+00  0.1200E+00
    -31.675  0.0000E+00  0.1200E+00
    -31.403  0.0000E+00  0.1200E+00
    -31.131  0.0000E+00  0.1200E+00
    -30.859  0.0000E+00  0.1200E+00
    -30.587  0.0000E+00  0.1200E+00
    -30.315  0.0000E+00  0.1200E+00
    -30.042  0.0000E+00  0.1200E+00
    -29.770  0.0000E+00  0.1200E+00
    -29.498  0.0000E+00  0.1200E+00
    -29.226  0.0000E+00  0.1200E+00
    -28.954  0.0000E+00  0.1200E+00
    -28.681  0.0000E+00  0.1200E+00
    -28.409  0.0000E+00  0.1200E+00
    -28.137  0.0000E+00  0.1200E+00
    -27.865  0.0000E+00  0.1200E+00
    -27.593  0.0000E+00  0.1200E+00
    -27.321  0.0000E+00  0.1200E+00
    -27.048  0.0000E+00  0.1200E+00
    -26.776  0.0000E+00  0.1200E+00
    -26.504  0.0000E+00  0.1200E+00
    -26.232  0.0000E+00  0.1200E+00
    -25.960  0.0000E+00  0.1200E+00
    -25.688  0.0000E+00  0.1200E+00
    -25.415  0.0000E+00  0.1200E+00
    -25.143  0.0000E+00  0.1200E+00
    -24.871  0.0000E+00  0.1200E+00
    -24.599  0.0000E+00  0.1200E+00
    -24.327  0.0000E+00  0.1200E+00
    -24.054  0.0000E+00  0.1200E+00
    -23.782  0.0000E+00  0.1200E+00
    -23.510  0.0000E+00  0.1200E+00
    -23.238  0.0000E+00  0.1200E+00
    -22.966  0.0000E+00  0.1200E+00
    -22.694  0.0000E+00  0.1200E+00
    -22.421  0.0000E+00  0.1200E+00
    -22.149  0.0000E+00  0.1200E+00
    -21.877  0.0000E+00  0.1200E+00
    -21.605  0.0000E+00  0.1200E+00
    -21.333  0.0000E+00  0.1200E+00
    -21.061  0.0000E+00  0.1200E+00
    -20.788  0.0000E+00  0.1200E+00
    -20.516  0.0000E+00  0.1200E+00
    -20.244  0.0000E+00  0.1200E+00
    -19.972  0.0000E+00  0.1200E+00
    -19.700  0.0000E+00  0.1200E+00
    -19.427  0.0000E+00  0.1200E+00
    -19.155  0.0000E+00  0.1200E+00
    -18.883  0.0000E+00  0.1200E+00
    -18.611  0.0000E+00  0.1200E+00
    -18.339  0.0000E+00  0.1200E+00
    -18.067  0.0000E+00  0.1200E+00
    -17.794  0.0000E+00  0.1200E+00
    -17.522  0.0000E+00  0.1200E+00
    -17.250  0.0000E+00  0.1200E+00
    -16.978  0.0000E+00  0.1200E+00
    -16.706  0.0000E+00  0.1200E+00
    -16.434  0.0000E+00  0.1200E+00
    -16.161  0.0000E+00  0.1200E+00
    -15.889  0.0000E+00  0.1200E+00
    -15.617  0.0000E+00  0.1200E+00
    -15.345  0.0000E+00  0.1200E+00
    -15.073  0.0000E+00  0.1200E+00
    -14.800  0.0000E+00  0.1200E+00
    -14.528  0.0000E+00  0.1200E+00
    -14.256  0.0000E+00  0.1200E+00
    -13.984  0.0000E+00  0.1200E+00
    -13.712  0.0000E+00  0.1200E+00
    -13.440  0.0000E+00  0.1200E+00
    -13.167  0.0000E+00  0.1200E+00
    -12.895  0.0000E+00  0.1200E+00
    -12.623  0.0000E+00  0.1200E+00
    -12.351  0.0000E+00  0.1200E+00
    -12.079  0.0000E+00  0.1200E+00
    -11.806  0.0000E+00  0.1200E+00
    -11.534  0.0000E+00  0.1200E+00
    -11.262  0.0000E+00  0.1200E+00
    -10.990  0.0000E+00  0.1200E+00
    -10.718  0.0000E+00  0.1200E+00
    -10.446  0.0000E+00  0.1200E+00
    -10.173  0.0000E+00  0.1200E+00
     -9.901  0.0000E+00  0.1200E+00
     -9.629  0.0000E+00  0.1200E+00
     -9.357  0.0000E+00  0.1200E+00
     -9.085  0.0000E+00  0.1200E+00
     -8.813  0.0000E+00  0.1200E+00
     -8.540  0.0000E+00  0.1200E+00
     -8.268  0.0000E+00  0.1200E+00
     -7.996  0.0000E+00  0.1200E+00
     -7.724  0.0000E+00  0.1200E+00
     -7.452  0.0000E+00  0.1200E+00
     -7.179  0.0000E+00  0.1200E+00
     -6.907  0.0000E+00  0.1200E+00
     -6.635  0.0000E+00  0.1200E+00
     -6.363  0.0000E+00  0.1200E+00
     -6.091  0.0000E+00  0.1200E+00
     -5.819  0.0000E+00  0.1200E+00
     -5.546  0.0000E+00  0.1200E+00
     -5.274  0.0000E+00  0.1200E+00
     -5.002  0.0000E+00  0.1200E+00
     -4.730  0.0000E+00  0.1200E+00
     -4.458  0.0000E+00  0.1200E+00
     -4.186  0.0000E+00  0.1200E+00
     -3.913  0.0000E+00  0.1200E+00
     -3.641  0.0000E+00  0.1200E+00
     -3.369  0.0000E+00  0.1200E+00
     -3.097  0.0000E+00  0.1200E+00
     -2.825  0.0000E+00  0.1200E+00
     -2.552  0.0000E+00  0.1200E+00
     -2.280  0.0000E+00  0.1200E+00
     -2.008  0.0000E+00  0.1200E+00
     -1.736  0.0000E+00  0.1200E+00
     -1.464  0.0000E+00  0.1200E+00
     -1.192  0.0000E+00  0.1200E+00
     -0.919  0.0000E+00  0.1200E+00
     -0.647  0.0000E+00  0.1200E+00
     -0.375  0.0000E+00  0.1200E+00
     -0.103  0.0000E+00  0.1200E+00
      0.169  0.0000E+00  0.1200E+00
      0.442  0.0000E+00  0.1200E+00
      0.714  0.0000E+00  0.1200E+00
      0.986  0.0000E+00  0.1200E+00
      1.258  0.0000E+00  0.1200E+00
      1.530  0.1166E-06  0.1200E+00
      1.802  0.2359E-03  0.1201E+00
      2.075  0.6074E-03  0.1202E+00
      2.347  0.1269E-02  0.1206E+00
      2.619  0.1100E-02  0.1209E+00
      2.891  0.1792E-02  0.1214E+00
      3.163  0.2704E-02  0.1221E+00
      3.435  0.1479E-02  0.1225E+00
      3.708  0.1153E-02  0.1228E+00
      3.980  0.4543E-02  0.1241E+00
      4.252  0.3986E-02  0.1251E+00
      4.524  0.5889E-02  0.1267E+00
      4.796  0.1037E-01  0.1296E+00
      5.069  0.1920E-01  0.1348E+00
      5.341  0.2493E-01  0.1416E+00
      5.613  0.2093E-01  0.1473E+00
      5.885  0.1943E-01  0.1526E+00
      6.157  0.2412E-01  0.1591E+00
      6.429  0.3260E-01  0.1680E+00
      6.702  0.2740E-01  0.1755E+00
      6.974  0.2752E-01  0.1829E+00
      7.246  0.3130E-01  0.1915E+00
      7.518  0.2629E-01  0.1986E+00
      7.790  0.2638E-01  0.2058E+00
      8.062  0.3435E-01  0.2151E+00
      8.335  0.3617E-01  0.2250E+00
      8.607  0.3008E-01  0.2332E+00
      8.879  0.3988E-01  0.2440E+00
      9.151  0.3140E-01  0.2526E+00
      9.423  0.3033E-01  0.2608E+00
      9.696  0.1638E-01  0.2653E+00
      9.968  0.2594E-01  0.2724E+00
     10.240  0.2322E-01  0.2787E+00
     10.512  0.2700E-01  0.2860E+00
     10.784  0.2250E-01  0.2922E+00
     11.056  0.2298E-01  0.2984E+00
     11.329  0.3098E-01  0.3068E+00
     11.601  0.4514E-01  0.3191E+00
     11.873  0.2758E-01  0.3266E+00
     12.145  0.2377E-01  0.3331E+00
     12.417  0.7078E-02  0.3350E+00
     12.689  0.5123E-02  0.3364E+00
     12.962  0.1648E-02  0.3369E+00
     13.234  0.1723E-02  0.3373E+00
     13.506  0.5204E-02  0.3388E+00
     13.778  0.1142E-01  0.3419E+00
     14.050  0.8328E-02  0.3441E+00
     14.323  0.4527E-02  0.3454E+00
     14.595  0.1641E-02  0.3458E+00
     14.867  0.6381E-02  0.3475E+00
     15.139  0.4021E-02  0.3486E+00
     15.411  0.3272E-02  0.3495E+00
     15.683  0.5459E-02  0.3510E+00
     15.956  0.4893E-02  0.3523E+00
     16.228  0.6449E-02  0.3541E+00
     16.500  0.8123E-02  0.3563E+00
     16.772  0.5427E-02  0.3578E+00
     17.044  0.3661E-02  0.3588E+00
     17.317  0.2845E-02  0.3596E+00
     17.589  0.1351E-02  0.3599E+00
     17.861  0.2659E-02  0.3607E+00
     18.133  0.5363E-02  0.3621E+00
     18.405  0.1146E-01  0.3652E+00
     18.677  0.9148E-02  0.3677E+00
     18.950  0.8420E-02  0.3700E+00
     19.222  0.6491E-02  0.3718E+00
     19.494  0.8662E-02  0.3741E+00
     19.766  0.7093E-02  0.3761E+00
     20.038  0.4503E-02  0.3773E+00
     20.310  0.6026E-02  0.3789E+00
     20.583  0.7456E-02  0.3810E+00
     20.855  0.9548E-02  0.3836E+00
     21.127  0.9770E-02  0.3862E+00
     21.399  0.4616E-02  0.3875E+00
     21.671  0.3060E-02  0.3883E+00
     21.944  0.6964E-02  0.3902E+00
     22.216  0.1011E-01  0.3930E+00
     22.488  0.6661E-02  0.3948E+00
     22.760  0.5926E-02  0.3964E+00
     23.032  0.3077E-02  0.3972E+00
     23.304  0.9975E-02  0.3999E+00
     23.577  0.3296E-02  0.4008E+00
     23.849  0.4650E-02  0.4021E+00
     24.121  0.1132E-01  0.4052E+00
     24.393  0.1125E-01  0.4082E+00
     24.665  0.9884E-02  0.4109E+00
     24.937  0.7822E-02  0.4131E+00
     25.210  0.6855E-02  0.4149E+00
     25.482  0.3674E-02  0.4159E+00
     25.754  0.1170E-01  0.4191E+00
     26.026  0.2038E-01  0.4247E+00
     26.298  0.1952E-01  0.4300E+00
     26.571  0.1655E-01  0.4345E+00
     26.843  0.1268E-01  0.4379E+00
     27.115  0.9844E-02  0.4406E+00
     27.387  0.1093E-01  0.4436E+00
     27.659  0.1260E-01  0.4470E+00
     27.931  0.2242E-01  0.4531E+00
     28.204  0.1595E-01  0.4575E+00
     28.476  0.1035E-01  0.4603E+00
     28.748  0.1294E-01  0.4638E+00
     29.020  0.1070E-01  0.4667E+00
     29.292  0.8205E-02  0.4689E+00
     29.565  0.7758E-02  0.4711E+00
     29.837  0.8096E-02  0.4733E+00
     30.109  0.4024E-02  0.4744E+00
     30.381  0.4917E-02  0.4757E+00
     30.653  0.4381E-02  0.4769E+00
     30.925  0.3086E-02  0.4777E+00
     31.198  0.8241E-03  0.4779E+00
     31.470  0.6053E-02  0.4796E+00
     31.742  0.5645E-03  0.4797E+00
     32.014  0.1991E-03  0.4798E+00
     32.286  0.3305E-03  0.4799E+00
     32.558  0.2200E-03  0.4800E+00
     32.831  0.4703E-06  0.4800E+00
     33.103  0.1832E-03  0.4800E+00
     33.375  0.0000E+00  0.4800E+00
     33.647  0.0000E+00  0.4800E+00
     33.919  0.0000E+00  0.4800E+00
     34.192  0.0000E+00  0.4800E+00
     34.464  0.0000E+00  0.4800E+00
     34.736  0.0000E+00  0.4800E+00
     35.008  0.0000E+00  0.4800E+00
     35.280  0.0000E+00  0.4800E+00
     35.552  0.0000E+00  0.4800E+00
     35.825  0.0000E+00  0.4800E+00
     36.097  0.0000E+00  0.4800E+00
     36.369  0.0000E+00  0.4800E+00
     36.641  0.0000E+00  0.4800E+00
     36.64112333    -45.01214826  301     11.62689029      1.00000000
    -45.012  0.0000E+00  0.0000E+00  0.0000E+00  0.0000E+00  0.0000E+00  0.0000E+00  0.0000E+00  0.0000E+00  0.0000E+00
    -44.740  0.0000E+00  0.0000E+00  0.0000E+00  0.0000E+00  0.0000E+00  0.0000E+00  0.0000E+00  0.0000E+00  0.0000E+00
    -44.468  0.0000E+00  0.0000E+00  0.0000E+00  0.0000E+00  0.0000E+00  0.0000E+00  0.0000E+00  0.0000E+00  0.0000E+00
    -44.196  0.0000E+00  0.0000E+00  0.0000E+00  0.0000E+00  0.0000E+00  0.0000E+00  0.0000E+00  0.0000E+00  0.0000E+00
    -43.923  0.0000E+00  0.0000E+00  0.0000E+00  0.0000E+00  0.0000E+00  0.0000E+00  0.0000E+00  0.0000E+00  0.0000E+00
    -43.651  0.0000E+00  0.0000E+00  0.0000E+00  0.0000E+00  0.0000E+00  0.0000E+00  0.0000E+00  0.0000E+00  0.0000E+00
    -43.379  0.0000E+00  0.0000E+00  0.0000E+00  0.0000E+00  0.0000E+00  0.0000E+00  0.0000E+00  0.0000E+00  0.0000E+00
    -43.107  0.0000E+00  0.0000E+00  0.0000E+00  0.0000E+00  0.0000E+00  0.0000E+00  0.0000E+00  0.0000E+00  0.0000E+00
    -42.835  0.0000E+00  0.0000E+00  0.0000E+00  0.0000E+00  0.0000E+00  0.0000E+00  0.0000E+00  0.0000E+00  0.0000E+00
    -42.563  0.0000E+00  0.0000E+00  0.0000E+00  0.0000E+00  0.0000E+00  0.0000E+00  0.0000E+00  0.0000E+00  0.0000E+00
    -42.290  0.0000E+00  0.0000E+00  0.0000E+00  0.0000E+00  0.0000E+00  0.0000E+00  0.0000E+00  0.0000E+00  0.0000E+00
    -42.018  0.0000E+00  0.0000E+00  0.0000E+00  0.0000E+00  0.0000E+00  0.0000E+00  0.0000E+00  0.0000E+00  0.0000E+00
    -41.746  0.0000E+00  0.0000E+00  0.0000E+00  0.0000E+00  0.0000E+00  0.0000E+00  0.0000E+00  0.0000E+00  0.0000E+00
    -41.474  0.2813E-12  0.2316E-07  0.1074E-08  0.2316E-07  0.4341E-13  0.1878E-13  0.3031E-12  0.1878E-13  0.4341E-13
    -41.202  0.6938E-04  0.1468E+01  0.7763E-01  0.1468E+01  0.3322E-04  0.3016E-05  0.3968E-04  0.3016E-05  0.3322E-04
    -40.929  0.2686E-03  0.4272E+01  0.1553E+01  0.4272E+01  0.1649E-03  0.3188E-04  0.1166E-03  0.3188E-04  0.1649E-03
    -40.657  0.4051E-04  0.1537E+01  0.5643E+01  0.1537E+01  0.3095E-04  0.4619E-04  0.5419E-04  0.4619E-04  0.3095E-04
    -40.385  0.9123E-08  0.9261E-05  0.4170E-02  0.9261E-05  0.3703E-09  0.7534E-08  0.9193E-08  0.7534E-08  0.3703E-09
    -40.113  0.0000E+00  0.0000E+00  0.0000E+00  0.0000E+00  0.0000E+00  0.0000E+00  0.0000E+00  0.0000E+00  0.0000E+00
    -39.841  0.0000E+00  0.0000E+00  0.0000E+00  0.0000E+00  0.0000E+00  0.0000E+00  0.0000E+00  0.0000E+00  0.0000E+00
    -39.569  0.0000E+00  0.0000E+00  0.0000E+00  0.0000E+00  0.0000E+00  0.0000E+00  0.0000E+00  0.0000E+00  0.0000E+00
    -39.296  0.0000E+00  0.0000E+00  0.0000E+00  0.0000E+00  0.0000E+00  0.0000E+00  0.0000E+00  0.0000E+00  0.0000E+00
    -39.024  0.0000E+00  0.0000E+00  0.0000E+00  0.0000E+00  0.0000E+00  0.0000E+00  0.0000E+00  0.0000E+00  0.0000E+00
    -38.752  0.0000E+00  0.0000E+00  0.0000E+00  0.0000E+00  0.0000E+00  0.0000E+00  0.0000E+00  0.0000E+00  0.0000E+00
    -38.480  0.0000E+00  0.0000E+00  0.0000E+00  0.0000E+00  0.0000E+00  0.0000E+00  0.0000E+00  0.0000E+00  0.0000E+00
    -38.208  0.0000E+00  0.0000E+00  0.0000E+00  0.0000E+00  0.0000E+00  0.0000E+00  0.0000E+00  0.0000E+00  0.0000E+00
    -37.936  0.0000E+00  0.0000E+00  0.0000E+00  0.0000E+00  0.0000E+00  0.0000E+00  0.0000E+00  0.0000E+00  0.0000E+00
    -37.663  0.0000E+00  0.0000E+00  0.0000E+00  0.0000E+00  0.0000E+00  0.0000E+00  0.0000E+00  0.0000E+00  0.0000E+00
    -37.391  0.0000E+00  0.0000E+00  0.0000E+00  0.0000E+00  0.0000E+00  0.0000E+00  0.0000E+00  0.0000E+00  0.0000E+00
    -37.119  0.0000E+00  0.0000E+00  0.0000E+00  0.0000E+00  0.0000E+00  0.0000E+00  0.0000E+00  0.0000E+00  0.0000E+00
    -36.847  0.0000E+00  0.0000E+00  0.0000E+00  0.0000E+00  0.0000E+00  0.0000E+00  0.0000E+00  0.0000E+00  0.0000E+00
    -36.575  0.0000E+00  0.0000E+00  0.0000E+00  0.0000E+00  0.0000E+00  0.0000E+00  0.0000E+00  0.0000E+00  0.0000E+00
    -36.302  0.0000E+00  0.0000E+00  0.0000E+00  0.0000E+00  0.0000E+00  0.0000E+00  0.0000E+00  0.0000E+00  0.0000E+00
    -36.030  0.0000E+00  0.0000E+00  0.0000E+00  0.0000E+00  0.0000E+00  0.0000E+00  0.0000E+00  0.0000E+00  0.0000E+00
    -35.758  0.0000E+00  0.0000E+00  0.0000E+00  0.0000E+00  0.0000E+00  0.0000E+00  0.0000E+00  0.0000E+00  0.0000E+00
    -35.486  0.0000E+00  0.0000E+00  0.0000E+00  0.0000E+00  0.0000E+00  0.0000E+00  0.0000E+00  0.0000E+00  0.0000E+00
    -35.214  0.0000E+00  0.0000E+00  0.0000E+00  0.0000E+00  0.0000E+00  0.0000E+00  0.0000E+00  0.0000E+00  0.0000E+00
    -34.942  0.0000E+00  0.0000E+00  0.0000E+00  0.0000E+00  0.0000E+00  0.0000E+00  0.0000E+00  0.0000E+00  0.0000E+00
    -34.669  0.0000E+00  0.0000E+00  0.0000E+00  0.0000E+00  0.0000E+00  0.0000E+00  0.0000E+00  0.0000E+00  0.0000E+00
    -34.397  0.0000E+00  0.0000E+00  0.0000E+00  0.0000E+00  0.0000E+00  0.0000E+00  0.0000E+00  0.0000E+00  0.0000E+00
    -34.125  0.0000E+00  0.0000E+00  0.0000E+00  0.0000E+00  0.0000E+00  0.0000E+00  0.0000E+00  0.0000E+00  0.0000E+00
    -33.853  0.0000E+00  0.0000E+00  0.0000E+00  0.0000E+00  0.0000E+00  0.0000E+00  0.0000E+00  0.0000E+00  0.0000E+00
    -33.581  0.0000E+00  0.0000E+00  0.0000E+00  0.0000E+00  0.0000E+00  0.0000E+00  0.0000E+00  0.0000E+00  0.0000E+00
    -33.309  0.0000E+00  0.0000E+00  0.0000E+00  0.0000E+00  0.0000E+00  0.0000E+00  0.0000E+00  0.0000E+00  0.0000E+00
    -33.036  0.0000E+00  0.0000E+00  0.0000E+00  0.0000E+00  0.0000E+00  0.0000E+00  0.0000E+00  0.0000E+00  0.0000E+00
    -32.764  0.0000E+00  0.0000E+00  0.0000E+00  0.0000E+00  0.0000E+00  0.0000E+00  0.0000E+00  0.0000E+00  0.0000E+00
    -32.492  0.0000E+00  0.0000E+00  0.0000E+00  0.0000E+00  0.0000E+00  0.0000E+00  0.0000E+00  0.0000E+00  0.0000E+00
    -32.220  0.0000E+00  0.0000E+00  0.0000E+00  0.0000E+00  0.0000E+00  0.0000E+00  0.0000E+00  0.0000E+00  0.0000E+00
    -31.948  0.0000E+00  0.0000E+00  0.0000E+00  0.0000E+00  0.0000E+00  0.0000E+00  0.0000E+00  0.0000E+00  0.0000E+00
    -31.675  0.0000E+00  0.0000E+00  0.0000E+00  0.0000E+00  0.0000E+00  0.0000E+00  0.0000E+00  0.0000E+00  0.0000E+00
    -31.403  0.0000E+00  0.0000E+00  0.0000E+00  0.0000E+00  0.0000E+00  0.0000E+00  0.0000E+00  0.0000E+00  0.0000E+00
    -31.131  0.0000E+00  0.0000E+00  0.0000E+00  0.0000E+00  0.0000E+00  0.0000E+00  0.0000E+00  0.0000E+00  0.0000E+00
    -30.859  0.0000E+00  0.0000E+00  0.0000E+00  0.0000E+00  0.0000E+00  0.0000E+00  0.0000E+00  0.0000E+00  0.0000E+00
    -30.587  0.0000E+00  0.0000E+00  0.0000E+00  0.0000E+00  0.0000E+00  0.0000E+00  0.0000E+00  0.0000E+00  0.0000E+00
    -30.315  0.0000E+00  0.0000E+00  0.0000E+00  0.0000E+00  0.0000E+00  0.0000E+00  0.0000E+00  0.0000E+00  0.0000E+00
    -30.042  0.0000E+00  0.0000E+00  0.0000E+00  0.0000E+00  0.0000E+00  0.0000E+00  0.0000E+00  0.0000E+00  0.0000E+00
    -29.770  0.0000E+00  0.0000E+00  0.0000E+00  0.0000E+00  0.0000E+00  0.0000E+00  0.0000E+00  0.0000E+00  0.0000E+00
    -29.498  0.0000E+00  0.0000E+00  0.0000E+00  0.0000E+00  0.0000E+00  0.0000E+00  0.0000E+00  0.0000E+00  0.0000E+00
    -29.226  0.0000E+00  0.0000E+00  0.0000E+00  0.0000E+00  0.0000E+00  0.0000E+00  0.0000E+00  0.0000E+00  0.0000E+00
    -28.954  0.0000E+00  0.0000E+00  0.0000E+00  0.0000E+00  0.0000E+00  0.0000E+00  0.0000E+00  0.0000E+00  0.0000E+00
    -28.681  0.0000E+00  0.0000E+00  0.0000E+00  0.0000E+00  0.0000E+00  0.0000E+00  0.0000E+00  0.0000E+00  0.0000E+00
    -28.409  0.0000E+00  0.0000E+00  0.0000E+00  0.0000E+00  0.0000E+00  0.0000E+00  0.0000E+00  0.0000E+00  0.0000E+00
    -28.137  0.0000E+00  0.0000E+00  0.0000E+00  0.0000E+00  0.0000E+00  0.0000E+00  0.0000E+00  0.0000E+00  0.0000E+00
    -27.865  0.0000E+00  0.0000E+00  0.0000E+00  0.0000E+00  0.0000E+00  0.0000E+00  0.0000E+00  0.0000E+00  0.0000E+00
    -27.593  0.0000E+00  0.0000E+00  0.0000E+00  0.0000E+00  0.0000E+00  0.0000E+00  0.0000E+00  0.0000E+00  0.0000E+00
    -27.321  0.0000E+00  0.0000E+00  0.0000E+00  0.0000E+00  0.0000E+00  0.0000E+00  0.0000E+00  0.0000E+00  0.0000E+00
    -27.048  0.0000E+00  0.0000E+00  0.0000E+00  0.0000E+00  0.0000E+00  0.0000E+00  0.0000E+00  0.0000E+00  0.0000E+00
    -26.776  0.0000E+00  0.0000E+00  0.0000E+00  0.0000E+00  0.0000E+00  0.0000E+00  0.0000E+00  0.0000E+00  0.0000E+00
    -26.504  0.0000E+00  0.0000E+00  0.0000E+00  0.0000E+00  0.0000E+00  0.0000E+00  0.0000E+00  0.0000E+00  0.0000E+00
    -26.232  0.0000E+00  0.0000E+00  0.0000E+00  0.0000E+00  0.0000E+00  0.0000E+00  0.0000E+00  0.0000E+00  0.0000E+00
    -25.960  0.0000E+00  0.0000E+00  0.0000E+00  0.0000E+00  0.0000E+00  0.0000E+00  0.0000E+00  0.0000E+00  0.0000E+00
    -25.688  0.0000E+00  0.0000E+00  0.0000E+00  0.0000E+00  0.0000E+00  0.0000E+00  0.0000E+00  0.0000E+00  0.0000E+00
    -25.415  0.0000E+00  0.0000E+00  0.0000E+00  0.0000E+00  0.0000E+00  0.0000E+00  0.0000E+00  0.0000E+00  0.0000E+00
    -25.143  0.0000E+00  0.0000E+00  0.0000E+00  0.0000E+00  0.0000E+00  0.0000E+00  0.0000E+00  0.0000E+00  0.0000E+00
    -24.871  0.0000E+00  0.0000E+00  0.0000E+00  0.0000E+00  0.0000E+00  0.0000E+00  0.0000E+00  0.0000E+00  0.0000E+00
    -24.599  0.0000E+00  0.0000E+00  0.0000E+00  0.0000E+00  0.0000E+00  0.0000E+00  0.0000E+00  0.0000E+00  0.0000E+00
    -24.327  0.0000E+00  0.0000E+00  0.0000E+00  0.0000E+00  0.0000E+00  0.0000E+00  0.0000E+00  0.0000E+00  0.0000E+00
    -24.054  0.0000E+00  0.0000E+00  0.0000E+00  0.0000E+00  0.0000E+00  0.0000E+00  0.0000E+00  0.0000E+00  0.0000E+00
    -23.782  0.0000E+00  0.0000E+00  0.0000E+00  0.0000E+00  0.0000E+00  0.0000E+00  0.0000E+00  0.0000E+00  0.0000E+00
    -23.510  0.0000E+00  0.0000E+00  0.0000E+00  0.0000E+00  0.0000E+00  0.0000E+00  0.0000E+00  0.0000E+00  0.0000E+00
    -23.238  0.0000E+00  0.0000E+00  0.0000E+00  0.0000E+00  0.0000E+00  0.0000E+00  0.0000E+00  0.0000E+00  0.0000E+00
    -22.966  0.0000E+00  0.0000E+00  0.0000E+00  0.0000E+00  0.0000E+00  0.0000E+00  0.0000E+00  0.0000E+00  0.0000E+00
    -22.694  0.0000E+00  0.0000E+00  0.0000E+00  0.0000E+00  0.0000E+00  0.0000E+00  0.0000E+00  0.0000E+00  0.0000E+00
    -22.421  0.0000E+00  0.0000E+00  0.0000E+00  0.0000E+00  0.0000E+00  0.0000E+00  0.0000E+00  0.0000E+00  0.0000E+00
    -22.149  0.0000E+00  0.0000E+00  0.0000E+00  0.0000E+00  0.0000E+00  0.0000E+00  0.0000E+00  0.0000E+00  0.0000E+00
    -21.877  0.0000E+00  0.0000E+00  0.0000E+00  0.0000E+00  0.0000E+00  0.0000E+00  0.0000E+00  0.0000E+00  0.0000E+00
    -21.605  0.0000E+00  0.0000E+00  0.0000E+00  0.0000E+00  0.0000E+00  0.0000E+00  0.0000E+00  0.0000E+00  0.0000E+00
    -21.333  0.0000E+00  0.0000E+00  0.0000E+00  0.0000E+00  0.0000E+00  0.0000E+00  0.0000E+00  0.0000E+00  0.0000E+00
    -21.061  0.0000E+00  0.0000E+00  0.0000E+00  0.0000E+00  0.0000E+00  0.0000E+00  0.0000E+00  0.0000E+00  0.0000E+00
    -20.788  0.0000E+00  0.0000E+00  0.0000E+00  0.0000E+00  0.0000E+00  0.0000E+00  0.0000E+00  0.0000E+00  0.0000E+00
    -20.516  0.0000E+00  0.0000E+00  0.0000E+00  0.0000E+00  0.0000E+00  0.0000E+00  0.0000E+00  0.0000E+00  0.0000E+00
    -20.244  0.0000E+00  0.0000E+00  0.0000E+00  0.0000E+00  0.0000E+00  0.0000E+00  0.0000E+00  0.0000E+00  0.0000E+00
    -19.972  0.0000E+00  0.0000E+00  0.0000E+00  0.0000E+00  0.0000E+00  0.0000E+00  0.0000E+00  0.0000E+00  0.0000E+00
    -19.700  0.0000E+00  0.0000E+00  0.0000E+00  0.0000E+00  0.0000E+00  0.0000E+00  0.0000E+00  0.0000E+00  0.0000E+00
    -19.427  0.0000E+00  0.0000E+00  0.0000E+00  0.0000E+00  0.0000E+00  0.0000E+00  0.0000E+00  0.0000E+00  0.0000E+00
    -19.155  0.0000E+00  0.0000E+00  0.0000E+00  0.0000E+00  0.0000E+00  0.0000E+00  0.0000E+00  0.0000E+00  0.0000E+00
    -18.883  0.0000E+00  0.0000E+00  0.0000E+00  0.0000E+00  0.0000E+00  0.0000E+00  0.0000E+00  0.0000E+00  0.0000E+00
    -18.611  0.0000E+00  0.0000E+00  0.0000E+00  0.0000E+00  0.0000E+00  0.0000E+00  0.0000E+00  0.0000E+00  0.0000E+00
    -18.339  0.0000E+00  0.0000E+00  0.0000E+00  0.0000E+00  0.0000E+00  0.0000E+00  0.0000E+00  0.0000E+00  0.0000E+00
    -18.067  0.0000E+00  0.0000E+00  0.0000E+00  0.0000E+00  0.0000E+00  0.0000E+00  0.0000E+00  0.0000E+00  0.0000E+00
    -17.794  0.0000E+00  0.0000E+00  0.0000E+00  0.0000E+00  0.0000E+00  0.0000E+00  0.0000E+00  0.0000E+00  0.0000E+00
    -17.522  0.0000E+00  0.0000E+00  0.0000E+00  0.0000E+00  0.0000E+00  0.0000E+00  0.0000E+00  0.0000E+00  0.0000E+00
    -17.250  0.0000E+00  0.0000E+00  0.0000E+00  0.0000E+00  0.0000E+00  0.0000E+00  0.0000E+00  0.0000E+00  0.0000E+00
    -16.978  0.0000E+00  0.0000E+00  0.0000E+00  0.0000E+00  0.0000E+00  0.0000E+00  0.0000E+00  0.0000E+00  0.0000E+00
    -16.706  0.0000E+00  0.0000E+00  0.0000E+00  0.0000E+00  0.0000E+00  0.0000E+00  0.0000E+00  0.0000E+00  0.0000E+00
    -16.434  0.0000E+00  0.0000E+00  0.0000E+00  0.0000E+00  0.0000E+00  0.0000E+00  0.0000E+00  0.0000E+00  0.0000E+00
    -16.161  0.0000E+00  0.0000E+00  0.0000E+00  0.0000E+00  0.0000E+00  0.0000E+00  0.0000E+00  0.0000E+00  0.0000E+00
    -15.889  0.0000E+00  0.0000E+00  0.0000E+00  0.0000E+00  0.0000E+00  0.0000E+00  0.0000E+00  0.0000E+00  0.0000E+00
    -15.617  0.0000E+00  0.0000E+00  0.0000E+00  0.0000E+00  0.0000E+00  0.0000E+00  0.0000E+00  0.0000E+00  0.0000E+00
    -15.345  0.0000E+00  0.0000E+00  0.0000E+00  0.0000E+00  0.0000E+00  0.0000E+00  0.0000E+00  0.0000E+00  0.0000E+00
    -15.073  0.0000E+00  0.0000E+00  0.0000E+00  0.0000E+00  0.0000E+00  0.0000E+00  0.0000E+00  0.0000E+00  0.0000E+00
    -14.800  0.0000E+00  0.0000E+00  0.0000E+00  0.0000E+00  0.0000E+00  0.0000E+00  0.0000E+00  0.0000E+00  0.0000E+00
    -14.528  0.0000E+00  0.0000E+00  0.0000E+00  0.0000E+00  0.0000E+00  0.0000E+00  0.0000E+00  0.0000E+00  0.0000E+00
    -14.256  0.0000E+00  0.0000E+00  0.0000E+00  0.0000E+00  0.0000E+00  0.0000E+00  0.0000E+00  0.0000E+00  0.0000E+00
    -13.984  0.0000E+00  0.0000E+00  0.0000E+00  0.0000E+00  0.0000E+00  0.0000E+00  0.0000E+00  0.0000E+00  0.0000E+00
    -13.712  0.0000E+00  0.0000E+00  0.0000E+00  0.0000E+00  0.0000E+00  0.0000E+00  0.0000E+00  0.0000E+00  0.0000E+00
    -13.440  0.0000E+00  0.0000E+00  0.0000E+00  0.0000E+00  0.0000E+00  0.0000E+00  0.0000E+00  0.0000E+00  0.0000E+00
    -13.167  0.0000E+00  0.0000E+00  0.0000E+00  0.0000E+00  0.0000E+00  0.0000E+00  0.0000E+00  0.0000E+00  0.0000E+00
    -12.895  0.0000E+00  0.0000E+00  0.0000E+00  0.0000E+00  0.0000E+00  0.0000E+00  0.0000E+00  0.0000E+00  0.0000E+00
    -12.623  0.0000E+00  0.0000E+00  0.0000E+00  0.0000E+00  0.0000E+00  0.0000E+00  0.0000E+00  0.0000E+00  0.0000E+00
    -12.351  0.0000E+00  0.0000E+00  0.0000E+00  0.0000E+00  0.0000E+00  0.0000E+00  0.0000E+00  0.0000E+00  0.0000E+00
    -12.079  0.0000E+00  0.0000E+00  0.0000E+00  0.0000E+00  0.0000E+00  0.0000E+00  0.0000E+00  0.0000E+00  0.0000E+00
    -11.806  0.0000E+00  0.0000E+00  0.0000E+00  0.0000E+00  0.0000E+00  0.0000E+00  0.0000E+00  0.0000E+00  0.0000E+00
    -11.534  0.0000E+00  0.0000E+00  0.0000E+00  0.0000E+00  0.0000E+00  0.0000E+00  0.0000E+00  0.0000E+00  0.0000E+00
    -11.262  0.0000E+00  0.0000E+00  0.0000E+00  0.0000E+00  0.0000E+00  0.0000E+00  0.0000E+00  0.0000E+00  0.0000E+00
    -10.990  0.0000E+00  0.0000E+00  0.0000E+00  0.0000E+00  0.0000E+00  0.0000E+00  0.0000E+00  0.0000E+00  0.0000E+00
    -10.718  0.0000E+00  0.0000E+00  0.0000E+00  0.0000E+00  0.0000E+00  0.0000E+00  0.0000E+00  0.0000E+00  0.0000E+00
    -10.446  0.0000E+00  0.0000E+00  0.0000E+00  0.0000E+00  0.0000E+00  0.0000E+00  0.0000E+00  0.0000E+00  0.0000E+00
    -10.173  0.0000E+00  0.0000E+00  0.0000E+00  0.0000E+00  0.0000E+00  0.0000E+00  0.0000E+00  0.0000E+00  0.0000E+00
     -9.901  0.0000E+00  0.0000E+00  0.0000E+00  0.0000E+00  0.0000E+00  0.0000E+00  0.0000E+00  0.0000E+00  0.0000E+00
     -9.629  0.0000E+00  0.0000E+00  0.0000E+00  0.0000E+00  0.0000E+00  0.0000E+00  0.0000E+00  0.0000E+00  0.0000E+00
     -9.357  0.0000E+00  0.0000E+00  0.0000E+00  0.0000E+00  0.0000E+00  0.0000E+00  0.0000E+00  0.0000E+00  0.0000E+00
     -9.085  0.0000E+00  0.0000E+00  0.0000E+00  0.0000E+00  0.0000E+00  0.0000E+00  0.0000E+00  0.0000E+00  0.0000E+00
     -8.813  0.0000E+00  0.0000E+00  0.0000E+00  0.0000E+00  0.0000E+00  0.0000E+00  0.0000E+00  0.0000E+00  0.0000E+00
     -8.540  0.0000E+00  0.0000E+00  0.0000E+00  0.0000E+00  0.0000E+00  0.0000E+00  0.0000E+00  0.0000E+00  0.0000E+00
     -8.268  0.0000E+00  0.0000E+00  0.0000E+00  0.0000E+00  0.0000E+00  0.0000E+00  0.0000E+00  0.0000E+00  0.0000E+00
     -7.996  0.0000E+00  0.0000E+00  0.0000E+00  0.0000E+00  0.0000E+00  0.0000E+00  0.0000E+00  0.0000E+00  0.0000E+00
     -7.724  0.0000E+00  0.0000E+00  0.0000E+00  0.0000E+00  0.0000E+00  0.0000E+00  0.0000E+00  0.0000E+00  0.0000E+00
     -7.452  0.0000E+00  0.0000E+00  0.0000E+00  0.0000E+00  0.0000E+00  0.0000E+00  0.0000E+00  0.0000E+00  0.0000E+00
     -7.179  0.0000E+00  0.0000E+00  0.0000E+00  0.0000E+00  0.0000E+00  0.0000E+00  0.0000E+00  0.0000E+00  0.0000E+00
     -6.907  0.0000E+00  0.0000E+00  0.0000E+00  0.0000E+00  0.0000E+00  0.0000E+00  0.0000E+00  0.0000E+00  0.0000E+00
     -6.635  0.0000E+00  0.0000E+00  0.0000E+00  0.0000E+00  0.0000E+00  0.0000E+00  0.0000E+00  0.0000E+00  0.0000E+00
     -6.363  0.0000E+00  0.0000E+00  0.0000E+00  0.0000E+00  0.0000E+00  0.0000E+00  0.0000E+00  0.0000E+00  0.0000E+00
     -6.091  0.0000E+00  0.0000E+00  0.0000E+00  0.0000E+00  0.0000E+00  0.0000E+00  0.0000E+00  0.0000E+00  0.0000E+00
     -5.819  0.0000E+00  0.0000E+00  0.0000E+00  0.0000E+00  0.0000E+00  0.0000E+00  0.0000E+00  0.0000E+00  0.0000E+00
     -5.546  0.0000E+00  0.0000E+00  0.0000E+00  0.0000E+00  0.0000E+00  0.0000E+00  0.0000E+00  0.0000E+00  0.0000E+00
     -5.274  0.0000E+00  0.0000E+00  0.0000E+00  0.0000E+00  0.0000E+00  0.0000E+00  0.0000E+00  0.0000E+00  0.0000E+00
     -5.002  0.0000E+00  0.0000E+00  0.0000E+00  0.0000E+00  0.0000E+00  0.0000E+00  0.0000E+00  0.0000E+00  0.0000E+00
     -4.730  0.0000E+00  0.0000E+00  0.0000E+00  0.0000E+00  0.0000E+00  0.0000E+00  0.0000E+00  0.0000E+00  0.0000E+00
     -4.458  0.0000E+00  0.0000E+00  0.0000E+00  0.0000E+00  0.0000E+00  0.0000E+00  0.0000E+00  0.0000E+00  0.0000E+00
     -4.186  0.0000E+00  0.0000E+00  0.0000E+00  0.0000E+00  0.0000E+00  0.0000E+00  0.0000E+00  0.0000E+00  0.0000E+00
     -3.913  0.0000E+00  0.0000E+00  0.0000E+00  0.0000E+00  0.0000E+00  0.0000E+00  0.0000E+00  0.0000E+00  0.0000E+00
     -3.641  0.0000E+00  0.0000E+00  0.0000E+00  0.0000E+00  0.0000E+00  0.0000E+00  0.0000E+00  0.0000E+00  0.0000E+00
     -3.369  0.0000E+00  0.0000E+00  0.0000E+00  0.0000E+00  0.0000E+00  0.0000E+00  0.0000E+00  0.0000E+00  0.0000E+00
     -3.097  0.0000E+00  0.0000E+00  0.0000E+00  0.0000E+00  0.0000E+00  0.0000E+00  0.0000E+00  0.0000E+00  0.0000E+00
     -2.825  0.0000E+00  0.0000E+00  0.0000E+00  0.0000E+00  0.0000E+00  0.0000E+00  0.0000E+00  0.0000E+00  0.0000E+00
     -2.552  0.0000E+00  0.0000E+00  0.0000E+00  0.0000E+00  0.0000E+00  0.0000E+00  0.0000E+00  0.0000E+00  0.0000E+00