 vasp.6.3.2 27Jun22 (build Aug 12 2022 00:53:59) complex                        
  
 executed on               tv2STD date 2024.11.30  17:15:34
 running   24 mpi-ranks, with    1 threads/rank
 distrk:  each k-point on   24 cores,    1 groups
 distr:  one band on NCORE=   1 cores,   24 groups


--------------------------------------------------------------------------------------------------------


 INCAR:
   SYSTEM = Pt-hcc
   NWRITE = 2    write-flag
   ISTART = 0    job   : 0-new, 1-cont, 2-samecut
   ICHARG = 2    charge: 0-wave, 1-file, 2-atom, >10-const
   INIWAV = 1    electr: 0-lowe 1-rand  2-diag
   ENCUT = 450.0     energy cutoff in eV
   PREC = Accurate      normal | accurate
   ADDGRID = .FALSE.  (use fine grid)
   NELM = 100     number of ELM steps
   EDIFF = 1E-06    energy stopping-criterion for ELM
   LREAL = .FALSE.      real-space projection (.FALSE., .TRUE., On, Auto)
   ALGO = Normal     Normal, Fast, Very_Fast
   LWAVE = .TRUE.
   LCHARG = .TRUE.
   NSW = 100       max number of geometry steps
   IBRION = 2     ionic relax: 0-MD, 1-quasi-Newton, 2-CG, 3-Damped MD
   EDIFFG = -0.02  force (eV/A) stopping-criterion for geometry steps
   ISIF = 2     (1:force\=y stress\=trace only ions\=y shape\=n volume\=n)
   ISYM = 1     (1-use symmetry, 0-no symmetry)
   ISMEAR = 0     (-1-Fermi, 1-Methfessel/Paxton)
   SIGMA = 0.05   broadening in eV
   LORBIT = 11

 POTCAR:    PAW_PBE Pt_pv 12Dec2005               
 POTCAR:    PAW_PBE Pt_pv 12Dec2005               
   SHA256 =  e5abf7e8cd8db70d0153315afc5ad66b6e3eeee29cc2d5b91b16730957c1d208 Pt_pv/POTCAR          
   COPYR  = (c) Copyright 12Dec2005 Georg Kresse                                                    
   COPYR  = This file is part of the software VASP. Any use, copying, and all other rights are regul
   COPYR  = If you do not have a valid VASP license, you may not use, copy or distribute this file. 
   VRHFIN =Pt: 5ps1d9                                                                               
   LEXCH  = PE                                                                                      
   EATOM  =  2428.2504 eV,  178.4714 Ry                                                             
                                                                                                    
   TITEL  = PAW_PBE Pt_pv 12Dec2005                                                                 
   LULTRA =        F    use ultrasoft PP ?                                                          
   IUNSCR =        1    unscreen: 0-lin 1-nonlin 2-no                                               
   RPACOR =    2.000    partial core radius                                                         
   POMASS =  195.080; ZVAL   =   16.000    mass and valenz                                          
   RCORE  =    2.200    outmost cutoff radius                                                       
   RWIGS  =    2.200; RWIGS  =    1.164    wigner-seitz radius (au A)                               
   ENMAX  =  294.607; ENMIN  =  220.955 eV                                                          
   ICORE  =        3    local potential                                                             
   LCOR   =        T    correct aug charges                                                         
   LPAW   =        T    paw PP                                                                      
   EAUG   =  527.014                                                                                
   DEXC   =    0.000                                                                                
   RMAX   =    2.247    core radius for proj-oper                                                   
   RAUG   =    1.300    factor for augmentation sphere                                              
   RDEP   =    2.279    radius for radial grids                                                     
   RDEPT  =    1.878    core radius for aug-charge                                                  
                                                                                                    
   Atomic configuration                                                                             
   16 entries                                                                                       
     n  l   j            E        occ.                                                              
     1  0  0.50    -78401.1885   2.0000                                                             
     2  0  0.50    -13770.7750   2.0000                                                             
     2  1  1.50    -11931.0468   6.0000                                                             
     3  0  0.50     -3234.7234   2.0000                                                             
     3  1  1.50     -2699.2216   6.0000                                                             
     3  2  2.50     -2119.5714  10.0000                                                             
     4  0  0.50      -695.1528   2.0000                                                             
     4  1  1.50      -519.6034   6.0000                                                             
     4  2  2.50      -306.6786  10.0000                                                             
     4  3  3.50       -70.1041  14.0000                                                             
     5  0  0.50      -101.7747   2.0000                                                             
     5  1  1.50       -55.9873   6.0000                                                             
     6  1  1.50        -6.8029   0.0000                                                             
     5  2  2.50        -6.1423   9.0000                                                             
     6  0  0.50        -5.6573   1.0000                                                             
     5  3  2.50        -1.3606   0.0000                                                             
   Description                                                                                      
     l       E           TYP  RCUT    TYP  RCUT                                                     
     1    -55.9873477     23  2.000                                                                 
     1     27.2116520     23  2.000                                                                 
     2     -6.1423404     23  2.200                                                                 
     2     -4.6754623     23  2.200                                                                 
     0     -5.6573207     23  2.200                                                                 
     0     47.6203910     23  2.200                                                                 
     3      6.8029130     23  2.200                                                                 
  local pseudopotential read in
  partial core-charges read in
  partial kinetic energy density read in
  atomic valenz-charges read in
  non local Contribution for L=           1  read in
    real space projection operators read in
  non local Contribution for L=           1  read in
    real space projection operators read in
  non local Contribution for L=           2  read in
    real space projection operators read in
  non local Contribution for L=           2  read in
    real space projection operators read in
  non local Contribution for L=           0  read in
    real space projection operators read in
  non local Contribution for L=           0  read in
    real space projection operators read in
    PAW grid and wavefunctions read in
 
   number of l-projection  operators is LMAX  =           6
   number of lm-projection operators is LMMAX =          18
 
  PAW_PBE Pt_pv 12Dec2005               :
 energy of atom  1       EATOM=-2428.2504
 kinetic energy error for atom=    0.0356 (will be added to EATOM!!)
 
 
 POSCAR: Pt
  positions in cartesian coordinates
  No initial velocities read in
 exchange correlation table for  LEXCH =        8
   RHO(1)=    0.500       N(1)  =     2000
   RHO(2)=  100.500       N(2)  =     4000
 


--------------------------------------------------------------------------------------------------------


 ion  position               nearest neighbor table
   1  0.000  0.000  0.000-
   2  0.333  0.667  0.500-
 
  LATTYP: Found a hexagonal cell.
 ALAT       =     2.7375920685
 C/A-ratio  =     1.7324766951
  
  Lattice vectors:
  
 A1 = (   2.7375920685,   0.0000000000,   0.0000000000)
 A2 = (  -1.3687960342,   2.3708242765,   0.0000000000)
 A3 = (   0.0000000000,   0.0000000000,   4.7428144595)


Analysis of symmetry for initial positions (statically):
=====================================================================
 Subroutine PRICEL returns:
 Original cell was already a primitive cell.
 

 Routine SETGRP: Setting up the symmetry group for a 
 hexagonal supercell.


 Subroutine GETGRP returns: Found 24 space group operations
 (whereof 12 operations were pure point group operations)
 out of a pool of 24 trial point group operations.


The static configuration has the point symmetry D_3h.
 The point group associated with its full space group is D_6h.


Analysis of symmetry for dynamics (positions and initial velocities):
=====================================================================
 Subroutine PRICEL returns:
 Original cell was already a primitive cell.
 

 Routine SETGRP: Setting up the symmetry group for a 
 hexagonal supercell.


 Subroutine GETGRP returns: Found 24 space group operations
 (whereof 12 operations were pure point group operations)
 out of a pool of 24 trial point group operations.


The dynamic configuration has the point symmetry D_3h.
 The point group associated with its full space group is D_6h.


 Subroutine INISYM returns: Found 24 space group operations
 (whereof 12 operations are pure point group operations),
 and found     1 'primitive' translations


----------------------------------------------------------------------------------------

                                     Primitive cell                                     

  volume of cell :      30.7825

  direct lattice vectors                    reciprocal lattice vectors
     2.737592068  0.000000000  0.000000000     0.365284518  0.210897115  0.000000000
    -1.368796034  2.370824277  0.000000000     0.000000000  0.421794230  0.000000000
     0.000000000  0.000000000  4.742814459     0.000000000  0.000000000  0.210845271

  length of vectors
     2.737592068  2.737592068  4.742814459     0.421794230  0.421794230  0.210845271

  position of ions in fractional coordinates (direct lattice)
     0.000000000  0.000000000  0.000000000
     0.333333333  0.666666667  0.500000000

  ion indices of the primitive-cell ions
   primitive index   ion index
                 1           1
                 2           2

----------------------------------------------------------------------------------------

 
 
 KPOINTS: Automatic mesh                          

Automatic generation of k-mesh.
 Grid dimensions read from file:
 generate k-points for:   10   10    8

 Generating k-lattice:

  Cartesian coordinates                     Fractional coordinates (reciprocal lattice)
     0.036528452  0.021089711  0.000000000     0.100000000 -0.000000000  0.000000000
     0.000000000  0.042179423  0.000000000     0.000000000  0.100000000  0.000000000
     0.000000000  0.000000000  0.026355659     0.000000000  0.000000000  0.125000000

  Length of vectors
     0.042179423  0.042179423  0.026355659

  Shift w.r.t. Gamma in fractional coordinates (k-lattice)
     0.000000000  0.000000000  0.000000000

 
 Subroutine IBZKPT returns following result:
 ===========================================
 
 Found     70 irreducible k-points:
 
 Following reciprocal coordinates:
            Coordinates               Weight
  0.000000  0.000000  0.000000      1.000000
  0.100000  0.000000  0.000000      6.000000
  0.200000  0.000000  0.000000      6.000000
  0.300000 -0.000000  0.000000      6.000000
  0.400000  0.000000  0.000000      6.000000
  0.500000  0.000000  0.000000      3.000000
  0.100000  0.100000  0.000000      6.000000
  0.200000  0.100000  0.000000     12.000000
  0.300000  0.100000  0.000000     12.000000
  0.400000  0.100000  0.000000     12.000000
  0.200000  0.200000  0.000000      6.000000
  0.300000  0.200000  0.000000     12.000000
  0.400000  0.200000  0.000000      6.000000
  0.300000  0.300000  0.000000      6.000000
  0.000000  0.000000  0.125000      2.000000
  0.100000  0.000000  0.125000     12.000000
  0.200000  0.000000  0.125000     12.000000
  0.300000 -0.000000  0.125000     12.000000
  0.400000  0.000000  0.125000     12.000000
  0.500000  0.000000  0.125000      6.000000
  0.100000  0.100000  0.125000     12.000000
  0.200000  0.100000  0.125000     24.000000
  0.300000  0.100000  0.125000     24.000000
  0.400000  0.100000  0.125000     24.000000
  0.200000  0.200000  0.125000     12.000000
  0.300000  0.200000  0.125000     24.000000
  0.400000  0.200000  0.125000     12.000000
  0.300000  0.300000  0.125000     12.000000
  0.000000  0.000000  0.250000      2.000000
  0.100000  0.000000  0.250000     12.000000
  0.200000  0.000000  0.250000     12.000000
  0.300000 -0.000000  0.250000     12.000000
  0.400000  0.000000  0.250000     12.000000
  0.500000  0.000000  0.250000      6.000000
  0.100000  0.100000  0.250000     12.000000
  0.200000  0.100000  0.250000     24.000000
  0.300000  0.100000  0.250000     24.000000
  0.400000  0.100000  0.250000     24.000000
  0.200000  0.200000  0.250000     12.000000
  0.300000  0.200000  0.250000     24.000000
  0.400000  0.200000  0.250000     12.000000
  0.300000  0.300000  0.250000     12.000000
  0.000000  0.000000  0.375000      2.000000
  0.100000  0.000000  0.375000     12.000000
  0.200000  0.000000  0.375000     12.000000
  0.300000 -0.000000  0.375000     12.000000
  0.400000  0.000000  0.375000     12.000000
  0.500000  0.000000  0.375000      6.000000
  0.100000  0.100000  0.375000     12.000000
  0.200000  0.100000  0.375000     24.000000
  0.300000  0.100000  0.375000     24.000000
  0.400000  0.100000  0.375000     24.000000
  0.200000  0.200000  0.375000     12.000000
  0.300000  0.200000  0.375000     24.000000
  0.400000  0.200000  0.375000     12.000000
  0.300000  0.300000  0.375000     12.000000
  0.000000  0.000000  0.500000      1.000000
  0.100000  0.000000  0.500000      6.000000
  0.200000  0.000000  0.500000      6.000000
  0.300000 -0.000000  0.500000      6.000000
  0.400000  0.000000  0.500000      6.000000
  0.500000  0.000000  0.500000      3.000000
  0.100000  0.100000  0.500000      6.000000
  0.200000  0.100000  0.500000     12.000000
  0.300000  0.100000  0.500000     12.000000
  0.400000  0.100000  0.500000     12.000000
  0.200000  0.200000  0.500000      6.000000
  0.300000  0.200000  0.500000     12.000000
  0.400000  0.200000  0.500000      6.000000
  0.300000  0.300000  0.500000      6.000000
 
 Following cartesian coordinates:
            Coordinates               Weight
  0.000000  0.000000  0.000000      1.000000
  0.036528  0.021090  0.000000      6.000000
  0.073057  0.042179  0.000000      6.000000
  0.109585  0.063269  0.000000      6.000000
  0.146114  0.084359  0.000000      6.000000
  0.182642  0.105449  0.000000      3.000000
  0.036528  0.063269  0.000000      6.000000
  0.073057  0.084359  0.000000     12.000000
  0.109585  0.105449  0.000000     12.000000
  0.146114  0.126538  0.000000     12.000000
  0.073057  0.126538  0.000000      6.000000
  0.109585  0.147628  0.000000     12.000000
  0.146114  0.168718  0.000000      6.000000
  0.109585  0.189807  0.000000      6.000000
  0.000000  0.000000  0.026356      2.000000
  0.036528  0.021090  0.026356     12.000000
  0.073057  0.042179  0.026356     12.000000
  0.109585  0.063269  0.026356     12.000000
  0.146114  0.084359  0.026356     12.000000
  0.182642  0.105449  0.026356      6.000000
  0.036528  0.063269  0.026356     12.000000
  0.073057  0.084359  0.026356     24.000000
  0.109585  0.105449  0.026356     24.000000
  0.146114  0.126538  0.026356     24.000000
  0.073057  0.126538  0.026356     12.000000
  0.109585  0.147628  0.026356     24.000000
  0.146114  0.168718  0.026356     12.000000
  0.109585  0.189807  0.026356     12.000000
  0.000000  0.000000  0.052711      2.000000
  0.036528  0.021090  0.052711     12.000000
  0.073057  0.042179  0.052711     12.000000
  0.109585  0.063269  0.052711     12.000000
  0.146114  0.084359  0.052711     12.000000
  0.182642  0.105449  0.052711      6.000000
  0.036528  0.063269  0.052711     12.000000
  0.073057  0.084359  0.052711     24.000000
  0.109585  0.105449  0.052711     24.000000
  0.146114  0.126538  0.052711     24.000000
  0.073057  0.126538  0.052711     12.000000
  0.109585  0.147628  0.052711     24.000000
  0.146114  0.168718  0.052711     12.000000
  0.109585  0.189807  0.052711     12.000000
  0.000000  0.000000  0.079067      2.000000
  0.036528  0.021090  0.079067     12.000000
  0.073057  0.042179  0.079067     12.000000
  0.109585  0.063269  0.079067     12.000000
  0.146114  0.084359  0.079067     12.000000
  0.182642  0.105449  0.079067      6.000000
  0.036528  0.063269  0.079067     12.000000
  0.073057  0.084359  0.079067     24.000000
  0.109585  0.105449  0.079067     24.000000
  0.146114  0.126538  0.079067     24.000000
  0.073057  0.126538  0.079067     12.000000
  0.109585  0.147628  0.079067     24.000000
  0.146114  0.168718  0.079067     12.000000
  0.109585  0.189807  0.079067     12.000000
  0.000000  0.000000  0.105423      1.000000
  0.036528  0.021090  0.105423      6.000000
  0.073057  0.042179  0.105423      6.000000
  0.109585  0.063269  0.105423      6.000000
  0.146114  0.084359  0.105423      6.000000
  0.182642  0.105449  0.105423      3.000000
  0.036528  0.063269  0.105423      6.000000
  0.073057  0.084359  0.105423     12.000000
  0.109585  0.105449  0.105423     12.000000
  0.146114  0.126538  0.105423     12.000000
  0.073057  0.126538  0.105423      6.000000
  0.109585  0.147628  0.105423     12.000000
  0.146114  0.168718  0.105423      6.000000
  0.109585  0.189807  0.105423      6.000000
 


--------------------------------------------------------------------------------------------------------




 Dimension of arrays:
   k-points           NKPTS =     70   k-points in BZ     NKDIM =     70   number of bands    NBANDS=     24
   number of dos      NEDOS =    301   number of ions     NIONS =      2
   non local maximal  LDIM  =      6   non local SUM 2l+1 LMDIM =     18
   total plane-waves  NPLWV =  14400
   max r-space proj   IRMAX =      1   max aug-charges    IRDMAX=  16125
   dimension x,y,z NGX =    20 NGY =   20 NGZ =   36
   dimension x,y,z NGXF=    40 NGYF=   40 NGZF=   72
   support grid    NGXF=    40 NGYF=   40 NGZF=   72
   ions per type =               2
   NGX,Y,Z   is equivalent  to a cutoff of  12.15, 12.15, 12.62 a.u.
   NGXF,Y,Z  is equivalent  to a cutoff of  24.29, 24.29, 25.24 a.u.

 SYSTEM =  Pt-hcc                                  
 POSCAR =  Pt                                      

 Startparameter for this run:
   NWRITE =      2    write-flag & timer
   PREC   = accura    normal or accurate (medium, high low for compatibility)
   ISTART =      0    job   : 0-new  1-cont  2-samecut
   ICHARG =      2    charge: 1-file 2-atom 10-const
   ISPIN  =      1    spin polarized calculation?
   LNONCOLLINEAR =      F non collinear calculations
   LSORBIT =      F    spin-orbit coupling
   INIWAV =      1    electr: 0-lowe 1-rand  2-diag
   LASPH  =      F    aspherical Exc in radial PAW
 Electronic Relaxation 1
   ENCUT  =  450.0 eV  33.07 Ry    5.75 a.u.   4.74  4.74  8.20*2*pi/ulx,y,z
   ENINI  =  450.0     initial cutoff
   ENAUG  =  527.0 eV  augmentation charge cutoff
   NELM   =    100;   NELMIN=  2; NELMDL= -5     # of ELM steps 
   EDIFF  = 0.1E-05   stopping-criterion for ELM
   LREAL  =      F    real-space projection
   NLSPLINE    = F    spline interpolate recip. space projectors
   LCOMPAT=      F    compatible to vasp.4.4
   GGA_COMPAT  = T    GGA compatible to vasp.4.4-vasp.4.6
   LMAXPAW     = -100 max onsite density
   LMAXMIX     =    2 max onsite mixed and CHGCAR
   VOSKOWN=      0    Vosko Wilk Nusair interpolation
   ROPT   =    0.00000
 Ionic relaxation
   EDIFFG = -.2E-01   stopping-criterion for IOM
   NSW    =    100    number of steps for IOM
   NBLOCK =      1;   KBLOCK =    100    inner block; outer block 
   IBRION =      2    ionic relax: 0-MD 1-quasi-New 2-CG
   NFREE  =      1    steps in history (QN), initial steepest desc. (CG)
   ISIF   =      2    stress and relaxation
   IWAVPR =     11    prediction:  0-non 1-charg 2-wave 3-comb
   ISYM   =      1    0-nonsym 1-usesym 2-fastsym
   LCORR  =      T    Harris-Foulkes like correction to forces

   POTIM  = 0.5000    time-step for ionic-motion
   TEIN   =    0.0    initial temperature
   TEBEG  =    0.0;   TEEND  =   0.0 temperature during run
   SMASS  =  -3.00    Nose mass-parameter (am)
   estimated Nose-frequenzy (Omega)   =  0.10E-29 period in steps = 0.13E+47 mass=  -0.171E-27a.u.
   SCALEE = 1.0000    scale energy and forces
   NPACO  =    256;   APACO  = 10.0  distance and # of slots for P.C.
   PSTRESS=    0.0 pullay stress

  Mass of Ions in am
   POMASS = 195.08
  Ionic Valenz
   ZVAL   =  16.00
  Atomic Wigner-Seitz radii
   RWIGS  =  -1.00
  virtual crystal weights 
   VCA    =   1.00
   NELECT =      32.0000    total number of electrons
   NUPDOWN=      -1.0000    fix difference up-down

 DOS related values:
   EMIN   =  10.00;   EMAX   =-10.00  energy-range for DOS
   EFERMI =   0.00
   ISMEAR =     0;   SIGMA  =   0.05  broadening in eV -4-tet -1-fermi 0-gaus

 Electronic relaxation 2 (details)
   IALGO  =     38    algorithm
   LDIAG  =      T    sub-space diagonalisation (order eigenvalues)
   LSUBROT=      F    optimize rotation matrix (better conditioning)
   TURBO    =      0    0=normal 1=particle mesh
   IRESTART =      0    0=no restart 2=restart with 2 vectors
   NREBOOT  =      0    no. of reboots
   NMIN     =      0    reboot dimension
   EREF     =   0.00    reference energy to select bands
   IMIX   =      4    mixing-type and parameters
     AMIX     =   0.40;   BMIX     =  1.00
     AMIX_MAG =   1.60;   BMIX_MAG =  1.00
     AMIN     =   0.10
     WC   =   100.;   INIMIX=   1;  MIXPRE=   1;  MAXMIX= -45

 Intra band minimization:
   WEIMIN = 0.0010     energy-eigenvalue tresh-hold
   EBREAK =  0.10E-07  absolut break condition
   DEPER  =   0.30     relativ break condition  

   TIME   =   0.40     timestep for ELM

  volume/ion in A,a.u.               =      15.39       103.87
  Fermi-wavevector in a.u.,A,eV,Ry     =   1.658403  3.133927 37.420111  2.750301
  Thomas-Fermi vector in A             =   2.745990
 
 Write flags
   LWAVE        =      T    write WAVECAR
   LDOWNSAMPLE  =      F    k-point downsampling of WAVECAR
   LCHARG       =      T    write CHGCAR
   LVTOT        =      F    write LOCPOT, total local potential
   LVHAR        =      F    write LOCPOT, Hartree potential only
   LELF         =      F    write electronic localiz. function (ELF)
   LORBIT       =     11    0 simple, 1 ext, 2 COOP (PROOUT), +10 PAW based schemes


 Dipole corrections
   LMONO  =      F    monopole corrections only (constant potential shift)
   LDIPOL =      F    correct potential (dipole corrections)
   IDIPOL =      0    1-x, 2-y, 3-z, 4-all directions 
   EPSILON=  1.0000000 bulk dielectric constant

 Exchange correlation treatment:
   GGA     =    --    GGA type
   LEXCH   =     8    internal setting for exchange type
   LIBXC   =     F    Libxc                    
   VOSKOWN =     0    Vosko Wilk Nusair interpolation
   LHFCALC =     F    Hartree Fock is set to
   LHFONE  =     F    Hartree Fock one center treatment
   AEXX    =    0.0000 exact exchange contribution

 Linear response parameters
   LEPSILON=     F    determine dielectric tensor
   LRPA    =     F    only Hartree local field effects (RPA)
   LNABLA  =     F    use nabla operator in PAW spheres
   LVEL    =     F    velocity operator in full k-point grid
   CSHIFT  =0.1000    complex shift for real part using Kramers Kronig
   OMEGAMAX=  -1.0    maximum frequency
   DEG_THRESHOLD= 0.2000000E-02 threshold for treating states as degnerate
   RTIME   =   -0.100 relaxation time in fs
  (WPLASMAI=    0.000 imaginary part of plasma frequency in eV, 0.658/RTIME)
   DFIELD  = 0.0000000 0.0000000 0.0000000 field for delta impulse in time
 
  Optional k-point grid parameters
   LKPOINTS_OPT  =     F    use optional k-point grid
   KPOINTS_OPT_MODE=     1    mode for optional k-point grid
 
 Orbital magnetization related:
   ORBITALMAG=     F  switch on orbital magnetization
   LCHIMAG   =     F  perturbation theory with respect to B field
   DQ        =  0.001000  dq finite difference perturbation B field
   LLRAUG    =     F  two centre corrections for induced B field



--------------------------------------------------------------------------------------------------------


 conjugate gradient relaxation of ions
 charge density and potential will be updated during run
 non-spin polarized calculation
 Variant of blocked Davidson
 Davidson routine will perform the subspace rotation
 perform sub-space diagonalisation
    after iterative eigenvector-optimisation
 modified Broyden-mixing scheme, WC =      100.0
 initial mixing is a Kerker type mixing with AMIX =  0.4000 and BMIX =      1.0000
 Hartree-type preconditioning will be used
 using additional bands            8
 reciprocal scheme for non local part
 use partial core corrections
 calculate Harris-corrections to forces 
   (improved forces if not selfconsistent)
 use gradient corrections 
 use of overlap-Matrix (Vanderbilt PP)
 Gauss-broadening in eV      SIGMA  =   0.05


--------------------------------------------------------------------------------------------------------


  energy-cutoff  :      450.00
  volume of cell :       30.78
      direct lattice vectors                 reciprocal lattice vectors
     2.737592068  0.000000000  0.000000000     0.365284518  0.210897115  0.000000000
    -1.368796034  2.370824277  0.000000000     0.000000000  0.421794230  0.000000000
     0.000000000  0.000000000  4.742814459     0.000000000  0.000000000  0.210845271

  length of vectors
     2.737592068  2.737592068  4.742814459     0.421794230  0.421794230  0.210845271


 
 k-points in units of 2pi/SCALE and weight: Automatic mesh                          
   0.00000000  0.00000000  0.00000000       0.001
   0.03652845  0.02108971  0.00000000       0.007
   0.07305690  0.04217942  0.00000000       0.007
   0.10958536  0.06326913  0.00000000       0.007
   0.14611381  0.08435885  0.00000000       0.007
   0.18264226  0.10544856  0.00000000       0.004
   0.03652845  0.06326913  0.00000000       0.007
   0.07305690  0.08435885  0.00000000       0.015
   0.10958536  0.10544856  0.00000000       0.015
   0.14611381  0.12653827  0.00000000       0.015
   0.07305690  0.12653827  0.00000000       0.007
   0.10958536  0.14762798  0.00000000       0.015
   0.14611381  0.16871769  0.00000000       0.007
   0.10958536  0.18980740  0.00000000       0.007
   0.00000000  0.00000000  0.02635566       0.003
   0.03652845  0.02108971  0.02635566       0.015
   0.07305690  0.04217942  0.02635566       0.015
   0.10958536  0.06326913  0.02635566       0.015
   0.14611381  0.08435885  0.02635566       0.015
   0.18264226  0.10544856  0.02635566       0.007
   0.03652845  0.06326913  0.02635566       0.015
   0.07305690  0.08435885  0.02635566       0.030
   0.10958536  0.10544856  0.02635566       0.030
   0.14611381  0.12653827  0.02635566       0.030
   0.07305690  0.12653827  0.02635566       0.015
   0.10958536  0.14762798  0.02635566       0.030
   0.14611381  0.16871769  0.02635566       0.015
   0.10958536  0.18980740  0.02635566       0.015
   0.00000000  0.00000000  0.05271132       0.003
   0.03652845  0.02108971  0.05271132       0.015
   0.07305690  0.04217942  0.05271132       0.015
   0.10958536  0.06326913  0.05271132       0.015
   0.14611381  0.08435885  0.05271132       0.015
   0.18264226  0.10544856  0.05271132       0.007
   0.03652845  0.06326913  0.05271132       0.015
   0.07305690  0.08435885  0.05271132       0.030
   0.10958536  0.10544856  0.05271132       0.030
   0.14611381  0.12653827  0.05271132       0.030
   0.07305690  0.12653827  0.05271132       0.015
   0.10958536  0.14762798  0.05271132       0.030
   0.14611381  0.16871769  0.05271132       0.015
   0.10958536  0.18980740  0.05271132       0.015
   0.00000000  0.00000000  0.07906698       0.003
   0.03652845  0.02108971  0.07906698       0.015
   0.07305690  0.04217942  0.07906698       0.015
   0.10958536  0.06326913  0.07906698       0.015
   0.14611381  0.08435885  0.07906698       0.015
   0.18264226  0.10544856  0.07906698       0.007
   0.03652845  0.06326913  0.07906698       0.015
   0.07305690  0.08435885  0.07906698       0.030
   0.10958536  0.10544856  0.07906698       0.030
   0.14611381  0.12653827  0.07906698       0.030
   0.07305690  0.12653827  0.07906698       0.015
   0.10958536  0.14762798  0.07906698       0.030
   0.14611381  0.16871769  0.07906698       0.015
   0.10958536  0.18980740  0.07906698       0.015
   0.00000000  0.00000000  0.10542264       0.001
   0.03652845  0.02108971  0.10542264       0.007
   0.07305690  0.04217942  0.10542264       0.007
   0.10958536  0.06326913  0.10542264       0.007
   0.14611381  0.08435885  0.10542264       0.007
   0.18264226  0.10544856  0.10542264       0.004
   0.03652845  0.06326913  0.10542264       0.007
   0.07305690  0.08435885  0.10542264       0.015
   0.10958536  0.10544856  0.10542264       0.015
   0.14611381  0.12653827  0.10542264       0.015
   0.07305690  0.12653827  0.10542264       0.007
   0.10958536  0.14762798  0.10542264       0.015
   0.14611381  0.16871769  0.10542264       0.007
   0.10958536  0.18980740  0.10542264       0.007
 
 k-points in reciprocal lattice and weights: Automatic mesh                          
   0.00000000  0.00000000  0.00000000       0.001
   0.10000000  0.00000000  0.00000000       0.007
   0.20000000  0.00000000  0.00000000       0.007
   0.30000000 -0.00000000  0.00000000       0.007
   0.40000000  0.00000000  0.00000000       0.007
   0.50000000  0.00000000  0.00000000       0.004
   0.10000000  0.10000000  0.00000000       0.007
   0.20000000  0.10000000  0.00000000       0.015
   0.30000000  0.10000000  0.00000000       0.015
   0.40000000  0.10000000  0.00000000       0.015
   0.20000000  0.20000000  0.00000000       0.007
   0.30000000  0.20000000  0.00000000       0.015
   0.40000000  0.20000000  0.00000000       0.007
   0.30000000  0.30000000  0.00000000       0.007
   0.00000000  0.00000000  0.12500000       0.003
   0.10000000  0.00000000  0.12500000       0.015
   0.20000000  0.00000000  0.12500000       0.015
   0.30000000 -0.00000000  0.12500000       0.015
   0.40000000  0.00000000  0.12500000       0.015
   0.50000000  0.00000000  0.12500000       0.007
   0.10000000  0.10000000  0.12500000       0.015
   0.20000000  0.10000000  0.12500000       0.030
   0.30000000  0.10000000  0.12500000       0.030
   0.40000000  0.10000000  0.12500000       0.030
   0.20000000  0.20000000  0.12500000       0.015
   0.30000000  0.20000000  0.12500000       0.030
   0.40000000  0.20000000  0.12500000       0.015
   0.30000000  0.30000000  0.12500000       0.015
   0.00000000  0.00000000  0.25000000       0.003
   0.10000000  0.00000000  0.25000000       0.015
   0.20000000  0.00000000  0.25000000       0.015
   0.30000000 -0.00000000  0.25000000       0.015
   0.40000000  0.00000000  0.25000000       0.015
   0.50000000  0.00000000  0.25000000       0.007
   0.10000000  0.10000000  0.25000000       0.015
   0.20000000  0.10000000  0.25000000       0.030
   0.30000000  0.10000000  0.25000000       0.030
   0.40000000  0.10000000  0.25000000       0.030
   0.20000000  0.20000000  0.25000000       0.015
   0.30000000  0.20000000  0.25000000       0.030
   0.40000000  0.20000000  0.25000000       0.015
   0.30000000  0.30000000  0.25000000       0.015
   0.00000000  0.00000000  0.37500000       0.003
   0.10000000  0.00000000  0.37500000       0.015
   0.20000000  0.00000000  0.37500000       0.015
   0.30000000 -0.00000000  0.37500000       0.015
   0.40000000  0.00000000  0.37500000       0.015
   0.50000000  0.00000000  0.37500000       0.007
   0.10000000  0.10000000  0.37500000       0.015
   0.20000000  0.10000000  0.37500000       0.030
   0.30000000  0.10000000  0.37500000       0.030
   0.40000000  0.10000000  0.37500000       0.030
   0.20000000  0.20000000  0.37500000       0.015
   0.30000000  0.20000000  0.37500000       0.030
   0.40000000  0.20000000  0.37500000       0.015
   0.30000000  0.30000000  0.37500000       0.015
   0.00000000  0.00000000  0.50000000       0.001
   0.10000000  0.00000000  0.50000000       0.007
   0.20000000  0.00000000  0.50000000       0.007
   0.30000000 -0.00000000  0.50000000       0.007
   0.40000000  0.00000000  0.50000000       0.007
   0.50000000  0.00000000  0.50000000       0.004
   0.10000000  0.10000000  0.50000000       0.007
   0.20000000  0.10000000  0.50000000       0.015
   0.30000000  0.10000000  0.50000000       0.015
   0.40000000  0.10000000  0.50000000       0.015
   0.20000000  0.20000000  0.50000000       0.007
   0.30000000  0.20000000  0.50000000       0.015
   0.40000000  0.20000000  0.50000000       0.007
   0.30000000  0.30000000  0.50000000       0.007
 
 position of ions in fractional coordinates (direct lattice) 
   0.00000000  0.00000000  0.00000000
   0.33333333  0.66666667  0.50000000
 
 position of ions in cartesian coordinates  (Angst):
   0.00000000  0.00000000  0.00000000
   0.00000000  1.58054952  2.37140723
 


--------------------------------------------------------------------------------------------------------


 k-point   1 :   0.0000 0.0000 0.0000  plane waves:     665
 k-point   2 :   0.1000 0.0000 0.0000  plane waves:     683
 k-point   3 :   0.2000 0.0000 0.0000  plane waves:     664
 k-point   4 :   0.3000-0.0000 0.0000  plane waves:     662
 k-point   5 :   0.4000 0.0000 0.0000  plane waves:     676
 k-point   6 :   0.5000 0.0000 0.0000  plane waves:     676
 k-point   7 :   0.1000 0.1000 0.0000  plane waves:     669
 k-point   8 :   0.2000 0.1000 0.0000  plane waves:     666
 k-point   9 :   0.3000 0.1000 0.0000  plane waves:     669
 k-point  10 :   0.4000 0.1000 0.0000  plane waves:     666
 k-point  11 :   0.2000 0.2000 0.0000  plane waves:     665
 k-point  12 :   0.3000 0.2000 0.0000  plane waves:     666
 k-point  13 :   0.4000 0.2000 0.0000  plane waves:     660
 k-point  14 :   0.3000 0.3000 0.0000  plane waves:     665
 k-point  15 :   0.0000 0.0000 0.1250  plane waves:     683
 k-point  16 :   0.1000 0.0000 0.1250  plane waves:     678
 k-point  17 :   0.2000 0.0000 0.1250  plane waves:     668
 k-point  18 :   0.3000-0.0000 0.1250  plane waves:     663
 k-point  19 :   0.4000 0.0000 0.1250  plane waves:     666
 k-point  20 :   0.5000 0.0000 0.1250  plane waves:     674
 k-point  21 :   0.1000 0.1000 0.1250  plane waves:     670
 k-point  22 :   0.2000 0.1000 0.1250  plane waves:     665
 k-point  23 :   0.3000 0.1000 0.1250  plane waves:     662
 k-point  24 :   0.4000 0.1000 0.1250  plane waves:     669
 k-point  25 :   0.2000 0.2000 0.1250  plane waves:     663
 k-point  26 :   0.3000 0.2000 0.1250  plane waves:     667
 k-point  27 :   0.4000 0.2000 0.1250  plane waves:     663
 k-point  28 :   0.3000 0.3000 0.1250  plane waves:     662
 k-point  29 :   0.0000 0.0000 0.2500  plane waves:     682
 k-point  30 :   0.1000 0.0000 0.2500  plane waves:     667
 k-point  31 :   0.2000 0.0000 0.2500  plane waves:     669
 k-point  32 :   0.3000-0.0000 0.2500  plane waves:     664
 k-point  33 :   0.4000 0.0000 0.2500  plane waves:     673
 k-point  34 :   0.5000 0.0000 0.2500  plane waves:     676
 k-point  35 :   0.1000 0.1000 0.2500  plane waves:     668
 k-point  36 :   0.2000 0.1000 0.2500  plane waves:     668
 k-point  37 :   0.3000 0.1000 0.2500  plane waves:     669
 k-point  38 :   0.4000 0.1000 0.2500  plane waves:     668
 k-point  39 :   0.2000 0.2000 0.2500  plane waves:     668
 k-point  40 :   0.3000 0.2000 0.2500  plane waves:     663
 k-point  41 :   0.4000 0.2000 0.2500  plane waves:     665
 k-point  42 :   0.3000 0.3000 0.2500  plane waves:     663
 k-point  43 :   0.0000 0.0000 0.3750  plane waves:     670
 k-point  44 :   0.1000 0.0000 0.3750  plane waves:     665
 k-point  45 :   0.2000 0.0000 0.3750  plane waves:     656
 k-point  46 :   0.3000-0.0000 0.3750  plane waves:     666
 k-point  47 :   0.4000 0.0000 0.3750  plane waves:     670
 k-point  48 :   0.5000 0.0000 0.3750  plane waves:     662
 k-point  49 :   0.1000 0.1000 0.3750  plane waves:     663
 k-point  50 :   0.2000 0.1000 0.3750  plane waves:     669
 k-point  51 :   0.3000 0.1000 0.3750  plane waves:     671
 k-point  52 :   0.4000 0.1000 0.3750  plane waves:     672
 k-point  53 :   0.2000 0.2000 0.3750  plane waves:     674
 k-point  54 :   0.3000 0.2000 0.3750  plane waves:     670
 k-point  55 :   0.4000 0.2000 0.3750  plane waves:     667
 k-point  56 :   0.3000 0.3000 0.3750  plane waves:     662
 k-point  57 :   0.0000 0.0000 0.5000  plane waves:     664
 k-point  58 :   0.1000 0.0000 0.5000  plane waves:     660
 k-point  59 :   0.2000 0.0000 0.5000  plane waves:     664
 k-point  60 :   0.3000-0.0000 0.5000  plane waves:     670
 k-point  61 :   0.4000 0.0000 0.5000  plane waves:     672
 k-point  62 :   0.5000 0.0000 0.5000  plane waves:     676
 k-point  63 :   0.1000 0.1000 0.5000  plane waves:     664
 k-point  64 :   0.2000 0.1000 0.5000  plane waves:     662
 k-point  65 :   0.3000 0.1000 0.5000  plane waves:     668
 k-point  66 :   0.4000 0.1000 0.5000  plane waves:     670
 k-point  67 :   0.2000 0.2000 0.5000  plane waves:     682
 k-point  68 :   0.3000 0.2000 0.5000  plane waves:     674
 k-point  69 :   0.4000 0.2000 0.5000  plane waves:     670
 k-point  70 :   0.3000 0.3000 0.5000  plane waves:     658

 maximum and minimum number of plane-waves per node :       683      656

 maximum number of plane-waves:       683
 maximum index in each direction: 
   IXMAX=    4   IYMAX=    4   IZMAX=    8
   IXMIN=   -5   IYMIN=   -5   IZMIN=   -8


 serial   3D FFT for wavefunctions
 parallel 3D FFT for charge:
    minimum data exchange during FFTs selected (reduces bandwidth)


 total amount of memory used by VASP MPI-rank0    39019. kBytes
=======================================================================

   base      :      30000. kBytes
   nonl-proj :       7037. kBytes
   fftplans  :        254. kBytes
   grid      :        864. kBytes
   one-center:         31. kBytes
   wavefun   :        833. kBytes
 
     INWAV:  cpu time      0.0000: real time      0.0001
 Broyden mixing: mesh for mixing (old mesh)
   NGX =  9   NGY =  9   NGZ = 17
  (NGX  = 40   NGY  = 40   NGZ  = 72)
  gives a total of   1377 points

 initial charge density was supplied:
 charge density of overlapping atoms calculated
 number of electron      32.0000000 magnetization 
 keeping initial charge density in first step


--------------------------------------------------------------------------------------------------------


 Maximum index for augmentation-charges          752 (set IRDMAX)


--------------------------------------------------------------------------------------------------------


 First call to EWALD:  gamma=   0.566
 Maximum number of real-space cells 3x 3x 2
 Maximum number of reciprocal cells 2x 2x 4

    FEWALD:  cpu time      0.0015: real time      0.0015


--------------------------------------- Iteration      1(   1)  ---------------------------------------


    POTLOK:  cpu time      0.0038: real time      0.0039
    SETDIJ:  cpu time      0.0023: real time      0.0023
     EDDAV:  cpu time      0.3182: real time      0.3199
       DOS:  cpu time      0.0005: real time      0.0005
    --------------------------------------------
      LOOP:  cpu time      0.3248: real time      0.3266

 eigenvalue-minimisations  :  3384
 total energy-change (2. order) : 0.1423389E+03  (-0.2321532E+04)
 number of electron      32.0000000 magnetization 
 augmentation part       32.0000000 magnetization 

 Free energy of the ion-electron system (eV)
  ---------------------------------------------------
  alpha Z        PSCENC =       311.77671012
  Ewald energy   TEWEN  =     -4278.02922384
  -Hartree energ DENC   =      -801.99724909
  -exchange      EXHF   =         0.00000000
  -V(xc)+E(xc)   XCENC  =       127.58660244
  PAW double counting   =      4131.50523274    -4061.67189606
  entropy T*S    EENTRO =        -0.00135214
  eigenvalues    EBANDS =      -143.25957477
  atomic energy  EATOM  =      4856.42966544
  Solvation  Ediel_sol  =         0.00000000
  ---------------------------------------------------
  free energy    TOTEN  =       142.33891484 eV

  energy without entropy =      142.34026699  energy(sigma->0) =      142.33959092


--------------------------------------------------------------------------------------------------------




--------------------------------------- Iteration      1(   2)  ---------------------------------------


     EDDAV:  cpu time      0.3296: real time      0.3317
       DOS:  cpu time      0.0004: real time      0.0004
    --------------------------------------------
      LOOP:  cpu time      0.3299: real time      0.3321

 eigenvalue-minimisations  :  3480
 total energy-change (2. order) :-0.1536955E+03  (-0.1528091E+03)
 number of electron      32.0000000 magnetization 
 augmentation part       32.0000000 magnetization 

 Free energy of the ion-electron system (eV)
  ---------------------------------------------------
  alpha Z        PSCENC =       311.77671012
  Ewald energy   TEWEN  =     -4278.02922384
  -Hartree energ DENC   =      -801.99724909
  -exchange      EXHF   =         0.00000000
  -V(xc)+E(xc)   XCENC  =       127.58660244
  PAW double counting   =      4131.50523274    -4061.67189606
  entropy T*S    EENTRO =        -0.00378124
  eigenvalues    EBANDS =      -296.95268325
  atomic energy  EATOM  =      4856.42966544
  Solvation  Ediel_sol  =         0.00000000
  ---------------------------------------------------
  free energy    TOTEN  =       -11.35662273 eV

  energy without entropy =      -11.35284148  energy(sigma->0) =      -11.35473211


--------------------------------------------------------------------------------------------------------




--------------------------------------- Iteration      1(   3)  ---------------------------------------


     EDDAV:  cpu time      0.4797: real time      0.4821
       DOS:  cpu time      0.0004: real time      0.0004
    --------------------------------------------
      LOOP:  cpu time      0.4800: real time      0.4824

 eigenvalue-minimisations  :  4368
 total energy-change (2. order) :-0.1364767E+01  (-0.1361404E+01)
 number of electron      32.0000000 magnetization 
 augmentation part       32.0000000 magnetization 

 Free energy of the ion-electron system (eV)
  ---------------------------------------------------
  alpha Z        PSCENC =       311.77671012
  Ewald energy   TEWEN  =     -4278.02922384
  -Hartree energ DENC   =      -801.99724909
  -exchange      EXHF   =         0.00000000
  -V(xc)+E(xc)   XCENC  =       127.58660244
  PAW double counting   =      4131.50523274    -4061.67189606
  entropy T*S    EENTRO =        -0.00416798
  eigenvalues    EBANDS =      -298.31706310
  atomic energy  EATOM  =      4856.42966544
  Solvation  Ediel_sol  =         0.00000000
  ---------------------------------------------------
  free energy    TOTEN  =       -12.72138932 eV

  energy without entropy =      -12.71722133  energy(sigma->0) =      -12.71930532


--------------------------------------------------------------------------------------------------------




--------------------------------------- Iteration      1(   4)  ---------------------------------------


     EDDAV:  cpu time      0.6015: real time      0.6044
       DOS:  cpu time      0.0004: real time      0.0004
    --------------------------------------------
      LOOP:  cpu time      0.6019: real time      0.6048

 eigenvalue-minimisations  :  5016
 total energy-change (2. order) :-0.4585469E-02  (-0.4585337E-02)
 number of electron      32.0000000 magnetization 
 augmentation part       32.0000000 magnetization 

 Free energy of the ion-electron system (eV)
  ---------------------------------------------------
  alpha Z        PSCENC =       311.77671012
  Ewald energy   TEWEN  =     -4278.02922384
  -Hartree energ DENC   =      -801.99724909
  -exchange      EXHF   =         0.00000000
  -V(xc)+E(xc)   XCENC  =       127.58660244
  PAW double counting   =      4131.50523274    -4061.67189606
  entropy T*S    EENTRO =        -0.00416450
  eigenvalues    EBANDS =      -298.32165205
  atomic energy  EATOM  =      4856.42966544
  Solvation  Ediel_sol  =         0.00000000
  ---------------------------------------------------
  free energy    TOTEN  =       -12.72597479 eV

  energy without entropy =      -12.72181028  energy(sigma->0) =      -12.72389254


--------------------------------------------------------------------------------------------------------




--------------------------------------- Iteration      1(   5)  ---------------------------------------


     EDDAV:  cpu time      0.5283: real time      0.5308
       DOS:  cpu time      0.0004: real time      0.0004
    CHARGE:  cpu time      0.0237: real time      0.0238
    MIXING:  cpu time      0.0003: real time      0.0003
    --------------------------------------------
      LOOP:  cpu time      0.5527: real time      0.5553

 eigenvalue-minimisations  :  4608
 total energy-change (2. order) :-0.2323567E-05  (-0.2324641E-05)
 number of electron      32.0000000 magnetization 
 augmentation part        7.9577453 magnetization 

 Broyden mixing:
  rms(total) = 0.20987E+01    rms(broyden)= 0.20986E+01
  rms(prec ) = 0.23042E+01
  weight for this iteration     100.00

 Free energy of the ion-electron system (eV)
  ---------------------------------------------------
  alpha Z        PSCENC =       311.77671012
  Ewald energy   TEWEN  =     -4278.02922384
  -Hartree energ DENC   =      -801.99724909
  -exchange      EXHF   =         0.00000000
  -V(xc)+E(xc)   XCENC  =       127.58660244
  PAW double counting   =      4131.50523274    -4061.67189606
  entropy T*S    EENTRO =        -0.00416447
  eigenvalues    EBANDS =      -298.32165440
  atomic energy  EATOM  =      4856.42966544
  Solvation  Ediel_sol  =         0.00000000
  ---------------------------------------------------
  free energy    TOTEN  =       -12.72597711 eV

  energy without entropy =      -12.72181264  energy(sigma->0) =      -12.72389487


--------------------------------------------------------------------------------------------------------




--------------------------------------- Iteration      1(   6)  ---------------------------------------


    POTLOK:  cpu time      0.0035: real time      0.0037
    SETDIJ:  cpu time      0.0021: real time      0.0021
     EDDAV:  cpu time      0.3348: real time      0.3365
       DOS:  cpu time      0.0004: real time      0.0004
    CHARGE:  cpu time      0.0229: real time      0.0230
    MIXING:  cpu time      0.0003: real time      0.0003
    --------------------------------------------
      LOOP:  cpu time      0.3640: real time      0.3659

 eigenvalue-minimisations  :  3528
 total energy-change (2. order) : 0.6626389E+00  (-0.2505776E+00)
 number of electron      32.0000000 magnetization 
 augmentation part        8.1838514 magnetization 

 Broyden mixing:
  rms(total) = 0.67176E+00    rms(broyden)= 0.67175E+00
  rms(prec ) = 0.70939E+00
  weight for this iteration     100.00

 eigenvalues of (default mixing * dielectric matrix)
  average eigenvalue GAMMA=   1.4461
  1.4461

 Free energy of the ion-electron system (eV)
  ---------------------------------------------------
  alpha Z        PSCENC =       311.77671012
  Ewald energy   TEWEN  =     -4278.02922384
  -Hartree energ DENC   =      -771.49657042
  -exchange      EXHF   =         0.00000000
  -V(xc)+E(xc)   XCENC  =       126.27612120
  PAW double counting   =      4470.55518311    -4404.81029292
  entropy T*S    EENTRO =        -0.00429729
  eigenvalues    EBANDS =      -322.76063357
  atomic energy  EATOM  =      4856.42966544
  Solvation  Ediel_sol  =         0.00000000
  ---------------------------------------------------
  free energy    TOTEN  =       -12.06333816 eV

  energy without entropy =      -12.05904087  energy(sigma->0) =      -12.06118952


--------------------------------------------------------------------------------------------------------




--------------------------------------- Iteration      1(   7)  ---------------------------------------


    POTLOK:  cpu time      0.0034: real time      0.0036
    SETDIJ:  cpu time      0.0020: real time      0.0020
     EDDAV:  cpu time      0.4991: real time      0.5014
       DOS:  cpu time      0.0004: real time      0.0004
    CHARGE:  cpu time      0.0227: real time      0.0228
    MIXING:  cpu time      0.0003: real time      0.0003
    --------------------------------------------
      LOOP:  cpu time      0.5278: real time      0.5305

 eigenvalue-minimisations  :  4608
 total energy-change (2. order) : 0.3582438E-01  (-0.1606256E-01)
 number of electron      32.0000000 magnetization 
 augmentation part        8.2360455 magnetization 

 Broyden mixing:
  rms(total) = 0.19696E+00    rms(broyden)= 0.19696E+00
  rms(prec ) = 0.20761E+00
  weight for this iteration     100.00

 eigenvalues of (default mixing * dielectric matrix)
  average eigenvalue GAMMA=   1.9319
  1.1799  2.6840

 Free energy of the ion-electron system (eV)
  ---------------------------------------------------
  alpha Z        PSCENC =       311.77671012
  Ewald energy   TEWEN  =     -4278.02922384
  -Hartree energ DENC   =      -763.43603460
  -exchange      EXHF   =         0.00000000
  -V(xc)+E(xc)   XCENC  =       125.90942401
  PAW double counting   =      4621.65207793    -4557.07644621
  entropy T*S    EENTRO =        -0.00450403
  eigenvalues    EBANDS =      -329.24918261
  atomic energy  EATOM  =      4856.42966544
  Solvation  Ediel_sol  =         0.00000000
  ---------------------------------------------------
  free energy    TOTEN  =       -12.02751378 eV

  energy without entropy =      -12.02300975  energy(sigma->0) =      -12.02526177


--------------------------------------------------------------------------------------------------------




--------------------------------------- Iteration      1(   8)  ---------------------------------------


    POTLOK:  cpu time      0.0034: real time      0.0036
    SETDIJ:  cpu time      0.0020: real time      0.0020
     EDDAV:  cpu time      0.3325: real time      0.3341
       DOS:  cpu time      0.0004: real time      0.0004
    CHARGE:  cpu time      0.0226: real time      0.0227
    MIXING:  cpu time      0.0003: real time      0.0003
    --------------------------------------------
      LOOP:  cpu time      0.3612: real time      0.3631

 eigenvalue-minimisations  :  3552
 total energy-change (2. order) : 0.2428738E-02  (-0.7432076E-03)
 number of electron      32.0000000 magnetization 
 augmentation part        8.2281065 magnetization 

 Broyden mixing:
  rms(total) = 0.29247E-01    rms(broyden)= 0.29238E-01
  rms(prec ) = 0.31169E-01
  weight for this iteration     100.00

 eigenvalues of (default mixing * dielectric matrix)
  average eigenvalue GAMMA=   1.5900
  1.0969  1.2665  2.4067

 Free energy of the ion-electron system (eV)
  ---------------------------------------------------
  alpha Z        PSCENC =       311.77671012
  Ewald energy   TEWEN  =     -4278.02922384
  -Hartree energ DENC   =      -763.28710337
  -exchange      EXHF   =         0.00000000
  -V(xc)+E(xc)   XCENC  =       125.87813549
  PAW double counting   =      4708.24017117    -4643.74859060
  entropy T*S    EENTRO =        -0.00453798
  eigenvalues    EBANDS =      -329.28031149
  atomic energy  EATOM  =      4856.42966544
  Solvation  Ediel_sol  =         0.00000000
  ---------------------------------------------------
  free energy    TOTEN  =       -12.02508504 eV

  energy without entropy =      -12.02054707  energy(sigma->0) =      -12.02281606


--------------------------------------------------------------------------------------------------------




--------------------------------------- Iteration      1(   9)  ---------------------------------------


    POTLOK:  cpu time      0.0032: real time      0.0034
    SETDIJ:  cpu time      0.0019: real time      0.0019
     EDDAV:  cpu time      0.4921: real time      0.4944
       DOS:  cpu time      0.0004: real time      0.0004
    CHARGE:  cpu time      0.0229: real time      0.0229
    MIXING:  cpu time      0.0007: real time      0.0007
    --------------------------------------------
      LOOP:  cpu time      0.5211: real time      0.5237

 eigenvalue-minimisations  :  4392
 total energy-change (2. order) : 0.1825032E-03  (-0.2482474E-04)
 number of electron      32.0000000 magnetization 
 augmentation part        8.2272369 magnetization 

 Broyden mixing:
  rms(total) = 0.33472E-02    rms(broyden)= 0.33462E-02
  rms(prec ) = 0.38702E-02
  weight for this iteration     100.00

 eigenvalues of (default mixing * dielectric matrix)
  average eigenvalue GAMMA=   1.6781
  2.5301  1.0311  1.2111  1.9402

 Free energy of the ion-electron system (eV)
  ---------------------------------------------------
  alpha Z        PSCENC =       311.77671012
  Ewald energy   TEWEN  =     -4278.02922384
  -Hartree energ DENC   =      -763.58565783
  -exchange      EXHF   =         0.00000000
  -V(xc)+E(xc)   XCENC  =       125.89310231
  PAW double counting   =      4698.75098337    -4634.17751134
  entropy T*S    EENTRO =        -0.00451785
  eigenvalues    EBANDS =      -329.07845293
  atomic energy  EATOM  =      4856.42966544
  Solvation  Ediel_sol  =         0.00000000
  ---------------------------------------------------
  free energy    TOTEN  =       -12.02490254 eV

  energy without entropy =      -12.02038469  energy(sigma->0) =      -12.02264362


--------------------------------------------------------------------------------------------------------




--------------------------------------- Iteration      1(  10)  ---------------------------------------


    POTLOK:  cpu time      0.0034: real time      0.0036
    SETDIJ:  cpu time      0.0021: real time      0.0021
     EDDAV:  cpu time      0.4292: real time      0.4312
       DOS:  cpu time      0.0004: real time      0.0004
    CHARGE:  cpu time      0.0228: real time      0.0229
    MIXING:  cpu time      0.0004: real time      0.0004
    --------------------------------------------
      LOOP:  cpu time      0.4582: real time      0.4605

 eigenvalue-minimisations  :  4080
 total energy-change (2. order) :-0.1332152E-04  (-0.1060600E-05)
 number of electron      32.0000000 magnetization 
 augmentation part        8.2274097 magnetization 

 Broyden mixing:
  rms(total) = 0.10482E-02    rms(broyden)= 0.10479E-02
  rms(prec ) = 0.12137E-02
  weight for this iteration     100.00

 eigenvalues of (default mixing * dielectric matrix)
  average eigenvalue GAMMA=   1.7297
  2.6481  2.2695  0.9888  1.2093  1.5327

 Free energy of the ion-electron system (eV)
  ---------------------------------------------------
  alpha Z        PSCENC =       311.77671012
  Ewald energy   TEWEN  =     -4278.02922384
  -Hartree energ DENC   =      -763.59829149
  -exchange      EXHF   =         0.00000000
  -V(xc)+E(xc)   XCENC  =       125.89326834
  PAW double counting   =      4701.85267757    -4637.24797650
  entropy T*S    EENTRO =        -0.00451462
  eigenvalues    EBANDS =      -329.09723089
  atomic energy  EATOM  =      4856.42966544
  Solvation  Ediel_sol  =         0.00000000
  ---------------------------------------------------
  free energy    TOTEN  =       -12.02491586 eV

  energy without entropy =      -12.02040124  energy(sigma->0) =      -12.02265855


--------------------------------------------------------------------------------------------------------




--------------------------------------- Iteration      1(  11)  ---------------------------------------


    POTLOK:  cpu time      0.0033: real time      0.0035
    SETDIJ:  cpu time      0.0020: real time      0.0020
     EDDAV:  cpu time      0.3422: real time      0.3439
       DOS:  cpu time      0.0004: real time      0.0004
    --------------------------------------------
      LOOP:  cpu time      0.3479: real time      0.3498

 eigenvalue-minimisations  :  3432
 total energy-change (2. order) : 0.5169932E-06  (-0.1069559E-06)
 number of electron      32.0000000 magnetization 
 augmentation part        8.2274097 magnetization 

 Free energy of the ion-electron system (eV)
  ---------------------------------------------------
  alpha Z        PSCENC =       311.77671012
  Ewald energy   TEWEN  =     -4278.02922384
  -Hartree energ DENC   =      -763.61376243
  -exchange      EXHF   =         0.00000000
  -V(xc)+E(xc)   XCENC  =       125.89389156
  PAW double counting   =      4702.33970507    -4637.72010599
  entropy T*S    EENTRO =        -0.00451523
  eigenvalues    EBANDS =      -329.09728004
  atomic energy  EATOM  =      4856.42966544
  Solvation  Ediel_sol  =         0.00000000
  ---------------------------------------------------
  free energy    TOTEN  =       -12.02491535 eV

  energy without entropy =      -12.02040011  energy(sigma->0) =      -12.02265773


--------------------------------------------------------------------------------------------------------




 average (electrostatic) potential at core
  the test charge radii are     0.9952
  (the norm of the test charge is              1.0000)
       1 -89.0651       2 -89.0651
 
 
 
 E-fermi :  11.6269     XC(G=0): -13.8679     alpha+bet :-17.0440

 Fermi energy:        11.6268902866

 k-point     1 :       0.0000    0.0000    0.0000
  band No.  band energies     occupation 
      1     -41.0883      2.00000
      2     -40.8829      2.00000
      3     -40.8829      2.00000
      4     -40.8394      2.00000
      5     -40.8394      2.00000
      6     -40.7236      2.00000
      7       1.6369      2.00000
      8       4.3143      2.00000
      9       7.5443      2.00000
     10       8.0647      2.00000
     11       8.0647      2.00000
     12       8.4488      2.00000
     13       8.4488      2.00000
     14       9.7522      2.00000
     15       9.7522      2.00000
     16      10.8154      2.00000
     17      11.4113      2.00000
     18      11.4113      2.00000
     19      16.5026      0.00000
     20      26.6749      0.00000
     21      27.3300      0.00000
     22      28.8852      0.00000
     23      32.9296      0.00000
     24      32.9296      0.00000

 k-point     2 :       0.1000    0.0000    0.0000
  band No.  band energies     occupation 
      1     -41.0759      2.00000
      2     -40.9235      2.00000
      3     -40.8953      2.00000
      4     -40.8801      2.00000
      5     -40.8478      2.00000
      6     -40.7267      2.00000
      7       2.0070      2.00000
      8       4.6500      2.00000
      9       7.4724      2.00000
     10       8.0751      2.00000
     11       8.2934      2.00000
     12       8.3501      2.00000
     13       8.7208      2.00000
     14       9.1364      2.00000
     15       9.5733      2.00000
     16       9.7211      2.00000
     17      11.4775      1.99998
     18      13.1873      0.00000
     19      16.4622      0.00000
     20      27.1543      0.00000
     21      27.8695      0.00000
     22      29.2822      0.00000
     23      31.2381      0.00000
     24      31.4072      0.00000

 k-point     3 :       0.2000    0.0000    0.0000
  band No.  band energies     occupation 
      1     -41.0394      2.00000
      2     -41.0270      2.00000
      3     -40.9844      2.00000
      4     -40.9247      2.00000
      5     -40.8689      2.00000
      6     -40.7360      2.00000
      7       3.0133      2.00000
      8       5.3850      2.00000
      9       7.2338      2.00000
     10       7.7257      2.00000
     11       7.7828      2.00000
     12       8.7225      2.00000
     13       9.1615      2.00000
     14       9.1780      2.00000
     15       9.1933      2.00000
     16       9.4869      2.00000
     17      11.5844      1.77060
     18      15.4122      0.00000
     19      16.3809      0.00000
     20      25.8516      0.00000
     21      28.4800      0.00000
     22      28.9423      0.00000
     23      29.7191      0.00000
     24      29.9124      0.00000

 k-point     4 :       0.3000   -0.0000    0.0000
  band No.  band energies     occupation 
      1     -41.1548      2.00000
      2     -41.1107      2.00000
      3     -40.9895      2.00000
      4     -40.9606      2.00000
      5     -40.8959      2.00000
      6     -40.7538      2.00000
      7       4.2348      2.00000
      8       5.5011      2.00000
      9       6.6326      2.00000
     10       7.5093      2.00000
     11       7.8838      2.00000
     12       8.6654      2.00000
     13       8.7713      2.00000
     14       9.9164      2.00000
     15      10.3288      2.00000
     16      10.5739      2.00000
     17      11.6423      0.66280
     18      16.4820      0.00000
     19      17.6681      0.00000
     20      22.1239      0.00000
     21      26.5108      0.00000
     22      26.9279      0.00000
     23      28.8188      0.00000
     24      29.7790      0.00000

 k-point     5 :       0.4000    0.0000    0.0000
  band No.  band energies     occupation 
      1     -41.2580      2.00000
      2     -41.2116      2.00000
      3     -40.9892      2.00000
      4     -40.9387      2.00000
      5     -40.9189      2.00000
      6     -40.7785      2.00000
      7       4.8886      2.00000
      8       5.1767      2.00000
      9       5.9546      2.00000
     10       8.0483      2.00000
     11       8.2795      2.00000
     12       8.4819      2.00000
     13       8.7150      2.00000
     14      11.4588      2.00000
     15      11.6459      0.59113
     16      11.6557      0.41500
     17      11.8514      0.00000
     18      17.2575      0.00000
     19      18.4572      0.00000
     20      19.6572      0.00000
     21      24.3061      0.00000
     22      24.5488      0.00000
     23      25.6116      0.00000
     24      28.5050      0.00000

 k-point     6 :       0.5000    0.0000    0.0000
  band No.  band energies     occupation 
      1     -41.2977      2.00000
      2     -41.2489      2.00000
      3     -40.9999      2.00000
      4     -40.9277      2.00000
      5     -40.9128      2.00000
      6     -40.7941      2.00000
      7       4.9605      2.00000
      8       5.0588      2.00000
      9       5.7253      2.00000
     10       8.1399      2.00000
     11       8.3783      2.00000
     12       8.5925      2.00000
     13       8.9160      2.00000
     14      11.6556      0.41725
     15      11.9363      0.00000
     16      12.1487      0.00000
     17      13.9484      0.00000
     18      15.4630      0.00000
     19      19.0318      0.00000
     20      20.6073      0.00000
     21      21.3781      0.00000
     22      23.7421      0.00000
     23      25.0029      0.00000
     24      27.9089      0.00000

 k-point     7 :       0.1000    0.1000    0.0000
  band No.  band energies     occupation 
      1     -41.0512      2.00000
      2     -40.9882      2.00000
      3     -40.9599      2.00000
      4     -40.9091      2.00000
      5     -40.8680      2.00000
      6     -40.7327      2.00000
      7       2.7040      2.00000
      8       5.2357      2.00000
      9       7.1913      2.00000
     10       7.9866      2.00000
     11       8.1424      2.00000
     12       8.3054      2.00000
     13       8.9558      2.00000
     14       8.9667      2.00000
     15       9.3309      2.00000
     16       9.6369      2.00000
     17      11.5014      1.99962
     18      14.8266      0.00000
     19      16.4035      0.00000
     20      27.1950      0.00000
     21      27.9180      0.00000
     22      28.7894      0.00000
     23      29.8225      0.00000
     24      30.6426      0.00000

 k-point     8 :       0.2000    0.1000    0.0000
  band No.  band energies     occupation 
      1     -41.0956      2.00000
      2     -41.0669      2.00000
      3     -41.0077      2.00000
      4     -40.9507      2.00000
      5     -40.9005      2.00000
      6     -40.7468      2.00000
      7       3.8957      2.00000
      8       5.8548      2.00000
      9       7.0072      2.00000
     10       7.0576      2.00000
     11       7.7077      2.00000
     12       8.4526      2.00000
     13       8.9406      2.00000
     14       9.2566      2.00000
     15      10.0531      2.00000
     16      10.4762      2.00000
     17      11.5042      1.99948
     18      16.4343      0.00000
     19      16.9594      0.00000
     20      24.0340      0.00000
     21      25.9273      0.00000
     22      27.9364      0.00000
     23      29.9030      0.00000
     24      30.6874      0.00000

 k-point     9 :       0.3000    0.1000    0.0000
  band No.  band energies     occupation 
      1     -41.2071      2.00000
      2     -41.1679      2.00000
      3     -40.9934      2.00000
      4     -40.9558      2.00000
      5     -40.9314      2.00000
      6     -40.7693      2.00000
      7       4.9604      2.00000
      8       5.6012      2.00000
      9       6.2559      2.00000
     10       7.5241      2.00000
     11       8.1457      2.00000
     12       8.1703      2.00000
     13       8.7482      2.00000
     14      10.0814      2.00000
     15      11.1809      2.00000
     16      11.4919      1.99987
     17      11.9537      0.00000
     18      17.0147      0.00000
     19      19.1274      0.00000
     20      20.1705      0.00000
     21      23.7799      0.00000
     22      26.4971      0.00000
     23      27.0213      0.00000
     24      28.9346      0.00000

 k-point    10 :       0.4000    0.1000    0.0000
  band No.  band energies     occupation 
      1     -41.2758      2.00000
      2     -41.2289      2.00000
      3     -41.0196      2.00000
      4     -40.9503      2.00000
      5     -40.9130      2.00000
      6     -40.7936      2.00000
      7       5.2505      2.00000
      8       5.3477      2.00000
      9       5.8383      2.00000
     10       8.0900      2.00000
     11       8.3316      2.00000
     12       8.3383      2.00000
     13       8.6827      2.00000
     14      11.3654      2.00000
     15      11.4745      1.99998
     16      11.7622      0.00013
     17      13.7017      0.00000
     18      16.7146      0.00000
     19      18.7024      0.00000
     20      20.8084      0.00000
     21      21.5834      0.00000
     22      23.9552      0.00000
     23      25.4879      0.00000
     24      27.8337      0.00000

 k-point    11 :       0.2000    0.2000    0.0000
  band No.  band energies     occupation 
      1     -41.1588      2.00000
      2     -41.1574      2.00000
      3     -40.9990      2.00000
      4     -40.9620      2.00000
      5     -40.9551      2.00000
      6     -40.7661      2.00000
      7       5.1260      2.00000
      8       6.4657      2.00000
      9       6.4740      2.00000
     10       6.5404      2.00000
     11       7.9326      2.00000
     12       7.9471      2.00000
     13       8.9481      2.00000
     14       9.3150      2.00000
     15      11.1640      2.00000
     16      11.3168      2.00000
     17      12.0370      0.00000
     18      16.9983      0.00000
     19      19.0098      0.00000
     20      21.6225      0.00000
     21      22.5284      0.00000
     22      27.2560      0.00000
     23      28.6537      0.00000
     24      29.0863      0.00000

 k-point    12 :       0.3000    0.2000    0.0000
  band No.  band energies     occupation 
      1     -41.2260      2.00000
      2     -41.1938      2.00000
      3     -41.0554      2.00000
      4     -41.0019      2.00000
      5     -40.9136      2.00000
      6     -40.7932      2.00000
      7       5.9108      2.00000
      8       6.0648      2.00000
      9       6.1161      2.00000
     10       7.3048      2.00000
     11       7.7973      2.00000
     12       8.4433      2.00000
     13       8.4990      2.00000
     14      10.1381      2.00000
     15      11.1734      2.00000
     16      11.6243      1.05948
     17      13.7630      0.00000
     18      17.9997      0.00000
     19      18.9261      0.00000
     20      20.5302      0.00000
     21      21.1274      0.00000
     22      25.6041      0.00000
     23      26.5290      0.00000
     24      27.5942      0.00000

 k-point    13 :       0.4000    0.2000    0.0000
  band No.  band energies     occupation 
      1     -41.2500      2.00000
      2     -41.2031      2.00000
      3     -41.0824      2.00000
      4     -41.0193      2.00000
      5     -40.8863      2.00000
      6     -40.8123      2.00000
      7       5.9233      2.00000
      8       5.9581      2.00000
      9       6.0271      2.00000
     10       7.8951      2.00000
     11       7.9403      2.00000
     12       8.0535      2.00000
     13       8.7753      2.00000
     14      10.9303      2.00000
     15      11.1214      2.00000
     16      11.4248      2.00000
     17      15.3669      0.00000
     18      15.9185      0.00000
     19      19.2203      0.00000
     20      20.8588      0.00000
     21      22.3446      0.00000
     22      23.4262      0.00000
     23      25.8203      0.00000
     24      27.0180      0.00000

 k-point    14 :       0.3000    0.3000    0.0000
  band No.  band energies     occupation 
      1     -41.2105      2.00000
      2     -41.1745      2.00000
      3     -41.1236      2.00000
      4     -41.0777      2.00000
      5     -40.8709      2.00000
      6     -40.8250      2.00000
      7       6.0178      2.00000
      8       6.4699      2.00000
      9       6.7305      2.00000
     10       7.1847      2.00000
     11       7.7485      2.00000
     12       8.0278      2.00000
     13       8.8699      2.00000
     14      10.5134      2.00000
     15      10.9478      2.00000
     16      11.2579      2.00000
     17      15.3935      0.00000
     18      16.6572      0.00000
     19      18.0790      0.00000
     20      21.7300      0.00000
     21      23.2969      0.00000
     22      24.5532      0.00000
     23      25.3989      0.00000
     24      25.7494      0.00000

 k-point    15 :       0.0000    0.0000    0.1250
  band No.  band energies     occupation 
      1     -41.0757      2.00000
      2     -40.8818      2.00000
      3     -40.8818      2.00000
      4     -40.8413      2.00000
      5     -40.8413      2.00000
      6     -40.7381      2.00000
      7       1.7745      2.00000
      8       4.2962      2.00000
      9       7.5088      2.00000
     10       8.0438      2.00000
     11       8.0438      2.00000
     12       8.4079      2.00000
     13       8.4079      2.00000
     14       9.8551      2.00000
     15       9.8551      2.00000
     16      10.1985      2.00000
     17      11.3828      2.00000
     18      11.3828      2.00000
     19      17.3690      0.00000
     20      26.2232      0.00000
     21      27.8579      0.00000
     22      28.5911      0.00000
     23      32.2951      0.00000
     24      32.2951      0.00000

 k-point    16 :       0.1000    0.0000    0.1250
  band No.  band energies     occupation 
      1     -41.0639      2.00000
      2     -40.9209      2.00000
      3     -40.8934      2.00000
      4     -40.8823      2.00000
      5     -40.8494      2.00000
      6     -40.7392      2.00000
      7       2.1418      2.00000
      8       4.6387      2.00000
      9       7.4756      2.00000
     10       7.9841      2.00000
     11       8.1841      2.00000
     12       8.3201      2.00000
     13       8.6756      2.00000
     14       9.0840      2.00000
     15       9.6954      2.00000
     16       9.7274      2.00000
     17      11.4380      2.00000
     18      12.6566      0.00000
     19      17.4495      0.00000
     20      26.7564      0.00000
     21      28.3108      0.00000
     22      29.0231      0.00000
     23      30.5911      0.00000
     24      31.3014      0.00000

 k-point    17 :       0.2000    0.0000    0.1250
  band No.  band energies     occupation 
      1     -41.0479      2.00000
      2     -41.0073      2.00000
      3     -40.9868      2.00000
      4     -40.9225      2.00000
      5     -40.8709      2.00000
      6     -40.7460      2.00000
      7       3.1318      2.00000
      8       5.3970      2.00000
      9       7.2665      2.00000
     10       7.4659      2.00000
     11       7.7844      2.00000
     12       8.6013      2.00000
     13       8.9899      2.00000
     14       9.3522      2.00000
     15       9.4174      2.00000
     16       9.5352      2.00000
     17      11.5215      1.99711
     18      14.2338      0.00000
     19      17.8376      0.00000
     20      25.9454      0.00000
     21      28.2792      0.00000
     22      29.0991      0.00000
     23      29.2058      0.00000
     24      30.3587      0.00000

 k-point    18 :       0.3000   -0.0000    0.1250
  band No.  band energies     occupation 
      1     -41.1575      2.00000
      2     -41.1150      2.00000
      3     -40.9756      2.00000
      4     -40.9581      2.00000
      5     -40.8986      2.00000
      6     -40.7607      2.00000
      7       4.2871      2.00000
      8       5.5318      2.00000
      9       6.6155      2.00000
     10       7.3359      2.00000
     11       7.9101      2.00000
     12       8.7787      2.00000
     13       8.8353      2.00000
     14       9.9721      2.00000
     15      10.3512      2.00000
     16      10.5227      2.00000
     17      11.5689      1.89879
     18      15.3626      0.00000
     19      18.8075      0.00000
     20      22.4043      0.00000
     21      26.7405      0.00000
     22      26.7581      0.00000
     23      28.3984      0.00000
     24      30.2700      0.00000

 k-point    19 :       0.4000    0.0000    0.1250
  band No.  band energies     occupation 
      1     -41.2592      2.00000
      2     -41.2158      2.00000
      3     -40.9863      2.00000
      4     -40.9285      2.00000
      5     -40.9214      2.00000
      6     -40.7820      2.00000
      7       4.8188      2.00000
      8       5.1829      2.00000
      9       6.1208      2.00000
     10       7.3871      2.00000
     11       8.5111      2.00000
     12       8.5703      2.00000
     13       9.2803      2.00000
     14      11.3790      2.00000
     15      11.4752      1.99998
     16      11.7536      0.00034
     17      11.7609      0.00015
     18      16.3807      0.00000
     19      18.5003      0.00000
     20      20.4895      0.00000
     21      24.0223      0.00000
     22      24.8359      0.00000
     23      25.9493      0.00000
     24      28.7232      0.00000

 k-point    20 :       0.5000    0.0000    0.1250
  band No.  band energies     occupation 
      1     -41.2989      2.00000
      2     -41.2533      2.00000
      3     -40.9971      2.00000
      4     -40.9304      2.00000
      5     -40.9053      2.00000
      6     -40.7958      2.00000
      7       4.8906      2.00000
      8       4.9918      2.00000
      9       5.9630      2.00000
     10       7.4511      2.00000
     11       8.4722      2.00000
     12       8.6668      2.00000
     13       9.7418      2.00000
     14      11.4679      1.99999
     15      11.9575      0.00000
     16      12.1423      0.00000
     17      13.6979      0.00000
     18      15.3436      0.00000
     19      18.9004      0.00000
     20      19.6787      0.00000
     21      22.5629      0.00000
     22      24.0440      0.00000
     23      25.1372      0.00000
     24      28.1906      0.00000

 k-point    21 :       0.1000    0.1000    0.1250
  band No.  band energies     occupation 
      1     -41.0453      2.00000
      2     -40.9810      2.00000
      3     -40.9616      2.00000
      4     -40.9086      2.00000
      5     -40.8698      2.00000
      6     -40.7435      2.00000
      7       2.8302      2.00000
      8       5.2402      2.00000
      9       7.2240      2.00000
     10       7.6895      2.00000
     11       8.0682      2.00000
     12       8.2998      2.00000
     13       8.8838      2.00000
     14       9.1126      2.00000
     15       9.4198      2.00000
     16       9.7133      2.00000
     17      11.4484      2.00000
     18      13.8683      0.00000
     19      17.6905      0.00000
     20      27.1308      0.00000
     21      27.9789      0.00000
     22      28.7289      0.00000
     23      29.3698      0.00000
     24      30.9032      0.00000

 k-point    22 :       0.2000    0.1000    0.1250
  band No.  band energies     occupation 
      1     -41.1003      2.00000
      2     -41.0703      2.00000
      3     -40.9913      2.00000
      4     -40.9496      2.00000
      5     -40.9024      2.00000
      6     -40.7543      2.00000
      7       3.9877      2.00000
      8       5.8918      2.00000
      9       6.8754      2.00000
     10       7.0762      2.00000
     11       7.6734      2.00000
     12       8.3525      2.00000
     13       9.0912      2.00000
     14       9.2457      2.00000
     15      10.1686      2.00000
     16      10.4213      2.00000
     17      11.4508      2.00000
     18      15.0849      0.00000
     19      18.4694      0.00000
     20      24.2179      0.00000
     21      26.0594      0.00000
     22      27.8866      0.00000
     23      29.3432      0.00000
     24      31.2513      0.00000

 k-point    23 :       0.3000    0.1000    0.1250
  band No.  band energies     occupation 
      1     -41.2086      2.00000
      2     -41.1718      2.00000
      3     -40.9923      2.00000
      4     -40.9452      2.00000
      5     -40.9326      2.00000
      6     -40.7734      2.00000
      7       4.9390      2.00000
      8       5.6378      2.00000
      9       6.3274      2.00000
     10       7.2343      2.00000
     11       8.1236      2.00000
     12       8.5150      2.00000
     13       8.7639      2.00000
     14      10.0981      2.00000
     15      11.2304      2.00000
     16      11.2919      2.00000
     17      12.0181      0.00000
     18      16.1926      0.00000
     19      19.3906      0.00000
     20      20.9447      0.00000
     21      23.9068      0.00000
     22      26.0993      0.00000
     23      27.2306      0.00000
     24      29.1563      0.00000

 k-point    24 :       0.4000    0.1000    0.1250
  band No.  band energies     occupation 
      1     -41.2769      2.00000
      2     -41.2333      2.00000
      3     -41.0180      2.00000
      4     -40.9536      2.00000
      5     -40.9047      2.00000
      6     -40.7951      2.00000
      7       5.1261      2.00000
      8       5.3238      2.00000
      9       6.1119      2.00000
     10       7.3908      2.00000
     11       8.2031      2.00000
     12       8.7947      2.00000
     13       9.2041      2.00000
     14      11.2513      2.00000
     15      11.3712      2.00000
[...]
      1     -41.1531      2.00000
      2     -41.1531      2.00000
      3     -40.9283      2.00000
      4     -40.9283      2.00000
      5     -40.8521      2.00000
      6     -40.8521      2.00000
      7       5.0692      2.00000
      8       5.0692      2.00000
      9       6.6197      2.00000
     10       6.6197      2.00000
     11       8.5626      2.00000
     12       8.5626      2.00000
     13       9.6500      2.00000
     14       9.6500      2.00000
     15      10.8832      2.00000
     16      10.8832      2.00000
     17      11.5383      1.98779
     18      11.5383      1.98778
     19      23.1443      0.00000
     20      23.1443      0.00000
     21      26.0801      0.00000
     22      26.0801      0.00000
     23      29.9119      0.00000
     24      29.9119      0.00000

 k-point    61 :       0.4000    0.0000    0.5000
  band No.  band energies     occupation 
      1     -41.2539      2.00000
      2     -41.2539      2.00000
      3     -40.9537      2.00000
      4     -40.9537      2.00000
      5     -40.8393      2.00000
      6     -40.8393      2.00000
      7       4.9444      2.00000
      8       4.9444      2.00000
      9       6.3409      2.00000
     10       6.3409      2.00000
     11       9.7675      2.00000
     12       9.7675      2.00000
     13      10.1411      2.00000
     14      10.1411      2.00000
     15      11.6456      0.59680
     16      11.6456      0.59673
     17      12.2840      0.00000
     18      12.2840      0.00000
     19      20.1823      0.00000
     20      20.1823      0.00000
     21      25.9208      0.00000
     22      25.9208      0.00000
     23      28.1752      0.00000
     24      28.1752      0.00000

 k-point    62 :       0.5000    0.0000    0.5000
  band No.  band energies     occupation 
      1     -41.2921      2.00000
      2     -41.2921      2.00000
      3     -40.9635      2.00000
      4     -40.9635      2.00000
      5     -40.8344      2.00000
      6     -40.8344      2.00000
      7       4.8470      2.00000
      8       4.8470      2.00000
      9       6.2307      2.00000
     10       6.2307      2.00000
     11       9.7510      2.00000
     12       9.7510      2.00000
     13      10.7301      2.00000
     14      10.7301      2.00000
     15      12.0584      0.00000
     16      12.0584      0.00000
     17      13.3276      0.00000
     18      13.3276      0.00000
     19      18.2766      0.00000
     20      18.2766      0.00000
     21      25.9046      0.00000
     22      25.9046      0.00000
     23      27.4191      0.00000
     24      27.4191      0.00000

 k-point    63 :       0.1000    0.1000    0.5000
  band No.  band energies     occupation 
      1     -40.9937      2.00000
      2     -40.9937      2.00000
      3     -40.8942      2.00000
      4     -40.8942      2.00000
      5     -40.8678      2.00000
      6     -40.8678      2.00000
      7       4.4021      2.00000
      8       4.4021      2.00000
      9       7.0410      2.00000
     10       7.0410      2.00000
     11       7.7495      2.00000
     12       7.7495      2.00000
     13       8.8362      2.00000
     14       8.8362      2.00000
     15      10.6641      2.00000
     16      10.6641      2.00000
     17      11.1088      2.00000
     18      11.1088      2.00000
     19      24.2648      0.00000
     20      24.2648      0.00000
     21      28.0425      0.00000
     22      28.0425      0.00000
     23      29.0866      0.00000
     24      29.0866      0.00000

 k-point    64 :       0.2000    0.1000    0.5000
  band No.  band energies     occupation 
      1     -41.0998      2.00000
      2     -41.0998      2.00000
      3     -40.9302      2.00000
      4     -40.9302      2.00000
      5     -40.8545      2.00000
      6     -40.8545      2.00000
      7       5.1783      2.00000
      8       5.1783      2.00000
      9       6.8079      2.00000
     10       6.8079      2.00000
     11       7.6786      2.00000
     12       7.6786      2.00000
     13       9.4841      2.00000
     14       9.4841      2.00000
     15      10.8605      2.00000
     16      10.8605      2.00000
     17      11.4511      2.00000
     18      11.4511      2.00000
     19      24.1934      0.00000
     20      24.1934      0.00000
     21      26.5455      0.00000
     22      26.5455      0.00000
     23      28.1907      0.00000
     24      28.1907      0.00000

 k-point    65 :       0.3000    0.1000    0.5000
  band No.  band energies     occupation 
      1     -41.2057      2.00000
      2     -41.2057      2.00000
      3     -40.9663      2.00000
      4     -40.9663      2.00000
      5     -40.8403      2.00000
      6     -40.8403      2.00000
      7       5.2725      2.00000
      8       5.2725      2.00000
      9       6.5778      2.00000
     10       6.5778      2.00000
     11       8.6903      2.00000
     12       8.6903      2.00000
     13       9.6058      2.00000
     14       9.6058      2.00000
     15      11.5193      1.99766
     16      11.5193      1.99766
     17      12.3339      0.00000
     18      12.3339      0.00000
     19      21.8053      0.00000
     20      21.8053      0.00000
     21      26.0060      0.00000
     22      26.0060      0.00000
     23      27.1066      0.00000
     24      27.1066      0.00000

 k-point    66 :       0.4000    0.1000    0.5000
  band No.  band energies     occupation 
      1     -41.2702      2.00000
      2     -41.2702      2.00000
      3     -40.9890      2.00000
      4     -40.9890      2.00000
      5     -40.8312      2.00000
      6     -40.8312      2.00000
      7       5.1248      2.00000
      8       5.1248      2.00000
      9       6.3968      2.00000
     10       6.3968      2.00000
     11       9.1898      2.00000
     12       9.1898      2.00000
     13      10.3355      2.00000
     14      10.3355      2.00000
     15      11.6152      1.25821
     16      11.6152      1.25815
     17      14.0366      0.00000
     18      14.0366      0.00000
     19      18.9106      0.00000
     20      18.9106      0.00000
     21      25.8036      0.00000
     22      25.8036      0.00000
     23      26.4287      0.00000
     24      26.4287      0.00000

 k-point    67 :       0.2000    0.2000    0.5000
  band No.  band energies     occupation 
      1     -41.1740      2.00000
      2     -41.1740      2.00000
      3     -40.9870      2.00000
      4     -40.9870      2.00000
      5     -40.8395      2.00000
      6     -40.8395      2.00000
      7       5.6475      2.00000
      8       5.6475      2.00000
      9       6.9675      2.00000
     10       6.9675      2.00000
     11       7.5637      2.00000
     12       7.5637      2.00000
     13       9.3419      2.00000
     14       9.3419      2.00000
     15      11.6211      1.13093
     16      11.6211      1.13088
     17      12.4499      0.00000
     18      12.4499      0.00000
     19      23.0383      0.00000
     20      23.0383      0.00000
     21      25.1561      0.00000
     22      25.1561      0.00000
     23      26.7761      0.00000
     24      26.7761      0.00000

 k-point    68 :       0.3000    0.2000    0.5000
  band No.  band energies     occupation 
      1     -41.2250      2.00000
      2     -41.2250      2.00000
      3     -41.0392      2.00000
      4     -41.0392      2.00000
      5     -40.8277      2.00000
      6     -40.8277      2.00000
      7       5.7225      2.00000
      8       5.7225      2.00000
      9       6.8508      2.00000
     10       6.8508      2.00000
     11       8.1835      2.00000
     12       8.1835      2.00000
     13       9.2868      2.00000
     14       9.2868      2.00000
     15      11.6918      0.06618
     16      11.6918      0.06617
     17      14.5742      0.00000
     18      14.5743      0.00000
     19      20.3445      0.00000
     20      20.3445      0.00000
     21      23.7485      0.00000
     22      23.7485      0.00000
     23      27.1693      0.00000
     24      27.1693      0.00000

 k-point    69 :       0.4000    0.2000    0.5000
  band No.  band energies     occupation 
      1     -41.2425      2.00000
      2     -41.2425      2.00000
      3     -41.0609      2.00000
      4     -41.0609      2.00000
      5     -40.8232      2.00000
      6     -40.8232      2.00000
      7       5.7144      2.00000
      8       5.7144      2.00000
      9       6.7740      2.00000
     10       6.7740      2.00000
     11       8.2709      2.00000
     12       8.2709      2.00000
     13       9.7291      2.00000
     14       9.7291      2.00000
     15      11.5433      1.98198
     16      11.5433      1.98198
     17      16.2760      0.00000
     18      16.2760      0.00000
     19      18.3735      0.00000
     20      18.3735      0.00000
     21      23.1348      0.00000
     22      23.1348      0.00000
     23      27.5751      0.00000
     24      27.5751      0.00000

 k-point    70 :       0.3000    0.3000    0.5000
  band No.  band energies     occupation 
      1     -41.2024      2.00000
      2     -41.2024      2.00000
      3     -41.1173      2.00000
      4     -41.1173      2.00000
      5     -40.8200      2.00000
      6     -40.8200      2.00000
      7       6.1825      2.00000
      8       6.1825      2.00000
      9       7.0366      2.00000
     10       7.0366      2.00000
     11       7.8334      2.00000
     12       7.8334      2.00000
     13       9.1630      2.00000
     14       9.1630      2.00000
     15      11.5262      1.99561
     16      11.5262      1.99561
     17      17.0849      0.00000
     18      17.0849      0.00000
     19      19.0759      0.00000
     20      19.0759      0.00000
     21      21.3204      0.00000
     22      21.3204      0.00000
     23      28.6828      0.00000
     24      28.6828      0.00000


--------------------------------------------------------------------------------------------------------


 soft charge-density along one line, spin component           1
         0         1         2         3         4         5         6         7         8         9
 total charge-density along one line
 
 pseudopotential strength for first ion, spin component:           1
-31.534  -0.000   0.000  10.588   0.000  -0.000  -0.000  -0.000
 -0.000 -31.469  -0.000   0.000  10.523   0.000   0.000   0.000
  0.000  -0.000 -31.534  -0.000   0.000  10.588  -0.000   0.000
 10.588   0.000  -0.000  16.309  -0.000   0.000   0.000   0.000
  0.000  10.523   0.000  -0.000  16.333  -0.000  -0.000  -0.000
 -0.000   0.000  10.588   0.000  -0.000  16.309   0.000  -0.000
 -0.000   0.000  -0.000   0.000  -0.000   0.000  -3.620   0.000
 -0.000   0.000   0.000   0.000  -0.000  -0.000   0.000  -3.576
 -0.000  -0.000   0.000   0.000   0.000  -0.000  -0.000   0.000
  0.000  -0.000   0.000  -0.000   0.000  -0.000  -0.000   0.000
 -0.000   0.000  -0.000   0.000  -0.000   0.000  -0.000   0.000
 -0.000   0.000  -0.000   0.000  -0.000   0.000  -3.839   0.000
 -0.000   0.000   0.000   0.000  -0.000  -0.000   0.000  -3.789
 -0.000  -0.000   0.000   0.000   0.000  -0.000  -0.000   0.000
  0.000  -0.000   0.000  -0.000   0.000  -0.000  -0.000   0.000
 -0.000   0.000  -0.000   0.000  -0.000   0.000  -0.000   0.000
 -0.000   0.000   0.000  -0.000   0.000   0.000  -0.000   0.000
  0.000  -0.000  -0.000   0.000  -0.000  -0.000   0.000  -0.000
 total augmentation occupancy for first ion, spin component:           1
  2.003   0.000   0.000  -0.021   0.000  -0.000  -0.000   0.000  -0.000   0.000   0.004   0.000  -0.000   0.000   0.000  -0.004
 -0.000   2.002   0.000   0.000  -0.020   0.000  -0.000  -0.000   0.000  -0.000   0.000   0.000  -0.000   0.000   0.000  -0.000
  0.000  -0.000   2.003  -0.000   0.000  -0.021   0.004   0.000   0.000  -0.000   0.000  -0.004   0.000   0.000  -0.000   0.000
 -0.021   0.000  -0.000   0.052   0.000  -0.000   0.000   0.000   0.000   0.000  -0.027  -0.000  -0.000  -0.000  -0.000   0.026
  0.000  -0.020   0.000   0.000   0.044   0.000   0.000   0.000   0.000   0.000   0.000   0.000   0.000   0.000  -0.000  -0.000
 -0.000   0.000  -0.021   0.000   0.000   0.052  -0.027   0.000   0.000  -0.000  -0.000   0.026   0.000  -0.000  -0.000   0.000
 -0.000   0.000   0.004  -0.000   0.000  -0.027   5.293   0.000  -0.000   0.000   0.000  -2.948   0.000   0.000   0.000  -0.000
  0.000  -0.000   0.000  -0.000   0.000   0.000  -0.000   4.528  -0.000   0.000  -0.000  -0.000  -2.538   0.000  -0.000  -0.000
 -0.000   0.000  -0.000   0.000   0.000  -0.000  -0.000   0.000   5.353  -0.000  -0.000   0.000  -0.000  -3.006   0.000   0.000
  0.000   0.000   0.000   0.000   0.000  -0.000  -0.000   0.000   0.000   4.528  -0.000  -0.000   0.000   0.000  -2.538   0.000
  0.004   0.000  -0.000  -0.027  -0.000  -0.000   0.000   0.000  -0.000   0.000   5.293   0.000  -0.000   0.000   0.000  -2.948
  0.000   0.000  -0.004  -0.000   0.000   0.026  -2.948  -0.000   0.000  -0.000  -0.000   2.350  -0.000  -0.000  -0.000   0.000
  0.000  -0.000   0.000   0.000   0.000   0.000   0.000  -2.538  -0.000   0.000   0.000   0.000   2.398   0.000  -0.000   0.000
  0.000   0.000   0.000  -0.000   0.000   0.000   0.000  -0.000  -3.006  -0.000   0.000  -0.000  -0.000   2.394   0.000  -0.000
  0.000   0.000   0.000   0.000   0.000   0.000   0.000   0.000   0.000  -2.538   0.000   0.000   0.000   0.000   2.398   0.000
 -0.004  -0.000  -0.000   0.026   0.000   0.000  -0.000  -0.000   0.000   0.000  -2.948   0.000  -0.000  -0.000   0.000   2.350
  0.000   0.000   0.000  -0.000   0.000   0.000   0.000  -0.000  -0.218   0.000   0.000   0.000   0.000   0.201  -0.000  -0.000
  0.000   0.000   0.000  -0.000   0.000  -0.000   0.000  -0.000   0.004   0.000   0.000  -0.000   0.000   0.001   0.000  -0.000


------------------------ aborting loop because EDIFF is reached ----------------------------------------





 total charge

# of ion       s       p       d       tot
------------------------------------------
    1        0.343   6.083   7.071  13.496
    2        0.343   6.083   7.071  13.496
--------------------------------------------------
tot          0.685  12.165  14.142  26.993
 
    CHARGE:  cpu time      0.0224: real time      0.0225
    FORLOC:  cpu time      0.0002: real time      0.0002
    FORNL :  cpu time      0.0155: real time      0.0156
    STRESS:  cpu time      0.1734: real time      0.1740
    FORCOR:  cpu time      0.0030: real time      0.0030
    FORHAR:  cpu time      0.0006: real time      0.0006
    MIXING:  cpu time      0.0002: real time      0.0002
    OFIELD:  cpu time      0.0000: real time      0.0000

  FORCE on cell =-STRESS in cart. coord.  units (eV):
  Direction    XX          YY          ZZ          XY          YZ          ZX
  --------------------------------------------------------------------------------------
  Alpha Z   311.77671   311.77671   311.77671
  Ewald   -1387.65645 -1387.65645 -1502.71833     0.00000     0.00000    -0.00000
  Hartree   271.21173   271.21173   221.19202    -0.00000    -0.00000    -0.00000
  E(xc)    -170.97586  -170.97586  -171.20996    -0.00000    -0.00000    -0.00000
  Local     195.12245   195.12242   347.85378    -0.00002     0.00000    -0.00000
  n-local   -57.95202   -60.43513   -61.33648   -13.30833     3.62770     3.35241
  augment   145.52424   145.52426   149.08679     0.00001    -0.00000    -0.00000
  Kinetic   698.07327   692.07455   706.10501   -17.05083     3.68463     1.02330
  Fock        0.00000     0.00000     0.00000     0.00000     0.00000     0.00000
  -------------------------------------------------------------------------------------
  Total       0.88316     0.88316     0.74954     0.00000    -0.00000     0.00000
  in kB      45.96695    45.96695    39.01246     0.00000    -0.00000     0.00000
  external pressure =       43.65 kB  Pullay stress =        0.00 kB


 VOLUME and BASIS-vectors are now :
 -----------------------------------------------------------------------------
  energy-cutoff  :      450.00
  volume of cell :       30.78
      direct lattice vectors                 reciprocal lattice vectors
     2.737592068  0.000000000  0.000000000     0.365284518  0.210897115  0.000000000
    -1.368796034  2.370824277  0.000000000     0.000000000  0.421794230  0.000000000
     0.000000000  0.000000000  4.742814459     0.000000000  0.000000000  0.210845271

  length of vectors
     2.737592068  2.737592068  4.742814459     0.421794230  0.421794230  0.210845271


 FORCES acting on ions
    electron-ion (+dipol)            ewald-force                    non-local-force                 convergence-correction
 -----------------------------------------------------------------------------------------------
   0.273E-06 -.158E-06 -.170E-12   0.182E-11 -.108E-11 -.692E-13   0.555E-16 -.278E-16 0.000E+00   -.363E-08 0.210E-08 0.445E-14
   -.181E-06 0.105E-06 -.314E-11   -.185E-11 0.107E-11 0.692E-13   -.520E-16 0.278E-16 0.000E+00   0.362E-08 -.209E-08 0.476E-13
 -----------------------------------------------------------------------------------------------
   0.918E-07 -.530E-07 -.331E-11   -.280E-13 -.831E-14 0.000E+00   0.347E-17 0.000E+00 0.000E+00   -.918E-11 0.509E-11 0.520E-13
 
 
 POSITION                                       TOTAL-FORCE (eV/Angst)
 -----------------------------------------------------------------------------------
      0.00000      0.00000      0.00000         0.000000     -0.000000      0.000000
      0.00000      1.58055      2.37141        -0.000000      0.000000      0.000000
 -----------------------------------------------------------------------------------
    total drift:                                0.000000     -0.000000     -0.000000


--------------------------------------------------------------------------------------------------------



  FREE ENERGIE OF THE ION-ELECTRON SYSTEM (eV)
  ---------------------------------------------------
  free  energy   TOTEN  =       -12.02491535 eV

  energy  without entropy=      -12.02040011  energy(sigma->0) =      -12.02265773
 


--------------------------------------------------------------------------------------------------------


    POTLOK:  cpu time      0.0055: real time      0.0055


--------------------------------------------------------------------------------------------------------




--------------------------------------------------------------------------------------------------------


  
 reached required accuracy - stopping structural energy minimisation
 writing wavefunctions
     LOOP+:  cpu time      5.2310: real time      5.3936
    4ORBIT:  cpu time      0.0000: real time      0.0000



 total charge

# of ion       s       p       d       tot
------------------------------------------
    1        0.343   6.083   7.071  13.496
    2        0.343   6.083   7.071  13.496
--------------------------------------------------
tot          0.685  12.165  14.142  26.993
 

 total amount of memory used by VASP MPI-rank0    39019. kBytes
=======================================================================

   base      :      30000. kBytes
   nonl-proj :       7037. kBytes
   fftplans  :        254. kBytes
   grid      :        864. kBytes
   one-center:         31. kBytes
   wavefun   :        833. kBytes
 
  
  
 General timing and accounting informations for this job:
 ========================================================
  
                  Total CPU time used (sec):        6.172
                            User time (sec):        5.637
                          System time (sec):        0.536
                         Elapsed time (sec):        7.678
  
                   Maximum memory used (kb):      237460.
                   Average memory used (kb):          N/A
  
                          Minor page faults:        27877
                          Major page faults:           79
                 Voluntary context switches:         2172
