PROCAR lm decomposed
# of k-points:   70         # of bands:   24         # of ions:    2

 k-point     1 :    0.00000000 0.00000000 0.00000000     weight = 0.00125000

band     1 # energy  -41.08829748 # occ.  2.00000000
 
ion      s     py     pz     px    dxy    dyz    dz2    dxz  x2-y2    tot
    1  0.000  0.000  0.491  0.000  0.000  0.000  0.000  0.000  0.000  0.491
    2  0.000  0.000  0.491  0.000  0.000  0.000  0.000  0.000  0.000  0.491
tot    0.000  0.000  0.982  0.000  0.000  0.000  0.000  0.000  0.000  0.982
 
band     2 # energy  -40.88289328 # occ.  2.00000000
 
ion      s     py     pz     px    dxy    dyz    dz2    dxz  x2-y2    tot
    1  0.000  0.124  0.000  0.373  0.000  0.000  0.000  0.000  0.000  0.498
    2  0.000  0.124  0.000  0.373  0.000  0.000  0.000  0.000  0.000  0.498
tot    0.000  0.249  0.000  0.747  0.000  0.000  0.000  0.000  0.000  0.996
 
band     3 # energy  -40.88289230 # occ.  2.00000000
 
ion      s     py     pz     px    dxy    dyz    dz2    dxz  x2-y2    tot
    1  0.000  0.373  0.000  0.124  0.000  0.000  0.000  0.000  0.000  0.498
    2  0.000  0.373  0.000  0.124  0.000  0.000  0.000  0.000  0.000  0.498
tot    0.000  0.747  0.000  0.249  0.000  0.000  0.000  0.000  0.000  0.996
 
band     4 # energy  -40.83941462 # occ.  2.00000000
 
ion      s     py     pz     px    dxy    dyz    dz2    dxz  x2-y2    tot
    1  0.000  0.125  0.000  0.374  0.000  0.000  0.000  0.000  0.000  0.499
    2  0.000  0.125  0.000  0.374  0.000  0.000  0.000  0.000  0.000  0.498
tot    0.000  0.249  0.000  0.748  0.000  0.000  0.000  0.000  0.000  0.997
 
band     5 # energy  -40.83941364 # occ.  2.00000000
 
ion      s     py     pz     px    dxy    dyz    dz2    dxz  x2-y2    tot
    1  0.000  0.374  0.000  0.125  0.000  0.000  0.000  0.000  0.000  0.499
    2  0.000  0.374  0.000  0.125  0.000  0.000  0.000  0.000  0.000  0.498
tot    0.000  0.748  0.000  0.249  0.000  0.000  0.000  0.000  0.000  0.997
 
band     6 # energy  -40.72359750 # occ.  2.00000000
 
ion      s     py     pz     px    dxy    dyz    dz2    dxz  x2-y2    tot
    1  0.000  0.000  0.498  0.000  0.000  0.000  0.000  0.000  0.000  0.498
    2  0.000  0.000  0.498  0.000  0.000  0.000  0.000  0.000  0.000  0.498
tot    0.000  0.000  0.995  0.000  0.000  0.000  0.000  0.000  0.000  0.995
 
band     7 # energy    1.63694596 # occ.  2.00000000
 
ion      s     py     pz     px    dxy    dyz    dz2    dxz  x2-y2    tot
    1  0.197  0.000  0.000  0.000  0.000  0.000  0.000  0.000  0.000  0.198
    2  0.197  0.000  0.000  0.000  0.000  0.000  0.000  0.000  0.000  0.198
tot    0.395  0.000  0.000  0.000  0.000  0.000  0.001  0.000  0.000  0.396
 
band     8 # energy    4.31428171 # occ.  2.00000000
 
ion      s     py     pz     px    dxy    dyz    dz2    dxz  x2-y2    tot
    1  0.083  0.000  0.000  0.000  0.000  0.000  0.233  0.000  0.000  0.316
    2  0.083  0.000  0.000  0.000  0.000  0.000  0.233  0.000  0.000  0.316
tot    0.165  0.000  0.000  0.000  0.000  0.000  0.467  0.000  0.000  0.632
 
band     9 # energy    7.54432812 # occ.  2.00000000
 
ion      s     py     pz     px    dxy    dyz    dz2    dxz  x2-y2    tot
    1  0.000  0.000  0.000  0.000  0.000  0.000  0.414  0.000  0.000  0.414
    2  0.000  0.000  0.000  0.000  0.000  0.000  0.414  0.000  0.000  0.414
tot    0.000  0.000  0.000  0.000  0.000  0.000  0.828  0.000  0.000  0.828
 
band    10 # energy    8.06467832 # occ.  2.00000000
 
ion      s     py     pz     px    dxy    dyz    dz2    dxz  x2-y2    tot
    1  0.000  0.000  0.000  0.000  0.106  0.000  0.000  0.000  0.317  0.423
    2  0.000  0.000  0.000  0.000  0.106  0.000  0.000  0.000  0.317  0.423
tot    0.000  0.000  0.000  0.000  0.211  0.000  0.000  0.000  0.634  0.846
 
band    11 # energy    8.06467904 # occ.  2.00000000
 
ion      s     py     pz     px    dxy    dyz    dz2    dxz  x2-y2    tot
    1  0.000  0.000  0.000  0.000  0.317  0.000  0.000  0.000  0.106  0.423
    2  0.000  0.000  0.000  0.000  0.317  0.000  0.000  0.000  0.106  0.423
tot    0.000  0.000  0.000  0.000  0.634  0.000  0.000  0.000  0.211  0.846
 
band    12 # energy    8.44883509 # occ.  2.00000000
 
ion      s     py     pz     px    dxy    dyz    dz2    dxz  x2-y2    tot
    1  0.000  0.000  0.000  0.000  0.108  0.000  0.000  0.000  0.325  0.433
    2  0.000  0.000  0.000  0.000  0.108  0.000  0.000  0.000  0.325  0.433
tot    0.000  0.000  0.000  0.000  0.216  0.000  0.000  0.000  0.649  0.866
 
band    13 # energy    8.44883583 # occ.  2.00000000
 
ion      s     py     pz     px    dxy    dyz    dz2    dxz  x2-y2    tot
    1  0.000  0.000  0.000  0.000  0.325  0.000  0.000  0.000  0.108  0.433
    2  0.000  0.000  0.000  0.000  0.325  0.000  0.000  0.000  0.108  0.433
tot    0.000  0.000  0.000  0.000  0.649  0.000  0.000  0.000  0.216  0.866
 
band    14 # energy    9.75222067 # occ.  2.00000000
 
ion      s     py     pz     px    dxy    dyz    dz2    dxz  x2-y2    tot
    1  0.000  0.000  0.000  0.000  0.000  0.111  0.000  0.334  0.000  0.445
    2  0.000  0.000  0.000  0.000  0.000  0.111  0.000  0.334  0.000  0.445
tot    0.000  0.000  0.000  0.000  0.000  0.222  0.000  0.667  0.000  0.890
 
band    15 # energy    9.75222086 # occ.  2.00000000
 
ion      s     py     pz     px    dxy    dyz    dz2    dxz  x2-y2    tot
    1  0.000  0.000  0.000  0.000  0.000  0.334  0.000  0.111  0.000  0.445
    2  0.000  0.000  0.000  0.000  0.000  0.334  0.000  0.111  0.000  0.445
tot    0.000  0.000  0.000  0.000  0.000  0.667  0.000  0.222  0.000  0.890
 
band    16 # energy   10.81543245 # occ.  2.00000000
 
ion      s     py     pz     px    dxy    dyz    dz2    dxz  x2-y2    tot
    1  0.000  0.000  0.088  0.000  0.000  0.000  0.000  0.000  0.000  0.088
    2  0.000  0.000  0.088  0.000  0.000  0.000  0.000  0.000  0.000  0.088
tot    0.000  0.000  0.176  0.000  0.000  0.000  0.000  0.000  0.000  0.176
 
band    17 # energy   11.41129982 # occ.  2.00000000
 
ion      s     py     pz     px    dxy    dyz    dz2    dxz  x2-y2    tot
    1  0.000  0.000  0.000  0.000  0.000  0.116  0.000  0.349  0.000  0.466
    2  0.000  0.000  0.000  0.000  0.000  0.116  0.000  0.349  0.000  0.466
tot    0.000  0.000  0.000  0.000  0.000  0.233  0.000  0.698  0.000  0.931
 
band    18 # energy   11.41130004 # occ.  2.00000000
 
ion      s     py     pz     px    dxy    dyz    dz2    dxz  x2-y2    tot
    1  0.000  0.000  0.000  0.000  0.000  0.349  0.000  0.116  0.000  0.466
    2  0.000  0.000  0.000  0.000  0.000  0.349  0.000  0.116  0.000  0.466
tot    0.000  0.000  0.000  0.000  0.000  0.698  0.000  0.233  0.000  0.931
 
band    19 # energy   16.50260178 # occ.  0.00000000
 
ion      s     py     pz     px    dxy    dyz    dz2    dxz  x2-y2    tot
    1  0.180  0.000  0.000  0.000  0.000  0.000  0.226  0.000  0.000  0.406
    2  0.180  0.000  0.000  0.000  0.000  0.000  0.226  0.000  0.000  0.406
tot    0.360  0.000  0.000  0.000  0.000  0.000  0.452  0.000  0.000  0.812
 
band    20 # energy   26.67489335 # occ.  0.00000000
 
ion      s     py     pz     px    dxy    dyz    dz2    dxz  x2-y2    tot
    1  0.003  0.000  0.000  0.000  0.000  0.000  0.002  0.000  0.000  0.005
    2  0.003  0.000  0.000  0.000  0.000  0.000  0.002  0.000  0.000  0.005
tot    0.006  0.000  0.000  0.000  0.000  0.000  0.004  0.000  0.000  0.011
 
band    21 # energy   27.33002172 # occ.  0.00000000
 
ion      s     py     pz     px    dxy    dyz    dz2    dxz  x2-y2    tot
    1  0.000  0.000  0.020  0.000  0.000  0.000  0.000  0.000  0.000  0.020
    2  0.000  0.000  0.020  0.000  0.000  0.000  0.000  0.000  0.000  0.020
tot    0.000  0.000  0.040  0.000  0.000  0.000  0.000  0.000  0.000  0.040
 
band    22 # energy   28.88520083 # occ.  0.00000000
 
ion      s     py     pz     px    dxy    dyz    dz2    dxz  x2-y2    tot
    1  0.000  0.000  0.000  0.000  0.000  0.000  0.017  0.000  0.000  0.017
    2  0.000  0.000  0.000  0.000  0.000  0.000  0.017  0.000  0.000  0.017
tot    0.000  0.000  0.000  0.000  0.000  0.000  0.034  0.000  0.000  0.035
 
band    23 # energy   32.92961071 # occ.  0.00000000
 
ion      s     py     pz     px    dxy    dyz    dz2    dxz  x2-y2    tot
    1  0.000  0.036  0.000  0.091  0.015  0.000  0.000  0.000  0.006  0.148
    2  0.000  0.036  0.000  0.091  0.015  0.000  0.000  0.000  0.006  0.148
tot    0.000  0.071  0.000  0.183  0.031  0.000  0.000  0.000  0.012  0.297
 
band    24 # energy   32.92961098 # occ.  0.00000000
 
ion      s     py     pz     px    dxy    dyz    dz2    dxz  x2-y2    tot
    1  0.000  0.091  0.000  0.036  0.006  0.000  0.000  0.000  0.015  0.148
    2  0.000  0.091  0.000  0.036  0.006  0.000  0.000  0.000  0.015  0.148
tot    0.000  0.183  0.000  0.071  0.012  0.000  0.000  0.000  0.031  0.297
 

 k-point     2 :    0.10000000 0.00000000 0.00000000     weight = 0.00750000

band     1 # energy  -41.07587867 # occ.  2.00000000
 
ion      s     py     pz     px    dxy    dyz    dz2    dxz  x2-y2    tot
    1  0.000  0.000  0.491  0.000  0.000  0.000  0.000  0.000  0.000  0.491
    2  0.000  0.000  0.491  0.000  0.000  0.000  0.000  0.000  0.000  0.491
tot    0.000  0.000  0.983  0.000  0.000  0.000  0.000  0.000  0.000  0.983
 
band     2 # energy  -40.92352809 # occ.  2.00000000
 
ion      s     py     pz     px    dxy    dyz    dz2    dxz  x2-y2    tot
    1  0.000  0.124  0.000  0.373  0.000  0.000  0.000  0.000  0.000  0.497
    2  0.000  0.124  0.000  0.373  0.000  0.000  0.000  0.000  0.000  0.497
tot    0.000  0.249  0.000  0.746  0.000  0.000  0.000  0.000  0.000  0.994
 
band     3 # energy  -40.89534341 # occ.  2.00000000
 
ion      s     py     pz     px    dxy    dyz    dz2    dxz  x2-y2    tot
    1  0.000  0.373  0.000  0.124  0.000  0.000  0.000  0.000  0.000  0.498
    2  0.000  0.373  0.000  0.124  0.000  0.000  0.000  0.000  0.000  0.498
tot    0.000  0.747  0.000  0.249  0.000  0.000  0.000  0.000  0.000  0.995
 
band     4 # energy  -40.88012084 # occ.  2.00000000
 
ion      s     py     pz     px    dxy    dyz    dz2    dxz  x2-y2    tot
    1  0.000  0.124  0.000  0.373  0.000  0.000  0.000  0.000  0.000  0.498
    2  0.000  0.124  0.000  0.373  0.000  0.000  0.000  0.000  0.000  0.498
tot    0.000  0.249  0.000  0.747  0.000  0.000  0.000  0.000  0.000  0.996
 
band     5 # energy  -40.84779094 # occ.  2.00000000
 
ion      s     py     pz     px    dxy    dyz    dz2    dxz  x2-y2    tot
    1  0.000  0.374  0.000  0.125  0.000  0.000  0.000  0.000  0.000  0.498
    2  0.000  0.374  0.000  0.125  0.000  0.000  0.000  0.000  0.000  0.498
tot    0.000  0.748  0.000  0.249  0.000  0.000  0.000  0.000  0.000  0.997
 
band     6 # energy  -40.72674561 # occ.  2.00000000
 
ion      s     py     pz     px    dxy    dyz    dz2    dxz  x2-y2    tot
    1  0.000  0.000  0.498  0.000  0.000  0.000  0.000  0.000  0.000  0.498
    2  0.000  0.000  0.498  0.000  0.000  0.000  0.000  0.000  0.000  0.498
tot    0.000  0.000  0.995  0.000  0.000  0.000  0.000  0.000  0.000  0.995
 
band     7 # energy    2.00702919 # occ.  2.00000000
 
ion      s     py     pz     px    dxy    dyz    dz2    dxz  x2-y2    tot
    1  0.193  0.001  0.000  0.002  0.000  0.000  0.000  0.000  0.000  0.196
    2  0.193  0.001  0.000  0.002  0.000  0.000  0.000  0.000  0.000  0.196
tot    0.387  0.001  0.000  0.004  0.001  0.000  0.000  0.000  0.000  0.393
 
band     8 # energy    4.64998831 # occ.  2.00000000
 
ion      s     py     pz     px    dxy    dyz    dz2    dxz  x2-y2    tot
    1  0.076  0.001  0.000  0.002  0.002  0.000  0.237  0.000  0.001  0.318
    2  0.076  0.001  0.000  0.002  0.002  0.000  0.237  0.000  0.001  0.318
tot    0.151  0.001  0.000  0.003  0.004  0.000  0.475  0.000  0.001  0.635
 
band     9 # energy    7.47242847 # occ.  2.00000000
 
ion      s     py     pz     px    dxy    dyz    dz2    dxz  x2-y2    tot
    1  0.000  0.000  0.000  0.000  0.116  0.000  0.254  0.000  0.039  0.410
    2  0.000  0.000  0.000  0.000  0.116  0.000  0.254  0.000  0.039  0.410
tot    0.000  0.000  0.000  0.001  0.233  0.000  0.508  0.000  0.078  0.819
 
band    10 # energy    8.07512288 # occ.  2.00000000
 
ion      s     py     pz     px    dxy    dyz    dz2    dxz  x2-y2    tot
    1  0.000  0.000  0.000  0.000  0.211  0.000  0.138  0.000  0.070  0.420
    2  0.000  0.000  0.000  0.000  0.211  0.000  0.138  0.000  0.070  0.420
tot    0.000  0.000  0.000  0.001  0.422  0.000  0.277  0.000  0.141  0.841
 
band    11 # energy    8.29338373 # occ.  2.00000000
 
ion      s     py     pz     px    dxy    dyz    dz2    dxz  x2-y2    tot
    1  0.002  0.000  0.000  0.000  0.299  0.000  0.025  0.000  0.100  0.426
    2  0.002  0.000  0.000  0.000  0.299  0.000  0.025  0.000  0.100  0.426
tot    0.003  0.000  0.000  0.001  0.598  0.000  0.049  0.000  0.199  0.851
 
band    12 # energy    8.35006773 # occ.  2.00000000
 
ion      s     py     pz     px    dxy    dyz    dz2    dxz  x2-y2    tot
    1  0.000  0.000  0.000  0.000  0.106  0.000  0.000  0.000  0.318  0.425
    2  0.000  0.000  0.000  0.000  0.106  0.000  0.000  0.000  0.318  0.425
tot    0.000  0.001  0.000  0.000  0.212  0.000  0.000  0.000  0.636  0.849
 
band    13 # energy    8.72078887 # occ.  2.00000000
 
ion      s     py     pz     px    dxy    dyz    dz2    dxz  x2-y2    tot
    1  0.000  0.000  0.000  0.000  0.109  0.000  0.000  0.000  0.326  0.435
    2  0.000  0.000  0.000  0.000  0.109  0.000  0.000  0.000  0.326  0.435
tot    0.000  0.001  0.000  0.000  0.217  0.000  0.000  0.000  0.651  0.869
 
band    14 # energy    9.13641255 # occ.  2.00000000
 
ion      s     py     pz     px    dxy    dyz    dz2    dxz  x2-y2    tot
    1  0.000  0.000  0.021  0.000  0.000  0.079  0.000  0.237  0.000  0.337
    2  0.000  0.000  0.021  0.000  0.000  0.079  0.000  0.237  0.000  0.337
tot    0.000  0.000  0.043  0.000  0.000  0.158  0.000  0.474  0.000  0.675
 
band    15 # energy    9.57333951 # occ.  2.00000000
 
ion      s     py     pz     px    dxy    dyz    dz2    dxz  x2-y2    tot
    1  0.000  0.000  0.000  0.000  0.000  0.330  0.000  0.110  0.000  0.440
    2  0.000  0.000  0.000  0.000  0.000  0.330  0.000  0.110  0.000  0.440
tot    0.000  0.000  0.000  0.000  0.000  0.660  0.000  0.220  0.000  0.881
 
band    16 # energy    9.72110230 # occ.  2.00000000
 
ion      s     py     pz     px    dxy    dyz    dz2    dxz  x2-y2    tot
    1  0.000  0.000  0.020  0.000  0.000  0.085  0.000  0.254  0.000  0.359
    2  0.000  0.000  0.020  0.000  0.000  0.085  0.000  0.254  0.000  0.359
tot    0.000  0.000  0.040  0.000  0.000  0.169  0.000  0.508  0.000  0.717
 
band    17 # energy   11.47749118 # occ.  1.99997617
 
ion      s     py     pz     px    dxy    dyz    dz2    dxz  x2-y2    tot
    1  0.000  0.000  0.000  0.000  0.000  0.351  0.000  0.117  0.000  0.468
    2  0.000  0.000  0.000  0.000  0.000  0.351  0.000  0.117  0.000  0.468
tot    0.000  0.000  0.000  0.000  0.000  0.703  0.000  0.234  0.000  0.937
 
band    18 # energy   13.18731514 # occ.  0.00000000
 
ion      s     py     pz     px    dxy    dyz    dz2    dxz  x2-y2    tot
    1  0.000  0.000  0.047  0.000  0.000  0.062  0.000  0.186  0.000  0.296
    2  0.000  0.000  0.047  0.000  0.000  0.062  0.000  0.186  0.000  0.296
tot    0.000  0.000  0.095  0.000  0.000  0.124  0.000  0.372  0.000  0.591
 
band    19 # energy   16.46218327 # occ.  0.00000000
 
ion      s     py     pz     px    dxy    dyz    dz2    dxz  x2-y2    tot
    1  0.181  0.000  0.000  0.001  0.002  0.000  0.218  0.000  0.001  0.401
    2  0.181  0.000  0.000  0.001  0.002  0.000  0.218  0.000  0.001  0.401
tot    0.362  0.000  0.000  0.001  0.003  0.000  0.435  0.000  0.001  0.803
 
band    20 # energy   27.15430509 # occ.  0.00000000
 
ion      s     py     pz     px    dxy    dyz    dz2    dxz  x2-y2    tot
    1  0.005  0.001  0.000  0.002  0.017  0.000  0.003  0.000  0.006  0.034
    2  0.005  0.001  0.000  0.002  0.017  0.000  0.003  0.000  0.006  0.034
tot    0.010  0.002  0.000  0.005  0.034  0.000  0.005  0.000  0.011  0.067
 
band    21 # energy   27.86949429 # occ.  0.00000000
 
ion      s     py     pz     px    dxy    dyz    dz2    dxz  x2-y2    tot
    1  0.000  0.000  0.017  0.000  0.000  0.002  0.000  0.006  0.000  0.025
    2  0.000  0.000  0.017  0.000  0.000  0.002  0.000  0.006  0.000  0.025
tot    0.000  0.000  0.035  0.000  0.000  0.004  0.000  0.011  0.000  0.049
 
band    22 # energy   29.28219904 # occ.  0.00000000
 
ion      s     py     pz     px    dxy    dyz    dz2    dxz  x2-y2    tot
    1  0.002  0.003  0.000  0.010  0.016  0.000  0.023  0.000  0.005  0.061
    2  0.002  0.003  0.000  0.010  0.016  0.000  0.023  0.000  0.005  0.061
tot    0.004  0.007  0.000  0.020  0.033  0.000  0.047  0.000  0.011  0.121
 
band    23 # energy   31.23807608 # occ.  0.00000000
 
ion      s     py     pz     px    dxy    dyz    dz2    dxz  x2-y2    tot
    1  0.007  0.024  0.000  0.073  0.012  0.000  0.002  0.000  0.004  0.122
    2  0.007  0.024  0.000  0.073  0.012  0.000  0.002  0.000  0.004  0.122
tot    0.013  0.049  0.000  0.146  0.024  0.000  0.004  0.000  0.008  0.243
 
band    24 # energy   31.40720429 # occ.  0.00000000
 
ion      s     py     pz     px    dxy    dyz    dz2    dxz  x2-y2    tot
    1  0.000  0.086  0.000  0.029  0.010  0.000  0.000  0.000  0.029  0.153
    2  0.000  0.086  0.000  0.029  0.010  0.000  0.000  0.000  0.029  0.153
tot    0.000  0.172  0.000  0.057  0.019  0.000  0.000  0.000  0.057  0.306
 

 k-point     3 :    0.20000000 0.00000000 0.00000000     weight = 0.00750000

band     1 # energy  -41.03939322 # occ.  2.00000000
 
ion      s     py     pz     px    dxy    dyz    dz2    dxz  x2-y2    tot
    1  0.000  0.000  0.492  0.000  0.000  0.000  0.000  0.000  0.000  0.492
    2  0.000  0.000  0.492  0.000  0.000  0.000  0.000  0.000  0.000  0.492
tot    0.000  0.000  0.984  0.000  0.000  0.000  0.000  0.000  0.000  0.984
 
band     2 # energy  -41.02699452 # occ.  2.00000000
 
ion      s     py     pz     px    dxy    dyz    dz2    dxz  x2-y2    tot
    1  0.000  0.124  0.000  0.372  0.000  0.000  0.000  0.000  0.000  0.496
    2  0.000  0.124  0.000  0.372  0.000  0.000  0.000  0.000  0.000  0.496
tot    0.000  0.248  0.000  0.743  0.000  0.000  0.000  0.000  0.000  0.991
 
band     3 # energy  -40.98438473 # occ.  2.00000000
 
ion      s     py     pz     px    dxy    dyz    dz2    dxz  x2-y2    tot
    1  0.000  0.124  0.000  0.372  0.000  0.000  0.000  0.000  0.000  0.496
    2  0.000  0.124  0.000  0.372  0.000  0.000  0.000  0.000  0.000  0.496
tot    0.000  0.248  0.000  0.744  0.000  0.000  0.000  0.000  0.000  0.992
 
band     4 # energy  -40.92465050 # occ.  2.00000000
 
ion      s     py     pz     px    dxy    dyz    dz2    dxz  x2-y2    tot
    1  0.000  0.373  0.000  0.124  0.000  0.000  0.000  0.000  0.000  0.497
    2  0.000  0.373  0.000  0.124  0.000  0.000  0.000  0.000  0.000  0.497
tot    0.000  0.746  0.000  0.249  0.000  0.000  0.000  0.000  0.000  0.994
 
band     5 # energy  -40.86889947 # occ.  2.00000000
 
ion      s     py     pz     px    dxy    dyz    dz2    dxz  x2-y2    tot
    1  0.000  0.374  0.000  0.125  0.000  0.000  0.000  0.000  0.000  0.498
    2  0.000  0.374  0.000  0.125  0.000  0.000  0.000  0.000  0.000  0.498
tot    0.000  0.747  0.000  0.249  0.000  0.000  0.000  0.000  0.000  0.996
 
band     6 # energy  -40.73602042 # occ.  2.00000000
 
ion      s     py     pz     px    dxy    dyz    dz2    dxz  x2-y2    tot
    1  0.000  0.000  0.498  0.000  0.000  0.000  0.000  0.000  0.000  0.498
    2  0.000  0.000  0.498  0.000  0.000  0.000  0.000  0.000  0.000  0.498
tot    0.000  0.000  0.995  0.000  0.000  0.000  0.000  0.000  0.000  0.995
 
band     7 # energy    3.01332176 # occ.  2.00000000
 
ion      s     py     pz     px    dxy    dyz    dz2    dxz  x2-y2    tot
    1  0.179  0.002  0.000  0.006  0.006  0.000  0.001  0.000  0.002  0.196
    2  0.179  0.002  0.000  0.006  0.006  0.000  0.001  0.000  0.002  0.196
tot    0.357  0.004  0.000  0.013  0.013  0.000  0.002  0.000  0.004  0.393
 
band     8 # energy    5.38495183 # occ.  2.00000000
 
ion      s     py     pz     px    dxy    dyz    dz2    dxz  x2-y2    tot
    1  0.051  0.001  0.000  0.004  0.040  0.000  0.222  0.000  0.013  0.331
    2  0.051  0.001  0.000  0.004  0.040  0.000  0.222  0.000  0.013  0.331
tot    0.102  0.003  0.000  0.008  0.080  0.000  0.443  0.000  0.027  0.662
 
band     9 # energy    7.23382879 # occ.  2.00000000
 
ion      s     py     pz     px    dxy    dyz    dz2    dxz  x2-y2    tot
    1  0.003  0.001  0.000  0.004  0.187  0.000  0.128  0.000  0.062  0.385
    2  0.003  0.001  0.000  0.004  0.187  0.000  0.128  0.000  0.062  0.385
tot    0.006  0.002  0.000  0.007  0.373  0.000  0.256  0.000  0.124  0.769
 
band    10 # energy    7.72569298 # occ.  2.00000000
 
ion      s     py     pz     px    dxy    dyz    dz2    dxz  x2-y2    tot
    1  0.000  0.000  0.019  0.000  0.000  0.075  0.000  0.225  0.000  0.319
    2  0.000  0.000  0.019  0.000  0.000  0.075  0.000  0.225  0.000  0.319
tot    0.000  0.000  0.038  0.000  0.000  0.150  0.000  0.450  0.000  0.638
 
band    11 # energy    7.78284523 # occ.  2.00000000
 
ion      s     py     pz     px    dxy    dyz    dz2    dxz  x2-y2    tot
    1  0.006  0.000  0.000  0.001  0.257  0.000  0.057  0.000  0.086  0.407
    2  0.006  0.000  0.000  0.001  0.257  0.000  0.057  0.000  0.086  0.407
tot    0.011  0.001  0.000  0.002  0.514  0.000  0.114  0.000  0.171  0.813
 
band    12 # energy    8.72249510 # occ.  2.00000000
 
ion      s     py     pz     px    dxy    dyz    dz2    dxz  x2-y2    tot
    1  0.004  0.001  0.000  0.002  0.110  0.000  0.269  0.000  0.037  0.421
    2  0.004  0.001  0.000  0.002  0.110  0.000  0.269  0.000  0.037  0.421
tot    0.008  0.001  0.000  0.003  0.219  0.000  0.538  0.000  0.073  0.843
 
band    13 # energy    9.16145174 # occ.  2.00000000
 
ion      s     py     pz     px    dxy    dyz    dz2    dxz  x2-y2    tot
    1  0.000  0.001  0.000  0.000  0.107  0.000  0.000  0.000  0.322  0.431
    2  0.000  0.001  0.000  0.000  0.107  0.000  0.000  0.000  0.322  0.431
tot    0.000  0.002  0.000  0.001  0.215  0.000  0.000  0.000  0.644  0.862
 
band    14 # energy    9.17796174 # occ.  2.00000000
 
ion      s     py     pz     px    dxy    dyz    dz2    dxz  x2-y2    tot
    1  0.000  0.000  0.000  0.000  0.000  0.324  0.000  0.108  0.000  0.432
    2  0.000  0.000  0.000  0.000  0.000  0.324  0.000  0.108  0.000  0.432
tot    0.000  0.000  0.000  0.000  0.000  0.647  0.000  0.216  0.000  0.863
 
band    15 # energy    9.19329258 # occ.  2.00000000
 
ion      s     py     pz     px    dxy    dyz    dz2    dxz  x2-y2    tot
    1  0.000  0.000  0.010  0.000  0.000  0.095  0.000  0.285  0.000  0.390
    2  0.000  0.000  0.010  0.000  0.000  0.095  0.000  0.285  0.000  0.390
tot    0.000  0.000  0.020  0.000  0.000  0.190  0.000  0.570  0.000  0.780
 
band    16 # energy    9.48690082 # occ.  2.00000000
 
ion      s     py     pz     px    dxy    dyz    dz2    dxz  x2-y2    tot
    1  0.000  0.001  0.000  0.000  0.110  0.000  0.000  0.000  0.329  0.440
    2  0.000  0.001  0.000  0.000  0.110  0.000  0.000  0.000  0.329  0.440
tot    0.000  0.002  0.000  0.001  0.219  0.000  0.000  0.000  0.658  0.881
 
band    17 # energy   11.58439635 # occ.  1.77060158
 
ion      s     py     pz     px    dxy    dyz    dz2    dxz  x2-y2    tot
    1  0.000  0.000  0.000  0.000  0.000  0.354  0.000  0.118  0.000  0.472
    2  0.000  0.000  0.000  0.000  0.000  0.354  0.000  0.118  0.000  0.472
tot    0.000  0.000  0.000  0.000  0.000  0.709  0.000  0.236  0.000  0.945
 
band    18 # energy   15.41218548 # occ.  0.00000000
 
ion      s     py     pz     px    dxy    dyz    dz2    dxz  x2-y2    tot
    1  0.000  0.000  0.062  0.000  0.000  0.051  0.000  0.153  0.000  0.266
    2  0.000  0.000  0.062  0.000  0.000  0.051  0.000  0.153  0.000  0.266
tot    0.000  0.000  0.124  0.000  0.000  0.102  0.000  0.306  0.000  0.532
 
band    19 # energy   16.38094665 # occ.  0.00000000
 
ion      s     py     pz     px    dxy    dyz    dz2    dxz  x2-y2    tot
    1  0.184  0.001  0.000  0.003  0.005  0.000  0.188  0.000  0.002  0.383
    2  0.184  0.001  0.000  0.003  0.005  0.000  0.188  0.000  0.002  0.383
tot    0.368  0.002  0.000  0.006  0.011  0.000  0.376  0.000  0.004  0.767
 
band    20 # energy   25.85163369 # occ.  0.00000000
 
ion      s     py     pz     px    dxy    dyz    dz2    dxz  x2-y2    tot
    1  0.026  0.016  0.000  0.049  0.054  0.000  0.026  0.000  0.018  0.189
    2  0.026  0.016  0.000  0.049  0.054  0.000  0.026  0.000  0.018  0.189
tot    0.052  0.033  0.000  0.098  0.107  0.000  0.052  0.000  0.036  0.378
 
band    21 # energy   28.48001832 # occ.  0.00000000
 
ion      s     py     pz     px    dxy    dyz    dz2    dxz  x2-y2    tot
    1  0.000  0.000  0.010  0.000  0.000  0.003  0.000  0.008  0.000  0.021
    2  0.000  0.000  0.010  0.000  0.000  0.003  0.000  0.008  0.000  0.021
tot    0.000  0.000  0.020  0.000  0.000  0.005  0.000  0.016  0.000  0.041
 
band    22 # energy   28.94226692 # occ.  0.00000000
 
ion      s     py     pz     px    dxy    dyz    dz2    dxz  x2-y2    tot
    1  0.000  0.082  0.000  0.027  0.011  0.000  0.000  0.000  0.033  0.154
    2  0.000  0.082  0.000  0.027  0.011  0.000  0.000  0.000  0.033  0.154
tot    0.000  0.164  0.000  0.055  0.022  0.000  0.000  0.000  0.067  0.307
 
band    23 # energy   29.71908162 # occ.  0.00000000
 
ion      s     py     pz     px    dxy    dyz    dz2    dxz  x2-y2    tot
    1  0.005  0.004  0.000  0.013  0.033  0.000  0.018  0.000  0.011  0.084
    2  0.005  0.004  0.000  0.013  0.033  0.000  0.018  0.000  0.011  0.084
tot    0.009  0.009  0.000  0.026  0.066  0.000  0.035  0.000  0.022  0.167
 
band    24 # energy   29.91239883 # occ.  0.00000000
 
ion      s     py     pz     px    dxy    dyz    dz2    dxz  x2-y2    tot
    1  0.000  0.000  0.004  0.000  0.000  0.016  0.000  0.047  0.000  0.067
    2  0.000  0.000  0.004  0.000  0.000  0.016  0.000  0.047  0.000  0.067
tot    0.000  0.000  0.007  0.000  0.000  0.032  0.000  0.095  0.000  0.133
 

 k-point     4 :    0.30000000-0.00000000 0.00000000     weight = 0.00750000

band     1 # energy  -41.15484890 # occ.  2.00000000
 
ion      s     py     pz     px    dxy    dyz    dz2    dxz  x2-y2    tot
    1  0.000  0.123  0.000  0.370  0.000  0.000  0.000  0.000  0.000  0.494
    2  0.000  0.123  0.000  0.370  0.000  0.000  0.000  0.000  0.000  0.494
tot    0.000  0.247  0.000  0.740  0.000  0.000  0.000  0.000  0.000  0.987
 
band     2 # energy  -41.11069820 # occ.  2.00000000
 
ion      s     py     pz     px    dxy    dyz    dz2    dxz  x2-y2    tot
    1  0.000  0.124  0.000  0.371  0.000  0.000  0.000  0.000  0.000  0.494
    2  0.000  0.124  0.000  0.371  0.000  0.000  0.000  0.000  0.000  0.494
tot    0.000  0.247  0.000  0.741  0.000  0.000  0.000  0.000  0.000  0.989
 
band     3 # energy  -40.98947607 # occ.  2.00000000
 
ion      s     py     pz     px    dxy    dyz    dz2    dxz  x2-y2    tot
    1  0.000  0.000  0.493  0.000  0.000  0.000  0.000  0.000  0.000  0.493
    2  0.000  0.000  0.493  0.000  0.000  0.000  0.000  0.000  0.000  0.493
tot    0.000  0.000  0.986  0.000  0.000  0.000  0.000  0.000  0.000  0.986
 
band     4 # energy  -40.96058389 # occ.  2.00000000
 
ion      s     py     pz     px    dxy    dyz    dz2    dxz  x2-y2    tot
    1  0.000  0.373  0.000  0.124  0.000  0.000  0.000  0.000  0.000  0.497
    2  0.000  0.373  0.000  0.124  0.000  0.000  0.000  0.000  0.000  0.497
tot    0.000  0.745  0.000  0.248  0.000  0.000  0.000  0.000  0.000  0.993
 
band     5 # energy  -40.89585838 # occ.  2.00000000
 
ion      s     py     pz     px    dxy    dyz    dz2    dxz  x2-y2    tot
    1  0.000  0.373  0.000  0.124  0.000  0.000  0.000  0.000  0.000  0.498
    2  0.000  0.373  0.000  0.124  0.000  0.000  0.000  0.000  0.000  0.498
tot    0.000  0.747  0.000  0.249  0.000  0.000  0.000  0.000  0.000  0.996
 
band     6 # energy  -40.75380751 # occ.  2.00000000
 
ion      s     py     pz     px    dxy    dyz    dz2    dxz  x2-y2    tot
    1  0.000  0.000  0.497  0.000  0.000  0.000  0.000  0.000  0.000  0.497
    2  0.000  0.000  0.497  0.000  0.000  0.000  0.000  0.000  0.000  0.497
tot    0.000  0.000  0.994  0.000  0.000  0.000  0.000  0.000  0.000  0.994
 
band     7 # energy    4.23481298 # occ.  2.00000000
 
ion      s     py     pz     px    dxy    dyz    dz2    dxz  x2-y2    tot
    1  0.140  0.003  0.000  0.009  0.050  0.000  0.006  0.000  0.017  0.224
    2  0.140  0.003  0.000  0.009  0.050  0.000  0.006  0.000  0.017  0.224
tot    0.281  0.006  0.000  0.017  0.099  0.000  0.012  0.000  0.033  0.448
 
band     8 # energy    5.50108213 # occ.  2.00000000
 
ion      s     py     pz     px    dxy    dyz    dz2    dxz  x2-y2    tot
    1  0.021  0.000  0.000  0.001  0.164  0.000  0.119  0.000  0.055  0.359
    2  0.021  0.000  0.000  0.001  0.164  0.000  0.119  0.000  0.055  0.359
tot    0.042  0.001  0.000  0.002  0.327  0.000  0.238  0.000  0.109  0.719
 
band     9 # energy    6.63258242 # occ.  2.00000000
 
ion      s     py     pz     px    dxy    dyz    dz2    dxz  x2-y2    tot
    1  0.000  0.000  0.011  0.000  0.000  0.079  0.000  0.238  0.000  0.329
    2  0.000  0.000  0.011  0.000  0.000  0.079  0.000  0.238  0.000  0.329
tot    0.000  0.000  0.022  0.000  0.000  0.159  0.000  0.477  0.000  0.658
 
band    10 # energy    7.50929637 # occ.  2.00000000
 
ion      s     py     pz     px    dxy    dyz    dz2    dxz  x2-y2    tot
    1  0.013  0.003  0.000  0.010  0.207  0.000  0.046  0.000  0.069  0.348
    2  0.013  0.003  0.000  0.010  0.207  0.000  0.046  0.000  0.069  0.348
tot    0.026  0.006  0.000  0.019  0.414  0.000  0.092  0.000  0.138  0.696
 
band    11 # energy    7.88377624 # occ.  2.00000000
 
ion      s     py     pz     px    dxy    dyz    dz2    dxz  x2-y2    tot