   1   1   0   0
  0.1081089E+02  0.2481945E-09  0.2481945E-09  0.2481945E-09  0.5000000E-15
  1.000000000000000E-004
  CAR 
 Co fcc                                  
     53.55073336     -0.82752034  301     10.40104542      1.00000000
     -0.828  0.0000E+00  0.0000E+00  0.0000E+00  0.0000E+00
     -0.646  0.0000E+00  0.0000E+00  0.0000E+00  0.0000E+00
     -0.465  0.0000E+00  0.0000E+00  0.0000E+00  0.0000E+00
     -0.284  0.0000E+00  0.0000E+00  0.0000E+00  0.0000E+00
     -0.102 -0.9433E-34 -0.2245E-34 -0.1710E-34 -0.4069E-35
      0.079 -0.2789E-27 -0.7713E-28 -0.5055E-28 -0.1398E-28
      0.260 -0.1573E-21 -0.5059E-22 -0.2852E-22 -0.9170E-23
      0.441 -0.1688E-16 -0.6311E-17 -0.3059E-17 -0.1144E-17
      0.623 -0.3293E-12 -0.1435E-12 -0.5970E-13 -0.2601E-13
      0.804 -0.1228E-08 -0.6241E-09 -0.2227E-09 -0.1131E-09
      0.985 -0.8295E-06 -0.4931E-06 -0.1506E-06 -0.8949E-07
      1.166 -0.9477E-04 -0.6657E-04 -0.1733E-04 -0.1216E-04
      1.348 -0.1355E-02 -0.1193E-02 -0.2630E-03 -0.2284E-03
      1.529  0.6084E-02  0.4082E-02  0.8398E-03  0.5114E-03
      1.710  0.3433E-01  0.3305E-01  0.7062E-02  0.6502E-02
      1.891  0.1354E-01  0.1674E-01  0.9516E-02  0.9536E-02
      2.073 -0.5996E-02 -0.5257E-02  0.8429E-02  0.8583E-02
      2.254  0.2443E-01  0.1473E-01  0.1286E-01  0.1125E-01
      2.435  0.1049E+00  0.1013E+00  0.3187E-01  0.2961E-01
      2.616  0.3259E-01  0.4580E-01  0.3777E-01  0.3791E-01
      2.798 -0.8460E-02 -0.9256E-02  0.3624E-01  0.3623E-01
      2.979  0.5692E-01  0.3443E-01  0.4656E-01  0.4247E-01
      3.160  0.9484E-01  0.1045E+00  0.6375E-01  0.6142E-01
      3.341  0.2751E-02  0.2019E-01  0.6425E-01  0.6508E-01
      3.523  0.3362E-01 -0.1309E-02  0.7034E-01  0.6484E-01
      3.704  0.1381E+00  0.1112E+00  0.9538E-01  0.8499E-01
      3.885  0.3413E-01  0.9510E-01  0.1016E+00  0.1022E+00
      4.067  0.2627E-01 -0.1032E-01  0.1063E+00  0.1004E+00
      4.248  0.1992E+00  0.9564E-01  0.1424E+00  0.1177E+00
      4.429  0.1088E+00  0.1976E+00  0.1621E+00  0.1535E+00
      4.610  0.8956E-01  0.2918E-01  0.1784E+00  0.1588E+00
      4.792  0.4441E-01  0.7707E-01  0.1864E+00  0.1728E+00
      4.973  0.1394E+00  0.6565E-01  0.2117E+00  0.1847E+00
      5.154  0.3299E+00  0.1546E-01  0.2715E+00  0.1875E+00
      5.335  0.5079E+00  0.1624E+00  0.3635E+00  0.2169E+00
      5.517  0.6079E+00  0.1695E+00  0.4737E+00  0.2476E+00
      5.698  0.6508E+00  0.1810E+00  0.5917E+00  0.2804E+00
      5.879  0.6590E+00  0.2410E+00  0.7112E+00  0.3241E+00
      6.060  0.9358E+00  0.1373E+00  0.8808E+00  0.3490E+00
      6.242  0.9785E+00  0.2280E+00  0.1058E+01  0.3903E+00
      6.423  0.8575E+00  0.4520E+00  0.1214E+01  0.4723E+00
      6.604  0.8799E+00  0.4844E+00  0.1373E+01  0.5601E+00
      6.785  0.8288E+00  0.5222E+00  0.1523E+01  0.6547E+00
      6.967  0.6795E+00  0.3390E+00  0.1646E+01  0.7162E+00
      7.148  0.9745E+00  0.4649E+00  0.1823E+01  0.8004E+00
      7.329  0.1130E+01  0.8460E+00  0.2028E+01  0.9538E+00
      7.510  0.1201E+01  0.7583E+00  0.2246E+01  0.1091E+01
      7.692  0.1315E+01  0.7146E+00  0.2484E+01  0.1221E+01
      7.873  0.1611E+01  0.7203E+00  0.2776E+01  0.1351E+01
      8.054  0.1624E+01  0.8004E+00  0.3070E+01  0.1496E+01
      8.236  0.9823E+00  0.5577E+00  0.3248E+01  0.1597E+01
      8.417  0.9052E+00  0.6593E+00  0.3412E+01  0.1717E+01
      8.598  0.1329E+01  0.1067E+01  0.3653E+01  0.1910E+01
      8.779  0.1408E+01  0.1171E+01  0.3909E+01  0.2123E+01
      8.961  0.8979E+00  0.7481E+00  0.4071E+01  0.2258E+01
      9.142  0.1136E+01  0.1014E+01  0.4277E+01  0.2442E+01
      9.323  0.1139E+01  0.1060E+01  0.4484E+01  0.2634E+01
      9.504  0.1575E+01  0.1128E+01  0.4769E+01  0.2839E+01
      9.686  0.1652E+01  0.1294E+01  0.5068E+01  0.3073E+01
      9.867  0.7914E+00  0.9050E+00  0.5212E+01  0.3237E+01
     10.048  0.2112E+00  0.7225E+00  0.5250E+01  0.3368E+01
     10.229  0.1701E+00  0.6982E+00  0.5281E+01  0.3495E+01
     10.411  0.2942E+00  0.1025E+01  0.5334E+01  0.3680E+01
     10.592  0.1283E+00  0.1147E+01  0.5357E+01  0.3888E+01
     10.773  0.6206E-01  0.7104E+00  0.5369E+01  0.4017E+01
     10.954  0.9813E-01  0.1244E+01  0.5386E+01  0.4243E+01
     11.136  0.9006E-01  0.1128E+01  0.5403E+01  0.4447E+01
     11.317  0.1796E+00  0.9772E+00  0.5435E+01  0.4624E+01
     11.498  0.3644E+00  0.1686E+01  0.5501E+01  0.4930E+01
     11.679  0.1578E+00  0.1314E+01  0.5530E+01  0.5168E+01
     11.861 -0.1936E-01  0.6019E+00  0.5527E+01  0.5277E+01
     12.042  0.9356E-01  0.4905E+00  0.5543E+01  0.5366E+01
     12.223  0.1999E+00  0.2205E+00  0.5580E+01  0.5406E+01
     12.405  0.2093E-01  0.5148E-01  0.5584E+01  0.5415E+01
     12.586  0.2094E-01  0.6337E-01  0.5587E+01  0.5427E+01
     12.767  0.1674E+00  0.2151E+00  0.5618E+01  0.5466E+01
     12.948  0.1580E+00  0.2166E+00  0.5646E+01  0.5505E+01
     13.130  0.1835E+00  0.1747E+00  0.5680E+01  0.5537E+01
     13.311  0.7961E-01  0.2046E+00  0.5694E+01  0.5574E+01
     13.492  0.4136E-02  0.1484E+00  0.5695E+01  0.5601E+01
     13.673  0.3291E+00  0.1594E+00  0.5754E+01  0.5630E+01
     13.855  0.2930E+00  0.1573E+00  0.5807E+01  0.5658E+01
     14.036 -0.3673E-02  0.5066E-01  0.5807E+01  0.5667E+01
     14.217 -0.1600E-01  0.6029E-01  0.5804E+01  0.5678E+01
     14.398  0.4339E-01  0.8040E-01  0.5812E+01  0.5693E+01
     14.580  0.2085E+00  0.2615E+00  0.5850E+01  0.5740E+01
     14.761  0.7434E-01  0.3391E+00  0.5863E+01  0.5802E+01
     14.942 -0.1005E-01  0.2533E-01  0.5861E+01  0.5806E+01
     15.123 -0.1012E-01  0.1199E+00  0.5859E+01  0.5828E+01
     15.305  0.3305E-01  0.1791E+00  0.5865E+01  0.5860E+01
     15.486  0.2436E+00  0.9775E-02  0.5910E+01  0.5862E+01
     15.667  0.1861E+00 -0.5752E-02  0.5943E+01  0.5861E+01
     15.848  0.1252E-01 -0.6574E-02  0.5946E+01  0.5860E+01
     16.030 -0.7462E-02  0.3023E-02  0.5944E+01  0.5860E+01
     16.211 -0.9455E-02  0.2324E+00  0.5942E+01  0.5903E+01
     16.392  0.9167E-01  0.2336E+00  0.5959E+01  0.5945E+01
     16.574  0.1978E+00  0.3761E-02  0.5995E+01  0.5946E+01
     16.755  0.7989E-01 -0.1145E-01  0.6009E+01  0.5944E+01
     16.936  0.1244E+00  0.5750E-02  0.6032E+01  0.5945E+01
     17.117  0.1456E+00  0.1720E+00  0.6058E+01  0.5976E+01
     17.299  0.2164E+00  0.1405E+00  0.6098E+01  0.6001E+01
     17.480  0.7553E-01 -0.8558E-02  0.6111E+01  0.6000E+01
     17.661  0.9966E-01  0.7080E-02  0.6129E+01  0.6001E+01
     17.842  0.1888E+00  0.1412E+00  0.6164E+01  0.6027E+01
     18.024  0.3664E-01  0.2687E+00  0.6170E+01  0.6075E+01
     18.205  0.1008E+00  0.1964E+00  0.6188E+01  0.6111E+01
     18.386  0.1916E+00  0.1700E+00  0.6223E+01  0.6142E+01
     18.567  0.1855E+00  0.1384E+00  0.6257E+01  0.6167E+01
     18.749  0.1611E+00  0.6136E-01  0.6286E+01  0.6178E+01
     18.930  0.1498E+00  0.1058E+00  0.6313E+01  0.6197E+01
     19.111  0.7369E-01  0.1006E+00  0.6327E+01  0.6215E+01
     19.292  0.2017E+00  0.3280E+00  0.6363E+01  0.6275E+01
     19.474  0.4101E-01  0.2179E+00  0.6371E+01  0.6314E+01
     19.655  0.1219E+00  0.1524E-01  0.6393E+01  0.6317E+01
     19.836  0.1786E+00  0.1671E+00  0.6425E+01  0.6347E+01
     20.017  0.5373E-02  0.1232E+00  0.6426E+01  0.6370E+01
     20.199  0.3728E-01  0.8452E-01  0.6433E+01  0.6385E+01
     20.380  0.8626E-01  0.2012E+00  0.6448E+01  0.6421E+01
     20.561  0.8327E-01  0.3091E-01  0.6463E+01  0.6427E+01
     20.743  0.4035E+00 -0.5994E-02  0.6537E+01  0.6426E+01
     20.924  0.1667E+00  0.7748E-01  0.6567E+01  0.6440E+01
     21.105  0.4523E-01  0.7007E-01  0.6575E+01  0.6453E+01
     21.286  0.1901E+00  0.2225E+00  0.6609E+01  0.6493E+01
     21.468  0.1695E+00  0.3018E+00  0.6640E+01  0.6548E+01
     21.649  0.4352E+00  0.1323E+00  0.6719E+01  0.6572E+01
     21.830  0.2226E+00  0.1914E+00  0.6759E+01  0.6606E+01
     22.011  0.9170E-01  0.1562E+00  0.6776E+01  0.6635E+01
     22.193  0.2235E+00  0.3578E+00  0.6817E+01  0.6700E+01
     22.374  0.2225E+00  0.3219E+00  0.6857E+01  0.6758E+01
     22.555  0.1006E+00  0.2199E+00  0.6875E+01  0.6798E+01
     22.736  0.9335E-01  0.1264E+00  0.6892E+01  0.6821E+01
     22.918  0.3101E-01  0.1890E+00  0.6898E+01  0.6855E+01
     23.099  0.1620E-01  0.1172E+00  0.6901E+01  0.6876E+01
     23.280  0.2316E+00  0.9439E-01  0.6943E+01  0.6893E+01
     23.461  0.3307E+00  0.1715E-01  0.7003E+01  0.6896E+01
     23.643  0.3436E+00  0.7424E-01  0.7065E+01  0.6910E+01
     23.824  0.3354E+00  0.3464E+00  0.7126E+01  0.6973E+01
     24.005  0.1572E+00  0.3191E+00  0.7154E+01  0.7031E+01
     24.186  0.1121E+00  0.4900E+00  0.7174E+01  0.7119E+01
     24.368  0.1690E-02  0.1801E+00  0.7175E+01  0.7152E+01
     24.549  0.6646E-01  0.5694E-01  0.7187E+01  0.7162E+01
     24.730  0.1914E+00  0.7153E-01  0.7222E+01  0.7175E+01
     24.912  0.2809E+00 -0.3027E-02  0.7272E+01  0.7175E+01
     25.093  0.5073E+00  0.1740E+00  0.7364E+01  0.7206E+01
     25.274  0.2090E+00  0.4033E+00  0.7402E+01  0.7279E+01
     25.455  0.3153E-01  0.4164E+00  0.7408E+01  0.7355E+01
     25.637  0.1634E+00  0.2072E+00  0.7438E+01  0.7392E+01
     25.818  0.3151E+00  0.8318E-01  0.7495E+01  0.7407E+01
     25.999  0.4713E+00  0.1980E+00  0.7580E+01  0.7443E+01
     26.180  0.3359E+00  0.2866E+00  0.7641E+01  0.7495E+01
     26.362  0.1516E+00  0.4052E+00  0.7669E+01  0.7569E+01
     26.543  0.7954E-01  0.3997E+00  0.7683E+01  0.7641E+01
     26.724  0.3539E-01  0.1582E+00  0.7689E+01  0.7670E+01
     26.905  0.1926E+00  0.7422E-01  0.7724E+01  0.7683E+01
     27.087  0.2209E+00  0.9717E-01  0.7764E+01  0.7701E+01
     27.268  0.3185E+00  0.1938E+00  0.7822E+01  0.7736E+01
     27.449  0.2978E+00  0.2135E+00  0.7876E+01  0.7775E+01
     27.630  0.2385E-01  0.3164E+00  0.7880E+01  0.7832E+01
     27.812  0.3077E-01  0.2502E+00  0.7886E+01  0.7877E+01
     27.993  0.2097E+00  0.2132E-01  0.7924E+01  0.7881E+01
     28.174  0.3075E+00  0.7756E-01  0.7980E+01  0.7895E+01
     28.355  0.7402E-01  0.1916E+00  0.7993E+01  0.7930E+01
     28.537  0.8552E-01  0.2734E+00  0.8009E+01  0.7980E+01
     28.718  0.2543E+00  0.7780E-01  0.8055E+01  0.7994E+01
     28.899  0.4379E+00  0.1716E+00  0.8134E+01  0.8025E+01
     29.081  0.2256E+00  0.4260E+00  0.8175E+01  0.8102E+01
     29.262  0.1749E+00  0.3059E+00  0.8207E+01  0.8158E+01
     29.443  0.1135E+00  0.1961E+00  0.8227E+01  0.8193E+01
     29.624  0.2867E+00  0.1685E+00  0.8279E+01  0.8224E+01
     29.806  0.1086E+00  0.1488E+00  0.8299E+01  0.8251E+01
     29.987 -0.1197E-01  0.2131E+00  0.8297E+01  0.8289E+01
     30.168 -0.5338E-02  0.4886E-01  0.8296E+01  0.8298E+01
     30.349 -0.1905E-01 -0.1197E-01  0.8292E+01  0.8296E+01
     30.531  0.1691E+00 -0.5847E-02  0.8323E+01  0.8295E+01
     30.712  0.4669E+00  0.8094E-01  0.8408E+01  0.8310E+01
     30.893  0.1744E+00  0.4282E+00  0.8439E+01  0.8387E+01
     31.074  0.1465E+00  0.4172E+00  0.8466E+01  0.8463E+01
     31.256  0.3217E+00 -0.5443E-03  0.8524E+01  0.8463E+01
     31.437  0.3340E+00  0.1118E+00  0.8585E+01  0.8483E+01
     31.618  0.3738E+00  0.3374E+00  0.8652E+01  0.8544E+01
     31.799  0.3177E-01  0.3435E+00  0.8658E+01  0.8606E+01
     31.981  0.5509E-01  0.3485E+00  0.8668E+01  0.8669E+01
     32.162  0.3447E+00  0.1992E+00  0.8731E+01  0.8706E+01
     32.343  0.4218E+00  0.1574E+00  0.8807E+01  0.8734E+01
     32.524  0.1526E+00  0.3309E+00  0.8835E+01  0.8794E+01
     32.706  0.1609E-01  0.2499E+00  0.8838E+01  0.8839E+01
     32.887  0.1687E-01  0.1807E-01  0.8841E+01  0.8843E+01
     33.068  0.2137E+00  0.2212E-01  0.8879E+01  0.8847E+01
     33.250  0.3274E+00  0.2006E+00  0.8939E+01  0.8883E+01
     33.431  0.1045E+00  0.2232E+00  0.8958E+01  0.8924E+01
     33.612  0.2656E+00  0.2125E+00  0.9006E+01  0.8962E+01
     33.793  0.3180E+00  0.2385E+00  0.9063E+01  0.9005E+01
     33.975  0.2925E+00  0.3112E+00  0.9116E+01  0.9062E+01
     34.156  0.4387E+00  0.2330E+00  0.9196E+01  0.9104E+01
     34.337  0.3046E+00  0.6028E+00  0.9251E+01  0.9213E+01
     34.518  0.1787E+00  0.3048E+00  0.9284E+01  0.9268E+01
     34.700  0.5212E-01  0.1067E-01  0.9293E+01  0.9270E+01
     34.881  0.2547E+00  0.6378E-01  0.9339E+01  0.9282E+01
     35.062  0.5927E+00  0.3973E+00  0.9447E+01  0.9354E+01
     35.243  0.3629E+00  0.6800E+00  0.9512E+01  0.9477E+01
     35.425  0.3263E+00  0.2793E+00  0.9572E+01  0.9528E+01
     35.606  0.1705E+00  0.1519E+00  0.9602E+01  0.9555E+01
     35.787  0.6359E-01  0.9122E-01  0.9614E+01  0.9572E+01
     35.968  0.1140E+00  0.1428E+00  0.9635E+01  0.9598E+01
     36.150  0.1726E+00  0.4361E-01  0.9666E+01  0.9606E+01
     36.331  0.1542E+00  0.1369E+00  0.9694E+01  0.9630E+01
     36.512  0.2823E+00  0.2309E+00  0.9745E+01  0.9672E+01
     36.693  0.3528E+00  0.3934E+00  0.9809E+01  0.9744E+01
     36.875  0.3137E+00  0.3997E+00  0.9866E+01  0.9816E+01
     37.056  0.1973E+00  0.2297E+00  0.9902E+01  0.9858E+01
     37.237  0.9124E-01  0.1741E+00  0.9918E+01  0.9889E+01
     37.419  0.8623E-01  0.1704E+00  0.9934E+01  0.9920E+01
     37.600  0.1790E+00  0.6006E-01  0.9966E+01  0.9931E+01
     37.781  0.4027E+00  0.2845E+00  0.1004E+02  0.9983E+01
     37.962  0.1081E+00  0.3813E+00  0.1006E+02  0.1005E+02
     38.144 -0.1963E-01  0.3469E-01  0.1006E+02  0.1006E+02
     38.325  0.1497E-01 -0.1406E-01  0.1006E+02  0.1006E+02
     38.506  0.6025E-01 -0.1767E-02  0.1007E+02  0.1006E+02
     38.687  0.6074E-01  0.4683E-01  0.1008E+02  0.1006E+02
     38.869  0.2402E+00  0.4494E-01  0.1012E+02  0.1007E+02
     39.050  0.4172E+00  0.3133E-01  0.1020E+02  0.1008E+02
     39.231  0.3649E+00  0.3465E+00  0.1027E+02  0.1014E+02
     39.412  0.4188E-01  0.3541E+00  0.1027E+02  0.1020E+02
     39.594  0.6785E-01  0.3108E+00  0.1029E+02  0.1026E+02
     39.775  0.1012E+00  0.1490E+00  0.1030E+02  0.1029E+02
     39.956  0.6602E+00  0.9697E-01  0.1042E+02  0.1031E+02
     40.137  0.7722E+00  0.4225E+00  0.1056E+02  0.1038E+02
     40.319  0.3140E+00  0.1004E+01  0.1062E+02  0.1056E+02
     40.500  0.1731E+00  0.4288E+00  0.1065E+02  0.1064E+02
     40.681  0.2913E-01  0.6623E-01  0.1066E+02  0.1065E+02
     40.862  0.6469E-01  0.1778E-01  0.1067E+02  0.1066E+02
     41.044  0.2599E+00  0.1902E-01  0.1072E+02  0.1066E+02
     41.225  0.1611E+00  0.2015E+00  0.1074E+02  0.1070E+02
     41.406  0.2729E+00  0.1985E+00  0.1079E+02  0.1073E+02
     41.588  0.2475E+00  0.3003E+00  0.1084E+02  0.1079E+02
     41.769  0.2314E+00  0.2870E+00  0.1088E+02  0.1084E+02
     41.950  0.3363E+00  0.7565E-01  0.1094E+02  0.1085E+02
     42.131  0.2270E+00  0.3506E+00  0.1098E+02  0.1092E+02
     42.313  0.1983E+00  0.3946E+00  0.1102E+02  0.1099E+02
     42.494  0.1946E+00  0.1452E+00  0.1105E+02  0.1101E+02
     42.675  0.2885E+00  0.1949E+00  0.1111E+02  0.1105E+02
     42.856  0.1274E+00  0.2345E+00  0.1113E+02  0.1109E+02
     43.038  0.3999E-01  0.1113E+00  0.1114E+02  0.1111E+02
     43.219  0.4638E-01  0.8740E-01  0.1115E+02  0.1113E+02
     43.400  0.4159E+00  0.2396E+00  0.1122E+02  0.1117E+02
     43.581  0.3411E+00  0.4369E+00  0.1128E+02  0.1125E+02
     43.763  0.1288E+00  0.1616E+00  0.1131E+02  0.1128E+02
     43.944  0.2431E+00 -0.3160E-01  0.1135E+02  0.1127E+02
     44.125  0.3873E+00  0.9368E-01  0.1142E+02  0.1129E+02
     44.306  0.2640E+00  0.5533E+00  0.1147E+02  0.1139E+02
     44.488  0.2735E-01  0.4241E+00  0.1147E+02  0.1147E+02
     44.669  0.1764E+00  0.4247E-01  0.1150E+02  0.1148E+02
     44.850  0.2511E+00  0.8183E-01  0.1155E+02  0.1149E+02
     45.031  0.4699E-01  0.5169E-01  0.1156E+02  0.1150E+02
     45.213  0.2651E+00  0.9419E-01  0.1161E+02  0.1152E+02
     45.394  0.1888E+00  0.2366E+00  0.1164E+02  0.1156E+02
     45.575 -0.9182E-02  0.2676E+00  0.1164E+02  0.1161E+02
     45.757 -0.1119E-01  0.1669E+00  0.1164E+02  0.1164E+02
     45.938  0.2170E-01  0.3502E-02  0.1164E+02  0.1164E+02
     46.119  0.1851E+00 -0.1010E-01  0.1168E+02  0.1164E+02
     46.300  0.1439E+00 -0.2940E-02  0.1170E+02  0.1164E+02
     46.482  0.2974E+00  0.1933E+00  0.1176E+02  0.1167E+02
     46.663  0.3119E+00  0.2572E+00  0.1181E+02  0.1172E+02
     46.844  0.1167E+00  0.1924E-01  0.1183E+02  0.1172E+02
     47.025  0.1101E-01  0.2733E-02  0.1183E+02  0.1172E+02
     47.207  0.4127E+00  0.1949E+00  0.1191E+02  0.1176E+02
     47.388  0.4550E+00  0.2892E+00  0.1199E+02  0.1181E+02
     47.569  0.5915E-01  0.1336E+00  0.1200E+02  0.1184E+02
     47.750 -0.1349E-01 -0.6210E-02  0.1200E+02  0.1183E+02
     47.932 -0.1498E-02 -0.7885E-02  0.1200E+02  0.1183E+02
     48.113 -0.2445E-04 -0.4756E-02  0.1200E+02  0.1183E+02
     48.294 -0.7147E-07  0.1812E+00  0.1200E+02  0.1186E+02
     48.475 -0.3840E-10  0.2602E+00  0.1200E+02  0.1191E+02
     48.657 -0.3845E-14  0.5024E-01  0.1200E+02  0.1192E+02
     48.838  0.0000E+00  0.9362E-01  0.1200E+02  0.1194E+02
     49.019  0.0000E+00  0.4245E-01  0.1200E+02  0.1195E+02
     49.200  0.0000E+00 -0.4654E-02  0.1200E+02  0.1194E+02
     49.382  0.0000E+00 -0.7755E-03  0.1200E+02  0.1194E+02
     49.563  0.0000E+00 -0.1164E-04  0.1200E+02  0.1194E+02
     49.744  0.0000E+00 -0.2835E-07  0.1200E+02  0.1194E+02
     49.926  0.0000E+00 -0.3729E-10  0.1200E+02  0.1194E+02
     50.107  0.0000E+00 -0.4975E-07  0.1200E+02  0.1194E+02
     50.288  0.0000E+00 -0.1769E-04  0.1200E+02  0.1194E+02
     50.469  0.0000E+00 -0.1014E-02  0.1200E+02  0.1194E+02
     50.651  0.0000E+00 -0.5006E-02  0.1200E+02  0.1194E+02
     50.832  0.0000E+00  0.4676E-01  0.1200E+02  0.1195E+02
     51.013  0.0000E+00  0.1407E+00  0.1200E+02  0.1198E+02
     51.194  0.0000E+00  0.1149E+00  0.1200E+02  0.1200E+02
     51.376  0.0000E+00  0.1470E-01  0.1200E+02  0.1200E+02
     51.557  0.0000E+00 -0.4261E-02  0.1200E+02  0.1200E+02
     51.738  0.0000E+00 -0.2857E-03  0.1200E+02  0.1200E+02
     51.919  0.0000E+00 -0.2490E-05  0.1200E+02  0.1200E+02
     52.101  0.0000E+00 -0.3685E-08  0.1200E+02  0.1200E+02
     52.282  0.0000E+00 -0.9881E-12  0.1200E+02  0.1200E+02
     52.463  0.0000E+00 -0.3403E-16  0.1200E+02  0.1200E+02
     52.644  0.0000E+00  0.0000E+00  0.1200E+02  0.1200E+02
     52.826  0.0000E+00  0.0000E+00  0.1200E+02  0.1200E+02
     53.007  0.0000E+00  0.0000E+00  0.1200E+02  0.1200E+02
     53.188  0.0000E+00  0.0000E+00  0.1200E+02  0.1200E+02
     53.369  0.0000E+00  0.0000E+00  0.1200E+02  0.1200E+02
     53.551  0.0000E+00  0.0000E+00  0.1200E+02  0.1200E+02
