<?xml version="1.0" encoding="ISO-8859-1"?>
<modeling>
 <generator>
  <i name="program" type="string">vasp </i>
  <i name="version" type="string">6.3.2  </i>
  <i name="subversion" type="string">27Jun22 (build Aug 12 2022 00:53:59) complex                          parallel </i>
  <i name="platform" type="string">tv2STD </i>
  <i name="date" type="string">2024 11 30 </i>
  <i name="time" type="string">15:06:39 </i>
 </generator>
 <incar>
  <i type="string" name="SYSTEM">Co fcc</i>
  <i type="int" name="ISTART">     0</i>
  <i type="string" name="PREC">Accurate      normal | accurate</i>
  <i type="string" name="ALGO">Normal     Normal, Fast, Very_Fast</i>
  <i type="logical" name="ADDGRID"> F  </i>
  <i type="int" name="ISPIN">     2</i>
  <i type="int" name="ICHARG">     2</i>
  <i type="int" name="INIWAV">     1</i>
  <i type="int" name="NELM">   100</i>
  <i type="int" name="IBRION">    -1</i>
  <i name="EDIFF">      0.00000100</i>
  <i name="EDIFFG">     -0.02000000</i>
  <i type="int" name="NSW">     0</i>
  <i type="int" name="ISIF">     2</i>
  <i type="int" name="ISYM">     1</i>
  <i name="ENCUT">    400.00000000</i>
  <v name="MAGMOM">      3.00000000</v>
  <i type="logical" name="LREAL"> F  </i>
  <i type="int" name="ISMEAR">     1</i>
  <i name="SIGMA">      0.20000000</i>
  <i type="int" name="NWRITE">     2</i>
  <i type="logical" name="LWAVE"> F  </i>
  <i type="logical" name="LCHARG"> F  </i>
 </incar>
 <primitive_cell>
  <structure name="primitive_cell" >
   <crystal>
    <varray name="basis" >
     <v>       0.00000000       1.75500000       1.75500000 </v>
     <v>       1.75500000       0.00000000       1.75500000 </v>
     <v>       1.75500000       1.75500000       0.00000000 </v>
    </varray>
    <i name="volume">     10.81088775 </i>
    <varray name="rec_basis" >
     <v>      -0.28490028       0.28490028       0.28490028 </v>
     <v>       0.28490028      -0.28490028       0.28490028 </v>
     <v>       0.28490028       0.28490028      -0.28490028 </v>
    </varray>
   </crystal>
   <varray name="positions" >
    <v>       0.00000000       0.00000000       0.00000000 </v>
   </varray>
  </structure>
  <varray name="primitive_index" >
   <v type="int" >        1 </v>
  </varray>
 </primitive_cell>
 <kpoints>
  <generation param="Monkhorst-Pack">
   <v type="int" name="divisions">       6        6        6 </v>
   <v name="usershift">      0.00000000       0.00000000       0.00000000 </v>
   <v name="genvec1">      0.16666667       0.00000000       0.00000000 </v>
   <v name="genvec2">      0.00000000       0.16666667       0.00000000 </v>
   <v name="genvec3">      0.00000000       0.00000000       0.16666667 </v>
   <v name="shift">      0.50000000       0.50000000       0.50000000 </v>
  </generation>
  <varray name="kpointlist" >
   <v>       0.08333333       0.08333333       0.08333333 </v>
   <v>       0.25000000       0.08333333       0.08333333 </v>
   <v>       0.41666667       0.08333333       0.08333333 </v>
   <v>      -0.41666667       0.08333333       0.08333333 </v>
   <v>      -0.25000000       0.08333333       0.08333333 </v>
   <v>      -0.08333333       0.08333333       0.08333333 </v>
   <v>       0.25000000       0.25000000       0.08333333 </v>
   <v>       0.41666667       0.25000000       0.08333333 </v>
   <v>      -0.41666667       0.25000000       0.08333333 </v>
   <v>      -0.25000000       0.25000000       0.08333333 </v>
   <v>      -0.08333333       0.25000000       0.08333333 </v>
   <v>       0.41666667       0.41666667       0.08333333 </v>
   <v>      -0.41666667       0.41666667       0.08333333 </v>
   <v>      -0.25000000       0.41666667       0.08333333 </v>
   <v>      -0.08333333       0.41666667       0.08333333 </v>
   <v>      -0.41666667      -0.41666667       0.08333333 </v>
   <v>      -0.25000000      -0.41666667       0.08333333 </v>
   <v>      -0.25000000      -0.25000000       0.08333333 </v>
   <v>       0.25000000       0.25000000       0.25000000 </v>
   <v>       0.41666667       0.25000000       0.25000000 </v>
   <v>      -0.41666667       0.25000000       0.25000000 </v>
   <v>      -0.25000000       0.25000000       0.25000000 </v>
   <v>       0.41666667       0.41666667       0.25000000 </v>
   <v>      -0.41666667       0.41666667       0.25000000 </v>
   <v>      -0.25000000       0.41666667       0.25000000 </v>
   <v>      -0.41666667      -0.41666667       0.25000000 </v>
   <v>       0.41666667       0.41666667       0.41666667 </v>
   <v>      -0.41666667       0.41666667       0.41666667 </v>
  </varray>
  <varray name="weights" >
   <v>       0.00925926 </v>
   <v>       0.02777778 </v>
   <v>       0.02777778 </v>
   <v>       0.02777778 </v>
   <v>       0.02777778 </v>
   <v>       0.02777778 </v>
   <v>       0.02777778 </v>
   <v>       0.05555556 </v>
   <v>       0.05555556 </v>
   <v>       0.05555556 </v>
   <v>       0.05555556 </v>
   <v>       0.02777778 </v>
   <v>       0.05555556 </v>
   <v>       0.05555556 </v>
   <v>       0.05555556 </v>
   <v>       0.02777778 </v>
   <v>       0.05555556 </v>
   <v>       0.02777778 </v>
   <v>       0.00925926 </v>
   <v>       0.02777778 </v>
   <v>       0.02777778 </v>
   <v>       0.02777778 </v>
   <v>       0.02777778 </v>
   <v>       0.05555556 </v>
   <v>       0.05555556 </v>
   <v>       0.02777778 </v>
   <v>       0.00925926 </v>
   <v>       0.02777778 </v>
  </varray>
 </kpoints>
 <parameters>
  <separator name="general" >
   <i type="string" name="SYSTEM">Co fcc</i>
   <i type="logical" name="LCOMPAT"> F  </i>
  </separator>
  <separator name="electronic" >
   <i type="string" name="PREC">accura</i>
   <i name="ENMAX">    400.00000000</i>
   <i name="ENAUG">    477.81800000</i>
   <i name="EDIFF">      0.00000100</i>
   <i type="int" name="IALGO">    38</i>
   <i type="int" name="IWAVPR">    10</i>
   <i type="int" name="NBANDS">    12</i>
   <i type="int" name="NBANDSLOW">    -1</i>
   <i type="int" name="NBANDSHIGH">    -1</i>
   <i name="NELECT">      9.00000000</i>
   <i type="int" name="TURBO">     0</i>
   <i type="int" name="IRESTART">     0</i>
   <i type="int" name="NREBOOT">     0</i>
   <i type="int" name="NMIN">     0</i>
   <i name="EREF">      0.00000000</i>
   <separator name="electronic smearing" >
    <i type="int" name="ISMEAR">     1</i>
    <i name="SIGMA">      0.20000000</i>
    <i name="KSPACING">      0.50000000</i>
    <i type="logical" name="KGAMMA"> T  </i>
    <i type="logical" name="KBLOWUP"> T  </i>
   </separator>
   <separator name="electronic projectors" >
    <i type="logical" name="LREAL"> F  </i>
    <v name="ROPT">      0.00000000</v>
    <i type="int" name="LMAXPAW">  -100</i>
    <i type="int" name="LMAXMIX">     2</i>
    <i type="logical" name="NLSPLINE"> F  </i>
   </separator>
   <separator name="electronic startup" >
    <i type="int" name="ISTART">     0</i>
    <i type="int" name="ICHARG">     2</i>
    <i type="int" name="INIWAV">     1</i>
   </separator>
   <separator name="electronic spin" >
    <i type="int" name="ISPIN">     2</i>
    <i type="logical" name="LNONCOLLINEAR"> F  </i>
    <v name="MAGMOM">      3.00000000</v>
    <i name="NUPDOWN">     -1.00000000</i>
    <i type="logical" name="LSORBIT"> F  </i>
    <v name="SAXIS">      0.00000000      0.00000000      1.00000000</v>
    <i type="logical" name="LSPIRAL"> F  </i>
    <v name="QSPIRAL">      0.00000000      0.00000000      0.00000000</v>
    <i type="logical" name="LZEROZ"> F  </i>
   </separator>
   <separator name="electronic exchange-correlation" >
    <i type="logical" name="LASPH"> F  </i>
    <i type="logical" name="LMETAGGA"> F  </i>
   </separator>
   <separator name="electronic convergence" >
    <i type="int" name="NELM">   100</i>
    <i type="int" name="NELMDL">    -5</i>
    <i type="int" name="NELMIN">     2</i>
    <i name="ENINI">    400.00000000</i>
    <separator name="electronic convergence detail" >
     <i type="logical" name="LDIAG"> T  </i>
     <i type="logical" name="LSUBROT"> F  </i>
     <i name="WEIMIN">      0.00000000</i>
     <i name="EBREAK">      0.00000002</i>
     <i name="DEPER">      0.30000000</i>
     <i type="int" name="NRMM">     4</i>
     <i name="TIME">      0.40000000</i>
    </separator>
   </separator>
   <separator name="electronic mixer" >
    <i name="AMIX">      0.40000000</i>
    <i name="BMIX">      1.00000000</i>
    <i name="AMIN">      0.10000000</i>
    <i name="AMIX_MAG">      1.60000000</i>
    <i name="BMIX_MAG">      1.00000000</i>
    <separator name="electronic mixer details" >
     <i type="int" name="IMIX">     4</i>
     <i type="logical" name="MIXFIRST"> F  </i>
     <i type="int" name="MAXMIX">   -45</i>
     <i name="WC">    100.00000000</i>
     <i type="int" name="INIMIX">     1</i>
     <i type="int" name="MIXPRE">     1</i>
     <i type="int" name="MREMOVE">     5</i>
    </separator>
   </separator>
   <separator name="electronic dipolcorrection" >
    <i type="logical" name="LDIPOL"> F  </i>
    <i type="logical" name="LMONO"> F  </i>
    <i type="int" name="IDIPOL">     0</i>
    <i name="EPSILON">      1.00000000</i>
    <v name="DIPOL">   -100.00000000   -100.00000000   -100.00000000</v>
    <i name="EFIELD">      0.00000000</i>
   </separator>
  </separator>
  <separator name="grids" >
   <i type="int" name="NGX">    16</i>
   <i type="int" name="NGY">    16</i>
   <i type="int" name="NGZ">    16</i>
   <i type="int" name="NGXF">    32</i>
   <i type="int" name="NGYF">    32</i>
   <i type="int" name="NGZF">    32</i>
   <i type="logical" name="ADDGRID"> F  </i>
  </separator>
  <separator name="ionic" >
   <i type="int" name="NSW">     0</i>
   <i type="int" name="IBRION">    -1</i>
   <i type="int" name="MDALGO">     0</i>
   <i type="int" name="ISIF">     2</i>
   <i name="PSTRESS">      0.00000000</i>
   <i name="EDIFFG">     -0.02000000</i>
   <i type="int" name="NFREE">     0</i>
   <i name="POTIM">      0.50000000</i>
   <i name="SMASS">     -3.00000000</i>
   <i name="SCALEE">      1.00000000</i>
  </separator>
  <separator name="ionic md" >
   <i name="TEBEG">      0.00010000</i>
   <i name="TEEND">      0.00010000</i>
   <i type="int" name="NBLOCK">     1</i>
   <i type="int" name="KBLOCK">     1</i>
   <i type="int" name="NPACO">   256</i>
   <i name="APACO">     10.00000000</i>
  </separator>
  <separator name="symmetry" >
   <i type="int" name="ISYM">     1</i>
   <i name="SYMPREC">      0.00001000</i>
  </separator>
  <separator name="dos" >
   <i type="int" name="LORBIT">     0</i>
   <v name="RWIGS">     -1.00000000</v>
   <i type="int" name="NEDOS">   301</i>
   <i name="EMIN">     10.00000000</i>
   <i name="EMAX">    -10.00000000</i>
   <i name="EFERMI">      0.00000000</i>
  </separator>
  <separator name="writing" >
   <i type="int" name="NWRITE">     2</i>
   <i type="logical" name="LWAVE"> F  </i>
   <i type="logical" name="LDOWNSAMPLE"> F  </i>
   <i type="logical" name="LCHARG"> F  </i>
   <i type="logical" name="LPARD"> F  </i>
   <i type="logical" name="LVTOT"> F  </i>
   <i type="logical" name="LVHAR"> F  </i>
   <i type="logical" name="LELF"> F  </i>
   <i type="logical" name="LOPTICS"> F  </i>
   <v name="STM">      0.00000000      0.00000000      0.00000000      0.00000000      0.00000000      0.00000000      0.00000000</v>
  </separator>
  <separator name="performance" >
   <i type="int" name="NPAR">     4</i>
   <i type="int" name="NSIM">     4</i>
   <i type="int" name="NBLK">    -1</i>
   <i type="logical" name="LPLANE"> T  </i>
   <i type="logical" name="LSCALAPACK"> T  </i>
   <i type="logical" name="LSCAAWARE"> T  </i>
   <i type="logical" name="LSCALU"> F  </i>
   <i type="logical" name="LASYNC"> F  </i>
   <i type="logical" name="LORBITALREAL"> F  </i>
  </separator>
  <separator name="miscellaneous" >
   <i type="int" name="IDIOT">     3</i>
   <i type="int" name="PHON_NSTRUCT">    -1</i>
   <i type="logical" name="LMUSIC"> F  </i>
   <v name="POMASS">     58.93300000</v>
   <v name="DARWINR">      0.00000000</v>
   <v name="DARWINV">      1.00000000</v>
   <i type="logical" name="LCORR"> T  </i>
  </separator>
  <i type="logical" name="GGA_COMPAT"> T  </i>
  <i type="logical" name="LBERRY"> F  </i>
  <i type="int" name="ICORELEVEL">     0</i>
  <i type="logical" name="LDAU"> F  </i>
  <i type="int" name="I_CONSTRAINED_M">     0</i>
  <separator name="electronic exchange-correlation" >
   <i type="string" name="GGA">--</i>
   <i type="int" name="VOSKOWN">     0</i>
   <i type="logical" name="LHFCALC"> F  </i>
   <i type="string" name="PRECFOCK"></i>
   <i type="logical" name="LSYMGRAD"> F  </i>
   <i type="logical" name="LHFONE"> F  </i>
   <i type="logical" name="LRHFCALC"> F  </i>
   <i type="logical" name="LTHOMAS"> F  </i>
   <i type="logical" name="LMODELHF"> F  </i>
   <i type="logical" name="LFOCKACE"> F  </i>
   <i name="ENCUT4O">     -1.00000000</i>
   <i type="int" name="EXXOEP">     0</i>
   <i type="int" name="FOURORBIT">     0</i>
   <i name="AEXX">      0.00000000</i>
   <i name="HFALPHA">      0.00000000</i>
   <i name="MCALPHA">      0.00000000</i>
   <i name="ALDAX">      1.00000000</i>
   <i name="AGGAX">      1.00000000</i>
   <i name="ALDAC">      1.00000000</i>
   <i name="AGGAC">      1.00000000</i>
   <i type="int" name="NKREDX">     1</i>
   <i type="int" name="NKREDY">     1</i>
   <i type="int" name="NKREDZ">     1</i>
   <i type="logical" name="SHIFTRED"> F  </i>
   <i type="logical" name="ODDONLY"> F  </i>
   <i type="logical" name="EVENONLY"> F  </i>
   <i type="int" name="LMAXFOCK">     0</i>
   <i type="int" name="NMAXFOCKAE">     0</i>
   <i type="logical" name="LFOCKAEDFT"> F  </i>
   <i name="HFSCREEN">      0.00000000</i>
   <i name="HFSCREENC">      0.00000000</i>
   <i type="int" name="NBANDSGWLOW">     0</i>
  </separator>
  <separator name="vdW DFT" >
   <i type="logical" name="LUSE_VDW"> F  </i>
   <i name="Zab_VDW">     -0.84910000</i>
   <i name="PARAM1">      0.12340000</i>
   <i name="PARAM2">      1.00000000</i>
   <i name="PARAM3">      0.00000000</i>
  </separator>
  <separator name="model GW" >
   <i type="int" name="MODEL_GW">     0</i>
   <i name="MODEL_EPS0">      6.48653265</i>
   <i name="MODEL_ALPHA">      1.00000000</i>
  </separator>
  <separator name="linear response parameters" >
   <i type="logical" name="LEPSILON"> F  </i>
   <i type="logical" name="LRPA"> F  </i>
   <i type="logical" name="LNABLA"> F  </i>
   <i type="logical" name="LVEL"> F  </i>
   <i name="CSHIFT">      0.10000000</i>
   <i name="OMEGAMAX">     -1.00000000</i>
   <i name="DEG_THRESHOLD">      0.00200000</i>
   <i name="RTIME">     -0.10000000</i>
   <i name="WPLASMAI">      0.00000000</i>
   <v name="DFIELD">      0.00000000      0.00000000      0.00000000</v>
   <v name="WPLASMA">      0.00000000      0.00000000      0.00000000      0.00000000      0.00000000      0.00000000      0.00000000      0.00000000      0.00000000</v>
  </separator>
  <separator name="orbital magnetization" >
   <i type="logical" name="NUCIND"> F  </i>
   <v name="MAGPOS">      0.00000000      0.00000000      0.00000000</v>
   <i type="logical" name="LNICSALL"> T  </i>
   <i type="logical" name="ORBITALMAG"> F  </i>
   <i type="logical" name="LMAGBLOCH"> F  </i>
   <i type="logical" name="LCHIMAG"> F  </i>
   <i type="logical" name="LGAUGE"> T  </i>
   <i type="int" name="MAGATOM">     0</i>
   <v name="MAGDIPOL">      0.00000000      0.00000000      0.00000000</v>
   <v name="AVECCONST">      0.00000000      0.00000000      0.00000000</v>
  </separator>
  <separator name="response functions" >
   <i type="logical" name="LFINITE_TEMPERATURE"> F  </i>
   <i type="logical" name="LADDER"> F  </i>
   <i type="logical" name="LRPAFORCE"> F  </i>
   <i type="logical" name="LFXC"> F  </i>
   <i type="logical" name="LHARTREE"> T  </i>
   <i type="int" name="IBSE">     0</i>
   <v type="int" name="KPOINT">    -1     0     0     0</v>
   <i type="logical" name="LTCTC"> F  </i>
   <i type="logical" name="LTCTE"> F  </i>
   <i type="logical" name="LTETE"> F  </i>
   <i type="logical" name="LTRIPLET"> F  </i>
   <i type="logical" name="LFXCEPS"> F  </i>
   <i type="logical" name="LFXHEG"> F  </i>
   <i type="int" name="NATURALO">     2</i>
   <i type="logical" name="LHOLEGF"> F  </i>
   <i type="logical" name="L2ORDER"> F  </i>
   <i type="logical" name="LDMP1"> F  </i>
   <i type="logical" name="LMP2LT"> F  </i>
   <i type="logical" name="LSMP2LT"> F  </i>
   <i type="logical" name="LGWLF"> F  </i>
   <i name="ENCUTGW">     -2.00000000</i>
   <i name="ENCUTGWSOFT">     -2.00000000</i>
   <i name="ENCUTLF">     -1.00000000</i>
   <i type="logical" name="LESF_SPLINES"> F  </i>
   <i type="int" name="LMAXMP2">    -1</i>
   <i name="SCISSOR">      0.00000000</i>
   <i type="int" name="NOMEGA">     0</i>
   <i type="int" name="NOMEGAR">     0</i>
   <i type="int" name="NBANDSGW">    -1</i>
   <i type="int" name="NBANDSO">    -1</i>
   <i type="int" name="NBANDSV">    -1</i>
   <i type="int" name="NELMGW">     1</i>
   <i type="int" name="NELMHF">     1</i>
   <i type="int" name="DIM">     3</i>
   <i type="int" name="IESPILON">     4</i>
   <i type="int" name="ANTIRES">     0</i>
   <i name="OMEGAMAX">    -30.00000000</i>
   <i name="OMEGAMIN">    -30.00000000</i>
   <i name="OMEGATL">   -200.00000000</i>
   <i type="int" name="OMEGAGRID">     0</i>
   <i name="CSHIFT">     -0.10000000</i>
   <i type="logical" name="LSELFENERGY"> F  </i>
   <i type="logical" name="LSPECTRAL"> F  </i>
   <i type="logical" name="LSPECTRALGW"> F  </i>
   <i type="logical" name="LSINGLES"> F  </i>
   <i type="logical" name="LFERMIGW"> F  </i>
   <i type="logical" name="ODDONLYGW"> F  </i>
   <i type="logical" name="EVENONLYGW"> F  </i>
   <i type="int" name="NKREDLFX">     1</i>
   <i type="int" name="NKREDLFY">     1</i>
   <i type="int" name="NKREDLFZ">     1</i>
   <i type="int" name="MAXMEM">  2800</i>
   <i type="int" name="TELESCOPE">     0</i>
   <i type="int" name="NTAUPAR">    -1</i>
   <i type="int" name="NOMEGAPAR">    -1</i>
   <i name="DAMP_NEWTON">      0.80000001</i>
   <i name="LAMBDA">      1.00000000</i>
  </separator>
  <separator name="External order field" >
   <i name="OFIELD_KAPPA">      0.00000000</i>
   <v name="OFIELD_K">      0.00000000      0.00000000      0.00000000</v>
   <i name="OFIELD_Q6_NEAR">      0.00000000</i>
   <i name="OFIELD_Q6_FAR">      0.00000000</i>
   <i name="OFIELD_A">      0.00000000</i>
  </separator>
  <separator name="optional k-points parameters" >
   <i type="int" name="KPOINTS_OPT_MODE">     1</i>
   <i type="logical" name="LKPOINTS_OPT"> F  </i>
  </separator>
 </parameters>
 <atominfo>
  <atoms>       1 </atoms>
  <types>       1 </types>
  <array name="atoms" >
   <dimension dim="1">ion</dimension>
   <field type="string">element</field>
   <field type="int">atomtype</field>
   <set>
    <rc><c>Co</c><c>   1</c></rc>
   </set>
  </array>
  <array name="atomtypes" >
   <dimension dim="1">type</dimension>
   <field type="int">atomspertype</field>
   <field type="string">element</field>
   <field>mass</field>
   <field>valence</field>
   <field type="string">pseudopotential</field>
   <set>
    <rc><c>   1</c><c>Co</c><c>     58.93300000</c><c>      9.00000000</c><c>  PAW_PBE Co 02Aug2007                  </c></rc>
   </set>
  </array>
 </atominfo>
 <structure name="initialpos" >
  <crystal>
   <varray name="basis" >
    <v>       0.00000000       1.75500000       1.75500000 </v>
    <v>       1.75500000       0.00000000       1.75500000 </v>
    <v>       1.75500000       1.75500000       0.00000000 </v>
   </varray>
   <i name="volume">     10.81088775 </i>
   <varray name="rec_basis" >
    <v>      -0.28490028       0.28490028       0.28490028 </v>
    <v>       0.28490028      -0.28490028       0.28490028 </v>
    <v>       0.28490028       0.28490028      -0.28490028 </v>
   </varray>
  </crystal>
  <varray name="positions" >
   <v>       0.00000000       0.00000000       0.00000000 </v>
  </varray>
 </structure>
 <calculation>
  <scstep>
   <time name="dav">    0.13    0.13</time>
   <time name="total">    0.14    0.14</time>
   <energy>
    <i name="alphaZ">     39.18058524 </i>
    <i name="ewald">   -761.78120824 </i>
    <i name="hartreedc">   -149.59159932 </i>
    <i name="XCdc">     17.82600435 </i>
    <i name="pawpsdc">    719.99081943 </i>
    <i name="pawaedc">   -772.94345096 </i>
    <i name="eentropy">      0.00131030 </i>
    <i name="bandstr">    116.46462934 </i>
    <i name="atom">    813.35773410 </i>
    <i name="e_fr_energy">     22.50482424 </i>
    <i name="e_wo_entrp">     22.50351394 </i>
    <i name="e_0_energy">     22.50438747 </i>
   </energy>
  </scstep>
  <scstep>
   <time name="dav">    0.12    0.12</time>
   <time name="total">    0.12    0.12</time>
   <energy>
    <i name="e_fr_energy">     -7.06035169 </i>
    <i name="e_wo_entrp">     -7.06174066 </i>
    <i name="e_0_energy">     -7.06081468 </i>
   </energy>
  </scstep>
  <scstep>
   <time name="dav">    0.13    0.13</time>
   <time name="total">    0.13    0.13</time>
   <energy>
    <i name="e_fr_energy">     -7.79898880 </i>
    <i name="e_wo_entrp">     -7.80039233 </i>
    <i name="e_0_energy">     -7.79945664 </i>
   </energy>
  </scstep>
  <scstep>
   <time name="dav">    0.14    0.14</time>
   <time name="total">    0.14    0.14</time>
   <energy>
    <i name="e_fr_energy">     -7.80626618 </i>
    <i name="e_wo_entrp">     -7.80763917 </i>
    <i name="e_0_energy">     -7.80672384 </i>
   </energy>
  </scstep>
  <scstep>
   <time name="dav">    0.14    0.14</time>
   <time name="total">    0.15    0.15</time>
   <energy>
    <i name="e_fr_energy">     -7.80644472 </i>
    <i name="e_wo_entrp">     -7.80781675 </i>
    <i name="e_0_energy">     -7.80690206 </i>
   </energy>
  </scstep>
  <scstep>
   <time name="dav">    0.14    0.14</time>
   <time name="total">    0.15    0.16</time>
   <energy>
    <i name="e_fr_energy">     -7.19265734 </i>
    <i name="e_wo_entrp">     -7.18701463 </i>
    <i name="e_0_energy">     -7.19077644 </i>
   </energy>
  </scstep>
  <scstep>
   <time name="dav">    0.13    0.13</time>
   <time name="total">    0.15    0.15</time>
   <energy>
    <i name="e_fr_energy">     -7.03319602 </i>
    <i name="e_wo_entrp">     -7.02754811 </i>
    <i name="e_0_energy">     -7.03131338 </i>
   </energy>
  </scstep>
  <scstep>
   <time name="dav">    0.14    0.14</time>
   <time name="total">    0.16    0.16</time>
   <energy>
    <i name="e_fr_energy">     -7.02301523 </i>
    <i name="e_wo_entrp">     -7.01845710 </i>
    <i name="e_0_energy">     -7.02149586 </i>
   </energy>
  </scstep>
  <scstep>
   <time name="dav">    0.15    0.15</time>
   <time name="total">    0.17    0.17</time>
   <energy>
    <i name="e_fr_energy">     -7.01675913 </i>
    <i name="e_wo_entrp">     -7.01276345 </i>
    <i name="e_0_energy">     -7.01542724 </i>
   </energy>
  </scstep>
  <scstep>
   <time name="dav">    0.17    0.17</time>
   <time name="total">    0.19    0.19</time>
   <energy>
    <i name="e_fr_energy">     -7.01642895 </i>
    <i name="e_wo_entrp">     -7.01222611 </i>
    <i name="e_0_energy">     -7.01502800 </i>
   </energy>
  </scstep>
  <scstep>
   <time name="dav">    0.15    0.15</time>
   <time name="total">    0.16    0.17</time>
   <energy>
    <i name="e_fr_energy">     -7.01643400 </i>
    <i name="e_wo_entrp">     -7.01202881 </i>
    <i name="e_0_energy">     -7.01496561 </i>
   </energy>
  </scstep>
  <scstep>
   <time name="dav">    0.12    0.12</time>
   <time name="total">    0.12    0.13</time>
   <energy>
    <i name="alphaZ">     39.18058524 </i>
    <i name="ewald">   -761.78120824 </i>
    <i name="hartreedc">   -131.86670889 </i>
    <i name="XCdc">     16.45516272 </i>
    <i name="pawpsdc">    906.15810767 </i>
    <i name="pawaedc">   -959.25371625 </i>
    <i name="eentropy">     -0.00439424 </i>
    <i name="bandstr">     70.73800416 </i>
    <i name="atom">    813.35773410 </i>
    <i name="e_fr_energy">     -7.01643372 </i>
    <i name="e_wo_entrp">     -7.01203948 </i>
    <i name="e_0_energy">     -7.01496898 </i>
   </energy>
  </scstep>
  <structure>
   <crystal>
    <varray name="basis" >
     <v>       0.00000000       1.75500000       1.75500000 </v>
     <v>       1.75500000       0.00000000       1.75500000 </v>
     <v>       1.75500000       1.75500000       0.00000000 </v>
    </varray>
    <i name="volume">     10.81088775 </i>
    <varray name="rec_basis" >
     <v>      -0.28490028       0.28490028       0.28490028 </v>
     <v>       0.28490028      -0.28490028       0.28490028 </v>
     <v>       0.28490028       0.28490028      -0.28490028 </v>
    </varray>
   </crystal>
   <varray name="positions" >
    <v>       0.00000000       0.00000000       0.00000000 </v>
   </varray>
  </structure>
  <varray name="forces" >
   <v>      -0.00000000      -0.00000000       0.00000000 </v>
  </varray>
  <varray name="stress" >
   <v>       9.33182185      -0.00000000       0.00000000 </v>
   <v>      -0.00000000       9.33182185      -0.00000000 </v>
   <v>       0.00000000      -0.00000000       9.33182185 </v>
  </varray>
  <energy>
   <i name="e_fr_energy">     -7.01643372 </i>
   <i name="e_wo_entrp">     -7.01203948 </i>
   <i name="e_0_energy">     -7.01496898 </i>
  </energy>
  <time name="totalsc">    1.82    1.88</time>
  <eigenvalues>
   <array>
    <dimension dim="1">band</dimension>
    <dimension dim="2">kpoint</dimension>
    <dimension dim="3">spin</dimension>
    <field>eigene</field>
    <field>occ</field>
    <set>
     <set comment="spin 1">
      <set comment="kpoint 1">
       <r>    1.6442    1.0000 </r>
       <r>    7.5854    1.0000 </r>
       <r>    7.7255    1.0000 </r>
       <r>    7.7255    1.0000 </r>
       <r>    8.7040    1.0000 </r>
       <r>    8.7040    1.0000 </r>
       <r>   32.7110    0.0000 </r>
       <r>   35.4423    0.0000 </r>
       <r>   37.4036    0.0000 </r>
       <r>   37.4036    0.0000 </r>
       <r>   41.7569    0.0000 </r>
       <r>   41.7572    0.0000 </r>
      </set>
      <set comment="kpoint 2">
       <r>    3.0169    1.0000 </r>
       <r>    7.2666    1.0000 </r>
       <r>    7.8766    1.0000 </r>
       <r>    7.9673    1.0000 </r>
       <r>    8.5020    1.0000 </r>
       <r>    8.9794    1.0000 </r>
       <r>   28.0182    0.0000 </r>
       <r>   31.4759    0.0000 </r>
       <r>   36.6038    0.0000 </r>
       <r>   39.0277    0.0000 </r>
       <r>   39.5320    0.0000 </r>
       <r>   41.0743    0.0000 </r>
      </set>
      <set comment="kpoint 3">
       <r>    5.0496    1.0000 </r>
       <r>    7.5854    1.0000 </r>
       <r>    7.7518    1.0000 </r>
       <r>    7.8209    1.0000 </r>
       <r>    9.1462    1.0000 </r>
       <r>    9.9486    1.0031 </r>
       <r>   20.2608    0.0000 </r>
       <r>   30.5854    0.0000 </r>
       <r>   34.3791    0.0000 </r>
       <r>   36.4322    0.0000 </r>
       <r>   38.9362    0.0000 </r>
       <r>   40.4380    0.0000 </r>
      </set>
      <set comment="kpoint 4">
       <r>    5.3164    1.0000 </r>
       <r>    7.4093    1.0000 </r>
       <r>    7.6602    1.0000 </r>
       <r>    8.6753    1.0000 </r>
       <r>    9.6244    1.0000 </r>
       <r>   11.1177   -0.0000 </r>
       <r>   16.7971    0.0000 </r>
       <r>   30.9938    0.0000 </r>
       <r>   33.5313    0.0000 </r>
       <r>   33.9200    0.0000 </r>
       <r>   40.0195    0.0000 </r>
       <r>   40.0461    0.0000 </r>
      </set>
      <set comment="kpoint 5">
       <r>    4.5399    1.0000 </r>
       <r>    7.3127    1.0000 </r>
       <r>    7.6812    1.0000 </r>
       <r>    7.8835    1.0000 </r>
       <r>    9.1925    1.0000 </r>
       <r>    9.2815    1.0000 </r>
       <r>   22.6670    0.0000 </r>
       <r>   32.2910    0.0000 </r>
       <r>   33.0559    0.0000 </r>
       <r>   36.3147    0.0000 </r>
       <r>   40.0187    0.0000 </r>
       <r>   42.5470    0.0000 </r>
      </set>
      <set comment="kpoint 6">
       <r>    2.3540    1.0000 </r>
       <r>    7.3460    1.0000 </r>
       <r>    7.9003    1.0000 </r>
       <r>    7.9101    1.0000 </r>
       <r>    8.4993    1.0000 </r>
       <r>    8.8340    1.0000 </r>
       <r>   30.7333    0.0000 </r>
       <r>   33.7578    0.0000 </r>
       <r>   34.5004    0.0000 </r>
       <r>   37.1869    0.0000 </r>
       <r>   41.3423    0.0000 </r>
       <r>   43.6590    0.0000 </r>
      </set>
      <set comment="kpoint 7">
       <r>    3.6272    1.0000 </r>
       <r>    6.9150    1.0000 </r>
       <r>    7.9585    1.0000 </r>
       <r>    8.2615    1.0000 </r>
       <r>    8.5768    1.0000 </r>
       <r>    9.0611    1.0000 </r>
       <r>   28.4993    0.0000 </r>
       <r>   31.4907    0.0000 </r>
       <r>   31.9943    0.0000 </r>
       <r>   34.1198    0.0000 </r>
       <r>   39.0771    0.0000 </r>
       <r>   45.1696    0.0000 </r>
      </set>
      <set comment="kpoint 8">
       <r>    5.3497    1.0000 </r>
       <r>    6.6191    1.0000 </r>
       <r>    7.5348    1.0000 </r>
       <r>    8.5448    1.0000 </r>
       <r>    9.1669    1.0000 </r>
       <r>   10.2866    0.9072 </r>
       <r>   23.6138    0.0000 </r>
       <r>   27.1010    0.0000 </r>
       <r>   29.5735    0.0000 </r>
       <r>   34.8949    0.0000 </r>
       <r>   39.8800    0.0000 </r>
       <r>   44.1094    0.0000 </r>
      </set>
      <set comment="kpoint 9">
       <r>    6.0318    1.0000 </r>
       <r>    6.7305    1.0000 </r>
       <r>    7.6133    1.0000 </r>
       <r>    8.2514    1.0000 </r>
       <r>    9.5775    1.0000 </r>
       <r>   13.6801   -0.0000 </r>
       <r>   17.2365    0.0000 </r>
       <r>   26.1446    0.0000 </r>
       <r>   28.0949    0.0000 </r>
       <r>   35.0181    0.0000 </r>
       <r>   41.4509    0.0000 </r>
       <r>   46.6489    0.0000 </r>
      </set>
      <set comment="kpoint 10">
       <r>    5.9354    1.0000 </r>
       <r>    6.9566    1.0000 </r>
       <r>    7.1582    1.0000 </r>
       <r>    8.3228    1.0000 </r>
       <r>    9.0557    1.0000 </r>
       <r>   11.4829   -0.0000 </r>
       <r>   21.1877    0.0000 </r>
       <r>   25.0062    0.0000 </r>
       <r>   30.6138    0.0000 </r>
       <r>   36.8639    0.0000 </r>
       <r>   39.8943    0.0000 </r>
       <r>   45.1923    0.0000 </r>
      </set>
      <set comment="kpoint 11">
       <r>    4.1869    1.0000 </r>
       <r>    6.9933    1.0000 </r>
       <r>    7.7190    1.0000 </r>
       <r>    8.1745    1.0000 </r>
       <r>    8.6500    1.0000 </r>
       <r>    9.4373    1.0000 </r>
       <r>   25.6216    0.0000 </r>
       <r>   29.1424    0.0000 </r>
       <r>   34.1816    0.0000 </r>
       <r>   36.5675    0.0000 </r>
       <r>   40.9356    0.0000 </r>
       <r>   41.7945    0.0000 </r>
      </set>
      <set comment="kpoint 12">
       <r>    5.2910    1.0000 </r>
       <r>    6.0365    1.0000 </r>
       <r>    8.8748    1.0000 </r>
       <r>    9.1595    1.0000 </r>
       <r>    9.6036    1.0000 </r>
       <r>   10.8342   -0.0045 </r>
       <r>   24.0648    0.0000 </r>
       <r>   24.9794    0.0000 </r>
       <r>   26.8544    0.0000 </r>
       <r>   31.4750    0.0000 </r>
       <r>   35.7975    0.0000 </r>
       <r>   47.2318    0.0000 </r>
      </set>
      <set comment="kpoint 13">
       <r>    5.5644    1.0000 </r>
       <r>    6.0829    1.0000 </r>
       <r>    8.4209    1.0000 </r>
       <r>    9.1239    1.0000 </r>
       <r>    9.7811    1.0001 </r>
       <r>   14.5051   -0.0000 </r>
       <r>   20.6777    0.0000 </r>
       <r>   21.5488    0.0000 </r>
       <r>   24.9200    0.0000 </r>
       <r>   33.6098    0.0000 </r>
       <r>   38.7866    0.0000 </r>
       <r>   47.1561    0.0000 </r>
      </set>
      <set comment="kpoint 14">
       <r>    6.2996    1.0000 </r>
       <r>    6.5120    1.0000 </r>
       <r>    7.4111    1.0000 </r>
       <r>    8.5613    1.0000 </r>
       <r>    9.4952    1.0000 </r>
       <r>   15.4184   -0.0000 </r>
       <r>   17.7037    0.0000 </r>
       <r>   22.3119    0.0000 </r>
       <r>   27.3217    0.0000 </r>
       <r>   34.9275    0.0000 </r>
       <r>   43.3381    0.0000 </r>
       <r>   46.4360    0.0000 </r>
      </set>
      <set comment="kpoint 15">
       <r>    5.5572    1.0000 </r>
       <r>    7.2180    1.0000 </r>
       <r>    7.7931    1.0000 </r>
       <r>    7.9535    1.0000 </r>
       <r>    9.4616    1.0000 </r>
       <r>   11.3604   -0.0000 </r>
       <r>   18.4221    0.0000 </r>
       <r>   28.8240    0.0000 </r>
       <r>   31.1786    0.0000 </r>
       <r>   35.2715    0.0000 </r>
       <r>   39.9705    0.0000 </r>
       <r>   43.4397    0.0000 </r>
      </set>
      <set comment="kpoint 16">
       <r>    5.2110    1.0000 </r>
       <r>    5.8135    1.0000 </r>
       <r>    9.4053    1.0000 </r>
       <r>    9.4165    1.0000 </r>
       <r>    9.8062    1.0001 </r>
       <r>   13.0124   -0.0000 </r>
       <r>   20.6816    0.0000 </r>
       <r>   23.8958    0.0000 </r>
       <r>   25.7593    0.0000 </r>
       <r>   31.2078    0.0000 </r>
       <r>   35.4302    0.0000 </r>
       <r>   47.3485    0.0000 </r>
      </set>
      <set comment="kpoint 17">
       <r>    5.6800    1.0000 </r>
       <r>    6.2728    1.0000 </r>
       <r>    7.9316    1.0000 </r>
       <r>    8.9522    1.0000 </r>
       <r>    9.5581    1.0000 </r>
       <r>   12.0955   -0.0000 </r>
       <r>   22.0576    0.0000 </r>
       <r>   24.6220    0.0000 </r>
       <r>   25.9229    0.0000 </r>
       <r>   34.0027    0.0000 </r>
       <r>   39.1053    0.0000 </r>
       <r>   46.0726    0.0000 </r>
      </set>
      <set comment="kpoint 18">
       <r>    4.9083    1.0000 </r>
       <r>    6.4356    1.0000 </r>
       <r>    8.0671    1.0000 </r>
       <r>    8.7218    1.0000 </r>
       <r>    9.3121    1.0000 </r>
       <r>    9.3339    1.0000 </r>
       <r>   26.4051    0.0000 </r>
       <r>   28.6489    0.0000 </r>
       <r>   28.8517    0.0000 </r>
       <r>   32.1498    0.0000 </r>
       <r>   36.8302    0.0000 </r>
       <r>   47.2004    0.0000 </r>
      </set>
      <set comment="kpoint 19">
       <r>    3.5878    1.0000 </r>
       <r>    7.3436    1.0000 </r>
       <r>    7.8429    1.0000 </r>
       <r>    7.8429    1.0000 </r>
       <r>    8.8772    1.0000 </r>
       <r>    8.8772    1.0000 </r>
       <r>   25.1140    0.0000 </r>
       <r>   33.7088    0.0000 </r>
       <r>   36.0684    0.0000 </r>
       <r>   36.0684    0.0000 </r>
       <r>   41.3238    0.0000 </r>
       <r>   41.3238    0.0000 </r>
      </set>
      <set comment="kpoint 20">
       <r>    5.1000    1.0000 </r>
       <r>    7.0618    1.0000 </r>
       <r>    7.5162    1.0000 </r>
       <r>    8.0956    1.0000 </r>
       <r>    8.6802    1.0000 </r>
       <r>   10.2158    1.0157 </r>
       <r>   23.1791    0.0000 </r>
       <r>   26.8394    0.0000 </r>
       <r>   35.1285    0.0000 </r>
       <r>   36.0753    0.0000 </r>
       <r>   40.3313    0.0000 </r>
       <r>   41.8398    0.0000 </r>
      </set>
      <set comment="kpoint 21">
       <r>    6.2678    1.0000 </r>
       <r>    6.8059    1.0000 </r>
       <r>    7.3139    1.0000 </r>
       <r>    8.3004    1.0000 </r>
       <r>    9.1864    1.0000 </r>
       <r>   13.1220   -0.0000 </r>
       <r>   19.1881    0.0000 </r>
       <r>   23.3673    0.0000 </r>
       <r>   31.4835    0.0000 </r>
       <r>   33.0878    0.0000 </r>
       <r>   44.2330    0.0000 </r>
       <r>   44.6297    0.0000 </r>
      </set>
      <set comment="kpoint 22">
       <r>    5.8541    1.0000 </r>
       <r>    6.4927    1.0000 </r>
       <r>    7.7633    1.0000 </r>
       <r>    8.4900    1.0000 </r>
       <r>    9.6820    1.0000 </r>
       <r>   12.7836   -0.0000 </r>
       <r>   19.1903    0.0000 </r>
       <r>   25.2183    0.0000 </r>
       <r>   28.7872    0.0000 </r>
       <r>   32.3790    0.0000 </r>
       <r>   42.8320    0.0000 </r>
       <r>   46.4074    0.0000 </r>
      </set>
      <set comment="kpoint 23">
       <r>    5.4412    1.0000 </r>
       <r>    6.9554    1.0000 </r>
       <r>    7.5592    1.0000 </r>
       <r>    8.1184    1.0000 </r>
       <r>    9.5779    1.0000 </r>
       <r>   10.5023    0.1265 </r>
       <r>   20.6863    0.0000 </r>
       <r>   29.4812    0.0000 </r>
       <r>   30.5665    0.0000 </r>
       <r>   33.2406    0.0000 </r>
       <r>   43.3192    0.0000 </r>
       <r>   44.0447    0.0000 </r>
      </set>
      <set comment="kpoint 24">
       <r>    6.2324    1.0000 </r>
       <r>    6.6355    1.0000 </r>
       <r>    7.1803    1.0000 </r>
       <r>    8.6349    1.0000 </r>
       <r>    9.4826    1.0000 </r>
       <r>   13.6478   -0.0000 </r>
       <r>   19.6791    0.0000 </r>
       <r>   23.6767    0.0000 </r>
       <r>   25.9353    0.0000 </r>
       <r>   37.7157    0.0000 </r>
       <r>   40.1565    0.0000 </r>
       <r>   44.7295    0.0000 </r>
      </set>
      <set comment="kpoint 25">
       <r>    6.0271    1.0000 </r>
       <r>    6.5981    1.0000 </r>
       <r>    7.4059    1.0000 </r>
       <r>    8.7307    1.0000 </r>
       <r>    9.7722    1.0000 </r>
       <r>   16.4498    0.0000 </r>
       <r>   18.7571    0.0000 </r>
       <r>   21.6650    0.0000 </r>
       <r>   23.3268    0.0000 </r>
       <r>   37.6505    0.0000 </r>
       <r>   42.0981    0.0000 </r>
       <r>   43.8869    0.0000 </r>
      </set>
      <set comment="kpoint 26">
       <r>    5.8519    1.0000 </r>
       <r>    6.2786    1.0000 </r>
       <r>    8.0284    1.0000 </r>
       <r>    8.8436    1.0000 </r>
       <r>    9.6100    1.0000 </r>
       <r>   15.5608   -0.0000 </r>
       <r>   18.1977    0.0000 </r>
       <r>   21.5093    0.0000 </r>
       <r>   27.8573    0.0000 </r>
       <r>   32.1499    0.0000 </r>
       <r>   42.5083    0.0000 </r>
       <r>   47.2372    0.0000 </r>
      </set>
      <set comment="kpoint 27">
       <r>    5.0895    1.0000 </r>
       <r>    7.5892    1.0000 </r>
       <r>    7.5892    1.0000 </r>
       <r>    9.1490    1.0000 </r>
       <r>    9.5025    1.0000 </r>
       <r>    9.5025    1.0000 </r>
       <r>   18.0699    0.0000 </r>
       <r>   32.2711    0.0000 </r>
       <r>   35.4377    0.0000 </r>
       <r>   35.4377    0.0000 </r>
       <r>   38.4209    0.0000 </r>
       <r>   38.4209    0.0000 </r>
      </set>
      <set comment="kpoint 28">
       <r>    5.7430    1.0000 </r>
       <r>    7.0753    1.0000 </r>
       <r>    7.9401    1.0000 </r>
       <r>    7.9516    1.0000 </r>
       <r>    9.4813    1.0000 </r>
       <r>   12.6721   -0.0000 </r>
       <r>   16.9998    0.0000 </r>
       <r>   27.3027    0.0000 </r>
       <r>   32.1696    0.0000 </r>
       <r>   33.1024    0.0000 </r>
       <r>   42.2605    0.0000 </r>
       <r>   42.5708    0.0000 </r>
      </set>
     </set>
     <set comment="spin 2">
      <set comment="kpoint 1">
       <r>    1.6607    1.0000 </r>
       <r>    9.1855    1.0000 </r>
       <r>    9.3558    1.0000 </r>
       <r>    9.3558    1.0000 </r>
       <r>   10.6785   -0.0322 </r>
       <r>   10.6785   -0.0322 </r>
       <r>   32.5865    0.0000 </r>
       <r>   35.4813    0.0000 </r>
       <r>   37.6272    0.0000 </r>
       <r>   37.6272    0.0000 </r>
       <r>   41.9266    0.0000 </r>
       <r>   41.9894    0.0000 </r>
      </set>
      <set comment="kpoint 2">
       <r>    3.0571    1.0000 </r>
       <r>    8.7595    1.0000 </r>
       <r>    9.5439    1.0000 </r>
       <r>    9.6443    1.0000 </r>
       <r>   10.4141    0.4449 </r>
       <r>   10.9166   -0.0008 </r>
       <r>   28.3458    0.0000 </r>
       <r>   31.6378    0.0000 </r>
       <r>   36.6025    0.0000 </r>
       <r>   39.2267    0.0000 </r>
       <r>   39.5132    0.0000 </r>
       <r>   41.3694    0.0000 </r>
      </set>
      <set comment="kpoint 3">
       <r>    5.5649    1.0000 </r>
       <r>    8.7493    1.0000 </r>
       <r>    9.2797    1.0000 </r>
       <r>    9.4920    1.0000 </r>
       <r>   11.0283   -0.0000 </r>
       <r>   11.7114   -0.0000 </r>
       <r>   20.9132    0.0000 </r>
       <r>   30.6929    0.0000 </r>
       <r>   34.4278    0.0000 </r>
       <r>   36.7772    0.0000 </r>
       <r>   39.2308    0.0000 </r>
       <r>   40.5997    0.0000 </r>
      </set>
      <set comment="kpoint 4">
       <r>    6.2562    1.0000 </r>
       <r>    9.0240    1.0000 </r>
       <r>    9.3871    1.0000 </r>
       <r>    9.5732    1.0000 </r>
       <r>   11.5679   -0.0000 </r>
       <r>   12.2343   -0.0000 </r>
       <r>   17.7772    0.0000 </r>
       <r>   30.9116    0.0000 </r>
       <r>   33.8650    0.0000 </r>
       <r>   34.1671    0.0000 </r>
       <r>   40.2456    0.0000 </r>
       <r>   40.2856    0.0000 </r>
      </set>
      <set comment="kpoint 5">
       <r>    4.7790    1.0000 </r>
       <r>    8.5378    1.0000 </r>
       <r>    9.3927    1.0000 </r>
       <r>    9.6041    1.0000 </r>
       <r>   10.9670   -0.0002 </r>
       <r>   11.2224   -0.0000 </r>
       <r>   23.1956    0.0000 </r>
       <r>   32.1697    0.0000 </r>
       <r>   33.4153    0.0000 </r>
       <r>   36.6525    0.0000 </r>
       <r>   40.1736    0.0000 </r>
       <r>   42.7210    0.0000 </r>
      </set>
      <set comment="kpoint 6">
       <r>    2.3777    1.0000 </r>
       <r>    8.8950    1.0000 </r>
       <r>    9.5493    1.0000 </r>
       <r>    9.5593    1.0000 </r>
       <r>   10.4179    0.4288 </r>
       <r>   10.8166   -0.0062 </r>
       <r>   30.9188    0.0000 </r>
       <r>   33.7005    0.0000 </r>
       <r>   34.8318    0.0000 </r>
       <r>   37.2444    0.0000 </r>
       <r>   41.6019    0.0000 </r>
       <r>   44.2038    0.0000 </r>
      </set>
      <set comment="kpoint 7">
       <r>    3.6995    1.0000 </r>
       <r>    8.3858    1.0000 </r>
       <r>    9.6884    1.0000 </r>
       <r>    9.9536    1.0035 </r>
       <r>   10.3083    0.8496 </r>
       <r>   11.0549   -0.0000 </r>
       <r>   28.8204    0.0000 </r>
       <r>   31.8370    0.0000 </r>
       <r>   32.0225    0.0000 </r>
       <r>   34.2796    0.0000 </r>
       <r>   39.7261    0.0000 </r>
       <r>   45.1834    0.0000 </r>
      </set>
      <set comment="kpoint 8">
       <r>    5.7631    1.0000 </r>
       <r>    7.9720    1.0000 </r>
       <r>    9.0949    1.0000 </r>
       <r>   10.3228    0.8047 </r>
       <r>   10.9826   -0.0002 </r>
       <r>   11.9409   -0.0000 </r>
       <r>   24.0723    0.0000 </r>
       <r>   27.4227    0.0000 </r>
       <r>   29.8895    0.0000 </r>
       <r>   35.0864    0.0000 </r>
       <r>   40.2410    0.0000 </r>
       <r>   44.3599    0.0000 </r>
      </set>
      <set comment="kpoint 9">
       <r>    7.1132    1.0000 </r>
       <r>    8.0248    1.0000 </r>
       <r>    8.9134    1.0000 </r>
       <r>   10.0515    1.0165 </r>
       <r>   11.4837   -0.0000 </r>
       <r>   14.5632   -0.0000 </r>
       <r>   18.0492    0.0000 </r>
       <r>   26.5016    0.0000 </r>
       <r>   28.4575    0.0000 </r>
       <r>   35.1522    0.0000 </r>
       <r>   41.6280    0.0000 </r>
       <r>   47.1706    0.0000 </r>
      </set>
      <set comment="kpoint 10">
       <r>    6.5331    1.0000 </r>
       <r>    8.2313    1.0000 </r>
       <r>    8.7129    1.0000 </r>
       <r>   10.1342    1.0339 </r>
       <r>   10.8632   -0.0026 </r>
       <r>   12.9266   -0.0000 </r>
       <r>   21.7564    0.0000 </r>
       <r>   25.4039    0.0000 </r>
       <r>   30.8981    0.0000 </r>
       <r>   36.9921    0.0000 </r>
       <r>   40.0107    0.0000 </r>
       <r>   45.5921    0.0000 </r>
      </set>
      <set comment="kpoint 11">
       <r>    4.3005    1.0000 </r>
       <r>    8.4125    1.0000 </r>
       <r>    9.4134    1.0000 </r>
       <r>    9.9057    1.0013 </r>
       <r>   10.4563    0.2759 </r>
       <r>   11.3252   -0.0000 </r>
       <r>   26.0373    0.0000 </r>
       <r>   29.4121    0.0000 </r>
       <r>   34.2962    0.0000 </r>
       <r>   36.7241    0.0000 </r>
       <r>   41.1713    0.0000 </r>
       <r>   42.0966    0.0000 </r>
      </set>
      <set comment="kpoint 12">
       <r>    6.2223    1.0000 </r>
       <r>    7.3674    1.0000 </r>
       <r>   10.1458    1.0351 </r>
       <r>   11.0507   -0.0000 </r>
       <r>   11.5662   -0.0000 </r>
       <r>   11.9844   -0.0000 </r>
       <r>   24.5523    0.0000 </r>
       <r>   25.3424    0.0000 </r>
       <r>   27.1008    0.0000 </r>
       <r>   31.8069    0.0000 </r>
       <r>   36.2400    0.0000 </r>
       <r>   50.8804    0.0000 </r>
      </set>
      <set comment="kpoint 13">
       <r>    6.7862    1.0000 </r>
       <r>    7.3674    1.0000 </r>
       <r>    9.7585    1.0000 </r>
       <r>   11.0937   -0.0000 </r>
       <r>   11.6563   -0.0000 </r>
       <r>   15.1471   -0.0000 </r>
       <r>   21.2995    0.0000 </r>
       <r>   22.0756    0.0000 </r>
       <r>   25.2307    0.0000 </r>
       <r>   33.8655    0.0000 </r>
       <r>   39.1735    0.0000 </r>
       <r>   48.2961    0.0000 </r>
      </set>
      <set comment="kpoint 14">
       <r>    7.6038    1.0000 </r>
       <r>    7.6702    1.0000 </r>
       <r>    8.7073    1.0000 </r>
       <r>   10.4431    0.3264 </r>
       <r>   11.3429   -0.0000 </r>
       <r>   16.1943    0.0000 </r>
       <r>   18.3779    0.0000 </r>
       <r>   22.8605    0.0000 </r>
       <r>   27.6787    0.0000 </r>
       <r>   35.0983    0.0000 </r>
       <r>   43.4277    0.0000 </r>
       <r>   47.3728    0.0000 </r>
      </set>
      <set comment="kpoint 15">
       <r>    6.3958    1.0000 </r>
       <r>    8.5733    1.0000 </r>
       <r>    9.0784    1.0000 </r>
       <r>    9.6691    1.0000 </r>
       <r>   11.3595   -0.0000 </r>
       <r>   12.6651   -0.0000 </r>
       <r>   19.1809    0.0000 </r>
       <r>   29.0319    0.0000 </r>
       <r>   31.4681    0.0000 </r>
       <r>   35.4146    0.0000 </r>
       <r>   40.2090    0.0000 </r>
       <r>   43.5717    0.0000 </r>
      </set>
      <set comment="kpoint 16">
       <r>    6.3851    1.0000 </r>
       <r>    7.1123    1.0000 </r>
       <r>   10.9315   -0.0006 </r>
       <r>   11.4325   -0.0000 </r>
       <r>   11.6989   -0.0000 </r>
       <r>   13.4766   -0.0000 </r>
       <r>   21.4854    0.0000 </r>
       <r>   24.1704    0.0000 </r>
       <r>   25.9531    0.0000 </r>
       <r>   31.5831    0.0000 </r>
       <r>   35.8664    0.0000 </r>
       <r>   51.0790    0.0000 </r>
      </set>
      <set comment="kpoint 17">
       <r>    6.6674    1.0000 </r>
       <r>    7.5831    1.0000 </r>
       <r>    9.2446    1.0000 </r>
       <r>   10.8167   -0.0062 </r>
       <r>   11.4453   -0.0000 </r>
       <r>   13.2260   -0.0000 </r>
       <r>   22.5105    0.0000 </r>
       <r>   25.0821    0.0000 </r>
       <r>   26.2808    0.0000 </r>
       <r>   34.2309    0.0000 </r>
       <r>   39.4759    0.0000 </r>
       <r>   46.4771    0.0000 </r>
      </set>
      <set comment="kpoint 18">
       <r>    5.2636    1.0000 </r>
       <r>    7.8271    1.0000 </r>
       <r>    9.5490    1.0000 </r>
       <r>   10.4906    0.1601 </r>
       <r>   10.9330   -0.0006 </r>
       <r>   11.3296   -0.0000 </r>
       <r>   26.7568    0.0000 </r>
       <r>   28.9320    0.0000 </r>
       <r>   29.1612    0.0000 </r>
       <r>   32.4109    0.0000 </r>
       <r>   37.3328    0.0000 </r>
       <r>   48.7745    0.0000 </r>
      </set>
      <set comment="kpoint 19">
       <r>    3.6747    1.0000 </r>
       <r>    8.7134    1.0000 </r>
       <r>    9.5439    1.0000 </r>
       <r>    9.5439    1.0000 </r>
       <r>   10.7911   -0.0094 </r>
       <r>   10.7911   -0.0094 </r>
       <r>   25.5484    0.0000 </r>
       <r>   33.4639    0.0000 </r>
       <r>   36.4252    0.0000 </r>
       <r>   36.4252    0.0000 </r>
       <r>   41.5079    0.0000 </r>
       <r>   41.5079    0.0000 </r>
      </set>
      <set comment="kpoint 20">
       <r>    5.3583    1.0000 </r>
       <r>    8.3895    1.0000 </r>
       <r>    9.1503    1.0000 </r>
       <r>    9.9006    1.0011 </r>
       <r>   10.4781    0.1992 </r>
       <r>   11.9731   -0.0000 </r>
       <r>   23.6854    0.0000 </r>
       <r>   27.1810    0.0000 </r>
       <r>   35.1213    0.0000 </r>
       <r>   36.4194    0.0000 </r>
       <r>   40.2994    0.0000 </r>
       <r>   42.1199    0.0000 </r>
      </set>
      <set comment="kpoint 21">
       <r>    7.1846    1.0000 </r>
       <r>    8.1836    1.0000 </r>
       <r>    8.6111    1.0000 </r>
       <r>   10.1512    1.0354 </r>
       <r>   11.0105   -0.0001 </r>
       <r>   14.2288   -0.0000 </r>
       <r>   19.8394    0.0000 </r>
       <r>   23.8421    0.0000 </r>
       <r>   31.8400    0.0000 </r>
       <r>   33.1927    0.0000 </r>
       <r>   44.2170    0.0000 </r>
       <r>   44.8023    0.0000 </r>
      </set>
      <set comment="kpoint 22">
       <r>    6.9160    1.0000 </r>
       <r>    7.7369    1.0000 </r>
       <r>    9.0809    1.0000 </r>
       <r>   10.3188    0.8177 </r>
       <r>   11.6223   -0.0000 </r>
       <r>   13.8151   -0.0000 </r>
       <r>   19.7896    0.0000 </r>
       <r>   25.6508    0.0000 </r>
       <r>   29.0910    0.0000 </r>
       <r>   32.6174    0.0000 </r>
       <r>   43.1660    0.0000 </r>
       <r>   46.5669    0.0000 </r>
      </set>
      <set comment="kpoint 23">
       <r>    6.0413    1.0000 </r>
       <r>    8.1823    1.0000 </r>
       <r>    9.0908    1.0000 </r>
       <r>    9.8790    1.0007 </r>
       <r>   11.5355   -0.0000 </r>
       <r>   11.9465   -0.0000 </r>
       <r>   21.2760    0.0000 </r>
       <r>   29.6510    0.0000 </r>
       <r>   30.8995    0.0000 </r>
       <r>   33.5068    0.0000 </r>
       <r>   43.4280    0.0000 </r>
       <r>   44.3816    0.0000 </r>
      </set>
      <set comment="kpoint 24">
       <r>    7.3005    1.0000 </r>
       <r>    7.9343    1.0000 </r>
       <r>    8.5076    1.0000 </r>
       <r>   10.4961    0.1438 </r>
       <r>   11.3261   -0.0000 </r>
       <r>   14.6433   -0.0000 </r>
       <r>   20.2606    0.0000 </r>
       <r>   24.1150    0.0000 </r>
       <r>   26.3545    0.0000 </r>
       <r>   37.8364    0.0000 </r>
       <r>   40.2895    0.0000 </r>
       <r>   45.3709    0.0000 </r>
      </set>
      <set comment="kpoint 25">
       <r>    7.3106    1.0000 </r>
       <r>    7.8636    1.0000 </r>
       <r>    8.6930    1.0000 </r>
       <r>   10.6331   -0.0348 </r>
       <r>   11.6397   -0.0000 </r>
       <r>   17.1022    0.0000 </r>
       <r>   19.3217    0.0000 </r>
       <r>   22.2675    0.0000 </r>
       <r>   23.7686    0.0000 </r>
       <r>   37.8011    0.0000 </r>
       <r>   42.2480    0.0000 </r>
       <r>   44.2272    0.0000 </r>
      </set>
      <set comment="kpoint 26">
       <r>    7.1397    1.0000 </r>
       <r>    7.4911    1.0000 </r>
       <r>    9.3236    1.0000 </r>
       <r>   10.7686   -0.0130 </r>
       <r>   11.4839   -0.0000 </r>
       <r>   16.2464    0.0000 </r>
       <r>   18.7765    0.0000 </r>
       <r>   22.1565    0.0000 </r>
       <r>   28.1430    0.0000 </r>
       <r>   32.4170    0.0000 </r>
       <r>   42.8874    0.0000 </r>
       <r>   48.3905    0.0000 </r>
      </set>
      <set comment="kpoint 27">
       <r>    5.8704    1.0000 </r>
       <r>    9.3064    1.0000 </r>
       <r>    9.3064    1.0000 </r>
       <r>    9.4618    1.0000 </r>
       <r>   11.4352   -0.0000 </r>
       <r>   11.4352   -0.0000 </r>
       <r>   18.9053    0.0000 </r>
       <r>   31.9748    0.0000 </r>
       <r>   35.7759    0.0000 </r>
       <r>   35.7759    0.0000 </r>
       <r>   38.7011    0.0000 </r>
       <r>   38.7011    0.0000 </r>
      </set>
      <set comment="kpoint 28">
       <r>    6.7416    1.0000 </r>
       <r>    8.4825    1.0000 </r>
       <r>    9.1323    1.0000 </r>
       <r>    9.7103    1.0000 </r>
       <r>   11.3878   -0.0000 </r>
       <r>   13.6503   -0.0000 </r>
       <r>   17.9037    0.0000 </r>
       <r>   27.6006    0.0000 </r>
       <r>   32.5144    0.0000 </r>
       <r>   33.1810    0.0000 </r>
       <r>   42.4993    0.0000 </r>
       <r>   42.6765    0.0000 </r>
      </set>
     </set>
    </set>
   </array>
  </eigenvalues>
  <separator name="orbital magnetization" >
   <v name="MAGDIPOLOUT">      0.00000000      0.00000000      0.00000000</v>
  </separator>
  <dos>
   <i name="efermi">     10.40104542 </i>
   <total>
    <array>
     <dimension dim="1">gridpoints</dimension>
     <dimension dim="2">spin</dimension>
     <field>energy</field>
     <field>total</field>
     <field>integrated</field>
     <set>
      <set comment="spin 1">
       <r>    -0.8275     0.0000     0.0000 </r>
       <r>    -0.6463     0.0000     0.0000 </r>
       <r>    -0.4650     0.0000     0.0000 </r>
       <r>    -0.2837     0.0000     0.0000 </r>
       <r>    -0.1025    -0.0000    -0.0000 </r>
       <r>     0.0788    -0.0000    -0.0000 </r>
       <r>     0.2600    -0.0000    -0.0000 </r>
       <r>     0.4413    -0.0000    -0.0000 </r>
       <r>     0.6226    -0.0000    -0.0000 </r>
       <r>     0.8038    -0.0000    -0.0000 </r>
       <r>     0.9851    -0.0000    -0.0000 </r>
       <r>     1.1663    -0.0001    -0.0000 </r>
       <r>     1.3476    -0.0014    -0.0003 </r>
       <r>     1.5289     0.0061     0.0008 </r>
       <r>     1.7101     0.0343     0.0071 </r>
       <r>     1.8914     0.0135     0.0095 </r>
       <r>     2.0727    -0.0060     0.0084 </r>
       <r>     2.2539     0.0244     0.0129 </r>
       <r>     2.4352     0.1049     0.0319 </r>
       <r>     2.6164     0.0326     0.0378 </r>
       <r>     2.7977    -0.0085     0.0362 </r>
       <r>     2.9790     0.0569     0.0466 </r>
       <r>     3.1602     0.0948     0.0637 </r>
       <r>     3.3415     0.0028     0.0642 </r>
       <r>     3.5227     0.0336     0.0703 </r>
       <r>     3.7040     0.1381     0.0954 </r>
       <r>     3.8853     0.0341     0.1016 </r>
       <r>     4.0665     0.0263     0.1063 </r>
       <r>     4.2478     0.1992     0.1424 </r>
       <r>     4.4290     0.1088     0.1621 </r>
       <r>     4.6103     0.0896     0.1784 </r>
       <r>     4.7916     0.0444     0.1864 </r>
       <r>     4.9728     0.1394     0.2117 </r>
       <r>     5.1541     0.3299     0.2715 </r>
       <r>     5.3353     0.5079     0.3635 </r>
       <r>     5.5166     0.6079     0.4737 </r>
       <r>     5.6979     0.6508     0.5917 </r>
       <r>     5.8791     0.6590     0.7112 </r>
       <r>     6.0604     0.9358     0.8808 </r>
       <r>     6.2417     0.9785     1.0581 </r>
       <r>     6.4229     0.8575     1.2136 </r>
       <r>     6.6042     0.8799     1.3731 </r>
       <r>     6.7854     0.8288     1.5233 </r>
       <r>     6.9667     0.6795     1.6465 </r>
       <r>     7.1480     0.9745     1.8231 </r>
       <r>     7.3292     1.1300     2.0279 </r>
       <r>     7.5105     1.2010     2.2456 </r>
       <r>     7.6917     1.3146     2.4839 </r>
       <r>     7.8730     1.6111     2.7759 </r>
       <r>     8.0543     1.6242     3.0703 </r>
       <r>     8.2355     0.9823     3.2484 </r>
       <r>     8.4168     0.9052     3.4124 </r>
       <r>     8.5980     1.3290     3.6533 </r>
       <r>     8.7793     1.4080     3.9086 </r>
       <r>     8.9606     0.8979     4.0713 </r>
       <r>     9.1418     1.1358     4.2772 </r>
       <r>     9.3231     1.1386     4.4836 </r>
       <r>     9.5043     1.5745     4.7690 </r>
       <r>     9.6856     1.6515     5.0683 </r>
       <r>     9.8669     0.7914     5.2118 </r>
       <r>    10.0481     0.2112     5.2501 </r>
       <r>    10.2294     0.1701     5.2809 </r>
       <r>    10.4107     0.2942     5.3342 </r>
       <r>    10.5919     0.1283     5.3575 </r>
       <r>    10.7732     0.0621     5.3687 </r>
       <r>    10.9544     0.0981     5.3865 </r>
       <r>    11.1357     0.0901     5.4028 </r>
       <r>    11.3170     0.1796     5.4354 </r>
       <r>    11.4982     0.3644     5.5014 </r>
       <r>    11.6795     0.1578     5.5300 </r>
       <r>    11.8607    -0.0194     5.5265 </r>
       <r>    12.0420     0.0936     5.5435 </r>
       <r>    12.2233     0.1999     5.5797 </r>
       <r>    12.4045     0.0209     5.5835 </r>
       <r>    12.5858     0.0209     5.5873 </r>
       <r>    12.7670     0.1674     5.6176 </r>
       <r>    12.9483     0.1580     5.6463 </r>
       <r>    13.1296     0.1835     5.6795 </r>
       <r>    13.3108     0.0796     5.6940 </r>
       <r>    13.4921     0.0041     5.6947 </r>
       <r>    13.6733     0.3291     5.7544 </r>
       <r>    13.8546     0.2930     5.8075 </r>
       <r>    14.0359    -0.0037     5.8068 </r>
       <r>    14.2171    -0.0160     5.8039 </r>
       <r>    14.3984     0.0434     5.8118 </r>
       <r>    14.5797     0.2085     5.8496 </r>
       <r>    14.7609     0.0743     5.8631 </r>
       <r>    14.9422    -0.0100     5.8612 </r>
       <r>    15.1234    -0.0101     5.8594 </r>
       <r>    15.3047     0.0330     5.8654 </r>
       <r>    15.4860     0.2436     5.9095 </r>
       <r>    15.6672     0.1861     5.9433 </r>
       <r>    15.8485     0.0125     5.9455 </r>
       <r>    16.0297    -0.0075     5.9442 </r>
       <r>    16.2110    -0.0095     5.9425 </r>
       <r>    16.3923     0.0917     5.9591 </r>
       <r>    16.5735     0.1978     5.9949 </r>
       <r>    16.7548     0.0799     6.0094 </r>
       <r>    16.9360     0.1244     6.0320 </r>
       <r>    17.1173     0.1456     6.0584 </r>
       <r>    17.2986     0.2164     6.0976 </r>
       <r>    17.4798     0.0755     6.1113 </r>
       <r>    17.6611     0.0997     6.1293 </r>
       <r>    17.8423     0.1888     6.1636 </r>
       <r>    18.0236     0.0366     6.1702 </r>
       <r>    18.2049     0.1008     6.1885 </r>
       <r>    18.3861     0.1916     6.2232 </r>
       <r>    18.5674     0.1855     6.2568 </r>
       <r>    18.7487     0.1611     6.2860 </r>
       <r>    18.9299     0.1498     6.3132 </r>
       <r>    19.1112     0.0737     6.3266 </r>
       <r>    19.2924     0.2017     6.3631 </r>
       <r>    19.4737     0.0410     6.3705 </r>
       <r>    19.6550     0.1219     6.3926 </r>
       <r>    19.8362     0.1786     6.4250 </r>
       <r>    20.0175     0.0054     6.4260 </r>
       <r>    20.1987     0.0373     6.4327 </r>
       <r>    20.3800     0.0863     6.4484 </r>
       <r>    20.5613     0.0833     6.4635 </r>
       <r>    20.7425     0.4035     6.5366 </r>
       <r>    20.9238     0.1667     6.5668 </r>
       <r>    21.1050     0.0452     6.5750 </r>
       <r>    21.2863     0.1901     6.6095 </r>
       <r>    21.4676     0.1695     6.6402 </r>
       <r>    21.6488     0.4352     6.7191 </r>
       <r>    21.8301     0.2226     6.7595 </r>
       <r>    22.0113     0.0917     6.7761 </r>
       <r>    22.1926     0.2235     6.8166 </r>
       <r>    22.3739     0.2225     6.8569 </r>
       <r>    22.5551     0.1006     6.8752 </r>
       <r>    22.7364     0.0933     6.8921 </r>
       <r>    22.9177     0.0310     6.8977 </r>
       <r>    23.0989     0.0162     6.9006 </r>
       <r>    23.2802     0.2316     6.9426 </r>
       <r>    23.4614     0.3307     7.0026 </r>
       <r>    23.6427     0.3436     7.0648 </r>
       <r>    23.8240     0.3354     7.1256 </r>
       <r>    24.0052     0.1572     7.1541 </r>
       <r>    24.1865     0.1121     7.1745 </r>
       <r>    24.3677     0.0017     7.1748 </r>
       <r>    24.5490     0.0665     7.1868 </r>
       <r>    24.7303     0.1914     7.2215 </r>
       <r>    24.9115     0.2809     7.2724 </r>
       <r>    25.0928     0.5073     7.3644 </r>
       <r>    25.2740     0.2090     7.4023 </r>
       <r>    25.4553     0.0315     7.4080 </r>
       <r>    25.6366     0.1634     7.4376 </r>
       <r>    25.8178     0.3151     7.4947 </r>
       <r>    25.9991     0.4713     7.5801 </r>
       <r>    26.1803     0.3359     7.6410 </r>
       <r>    26.3616     0.1516     7.6685 </r>
       <r>    26.5429     0.0795     7.6829 </r>
       <r>    26.7241     0.0354     7.6893 </r>
       <r>    26.9054     0.1926     7.7243 </r>
       <r>    27.0866     0.2209     7.7643 </r>
       <r>    27.2679     0.3185     7.8220 </r>
       <r>    27.4492     0.2978     7.8760 </r>
       <r>    27.6304     0.0239     7.8803 </r>
       <r>    27.8117     0.0308     7.8859 </r>
       <r>    27.9930     0.2097     7.9239 </r>
       <r>    28.1742     0.3075     7.9796 </r>
       <r>    28.3555     0.0740     7.9931 </r>
       <r>    28.5367     0.0855     8.0086 </r>
       <r>    28.7180     0.2543     8.0547 </r>
       <r>    28.8993     0.4379     8.1340 </r>
       <r>    29.0805     0.2256     8.1749 </r>
       <r>    29.2618     0.1749     8.2066 </r>
       <r>    29.4430     0.1135     8.2272 </r>
       <r>    29.6243     0.2867     8.2792 </r>
       <r>    29.8056     0.1086     8.2988 </r>
       <r>    29.9868    -0.0120     8.2967 </r>
       <r>    30.1681    -0.0053     8.2957 </r>
       <r>    30.3493    -0.0191     8.2922 </r>
       <r>    30.5306     0.1691     8.3229 </r>
       <r>    30.7119     0.4669     8.4075 </r>
       <r>    30.8931     0.1744     8.4392 </r>
       <r>    31.0744     0.1465     8.4657 </r>
       <r>    31.2556     0.3217     8.5240 </r>
       <r>    31.4369     0.3340     8.5846 </r>
       <r>    31.6182     0.3738     8.6523 </r>
       <r>    31.7994     0.0318     8.6581 </r>
       <r>    31.9807     0.0551     8.6681 </r>
       <r>    32.1620     0.3447     8.7306 </r>
       <r>    32.3432     0.4218     8.8070 </r>
       <r>    32.5245     0.1526     8.8347 </r>
       <r>    32.7057     0.0161     8.8376 </r>
       <r>    32.8870     0.0169     8.8407 </r>
       <r>    33.0683     0.2137     8.8794 </r>
       <r>    33.2495     0.3274     8.9387 </r>
       <r>    33.4308     0.1045     8.9577 </r>
       <r>    33.6120     0.2656     9.0058 </r>
       <r>    33.7933     0.3180     9.0635 </r>
       <r>    33.9746     0.2925     9.1165 </r>
       <r>    34.1558     0.4387     9.1960 </r>
       <r>    34.3371     0.3046     9.2512 </r>
       <r>    34.5183     0.1787     9.2836 </r>
       <r>    34.6996     0.0521     9.2931 </r>
       <r>    34.8809     0.2547     9.3392 </r>
       <r>    35.0621     0.5927     9.4467 </r>
       <r>    35.2434     0.3629     9.5125 </r>
       <r>    35.4246     0.3263     9.5716 </r>
       <r>    35.6059     0.1705     9.6025 </r>
       <r>    35.7872     0.0636     9.6140 </r>
       <r>    35.9684     0.1140     9.6347 </r>
       <r>    36.1497     0.1726     9.6660 </r>
       <r>    36.3310     0.1542     9.6939 </r>
       <r>    36.5122     0.2823     9.7451 </r>
       <r>    36.6935     0.3528     9.8090 </r>
       <r>    36.8747     0.3137     9.8659 </r>
       <r>    37.0560     0.1973     9.9017 </r>
       <r>    37.2373     0.0912     9.9182 </r>
       <r>    37.4185     0.0862     9.9338 </r>
       <r>    37.5998     0.1790     9.9663 </r>
       <r>    37.7810     0.4027    10.0393 </r>
       <r>    37.9623     0.1081    10.0589 </r>
       <r>    38.1436    -0.0196    10.0553 </r>
       <r>    38.3248     0.0150    10.0580 </r>
       <r>    38.5061     0.0602    10.0689 </r>
       <r>    38.6873     0.0607    10.0800 </r>
       <r>    38.8686     0.2402    10.1235 </r>
       <r>    39.0499     0.4172    10.1991 </r>
       <r>    39.2311     0.3649    10.2653 </r>
       <r>    39.4124     0.0419    10.2728 </r>
       <r>    39.5936     0.0679    10.2851 </r>
       <r>    39.7749     0.1012    10.3035 </r>
       <r>    39.9562     0.6602    10.4232 </r>
       <r>    40.1374     0.7722    10.5631 </r>
       <r>    40.3187     0.3140    10.6200 </r>
       <r>    40.5000     0.1731    10.6514 </r>
       <r>    40.6812     0.0291    10.6567 </r>
       <r>    40.8625     0.0647    10.6684 </r>
       <r>    41.0437     0.2599    10.7155 </r>
       <r>    41.2250     0.1611    10.7447 </r>
       <r>    41.4063     0.2729    10.7942 </r>
       <r>    41.5875     0.2475    10.8390 </r>
       <r>    41.7688     0.2314    10.8810 </r>
       <r>    41.9500     0.3363    10.9419 </r>
       <r>    42.1313     0.2270    10.9831 </r>
       <r>    42.3126     0.1983    11.0190 </r>
       <r>    42.4938     0.1946    11.0543 </r>
       <r>    42.6751     0.2885    11.1066 </r>
       <r>    42.8563     0.1274    11.1297 </r>
       <r>    43.0376     0.0400    11.1369 </r>
       <r>    43.2189     0.0464    11.1454 </r>
       <r>    43.4001     0.4159    11.2207 </r>
       <r>    43.5814     0.3411    11.2826 </r>
       <r>    43.7626     0.1288    11.3059 </r>
       <r>    43.9439     0.2431    11.3500 </r>
       <r>    44.1252     0.3873    11.4202 </r>
       <r>    44.3064     0.2640    11.4680 </r>
       <r>    44.4877     0.0274    11.4730 </r>
       <r>    44.6690     0.1764    11.5049 </r>
       <r>    44.8502     0.2511    11.5505 </r>
       <r>    45.0315     0.0470    11.5590 </r>
       <r>    45.2127     0.2651    11.6070 </r>
       <r>    45.3940     0.1888    11.6413 </r>
       <r>    45.5753    -0.0092    11.6396 </r>
       <r>    45.7565    -0.0112    11.6376 </r>
       <r>    45.9378     0.0217    11.6415 </r>
       <r>    46.1190     0.1851    11.6751 </r>
       <r>    46.3003     0.1439    11.7012 </r>
       <r>    46.4816     0.2974    11.7551 </r>
       <r>    46.6628     0.3119    11.8116 </r>
       <r>    46.8441     0.1167    11.8327 </r>
       <r>    47.0253     0.0110    11.8347 </r>
       <r>    47.2066     0.4127    11.9095 </r>
       <r>    47.3879     0.4550    11.9920 </r>
       <r>    47.5691     0.0591    12.0027 </r>
       <r>    47.7504    -0.0135    12.0003 </r>
       <r>    47.9316    -0.0015    12.0000 </r>
       <r>    48.1129    -0.0000    12.0000 </r>
       <r>    48.2942    -0.0000    12.0000 </r>
       <r>    48.4754    -0.0000    12.0000 </r>
       <r>    48.6567    -0.0000    12.0000 </r>
       <r>    48.8380     0.0000    12.0000 </r>
       <r>    49.0192     0.0000    12.0000 </r>
       <r>    49.2005     0.0000    12.0000 </r>
       <r>    49.3817     0.0000    12.0000 </r>
       <r>    49.5630     0.0000    12.0000 </r>
       <r>    49.7443     0.0000    12.0000 </r>
       <r>    49.9255     0.0000    12.0000 </r>
       <r>    50.1068     0.0000    12.0000 </r>
       <r>    50.2880     0.0000    12.0000 </r>
       <r>    50.4693     0.0000    12.0000 </r>
       <r>    50.6506     0.0000    12.0000 </r>
       <r>    50.8318     0.0000    12.0000 </r>
       <r>    51.0131     0.0000    12.0000 </r>
       <r>    51.1943     0.0000    12.0000 </r>
       <r>    51.3756     0.0000    12.0000 </r>
       <r>    51.5569     0.0000    12.0000 </r>
       <r>    51.7381     0.0000    12.0000 </r>
       <r>    51.9194     0.0000    12.0000 </r>
       <r>    52.1006     0.0000    12.0000 </r>
       <r>    52.2819     0.0000    12.0000 </r>
       <r>    52.4632     0.0000    12.0000 </r>
       <r>    52.6444     0.0000    12.0000 </r>
       <r>    52.8257     0.0000    12.0000 </r>
       <r>    53.0070     0.0000    12.0000 </r>
       <r>    53.1882     0.0000    12.0000 </r>
       <r>    53.3695     0.0000    12.0000 </r>
       <r>    53.5507     0.0000    12.0000 </r>
      </set>
      <set comment="spin 2">
       <r>    -0.8275     0.0000     0.0000 </r>
       <r>    -0.6463     0.0000     0.0000 </r>
       <r>    -0.4650     0.0000     0.0000 </r>
       <r>    -0.2837     0.0000     0.0000 </r>
       <r>    -0.1025    -0.0000    -0.0000 </r>
       <r>     0.0788    -0.0000    -0.0000 </r>
       <r>     0.2600    -0.0000    -0.0000 </r>
       <r>     0.4413    -0.0000    -0.0000 </r>
       <r>     0.6226    -0.0000    -0.0000 </r>
       <r>     0.8038    -0.0000    -0.0000 </r>
       <r>     0.9851    -0.0000    -0.0000 </r>
       <r>     1.1663    -0.0001    -0.0000 </r>
       <r>     1.3476    -0.0012    -0.0002 </r>
       <r>     1.5289     0.0041     0.0005 </r>
       <r>     1.7101     0.0331     0.0065 </r>
       <r>     1.8914     0.0167     0.0095 </r>
       <r>     2.0727    -0.0053     0.0086 </r>
       <r>     2.2539     0.0147     0.0113 </r>
       <r>     2.4352     0.1013     0.0296 </r>
       <r>     2.6164     0.0458     0.0379 </r>
       <r>     2.7977    -0.0093     0.0362 </r>
       <r>     2.9790     0.0344     0.0425 </r>
       <r>     3.1602     0.1045     0.0614 </r>
       <r>     3.3415     0.0202     0.0651 </r>
       <r>     3.5227    -0.0013     0.0648 </r>
       <r>     3.7040     0.1112     0.0850 </r>
       <r>     3.8853     0.0951     0.1022 </r>
       <r>     4.0665    -0.0103     0.1004 </r>
       <r>     4.2478     0.0956     0.1177 </r>
       <r>     4.4290     0.1976     0.1535 </r>
       <r>     4.6103     0.0292     0.1588 </r>
       <r>     4.7916     0.0771     0.1728 </r>
       <r>     4.9728     0.0657     0.1847 </r>
       <r>     5.1541     0.0155     0.1875 </r>
       <r>     5.3353     0.1624     0.2169 </r>
       <r>     5.5166     0.1695     0.2476 </r>
       <r>     5.6979     0.1810     0.2804 </r>
       <r>     5.8791     0.2410     0.3241 </r>
       <r>     6.0604     0.1373     0.3490 </r>
       <r>     6.2417     0.2280     0.3903 </r>
       <r>     6.4229     0.4520     0.4723 </r>
       <r>     6.6042     0.4844     0.5601 </r>
       <r>     6.7854     0.5222     0.6547 </r>
       <r>     6.9667     0.3390     0.7162 </r>
       <r>     7.1480     0.4649     0.8004 </r>
       <r>     7.3292     0.8460     0.9538 </r>
       <r>     7.5105     0.7583     1.0912 </r>
       <r>     7.6917     0.7146     1.2208 </r>
       <r>     7.8730     0.7203     1.3513 </r>
       <r>     8.0543     0.8004     1.4964 </r>
       <r>     8.2355     0.5577     1.5975 </r>
       <r>     8.4168     0.6593     1.7170 </r>
       <r>     8.5980     1.0666     1.9103 </r>
       <r>     8.7793     1.1711     2.1226 </r>
       <r>     8.9606     0.7481     2.2582 </r>
       <r>     9.1418     1.0138     2.4420 </r>
       <r>     9.3231     1.0596     2.6341 </r>
       <r>     9.5043     1.1283     2.8386 </r>
       <r>     9.6856     1.2944     3.0732 </r>
       <r>     9.8669     0.9050     3.2372 </r>
       <r>    10.0481     0.7225     3.3682 </r>
       <r>    10.2294     0.6982     3.4947 </r>
       <r>    10.4107     1.0245     3.6804 </r>
       <r>    10.5919     1.1473     3.8884 </r>
       <r>    10.7732     0.7104     4.0172 </r>
       <r>    10.9544     1.2436     4.2426 </r>
       <r>    11.1357     1.1279     4.4470 </r>
       <r>    11.3170     0.9772     4.6242 </r>
       <r>    11.4982     1.6856     4.9297 </r>
       <r>    11.6795     1.3144     5.1680 </r>
       <r>    11.8607     0.6019     5.2771 </r>
       <r>    12.0420     0.4905     5.3660 </r>
       <r>    12.2233     0.2205     5.4059 </r>
       <r>    12.4045     0.0515     5.4153 </r>
       <r>    12.5858     0.0634     5.4268 </r>
       <r>    12.7670     0.2151     5.4657 </r>
       <r>    12.9483     0.2166     5.5050 </r>
       <r>    13.1296     0.1747     5.5367 </r>
       <r>    13.3108     0.2046     5.5737 </r>
       <r>    13.4921     0.1484     5.6007 </r>
       <r>    13.6733     0.1594     5.6296 </r>
       <r>    13.8546     0.1573     5.6581 </r>
       <r>    14.0359     0.0507     5.6672 </r>
       <r>    14.2171     0.0603     5.6782 </r>
       <r>    14.3984     0.0804     5.6927 </r>
       <r>    14.5797     0.2615     5.7401 </r>
       <r>    14.7609     0.3391     5.8016 </r>
       <r>    14.9422     0.0253     5.8062 </r>
       <r>    15.1234     0.1199     5.8279 </r>
       <r>    15.3047     0.1791     5.8604 </r>
       <r>    15.4860     0.0098     5.8622 </r>
       <r>    15.6672    -0.0058     5.8611 </r>
       <r>    15.8485    -0.0066     5.8599 </r>
       <r>    16.0297     0.0030     5.8605 </r>
       <r>    16.2110     0.2324     5.9026 </r>
       <r>    16.3923     0.2336     5.9449 </r>
       <r>    16.5735     0.0038     5.9456 </r>
       <r>    16.7548    -0.0115     5.9435 </r>
       <r>    16.9360     0.0058     5.9446 </r>
       <r>    17.1173     0.1720     5.9758 </r>
       <r>    17.2986     0.1405     6.0012 </r>
       <r>    17.4798    -0.0086     5.9997 </r>
       <r>    17.6611     0.0071     6.0010 </r>
       <r>    17.8423     0.1412     6.0266 </r>
       <r>    18.0236     0.2687     6.0753 </r>
       <r>    18.2049     0.1964     6.1109 </r>
       <r>    18.3861     0.1700     6.1417 </r>
       <r>    18.5674     0.1384     6.1668 </r>
       <r>    18.7487     0.0614     6.1779 </r>
       <r>    18.9299     0.1058     6.1971 </r>
       <r>    19.1112     0.1006     6.2153 </r>
       <r>    19.2924     0.3280     6.2747 </r>
       <r>    19.4737     0.2179     6.3142 </r>
       <r>    19.6550     0.0152     6.3170 </r>
       <r>    19.8362     0.1671     6.3473 </r>
       <r>    20.0175     0.1232     6.3696 </r>
       <r>    20.1987     0.0845     6.3849 </r>
       <r>    20.3800     0.2012     6.4214 </r>
       <r>    20.5613     0.0309     6.4270 </r>
       <r>    20.7425    -0.0060     6.4259 </r>
       <r>    20.9238     0.0775     6.4400 </r>
       <r>    21.1050     0.0701     6.4527 </r>
       <r>    21.2863     0.2225     6.4930 </r>
       <r>    21.4676     0.3018     6.5477 </r>
       <r>    21.6488     0.1323     6.5717 </r>
       <r>    21.8301     0.1914     6.6064 </r>
       <r>    22.0113     0.1562     6.6347 </r>
       <r>    22.1926     0.3578     6.6996 </r>
       <r>    22.3739     0.3219     6.7579 </r>
       <r>    22.5551     0.2199     6.7978 </r>
       <r>    22.7364     0.1264     6.8207 </r>
       <r>    22.9177     0.1890     6.8550 </r>
       <r>    23.0989     0.1172     6.8762 </r>
       <r>    23.2802     0.0944     6.8933 </r>
       <r>    23.4614     0.0171     6.8964 </r>
       <r>    23.6427     0.0742     6.9099 </r>
       <r>    23.8240     0.3464     6.9727 </r>
       <r>    24.0052     0.3191     7.0305 </r>
       <r>    24.1865     0.4900     7.1193 </r>
       <r>    24.3677     0.1801     7.1520 </r>
       <r>    24.5490     0.0569     7.1623 </r>
       <r>    24.7303     0.0715     7.1752 </r>
       <r>    24.9115    -0.0030     7.1747 </r>
       <r>    25.0928     0.1740     7.2062 </r>
       <r>    25.2740     0.4033     7.2793 </r>
       <r>    25.4553     0.4164     7.3548 </r>
       <r>    25.6366     0.2072     7.3924 </r>
       <r>    25.8178     0.0832     7.4075 </r>
       <r>    25.9991     0.1980     7.4434 </r>
       <r>    26.1803     0.2866     7.4953 </r>
       <r>    26.3616     0.4052     7.5688 </r>
       <r>    26.5429     0.3997     7.6412 </r>
       <r>    26.7241     0.1582     7.6699 </r>
       <r>    26.9054     0.0742     7.6833 </r>
       <r>    27.0866     0.0972     7.7009 </r>
       <r>    27.2679     0.1938     7.7361 </r>
       <r>    27.4492     0.2135     7.7748 </r>
       <r>    27.6304     0.3164     7.8321 </r>
       <r>    27.8117     0.2502     7.8775 </r>
       <r>    27.9930     0.0213     7.8813 </r>
       <r>    28.1742     0.0776     7.8954 </r>
       <r>    28.3555     0.1916     7.9301 </r>
       <r>    28.5367     0.2734     7.9797 </r>
       <r>    28.7180     0.0778     7.9938 </r>
       <r>    28.8993     0.1716     8.0249 </r>
       <r>    29.0805     0.4260     8.1021 </r>
       <r>    29.2618     0.3059     8.1576 </r>
       <r>    29.4430     0.1961     8.1931 </r>
       <r>    29.6243     0.1685     8.2236 </r>
       <r>    29.8056     0.1488     8.2506 </r>
       <r>    29.9868     0.2131     8.2892 </r>
       <r>    30.1681     0.0489     8.2981 </r>
       <r>    30.3493    -0.0120     8.2959 </r>
       <r>    30.5306    -0.0058     8.2948 </r>
       <r>    30.7119     0.0809     8.3095 </r>
       <r>    30.8931     0.4282     8.3871 </r>
       <r>    31.0744     0.4172     8.4627 </r>
       <r>    31.2556    -0.0005     8.4626 </r>
       <r>    31.4369     0.1118     8.4829 </r>
       <r>    31.6182     0.3374     8.5441 </r>
       <r>    31.7994     0.3435     8.6063 </r>
       <r>    31.9807     0.3485     8.6695 </r>
       <r>    32.1620     0.1992     8.7056 </r>
       <r>    32.3432     0.1574     8.7341 </r>
       <r>    32.5245     0.3309     8.7941 </r>
       <r>    32.7057     0.2499     8.8394 </r>
       <r>    32.8870     0.0181     8.8427 </r>
       <r>    33.0683     0.0221     8.8467 </r>
       <r>    33.2495     0.2006     8.8830 </r>
       <r>    33.4308     0.2232     8.9235 </r>
       <r>    33.6120     0.2125     8.9620 </r>
       <r>    33.7933     0.2385     9.0053 </r>
       <r>    33.9746     0.3112     9.0617 </r>
       <r>    34.1558     0.2330     9.1039 </r>
       <r>    34.3371     0.6028     9.2132 </r>
       <r>    34.5183     0.3048     9.2684 </r>
       <r>    34.6996     0.0107     9.2703 </r>
       <r>    34.8809     0.0638     9.2819 </r>
       <r>    35.0621     0.3973     9.3539 </r>
       <r>    35.2434     0.6800     9.4772 </r>
       <r>    35.4246     0.2793     9.5278 </r>
       <r>    35.6059     0.1519     9.5553 </r>
       <r>    35.7872     0.0912     9.5719 </r>
       <r>    35.9684     0.1428     9.5977 </r>
       <r>    36.1497     0.0436     9.6057 </r>
       <r>    36.3310     0.1369     9.6305 </r>
       <r>    36.5122     0.2309     9.6723 </r>
       <r>    36.6935     0.3934     9.7436 </r>
       <r>    36.8747     0.3997     9.8161 </r>
       <r>    37.0560     0.2297     9.8577 </r>
       <r>    37.2373     0.1741     9.8893 </r>
       <r>    37.4185     0.1704     9.9202 </r>
       <r>    37.5998     0.0601     9.9310 </r>
       <r>    37.7810     0.2845     9.9826 </r>
       <r>    37.9623     0.3813    10.0517 </r>
       <r>    38.1436     0.0347    10.0580 </r>
       <r>    38.3248    -0.0141    10.0555 </r>
       <r>    38.5061    -0.0018    10.0551 </r>
       <r>    38.6873     0.0468    10.0636 </r>
       <r>    38.8686     0.0449    10.0718 </r>
       <r>    39.0499     0.0313    10.0775 </r>
       <r>    39.2311     0.3465    10.1403 </r>
       <r>    39.4124     0.3541    10.2044 </r>
       <r>    39.5936     0.3108    10.2608 </r>
       <r>    39.7749     0.1490    10.2878 </r>
       <r>    39.9562     0.0970    10.3054 </r>
       <r>    40.1374     0.4225    10.3819 </r>
       <r>    40.3187     1.0043    10.5640 </r>
       <r>    40.5000     0.4288    10.6417 </r>
       <r>    40.6812     0.0662    10.6537 </r>
       <r>    40.8625     0.0178    10.6569 </r>
       <r>    41.0437     0.0190    10.6604 </r>
       <r>    41.2250     0.2015    10.6969 </r>
       <r>    41.4063     0.1985    10.7329 </r>
       <r>    41.5875     0.3003    10.7873 </r>
       <r>    41.7688     0.2870    10.8393 </r>
       <r>    41.9500     0.0756    10.8531 </r>
       <r>    42.1313     0.3506    10.9166 </r>
       <r>    42.3126     0.3946    10.9881 </r>
       <r>    42.4938     0.1452    11.0145 </r>
       <r>    42.6751     0.1949    11.0498 </r>
       <r>    42.8563     0.2345    11.0923 </r>
       <r>    43.0376     0.1113    11.1124 </r>
       <r>    43.2189     0.0874    11.1283 </r>
       <r>    43.4001     0.2396    11.1717 </r>
       <r>    43.5814     0.4369    11.2509 </r>
       <r>    43.7626     0.1616    11.2802 </r>
       <r>    43.9439    -0.0316    11.2745 </r>
       <r>    44.1252     0.0937    11.2914 </r>
       <r>    44.3064     0.5533    11.3917 </r>
       <r>    44.4877     0.4241    11.4686 </r>
       <r>    44.6690     0.0425    11.4763 </r>
       <r>    44.8502     0.0818    11.4911 </r>
       <r>    45.0315     0.0517    11.5005 </r>
       <r>    45.2127     0.0942    11.5176 </r>
       <r>    45.3940     0.2366    11.5604 </r>
       <r>    45.5753     0.2676    11.6089 </r>
       <r>    45.7565     0.1669    11.6392 </r>
       <r>    45.9378     0.0035    11.6398 </r>
       <r>    46.1190    -0.0101    11.6380 </r>
       <r>    46.3003    -0.0029    11.6375 </r>
       <r>    46.4816     0.1933    11.6725 </r>
       <r>    46.6628     0.2572    11.7191 </r>
       <r>    46.8441     0.0192    11.7226 </r>
       <r>    47.0253     0.0027    11.7231 </r>
       <r>    47.2066     0.1949    11.7584 </r>
       <r>    47.3879     0.2892    11.8109 </r>
       <r>    47.5691     0.1336    11.8351 </r>
       <r>    47.7504    -0.0062    11.8339 </r>
       <r>    47.9316    -0.0079    11.8325 </r>
       <r>    48.1129    -0.0048    11.8317 </r>
       <r>    48.2942     0.1812    11.8645 </r>
       <r>    48.4754     0.2602    11.9117 </r>
       <r>    48.6567     0.0502    11.9208 </r>
       <r>    48.8380     0.0936    11.9377 </r>
       <r>    49.0192     0.0424    11.9454 </r>
       <r>    49.2005    -0.0047    11.9446 </r>
       <r>    49.3817    -0.0008    11.9444 </r>
       <r>    49.5630    -0.0000    11.9444 </r>
       <r>    49.7443    -0.0000    11.9444 </r>
       <r>    49.9255    -0.0000    11.9444 </r>
       <r>    50.1068    -0.0000    11.9444 </r>
       <r>    50.2880    -0.0000    11.9444 </r>
       <r>    50.4693    -0.0010    11.9443 </r>
       <r>    50.6506    -0.0050    11.9434 </r>
       <r>    50.8318     0.0468    11.9518 </r>
       <r>    51.0131     0.1407    11.9773 </r>
       <r>    51.1943     0.1149    11.9982 </r>
       <r>    51.3756     0.0147    12.0008 </r>
       <r>    51.5569    -0.0043    12.0001 </r>
       <r>    51.7381    -0.0003    12.0000 </r>
       <r>    51.9194    -0.0000    12.0000 </r>
       <r>    52.1006    -0.0000    12.0000 </r>
       <r>    52.2819    -0.0000    12.0000 </r>
       <r>    52.4632    -0.0000    12.0000 </r>
       <r>    52.6444     0.0000    12.0000 </r>
       <r>    52.8257     0.0000    12.0000 </r>
       <r>    53.0070     0.0000    12.0000 </r>
       <r>    53.1882     0.0000    12.0000 </r>
       <r>    53.3695     0.0000    12.0000 </r>
       <r>    53.5507     0.0000    12.0000 </r>
      </set>
     </set>
    </array>
   </total>
  </dos>
 </calculation>
 <structure name="finalpos" >
  <crystal>
   <varray name="basis" >
    <v>       0.00000000       1.75500000       1.75500000 </v>
    <v>       1.75500000       0.00000000       1.75500000 </v>
    <v>       1.75500000       1.75500000       0.00000000 </v>
   </varray>
   <i name="volume">     10.81088775 </i>
   <varray name="rec_basis" >
    <v>      -0.28490028       0.28490028       0.28490028 </v>
    <v>       0.28490028      -0.28490028       0.28490028 </v>
    <v>       0.28490028       0.28490028      -0.28490028 </v>
   </varray>
  </crystal>
  <varray name="positions" >
   <v>       0.00000000       0.00000000       0.00000000 </v>
  </varray>
 </structure>
</modeling>
