Pt-hcc                                  
   1.00000000000000     
     3.028269    0.000000    0.000000
    -1.514135    2.622558    0.000000
     0.000000    0.000000    5.246406
   Pt
     2
Direct
  0.000000  0.000000  0.000000
  0.333333  0.666667  0.500000
 
   48   48   72
  365.47      365.10      363.43      358.96      349.69      333.80      310.26      279.31      242.53      202.63    
  162.83      126.17      94.913      70.159      51.833      38.913      29.832      23.238      18.542      15.269    
  13.025      11.521      10.562      10.028      9.8565      10.028      10.562      11.521      13.025      15.269    
  18.542      23.238      29.832      38.913      51.833      70.159      94.913      126.17      162.83      202.63    
  242.53      279.31      310.26      333.80      349.69      358.96      363.43      365.10      365.10      365.10    
  364.08      360.98      354.04      341.32      321.38      293.84      259.65      221.02      180.95      142.64    
  108.76      80.973      59.742      44.462      33.784      26.116      20.579      16.680      13.984      12.152    
  10.947      10.215      9.8691      9.8691      10.215      10.947      12.152      13.984      16.680      20.579    
  26.116      33.784      44.462      59.742      80.973      108.76      142.64      180.95      221.02      259.65    
  293.84      321.38      341.32      354.04      360.98      364.08      363.43      364.08      363.43      360.98    
  355.36      344.81      327.73      303.31      271.94      235.27      195.96      157.11      121.58      91.473    
  67.737      50.212      37.848      29.098      22.724      18.182      15.010      12.830      11.365      10.429    
  9.9062      9.7382      9.9062      10.429      11.365      12.830      15.010      18.182      22.724      29.098    
  37.848      50.212      67.737      91.473      121.58      157.11      195.96      235.27      271.94      303.31    
  327.73      344.81      355.36      360.98      358.96      360.99      360.99      358.96      354.04      344.81    
  329.77      307.94      279.28      244.94      207.13      168.70      132.52      100.94      75.301      55.856    
  41.893      32.056      24.898      19.727      16.076      13.541      11.810      10.665      9.9667      9.6352    
  9.6352      9.9667      10.665      11.810      13.541      16.076      19.727      24.898      32.056      41.893    
  55.856      75.301      100.94      132.52      168.70      207.13      244.94      279.28      307.94      329.78    
  344.81      354.04      349.69      354.05      355.38      354.05      349.69      341.32      327.73      307.94    
  281.72      249.81      213.99      176.76      140.87      108.70      81.890      61.018      45.709      34.853    
  27.003      21.255      17.148      14.266      12.271      10.919      10.048      9.5596      9.4019      9.5596    
  10.048      10.919      12.271      14.266      17.148      21.255      27.003      34.853      45.709      61.018    
  81.890      108.70      140.87      176.76      213.99      249.81      281.72      307.94      327.73      341.32    
  333.80      341.33      344.83      344.83      341.33      333.80      321.38      303.31      279.28      249.81    
  216.30      180.89      146.08      114.21      87.001      65.310      49.047      37.359      28.929      22.693    
  18.180      14.976      12.732      11.183      10.147      9.5100      9.2056      9.2056      9.5100      10.148    
  11.183      12.732      14.976      18.180      22.693      28.929      37.359      49.047      65.310      87.001    
  114.21      146.08      180.89      216.30      249.81      279.28      303.31      321.38      310.26      321.40    
  327.75      329.81      327.75      321.40      310.26      293.84      271.94      244.94      213.99      180.89    
  147.86      117.06      90.238      68.387      51.652      39.422      30.567      23.966      19.122      15.642    
  13.175      11.446      10.259      9.4839      9.0450      8.9026      9.0450      9.4839      10.259      11.446    
  13.175      15.642      19.122      23.966      30.567      39.422      51.652      68.387      90.238      117.06    
  147.86      180.89      213.99      244.94      271.94      293.84      279.31      293.85      303.33      307.97    
  307.97      303.33      293.85      279.31      259.65      235.27      207.13      176.76      146.08      117.06    
  91.346      69.993      53.311      40.896      31.817      24.997      19.922      16.229      13.579      11.696    
  10.375      9.4779      8.9182      8.6487      8.6487      8.9182      9.4779      10.375      11.696      13.579    
  16.229      19.922      24.997      31.817      40.896      53.311      69.993      91.346      117.06      146.08    
  176.76      207.13      235.27      259.65      242.53      259.65      271.94      279.29      281.73      279.29    
  271.94      259.65      242.53      221.02      195.96      168.70      140.87      114.21      90.238      69.993    
  53.880      41.665      32.601      25.724      20.532      16.704      13.923      11.919      10.489      9.4869    
  8.8224      8.4414      8.3170      8.4414      8.8224      9.4869      10.489      11.919      13.923      16.704    
  20.532      25.724      32.601      41.665      53.880      69.993      90.238      114.21      140.87      168.70    
  195.96      221.02      202.63      221.00      235.25      244.92      249.79      249.79      244.92      235.25    
  221.00      202.63      180.95      157.11      132.52      108.70      87.001      68.387      53.311      41.665    
  32.868      26.100      20.915      17.039      14.185      12.101      10.589      9.5052      8.7538      8.2778    
  8.0463      8.0463      8.2778      8.7538      9.5052      10.589      12.101      14.185      17.039      20.915    
  26.100      32.868      41.665      53.311      68.387      87.001      108.70      132.52      157.11      180.95    
  162.83      180.93      195.92      207.08      213.94      216.25      213.94      207.08      195.92      180.93    
  162.83      142.64      121.58      100.94      81.889      65.310      51.652      40.896      32.601      26.100    
  21.046      17.212      14.349      12.231      10.669      9.5264      8.7077      8.1543      7.8328      7.7272    
  7.8328      8.1543      8.7077      9.5264      10.669      12.231      14.349      17.212      21.046      26.100    
  32.601      40.896      51.652      65.310      81.890      100.94      121.58      142.64      126.17      142.61    
  157.05      168.62      176.67      180.80      180.80      176.67      168.62      157.05      142.61      126.17    
  108.76      91.473      75.301      61.018      49.047      39.422      31.817      25.724      20.915      17.212    
  14.405      12.298      10.720      9.5444      8.6793      8.0667      7.6725      7.4790      7.4790      7.6725    
  8.0667      8.6793      9.5444      10.720      12.298      14.405      17.212      20.915      25.724      31.817    
  39.422      49.047      61.018      75.301      91.473      108.76      94.913      108.73      121.51      132.42    
  140.75      145.96      147.73      145.96      140.75      132.42      121.51      108.73      94.913      80.973    
  67.737      55.856      45.709      37.359      30.567      24.997      20.532      17.039      14.349      12.298    
  10.738      9.5547      8.6643      8.0111      7.5615      7.2974      7.2101      7.2974      7.5615      8.0111    
  8.6643      9.5548      10.738      12.298      14.349      17.039      20.532      24.997      30.567      37.359    
  45.709      55.856      67.737      80.973      70.159      80.933      91.395      100.83      108.57      114.05    
  116.90      116.90      114.05      108.57      100.83      91.395      80.933      70.159      59.742      50.212    
  41.893      34.853      28.929      23.966      19.922      16.704      14.185      12.231      10.720      9.5548    
  8.6597      7.9842      7.4965      7.1786      7.0214      7.0214      7.1786      7.4965      7.9842      8.6596    
  9.5548      10.720      12.231      14.185      16.704      19.922      23.966      28.929      34.853      41.893    
  50.212      59.742      51.833      59.704      67.661      75.188      81.745      86.833      90.056      91.159    
  90.056      86.833      81.745      75.188      67.661      59.704      51.833      44.462      37.848      32.056    
  27.003      22.693      19.122      16.229      13.923      12.101      10.669      9.5444      8.6643      7.9842    
  7.4751      7.1200      6.9096      6.8399      6.9096      7.1200      7.4751      7.9842      8.6643      9.5444    
  10.669      12.101      13.923      16.229      19.122      22.693      27.003      32.056      37.848      44.462    
  38.913      44.429      50.143      55.751      60.879      65.144      68.202      69.798      69.798      68.202    
  65.144      60.879      55.751      50.143      44.429      38.913      33.784      29.098      24.898      21.255    
  18.180      15.642      13.579      11.919      10.589      9.5264      8.6793      8.0111      7.4965      7.1200    
  6.8726      6.7498      6.7498      6.8726      7.1200      7.4965      8.0111      8.6793      9.5264      10.589    
  11.919      13.579      15.642      18.180      21.255      24.898      29.098      33.784      29.832      33.757    
  37.790      41.801      45.586      48.895      51.478      53.123      53.688      53.123      51.478      48.895    
  45.586      41.801      37.790      33.758      29.832      26.116      22.724      19.727      17.148      14.976    
  13.175      11.696      10.489      9.5052      8.7077      8.0667      7.5615      7.1786      6.9096      6.7498    
  6.6968      6.7498      6.9096      7.1786      7.5615      8.0667      8.7077      9.5052      10.489      11.696    
  13.175      14.976      17.148      19.727      22.724      26.116      23.238      26.095      29.052      31.982    
  34.750      37.229      39.270      40.728      41.488      41.488      40.728      39.270      37.229      34.750    
  31.982      29.052      26.095      23.238      20.579      18.182      16.076      14.266      12.732      11.446    
  10.375      9.4869      8.7538      8.1543      7.6725      7.2973      7.0214      6.8399      6.7498      6.7498    
  6.8399      7.0214      7.2974      7.6725      8.1543      8.7538      9.4869      10.375      11.446      12.732    
  14.266      16.076      18.182      20.579      18.542      20.564      22.689      24.841      26.922      28.825    
  30.441      31.675      32.448      32.712      32.448      31.675      30.441      28.825      26.922      24.841    
  22.689      20.564      18.542      16.680      15.010      13.541      12.271      11.183      10.259      9.4779    
  8.8224      8.2778      7.8328      7.4790      7.2101      7.0214      6.9096      6.8726      6.9096      7.0214    
  7.2101      7.4790      7.8328      8.2778      8.8224      9.4779      10.259      11.183      12.271      13.541    
  15.010      16.680      15.269      16.669      18.157      19.685      21.194      22.614      23.868      24.884    
  25.600      25.970      25.970      25.600      24.884      23.868      22.614      21.194      19.685      18.157    
  16.669      15.269      13.984      12.830      11.810      10.919      10.147      9.4839      8.9182      8.4414    
  8.0463      7.7272      7.4790      7.2973      7.1786      7.1200      7.1200      7.1786      7.2974      7.4790    
  7.7272      8.0463      8.4414      8.9182      9.4839      10.148      10.919      11.810      12.830      13.984    
  13.025      13.977      14.993      16.048      17.106      18.123      19.051      19.838      20.438      20.814    
  20.942      20.814      20.438      19.838      19.051      18.123      17.106      16.048      14.993      13.977    
  13.025      12.152      11.365      10.665      10.048      9.5100      9.0450      8.6487      8.3171      8.0463    
  7.8328      7.6725      7.5615      7.4965      7.4751      7.4965      7.5615      7.6725      7.8328      8.0463    
  8.3170      8.6487      9.0450      9.5100      10.048      10.665      11.365      12.152      11.521      12.148    
  12.820      13.523      14.238      14.939      15.594      16.171      16.637      16.965      17.135      17.135    
  16.965      16.637      16.171      15.594      14.938      14.238      13.523      12.820      12.148      11.521    
  10.947      10.429      9.9667      9.5596      9.2056      8.9026      8.6487      8.4414      8.2778      8.1543    
  8.0667      8.0111      7.9842      7.9842      8.0111      8.0667      8.1543      8.2778      8.4414      8.6487    
  8.9026      9.2056      9.5596      9.9667      10.429      10.947      10.562      10.945      11.360      11.800    
  12.255      12.710      13.146      13.543      13.880      14.137      14.298      14.353      14.298      14.137    
  13.880      13.543      13.146      12.710      12.255      11.800      11.360      10.945      10.562      10.215    
  9.9063      9.6353      9.4020      9.2056      9.0450      8.9182      8.8224      8.7538      8.7077      8.6793    
  8.6643      8.6597      8.6643      8.6793      8.7077      8.7538      8.8224      8.9182      9.0450      9.2056    
  9.4019      9.6352      9.9062      10.215      10.028      10.214      10.426      10.661      10.912      11.173    
  11.432      11.678      11.897      12.076      12.202      12.268      12.268      12.202      12.076      11.897    
  11.678      11.432      11.173      10.912      10.661      10.426      10.214      10.028      9.8691      9.7382    
  9.6353      9.5596      9.5100      9.4839      9.4779      9.4869      9.5052      9.5264      9.5444      9.5548    
  9.5547      9.5444      9.5264      9.5052      9.4869      9.4779      9.4839      9.5100      9.5596      9.6352    
  9.7382      9.8691      9.8565      9.8688      9.9056      9.9658      10.047      10.145      10.256      10.371    
  10.483      10.582      10.660      10.711      10.728      10.711      10.660      10.582      10.483      10.371    
  10.256      10.145      10.047      9.9658      9.9057      9.8689      9.8566      9.8691      9.9063      9.9667    
  10.048      10.147      10.259      10.375      10.489      10.589      10.669      10.720      10.738      10.720    
  10.669      10.589      10.489      10.375      10.259      10.147      10.048      9.9667      9.9062      9.8691    
  10.028      9.8688      9.7381      9.6360      9.5615      9.5132      9.4885      9.4836      9.4934      9.5121    
  9.5334      9.5514      9.5617      9.5617      9.5514      9.5334      9.5121      9.4934      9.4836      9.4885    
  9.5133      9.5616      9.6360      9.7382      9.8689      10.028      10.215      10.429      10.665      10.919    
  11.183      11.446      11.696      11.919      12.101      12.231      12.298      12.298      12.231      12.101    
  11.919      11.696      11.446      11.183      10.919      10.665      10.429      10.215      10.562      10.214    
  9.9056      9.6360      9.4049      9.2114      9.0540      8.9303      8.8374      8.7712      8.7270      8.6999    
  8.6856      8.6812      8.6856      8.6999      8.7270      8.7712      8.8374      8.9303      9.0540      9.2115    
  9.4050      9.6360      9.9057      10.214      10.562      10.947      11.365      11.810      12.271      12.732    
  13.175      13.579      13.923      14.185      14.349      14.405      14.349      14.185      13.923      13.579    
  13.175      12.732      12.271      11.810      11.365      10.947      11.521      10.945      10.426      9.9658    
  9.5616      9.2114      8.9131      8.6640      8.4614      8.3021      8.1822      8.0975      8.0438      8.0178    
  8.0178      8.0437      8.0975      8.1822      8.3021      8.4614      8.6640      8.9131      9.2115      9.5616    
  9.9658      10.426      10.945      11.521      12.152      12.830      13.541      14.266      14.976      15.642    
  16.229      16.704      17.039      17.212      17.212      17.039      16.704      16.229      15.642      14.976    
  14.266      13.541      12.830      12.152      13.025      12.148      11.360      10.661      10.047      9.5133    
  9.0540      8.6640      8.3387      8.0741      7.8660      7.7101      7.6025      7.5395      7.5188      7.5395    
  7.6025      7.7101      7.8660      8.0741      8.3388      8.6640      9.0540      9.5133      10.047      10.661    
  11.360      12.148      13.025      13.984      15.010      16.076      17.148      18.180      19.122      19.922    
  20.532      20.915      21.046      20.915      20.532      19.922      19.122      18.180      17.148      16.076    
  15.010      13.984      15.269      13.977      12.820      11.800      10.912      10.145      9.4885      8.9303    
  8.4614      8.0741      7.7621      7.5201      7.3433      7.2280      7.1711      7.1711      7.2280      7.3433    
  7.5201      7.7621      8.0741      8.4614      8.9303      9.4885      10.145      10.912      11.800      12.820    
  13.977      15.269      16.680      18.182      19.727      21.255      22.693      23.966      24.997      25.724    
  26.100      26.100      25.724      24.997      23.966      22.693      21.255      19.727      18.182      16.680    
  18.542      16.669      14.993      13.523      12.255      11.173      10.256      9.4836      8.8374      8.3021    
  7.8660      7.5201      7.2578      7.0741      6.9654      6.9294      6.9654      7.0741      7.2578      7.5201    
  7.8660      8.3021      8.8374      9.4836      10.256      11.173      12.255      13.523      14.993      16.669    
  18.542      20.579      22.724      24.898      27.003      28.929      30.567      31.817      32.601      32.868    
  32.601      31.817      30.567      28.929      27.003      24.898      22.724      20.579      23.238      20.564    
  18.157      16.048      14.238      12.710      11.432      10.371      9.4934      8.7712      8.1822      7.7101    
  7.3433      7.0741      6.8972      6.8096      6.8096      6.8972      7.0741      7.3433      7.7101      8.1822    
  8.7712      9.4934      10.371      11.432      12.710      14.238      16.048      18.157      20.564      23.238    
  26.116      29.098      32.056      34.853      37.359      39.422      40.896      41.665      41.665      40.896    
  39.422      37.359      34.853      32.056      29.098      26.116      29.832      26.095      22.689      19.685    
  17.106      14.939      13.146      11.678      10.483      9.5121      8.7270      8.0975      7.6025      7.2280    
  6.9654      6.8096      6.7579      6.8096      6.9654      7.2280      7.6025      8.0975      8.7270      9.5121    
  10.483      11.678      13.146      14.938      17.106      19.685      22.689      26.095      29.832      33.784    
  37.848      41.893      45.709      49.047      51.652      53.311      53.880      53.311      51.652      49.047    
  45.709      41.893      37.848      33.784      38.913      33.757      29.052      24.841      21.194      18.123    
  15.594      13.543      11.897      10.582      9.5334      8.6999      8.0437      7.5395      7.1711      6.9294    
  6.8096      6.8096      6.9294      7.1711      7.5395      8.0437      8.6999      9.5334      10.582      11.897    
  13.543      15.594      18.123      21.194      24.841      29.052      33.758      38.913      44.462      50.212    
  55.856      61.018      65.310      68.387      69.993      69.993      68.387      65.310      61.018      55.856    
  50.212      44.462      51.833      44.429      37.790      31.982      26.922      22.614      19.051      16.171    
  13.880      12.076      10.660      9.5514      8.6856      8.0178      7.5188      7.1711      6.9654      6.8972    
  6.9654      7.1711      7.5188      8.0178      8.6856      9.5514      10.660      12.076      13.880      16.171    
  19.051      22.614      26.922      31.982      37.790      44.429      51.833      59.742      67.737      75.301    
  81.889      87.001      90.238      91.346      90.238      87.001      81.890      75.301      67.737      59.742    
  70.159      59.704      50.143      41.801      34.750      28.825      23.868      19.838      16.637      14.137    
  12.202      10.711      9.5617      8.6812      8.0178      7.5395      7.2280      7.0741      7.0741      7.2280    
  7.5395      8.0178      8.6812      9.5617      10.711      12.202      14.137      16.637      19.838      23.868    
  28.825      34.750      41.801      50.143      59.704      70.159      80.973      91.473      100.94      108.70    
  114.21      117.06      117.06      114.21      108.70      100.94      91.473      80.973      94.913      80.933    
  67.661      55.751      45.586      37.229      30.441      24.884      20.438      16.965      14.298      12.268    
  10.728      9.5617      8.6856      8.0437      7.6025      7.3433      7.2578      7.3433      7.6025      8.0438    
  8.6856      9.5617      10.728      12.268      14.298      16.965      20.438      24.884      30.441      37.229    
  45.586      55.751      67.661      80.933      94.913      108.76      121.58      132.52      140.87      146.08    
  147.86      146.08      140.87      132.52      121.58      108.76      126.17      108.73      91.395      75.188    
  60.879      48.895      39.270      31.675      25.600      20.814      17.135      14.353      12.268      10.711    
  9.5514      8.6999      8.0975      7.7101      7.5201      7.5201      7.7101      8.0975      8.6999      9.5514    
  10.711      12.268      14.353      17.135      20.814      25.600      31.675      39.270      48.895      60.879    
  75.188      91.395      108.73      126.17      142.64      157.11      168.70      176.76      180.89      180.89    
  176.76      168.70      157.11      142.64      162.83      142.61      121.51      100.83      81.745      65.144    
  51.478      40.728      32.448      25.970      20.942      17.135      14.298      12.202      10.660      9.5334    
  8.7270      8.1822      7.8660      7.7621      7.8660      8.1822      8.7270      9.5334      10.660      12.202    
  14.298      17.135      20.942      25.970      32.448      40.728      51.478      65.144      81.745      100.83    
  121.51      142.61      162.83      180.95      195.96      207.13      213.99      216.30      213.99      207.13    
  195.96      180.95      202.63      180.93      157.05      132.42      108.57      86.833      68.202      53.123    
  41.488      32.712      25.970      20.814      16.965      14.137      12.076      10.582      9.5121      8.7712    
  8.3021      8.0741      8.0741      8.3021      8.7712      9.5121      10.582      12.076      14.137      16.965    
  20.814      25.970      32.712      41.488      53.123      68.202      86.833      108.57      132.42      157.05    
  180.93      202.63      221.02      235.27      244.94      249.81      249.81      244.94      235.27      221.02    
  242.53      221.00      195.92      168.62      140.75      114.05      90.056      69.798      53.688      41.488    
  32.448      25.600      20.438      16.637      13.880      11.897      10.483      9.4934      8.8374      8.4614    
  8.3387      8.4614      8.8374      9.4934      10.483      11.897      13.880      16.637      20.438      25.600    
  32.448      41.488      53.688      69.798      90.056      114.05      140.75      168.62      195.92      221.00    
  242.53      259.65      271.94      279.28      281.72      279.28      271.94      259.65      279.31      259.65    
  235.25      207.08      176.67      145.96      116.90      91.159      69.798      53.123      40.728      31.675    
  24.884      19.838      16.171      13.543      11.678      10.371      9.4836      8.9303      8.6640      8.6640    
  8.9303      9.4836      10.371      11.678      13.543      16.171      19.838      24.884      31.675      40.728    
  53.123      69.798      91.159      116.90      145.96      176.67      207.08      235.25      259.65      279.31    
  293.84      303.31      307.94      307.94      303.31      293.84      310.26      293.85      271.94      244.92    
  213.94      180.80      147.73      116.90      90.056      68.202      51.478      39.270      30.441      23.868    
  19.051      15.594      13.146      11.432      10.256      9.4885      9.0540      8.9131      9.0540      9.4885    
  10.256      11.432      13.146      15.594      19.051      23.868      30.441      39.270      51.478      68.202    
  90.056      116.90      147.73      180.80      213.94      244.92      271.94      293.85      310.26      321.38    
  327.73      329.77      327.73      321.38      333.80      321.40      303.33      279.29      249.79      216.25    
  180.80      145.96      114.05      86.833      65.144      48.895      37.229      28.825      22.614      18.123    
  14.939      12.710      11.173      10.145      9.5133      9.2114      9.2114      9.5132      10.145      11.173    
  12.710      14.939      18.123      22.614      28.825      37.229      48.895      65.144      86.833      114.05    
  145.96      180.80      216.25      249.79      279.29      303.33      321.40      333.80      341.32      344.81    
  344.81      341.32      349.69      341.33      327.75      307.97      281.73      249.79      213.94      176.67    
  140.75      108.57      81.745      60.879      45.586      34.750      26.922      21.194      17.106      14.238    
  12.255      10.912      10.047      9.5616      9.4049      9.5615      10.047      10.912      12.255      14.238    
  17.106      21.194      26.922      34.750      45.586      60.879      81.745      108.57      140.75      176.67    
  213.94      249.79      281.73      307.97      327.75      341.33      349.69      354.04      355.36      354.04    
  358.96      354.05      344.83      329.81      307.97      279.29      244.92      207.08      168.62      132.42    
  100.83      75.188      55.751      41.801      31.982      24.841      19.685      16.048      13.523      11.800    
  10.661      9.9658      9.6360      9.6360      9.9658      10.661      11.800      13.523      16.048      19.685    
  24.841      31.982      41.801      55.751      75.188      100.83      132.42      168.62      207.08      244.92    
  279.29      307.97      329.81      344.83      354.05      358.96      360.98      360.98      363.43      360.99    
  355.38      344.83      327.75      303.33      271.94      235.25      195.92      157.05      121.51      91.395    
  67.661      50.143      37.790      29.052      22.689      18.157      14.993      12.820      11.360      10.426    
  9.9056      9.7381      9.9056      10.426      11.360      12.820      14.993      18.157      22.689      29.052    
  37.790      50.143      67.661      91.395      121.51      157.05      195.92      235.25      271.94      303.33    
  327.75      344.83      355.38      360.99      363.43      364.08      365.10      364.08      360.99      354.05    
  341.33      321.40      293.85      259.65      221.00      180.93      142.61      108.73      80.933      59.704    
  44.429      33.757      26.095      20.564      16.669      13.977      12.148      10.945      10.214      9.8688    
  9.8688      10.214      10.945      12.148      13.977      16.669      20.564      26.095      33.757      44.429    
  59.704      80.933      108.73      142.61      180.93      221.00      259.65      293.85      321.40      341.33    
  354.05      360.99      364.08      365.10      365.15      364.69      362.75      357.88      348.14      331.80    
  307.90      276.73      239.92      200.16      160.66      124.39      93.542      69.173      51.162      38.467    
  29.520      23.015      18.382      15.151      12.935      11.447      10.498      9.9686      9.7985      9.9686    
  10.498      11.447      12.935      15.151      18.382      23.015      29.520      38.467      51.162      69.173    
  93.542      124.39      160.66      200.16      239.92      276.73      307.90      331.80      348.14      357.88    
  362.75      364.69      364.69      364.69      363.48      360.05      352.68      339.50      319.16      291.34    
  257.03      218.45      178.62      140.67      107.20      79.811      58.931      43.920      33.417      25.853    
  20.391      16.544      13.882      12.071      10.878      10.154      9.8104      9.8104      10.154      10.878    
  12.071      13.882      16.544      20.391      25.853      33.417      43.920      58.931      79.811      107.20    
  140.67      178.62      218.45      257.03      291.34      319.16      339.50      352.68      360.05      363.48    
  362.75      363.49      362.75      360.05      354.07      343.09      325.60      300.87      269.33      232.66    
  193.53      154.98      119.85      90.148      66.788      49.567      37.417      28.794      22.506      18.025    
  14.894      12.741      11.292      10.364      9.8466      9.6800      9.8466      10.364      11.292      12.741    
  14.894      18.025      22.506      28.794      37.417      49.567      66.788      90.148      119.85      154.98    
  193.53      232.66      269.33      300.87      325.60      343.09      354.07      360.05      357.88      360.06    