Pt-hcc                                  
   1.00000000000000     
     3.028269    0.000000    0.000000
    -1.514135    2.622558    0.000000
     0.000000    0.000000    5.246406
   Pt
     2
Direct
  0.000000  0.000000  0.000000
  0.333333  0.666667  0.500000
 
   48   48   72
 0.36547435123E+03 0.36510349434E+03 0.36343270191E+03 0.35895649711E+03 0.34968759384E+03
 0.33379852504E+03 0.31026339540E+03 0.27930972046E+03 0.24253400719E+03 0.20263348267E+03
 0.16283103149E+03 0.12617275456E+03 0.94913432877E+02 0.70159234253E+02 0.51832775055E+02
 0.38912991097E+02 0.29831694623E+02 0.23237916519E+02 0.18542066945E+02 0.15268742719E+02
 0.13025102889E+02 0.11521265837E+02 0.10562063783E+02 0.10028051237E+02 0.98564915099E+01
 0.10028050874E+02 0.10562063246E+02 0.11521265419E+02 0.13025102854E+02 0.15268743180E+02
 0.18542067805E+02 0.23237917505E+02 0.29831695401E+02 0.38912991419E+02 0.51832774874E+02
 0.70159233760E+02 0.94913432440E+02 0.12617275458E+03 0.16283103224E+03 0.20263348417E+03
 0.24253400919E+03 0.27930972251E+03 0.31026339705E+03 0.33379852596E+03 0.34968759396E+03
 0.35895649664E+03 0.36343270124E+03 0.36510349387E+03 0.36510349387E+03 0.36510347136E+03
 0.36407805969E+03 0.36097986964E+03 0.35403714300E+03 0.34131763914E+03 0.32138278614E+03
 0.29384480769E+03 0.25965383833E+03 0.22101500332E+03 0.18095113024E+03 0.14264471304E+03
 0.10876421575E+03 0.80973283000E+02 0.59741569117E+02 0.44462109591E+02 0.33784409706E+02
 0.26115725499E+02 0.20578922585E+02 0.16680189000E+02 0.13984046661E+02 0.12152301191E+02
 0.10947043458E+02 0.10215277248E+02 0.98690824106E+01 0.98690843422E+01 0.10215282012E+02
 0.10947048506E+02 0.12152303773E+02 0.13984045318E+02 0.16680184420E+02 0.20578917422E+02
 0.26115723102E+02 0.33784412395E+02 0.44462117248E+02 0.59741578934E+02 0.80973290586E+02
 0.10876421738E+03 0.14264470804E+03 0.18095112247E+03 0.22101500091E+03 0.25965385140E+03
 0.29384484477E+03 0.32138285031E+03 0.34131772576E+03 0.35403723950E+03 0.36097995827E+03
 0.36407812213E+03 0.36343270124E+03 0.36408138085E+03 0.36343262870E+03 0.36097982996E+03
 0.35536302488E+03 0.34480759272E+03 0.32772528649E+03 0.30330860390E+03 0.27193862167E+03
 0.23527107529E+03 0.19596142551E+03 0.15710777425E+03 0.12158495299E+03 0.91473117945E+02
 0.67737088468E+02 0.50212408496E+02 0.37848329385E+02 0.29098036807E+02 0.22724175581E+02
 0.18181578264E+02 0.15009642367E+02 0.12830251743E+02 0.11365482990E+02 0.10428764488E+02
 0.99062121330E+01 0.97381514865E+01 0.99062190223E+01 0.10428774629E+02 0.11365490965E+02
 0.12830253164E+02 0.15009636264E+02 0.18181567823E+02 0.22724166775E+02 0.29098035456E+02
 0.37848338008E+02 0.50212424510E+02 0.67737104852E+02 0.91473126345E+02 0.12158494817E+03
 0.15710775797E+03 0.19596140798E+03 0.23527107308E+03 0.27193865238E+03 0.30330867934E+03
 0.32772540679E+03 0.34480774374E+03 0.35536318046E+03 0.36097995827E+03 0.35895649664E+03
 0.36098846151E+03 0.36098842199E+03 0.35895638785E+03 0.35403708770E+03 0.34480758357E+03
 0.32977489930E+03 0.30794351488E+03 0.27928249545E+03 0.24494056828E+03 0.20712860104E+03
 0.16869516495E+03 0.13252417203E+03 0.10094115022E+03 0.75301342876E+02 0.55856236844E+02
 0.41892633999E+02 0.32056048326E+02 0.24898423536E+02 0.19726808084E+02 0.16076317547E+02
 0.13541445570E+02 0.11810376160E+02 0.10665234578E+02 0.99667170625E+01 0.96352095698E+01
 0.96352143318E+01 0.99667288837E+01 0.10665247275E+02 0.11810382976E+02 0.13541442651E+02
 0.16076306130E+02 0.19726794149E+02 0.24898415051E+02 0.32056051176E+02 0.41892648607E+02
 0.55856257135E+02 0.75301358495E+02 0.10094115126E+03 0.13252415453E+03 0.16869513458E+03
 0.20712857319E+03 0.24494056386E+03 0.27928253350E+03 0.30794360477E+03 0.32977503518E+03
 0.34480774374E+03 0.35403723950E+03 0.34968759396E+03 0.35405070846E+03 0.35538186452E+03
 0.35405065300E+03 0.34968749834E+03 0.34131761552E+03 0.32772530952E+03 0.30794354160E+03
 0.28172038230E+03 0.24981091136E+03 0.21398921261E+03 0.17676213995E+03 0.14086652791E+03
 0.10870483918E+03 0.81889555474E+02 0.61017834013E+02 0.45709364498E+02 0.34853265651E+02
 0.27003237251E+02 0.21254793002E+02 0.17148106471E+02 0.14265631864E+02 0.12270861561E+02
 0.10919310445E+02 0.10048359833E+02 0.95596107531E+01 0.94019167633E+01 0.95596199339E+01
 0.10048373508E+02 0.10919321544E+02 0.12270864145E+02 0.14265624190E+02 0.17148092093E+02
 0.21254779279E+02 0.27003231832E+02 0.34853272478E+02 0.45709381245E+02 0.61017852299E+02
 0.81889564090E+02 0.10870482917E+03 0.14086649744E+03 0.17676209678E+03 0.21398917269E+03
 0.24981089392E+03 0.28172040267E+03 0.30794360477E+03 0.32772540679E+03 0.34131772576E+03
 0.33379852596E+03 0.34133356167E+03 0.34483378465E+03 0.34483377512E+03 0.34133353713E+03
 0.33379849707E+03 0.32138283030E+03 0.30330867899E+03 0.27928255712E+03 0.24981093785E+03
 0.21630065200E+03 0.18089499605E+03 0.14608440755E+03 0.11420842507E+03 0.87001100124E+02
 0.65309554211E+02 0.49046914834E+02 0.37358783311E+02 0.28929270874E+02 0.22693393686E+02
 0.18180156893E+02 0.14976272075E+02 0.12731992941E+02 0.11183132715E+02 0.10147493793E+02
 0.95099738471E+01 0.92055668304E+01 0.92055709346E+01 0.95099841187E+01 0.10147505093E+02
 0.11183139228E+02 0.12731991011E+02 0.14976262057E+02 0.18180143206E+02 0.22693382862E+02
 0.28929268488E+02 0.37358791023E+02 0.49046929009E+02 0.65309566758E+02 0.87001101469E+02
 0.11420840806E+03 0.14608437075E+03 0.18089494508E+03 0.21630059802E+03 0.24981089392E+03
 0.27928253350E+03 0.30330867934E+03 0.32138285031E+03 0.31026339705E+03 0.32139685824E+03
 0.32775205724E+03 0.32980670434E+03 0.32775207913E+03 0.32139690062E+03 0.31026345690E+03
 0.29384491714E+03 0.27193873058E+03 0.24494064004E+03 0.21398923907E+03 0.18089499549E+03
 0.14785905400E+03 0.11706064038E+03 0.90238020731E+02 0.68386765282E+02 0.51652113368E+02
 0.39422103968E+02 0.30566732920E+02 0.23965620160E+02 0.19121948604E+02 0.15641954718E+02
 0.13175170217E+02 0.11446301496E+02 0.10258804942E+02 0.94839264848E+01 0.90449551827E+01
 0.89026030760E+01 0.90449598655E+01 0.94839336358E+01 0.10258811091E+02 0.11446303434E+02
 0.13175166443E+02 0.15641946204E+02 0.19121938524E+02 0.23965612641E+02 0.30566731295E+02
 0.39422109153E+02 0.51652123041E+02 0.68386774169E+02 0.90238021952E+02 0.11706062744E+03
 0.14785902265E+03 0.18089494508E+03 0.21398917269E+03 0.24494056386E+03 0.27193865238E+03
 0.29384484477E+03 0.27930972251E+03 0.29385247187E+03 0.30332728482E+03 0.30796980916E+03
 0.30796983520E+03 0.30332735810E+03 0.29385257902E+03 0.27930984497E+03 0.25965396989E+03
 0.23527117180E+03 0.20712864281E+03 0.17676213550E+03 0.14608438329E+03 0.11706062246E+03
 0.91346058974E+02 0.69993367445E+02 0.53310736692E+02 0.40896129412E+02 0.31816507238E+02
 0.24997188649E+02 0.19921857655E+02 0.16228864080E+02 0.13579298634E+02 0.11696271504E+02
 0.10375282298E+02 0.94778713721E+01 0.89181832070E+01 0.86486647364E+01 0.86486651529E+01
 0.89181843804E+01 0.94778729934E+01 0.10375283786E+02 0.11696271992E+02 0.13579297245E+02
 0.16228860338E+02 0.19921852024E+02 0.24997182752E+02 0.31816503650E+02 0.40896130752E+02
 0.53310744316E+02 0.69993380048E+02 0.91346071760E+02 0.11706062744E+03 0.14608437075E+03
 0.17676209678E+03 0.20712857319E+03 0.23527107308E+03 0.25965385140E+03 0.24253400919E+03
 0.25965149368E+03 0.27194119605E+03 0.27929135248E+03 0.28173196706E+03 0.27929141304E+03
 0.27194130304E+03 0.25965162303E+03 0.24253413374E+03 0.22101509783E+03 0.19596146434E+03
 0.16869514958E+03 0.14086648058E+03 0.11420837462E+03 0.90237987463E+02 0.69993355440E+02
 0.53880242702E+02 0.41664947327E+02 0.32600719652E+02 0.25724240648E+02 0.20532395062E+02
 0.16703996112E+02 0.13922588106E+02 0.11919236302E+02 0.10488527498E+02 0.94869357974E+01
 0.88224144202E+01 0.84413866997E+01 0.83170429690E+01 0.84413835911E+01 0.88224100763E+01
 0.94869328857E+01 0.10488527901E+02 0.11919239886E+02 0.13922592586E+02 0.16703998183E+02
 0.20532392386E+02 0.25724233686E+02 0.32600712341E+02 0.41664945971E+02 0.53880253227E+02
 0.69993380048E+02 0.90238021952E+02 0.11420840806E+03 0.14086649744E+03 0.16869513458E+03
 0.19596140798E+03 0.22101500091E+03 0.20263348417E+03 0.22100095234E+03 0.23525241183E+03
 0.24492272014E+03 0.24979488956E+03 0.24979491575E+03 0.24492279108E+03 0.23525250712E+03
 0.22100104541E+03 0.20263355070E+03 0.18095114766E+03 0.15710774025E+03 0.13252410462E+03
 0.10870476538E+03 0.87001042836E+02 0.68386734201E+02 0.53310727635E+02 0.41664948313E+02
 0.32868244273E+02 0.26100082642E+02 0.20915312097E+02 0.17038642125E+02 0.14184754705E+02
 0.12101424786E+02 0.10589435762E+02 0.95052199912E+01 0.87538035359E+01 0.82778061014E+01
 0.80463442834E+01 0.80463408796E+01 0.82777977787E+01 0.87537950228E+01 0.95052163247E+01
 0.10589439589E+02 0.12101434708E+02 0.14184765758E+02 0.17038648167E+02 0.20915309243E+02
 0.26100071988E+02 0.32868232593E+02 0.41664945971E+02 0.53310744316E+02 0.68386774169E+02
 0.87001101469E+02 0.10870482917E+03 0.13252415453E+03 0.15710775797E+03 0.18095112247E+03
 0.16283103224E+03 0.18092591267E+03 0.19592052312E+03 0.20707991907E+03 0.21393769659E+03
 0.21624855006E+03 0.21393772320E+03 0.20707996102E+03 0.19592056199E+03 0.18092592979E+03
 0.16283101545E+03 0.14264465604E+03 0.12158487088E+03 0.10094106617E+03 0.81889489914E+02
 0.65309517189E+02 0.51652102751E+02 0.40896134684E+02 0.32600728990E+02 0.26100088287E+02
 0.21045815589E+02 0.17211597300E+02 0.14349283158E+02 0.12230625655E+02 0.10669181792E+02
 0.95263751007E+01 0.87077270406E+01 0.81542802083E+01 0.78328001167E+01 0.77272002865E+01
 0.78327918372E+01 0.81542681647E+01 0.87077180162E+01 0.95263747147E+01 0.10669191504E+02
 0.12230641702E+02 0.14349298054E+02 0.17211603381E+02 0.21045809059E+02 0.26100071988E+02
 0.32600712341E+02 0.40896130752E+02 0.51652123041E+02 0.65309566758E+02 0.81889564090E+02
 0.10094115126E+03 0.12158494817E+03 0.14264470804E+03 0.12617275458E+03 0.14261080847E+03
 0.15704775810E+03 0.16861749239E+03 0.17667423697E+03 0.18080258929E+03 0.18080258916E+03
 0.17667423365E+03 0.16861747849E+03 0.15704772539E+03 0.14261075220E+03 0.12617267668E+03
 0.10876412710E+03 0.91473037953E+02 0.75301286720E+02 0.61017807737E+02 0.49046914530E+02
 0.39422119222E+02 0.31816526797E+02 0.25724256610E+02 0.20915321699E+02 0.17211601257E+02
 0.14405379477E+02 0.12297682427E+02 0.10720350289E+02 0.95444368805E+01 0.86793323087E+01
 0.80667150547E+01 0.76724907859E+01 0.74789902025E+01 0.74789855140E+01 0.76724791714E+01
 0.80667026771E+01 0.86793261268E+01 0.95444411990E+01 0.10720364470E+02 0.12297700750E+02
 0.14405393443E+02 0.17211603381E+02 0.20915309243E+02 0.25724233686E+02 0.31816503650E+02
 0.39422109153E+02 0.49046929009E+02 0.61017852299E+02 0.75301358495E+02 0.91473126345E+02
 0.10876421738E+03 0.94913432440E+02 0.10872529731E+03 0.12151200031E+03 0.13242447151E+03
 0.14074821806E+03 0.14595536536E+03 0.14772653431E+03 0.14595534233E+03 0.14074817282E+03
 0.13242440643E+03 0.12151192019E+03 0.10872520990E+03 0.94913347862E+02 0.80973219575E+02
 0.67737056320E+02 0.55856235768E+02 0.45709385774E+02 0.37358814592E+02 0.30566763366E+02
 0.24997212054E+02 0.20532410515E+02 0.17038651608E+02 0.14349288960E+02 0.12297685352E+02
 0.10737988846E+02 0.95547479543E+01 0.86643033173E+01 0.80110979798E+01 0.75615307303E+01
 0.72973594659E+01 0.72101005201E+01 0.72973517224E+01 0.75615189992E+01 0.80110881170E+01
 0.86643006217E+01 0.95547546842E+01 0.10738002883E+02 0.12297700750E+02 0.14349298054E+02
 0.17038648167E+02 0.20532392386E+02 0.24997182752E+02 0.30566731295E+02 0.37358791023E+02
 0.45709381245E+02 0.55856257135E+02 0.67737104852E+02 0.80973290586E+02 0.70159233760E+02
 0.80933305133E+02 0.91394789473E+02 0.10082946373E+03 0.10856706776E+03 0.11405300677E+03
 0.11689638464E+03 0.11689636737E+03 0.11405295807E+03 0.10856699632E+03 0.10082938202E+03
 0.91394711306E+02 0.80933242799E+02 0.70159195828E+02 0.59741568741E+02 0.50212439894E+02
 0.41892682634E+02 0.34853315720E+02 0.28929310972E+02 0.23965646328E+02 0.19921872432E+02
 0.16704004787E+02 0.14184761727E+02 0.12230632279E+02 0.10720355320E+02 0.95547500303E+01
 0.86596507449E+01 0.79841941464E+01 0.74965257930E+01 0.71786129465E+01 0.70214399007E+01
 0.70214370057E+01 0.71786054384E+01 0.74965167049E+01 0.79841872831E+01 0.86596491347E+01
 0.95547546842E+01 0.10720364470E+02 0.12230641702E+02 0.14184765758E+02 0.16703998183E+02
 0.19921852024E+02 0.23965612641E+02 0.28929268488E+02 0.34853272478E+02 0.41892648607E+02
 0.50212424510E+02 0.59741578934E+02 0.51832774874E+02 0.59703961433E+02 0.67660622881E+02
 0.75188328844E+02 0.81745357961E+02 0.86833318699E+02 0.90055635086E+02 0.91158738649E+02
 0.90055602732E+02 0.86833262955E+02 0.81745294123E+02 0.75188274144E+02 0.67660591663E+02
 0.59703961477E+02 0.51832805764E+02 0.44462171166E+02 0.37848402770E+02 0.32056114066E+02
 0.27003282647E+02 0.22693416571E+02 0.19121955157E+02 0.16228863945E+02 0.13922589098E+02
 0.12101429674E+02 0.10669188701E+02 0.95444420385E+01 0.86643046198E+01 0.79841928976E+01
 0.74751344299E+01 0.71199849612E+01 0.69096284383E+01 0.68398982221E+01 0.69096261729E+01
 0.71199806998E+01 0.74751288643E+01 0.79841872831E+01 0.86643006217E+01 0.95444411990E+01
 0.10669191504E+02 0.12101434708E+02 0.13922592586E+02 0.16228860338E+02 0.19121938524E+02
 0.22693382862E+02 0.27003231832E+02 0.32056051176E+02 0.37848338008E+02 0.44462117248E+02
 0.38912991419E+02 0.44429257891E+02 0.50143427579E+02 0.55751015267E+02 0.60879443079E+02
 0.65143843158E+02 0.68201701280E+02 0.69798294589E+02 0.69798282779E+02 0.68201670699E+02
 0.65143806731E+02 0.60879417245E+02 0.55751014311E+02 0.50143458761E+02 0.44429319068E+02
 0.38913072004E+02 0.33784497109E+02 0.29098108947E+02 0.24898466754E+02 0.21254805998E+02
 0.18180148655E+02 0.15641938928E+02 0.13579286731E+02 0.11919233295E+02 0.10589439901E+02
 0.95263807587E+01 0.86793343096E+01 0.80110946930E+01 0.74965196518E+01 0.71199803341E+01
 0.68725895781E+01 0.67498169220E+01 0.67498177918E+01 0.68725912737E+01 0.71199806998E+01
 0.74965167049E+01 0.80110881170E+01 0.86793261268E+01 0.95263747147E+01 0.10589439589E+02
 0.11919239886E+02 0.13579297245E+02 0.15641946204E+02 0.18180143206E+02 0.21254779279E+02
 0.24898415051E+02 0.29098035456E+02 0.33784412395E+02 0.29831695401E+02 0.33757485337E+02
 0.37790186216E+02 0.41801423641E+02 0.45586055880E+02 0.48895277726E+02 0.51478364958E+02
 0.53122955027E+02 0.53687654370E+02 0.53122945781E+02 0.51478353948E+02 0.48895276804E+02
 0.45586076323E+02 0.41801471284E+02 0.37790258554E+02 0.33757571770E+02 0.29831780286E+02
 0.26115790962E+02 0.22724207412E+02 0.19726805298E+02 0.17148079673E+02 0.14976237480E+02
 0.13175142027E+02 0.11696256842E+02 0.10488525312E+02 0.95052237070E+01 0.87077291695E+01
 0.80667110894E+01 0.75615208553E+01 0.71786009593E+01 0.69096189587E+01 0.67498125704E+01
 0.66967870483E+01 0.67498177918E+01 0.69096261729E+01 0.71786054384E+01 0.75615189992E+01
 0.80667026771E+01 0.87077180162E+01 0.95052163247E+01 0.10488527901E+02 0.11696271992E+02
 0.13175166443E+02 0.14976262057E+02 0.17148092093E+02 0.19726794149E+02 0.22724166775E+02
 0.26115723102E+02 0.23237917505E+02 0.26094835101E+02 0.29051816305E+02 0.31981753986E+02
 0.34750328015E+02 0.37229064388E+02 0.39269842065E+02 0.40727598212E+02 0.41487895454E+02
 0.41487896141E+02 0.40727602639E+02 0.39269856075E+02 0.37229094222E+02 0.34750376620E+02
 0.31981818378E+02 0.29051887263E+02 0.26094899519E+02 0.23237962551E+02 0.20578934638E+02
 0.18181556129E+02 0.16076272291E+02 0.14265580322E+02 0.12731950355E+02 0.11446276079E+02
 0.10375273608E+02 0.94869370678E+01 0.87538061269E+01 0.81542776708E+01 0.76724811604E+01
 0.72973450237E+01 0.70214251716E+01 0.68398873634E+01 0.67498125704E+01 0.67498169220E+01
 0.68398982221E+01 0.70214370057E+01 0.72973517224E+01 0.76724791714E+01 0.81542681647E+01
 0.87537950228E+01 0.94869328857E+01 0.10375283786E+02 0.11446303434E+02 0.12731991011E+02
 0.14265624190E+02 0.16076306130E+02 0.18181567823E+02 0.20578917422E+02 0.18542067805E+02
 0.20563542886E+02 0.22689328031E+02 0.24841133378E+02 0.26922093981E+02 0.28824744285E+02
 0.30441295242E+02 0.31674527384E+02 0.32448127869E+02 0.32711996073E+02 0.32448136466E+02
 0.31674545651E+02 0.30441324157E+02 0.28824782933E+02 0.26922138220E+02 0.24841175776E+02
 0.22689359256E+02 0.20563554318E+02 0.18542054567E+02 0.16680147505E+02 0.15009582697E+02
 0.13541383622E+02 0.12270811694E+02 0.11183102610E+02 0.10258793946E+02 0.94778727174E+01
 0.88224193138E+01 0.82778075111E+01 0.78327949288E+01 0.74789792075E+01 0.72100870876E+01
 0.70214251716E+01 0.69096189587E+01 0.68725895781E+01 0.69096284383E+01 0.70214399007E+01
 0.72101005201E+01 0.74789855140E+01 0.78327918372E+01 0.82777977787E+01 0.88224100763E+01
 0.94778729934E+01 0.10258811091E+02 0.11183139228E+02 0.12270864145E+02 0.13541442651E+02
 0.15009636264E+02 0.16680184420E+02 0.15268743180E+02 0.16669493431E+02 0.18156726892E+02
 0.19685007330E+02 0.21194287366E+02 0.22613777893E+02 0.23868037304E+02 0.24884366907E+02
 0.25600339365E+02 0.25970347867E+02 0.25970353154E+02 0.25600354380E+02 0.24884389100E+02
 0.23868062392E+02 0.22613800137E+02 0.21194300260E+02 0.19685004834E+02 0.18156705120E+02
 0.16669452013E+02 0.15268685915E+02 0.13983979731E+02 0.12830188894E+02 0.11810329406E+02
 0.10919285268E+02 0.10147488108E+02 0.94839330618E+01 0.89181935376E+01 0.84413943454E+01
 0.80463463879E+01 0.77271971155E+01 0.74789792075E+01 0.72973450237E+01 0.71786009593E+01
 0.71199803341E+01 0.71199849612E+01 0.71786129465E+01 0.72973594659E+01 0.74789902025E+01
 0.77272002865E+01 0.80463408796E+01 0.84413835911E+01 0.89181843804E+01 0.94839336358E+01
 0.10147505093E+02 0.10919321544E+02 0.11810382976E+02 0.12830253164E+02 0.13984045318E+02
 0.13025102854E+02 0.13977096829E+02 0.14993028072E+02 0.16047681845E+02 0.17105716847E+02
 0.18123162953E+02 0.19050591936E+02 0.19837588300E+02 0.20437852820E+02 0.20814148783E+02
 0.20942364798E+02 0.20814157885E+02 0.20437867518E+02 0.19837602453E+02 0.19050598357E+02
 0.18123155257E+02 0.17105691182E+02 0.16047637998E+02 0.14992969650E+02 0.13977030621E+02
 0.13025037339E+02 0.12152247267E+02 0.11365449770E+02 0.10665224325E+02 0.10048367920E+02
 0.95099917053E+01 0.90449743300E+01 0.86486798765E+01 0.83170527170E+01 0.80463463879E+01
 0.78327949288E+01 0.76724811604E+01 0.75615208553E+01 0.74965196518E+01 0.74751344299E+01
 0.74965257930E+01 0.75615307303E+01 0.76724907859E+01 0.78328001167E+01 0.80463442834E+01
 0.83170429690E+01 0.86486651529E+01 0.90449598655E+01 0.95099841187E+01 0.10048373508E+02
 0.10665247275E+02 0.11365490965E+02 0.12152303773E+02 0.11521265419E+02 0.12148175187E+02
 0.12820040781E+02 0.13523355317E+02 0.14238194832E+02 0.14938527720E+02 0.15593628423E+02
 0.16170510635E+02 0.16637065197E+02 0.16965428481E+02 0.17135059235E+02 0.17135063029E+02
 0.16965437589E+02 0.16637073579E+02 0.16170510634E+02 0.15593613430E+02 0.14938494603E+02
 0.14238145219E+02 0.13523295361E+02 0.12819979577E+02 0.12148122301E+02 0.11521228385E+02
 0.10947031048E+02 0.10428776108E+02 0.99667449908E+01 0.95596442437E+01 0.92055967363E+01
 0.89026250657E+01 0.86486798765E+01 0.84413943454E+01 0.82778075111E+01 0.81542776708E+01
 0.80667110894E+01 0.80110946930E+01 0.79841928976E+01 0.79841941464E+01 0.80110979798E+01
 0.80667150547E+01 0.81542802083E+01 0.82778061014E+01 0.84413866997E+01 0.86486647364E+01
 0.89026030760E+01 0.92055709346E+01 0.95596199339E+01 0.99667288837E+01 0.10428774629E+02
 0.10947048506E+02 0.10562063246E+02 0.10944903341E+02 0.11359952100E+02 0.11800259739E+02
 0.12255093788E+02 0.12709736614E+02 0.13145942719E+02 0.13543105127E+02 0.13880026643E+02
 0.14137052237E+02 0.14298231362E+02 0.14353163998E+02 0.14298237025E+02 0.14137059141E+02
 0.13880027783E+02 0.13543093857E+02 0.13145915735E+02 0.12709695708E+02 0.12255045816E+02
 0.11800214766E+02 0.11359920284E+02 0.10944891851E+02 0.10562074197E+02 0.10215312089E+02
 0.99062608520E+01 0.96352589637E+01 0.94019563832E+01 0.92055967363E+01 0.90449743300E+01
 0.89181935376E+01 0.88224193138E+01 0.87538061269E+01 0.87077291695E+01 0.86793343096E+01
 0.86643046198E+01 0.86596507449E+01 0.86643033173E+01 0.86793323087E+01 0.87077270406E+01
 0.87538035359E+01 0.88224144202E+01 0.89181832070E+01 0.90449551827E+01 0.92055668304E+01
 0.94019167633E+01 0.96352143318E+01 0.99062190223E+01 0.10215282012E+02 0.10028050874E+02
 0.10214387575E+02 0.10426379273E+02 0.10660746748E+02 0.10912118090E+02 0.11172668834E+02
 0.11432101189E+02 0.11678072915E+02 0.11897091595E+02 0.12075783785E+02 0.12202354755E+02
 0.12267996916E+02 0.12267999817E+02 0.12202361351E+02 0.12075788745E+02 0.11897088881E+02
 0.11678058843E+02 0.11432076642E+02 0.11172639776E+02 0.10912093974E+02 0.10660737412E+02
 0.10426391579E+02 0.10214422882E+02 0.10028104445E+02 0.98691468372E+01 0.97382119866E+01
 0.96352589637E+01 0.95596442437E+01 0.95099917053E+01 0.94839330618E+01 0.94778727174E+01
 0.94869370678E+01 0.95052237070E+01 0.95263807587E+01 0.95444420385E+01 0.95547500303E+01
 0.95547479543E+01 0.95444368805E+01 0.95263751007E+01 0.95052199912E+01 0.94869357974E+01
 0.94778713721E+01 0.94839264848E+01 0.95099738471E+01 0.95596107531E+01 0.96352095698E+01
 0.97381514865E+01 0.98690843422E+01 0.98564915099E+01 0.98687940050E+01 0.99056255024E+01
 0.99657862218E+01 0.10046965953E+02 0.10145423142E+02 0.10255763663E+02 0.10370956720E+02
 0.10482678812E+02 0.10582000304E+02 0.10660340430E+02 0.10710537037E+02 0.10727828088E+02
 0.10710542116E+02 0.10660347418E+02 0.10582004527E+02 0.10482676685E+02 0.10370948038E+02
 0.10255752612E+02 0.10145417342E+02 0.10046973886E+02 0.99658139876E+01 0.99056740873E+01
 0.98688583557E+01 0.98565617550E+01 0.98691468372E+01 0.99062608520E+01 0.99667449908E+01
 0.10048367920E+02 0.10147488108E+02 0.10258793946E+02 0.10375273608E+02 0.10488525312E+02
 0.10589439901E+02 0.10669188701E+02 0.10720355320E+02 0.10737988846E+02 0.10720350289E+02
 0.10669181792E+02 0.10589435762E+02 0.10488527498E+02 0.10375282298E+02 0.10258804942E+02
 0.10147493793E+02 0.10048359833E+02 0.99667170625E+01 0.99062121330E+01 0.98690824106E+01
 0.10028051237E+02 0.98687962887E+01 0.97381487664E+01 0.96359932636E+01 0.95615493338E+01
 0.95132499707E+01 0.94885140892E+01 0.94835585900E+01 0.94933929356E+01 0.95120942922E+01
 0.95333822509E+01 0.95514185734E+01 0.95616761914E+01 0.95616783528E+01 0.95514239276E+01
 0.95333880648E+01 0.95120979401E+01 0.94933937776E+01 0.94835591139E+01 0.94885195420E+01
 0.95132665807E+01 0.95615816588E+01 0.96360417276E+01 0.97382086218E+01 0.98688583557E+01
 0.10028104445E+02 0.10215312089E+02 0.10428776108E+02 0.10665224325E+02 0.10919285268E+02
 0.11183102610E+02 0.11446276079E+02 0.11696256842E+02 0.11919233295E+02 0.12101429674E+02
 0.12230632279E+02 0.12297685352E+02 0.12297682427E+02 0.12230625655E+02 0.12101424786E+02
 0.11919236302E+02 0.11696271504E+02 0.11446301496E+02 0.11183132715E+02 0.10919310445E+02
 0.10665234578E+02 0.10428764488E+02 0.10215277248E+02 0.10562063783E+02 0.10214393217E+02
 0.99056328602E+01 0.96359981200E+01 0.94049401409E+01 0.92114352491E+01 0.90539681279E+01
 0.89303323348E+01 0.88374260886E+01 0.87712164479E+01 0.87269841618E+01 0.86998616623E+01
 0.86855668661E+01 0.86811530200E+01 0.86855684723E+01 0.86998640773E+01 0.87269865084E+01
 0.87712187704E+01 0.88374300758E+01 0.89303411760E+01 0.90539854504E+01 0.92114633382E+01
 0.94049782620E+01 0.96360417276E+01 0.99056740873E+01 0.10214422882E+02 0.10562074197E+02
 0.10947031048E+02 0.11365449770E+02 0.11810329406E+02 0.12270811694E+02 0.12731950355E+02
 0.13175142027E+02 0.13579286731E+02 0.13922589098E+02 0.14184761727E+02 0.14349288960E+02
 0.14405379477E+02 0.14349283158E+02 0.14184754705E+02 0.13922588106E+02 0.13579298634E+02
 0.13175170217E+02 0.12731992941E+02 0.12270861561E+02 0.11810376160E+02 0.11365482990E+02
 0.10947043458E+02 0.11521265837E+02 0.10944909342E+02 0.10426390137E+02 0.99657983010E+01
 0.95615583647E+01 0.92114391003E+01 0.89130641554E+01 0.86639760379E+01 0.84614285834E+01
 0.83021428759E+01 0.81822404455E+01 0.80974747045E+01 0.80437505914E+01 0.80177984925E+01
 0.80177974939E+01 0.80437479253E+01 0.80974713941E+01 0.81822381952E+01 0.83021439055E+01
 0.84614351127E+01 0.86639895173E+01 0.89130843233E+01 0.92114633382E+01 0.95615816588E+01
 0.99658139876E+01 0.10426391579E+02 0.10944891851E+02 0.11521228385E+02 0.12152247267E+02
 0.12830188894E+02 0.13541383622E+02 0.14265580322E+02 0.14976237480E+02 0.15641938928E+02
 0.16228863945E+02 0.16704004787E+02 0.17038651608E+02 0.17211601257E+02 0.17211597300E+02
 0.17038642125E+02 0.16703996112E+02 0.16228864080E+02 0.15641954718E+02 0.14976272075E+02
 0.14265631864E+02 0.13541445570E+02 0.12830251743E+02 0.12152301191E+02 0.13025102889E+02
 0.12148178270E+02 0.11359960716E+02 0.10660759799E+02 0.10046979454E+02 0.95132596242E+01
 0.90539721035E+01 0.86639760275E+01 0.83387436197E+01 0.80741114565E+01 0.78659652583E+01
 0.77101135673E+01 0.76024705458E+01 0.75395071309E+01 0.75188048038E+01 0.75395015720E+01
 0.76024615790E+01 0.77101047702E+01 0.78659604320E+01 0.80741132485E+01 0.83387524424E+01
 0.86639895173E+01 0.90539854504E+01 0.95132665807E+01 0.10046973886E+02 0.10660737412E+02
 0.11359920284E+02 0.12148122301E+02 0.13025037339E+02 0.13983979731E+02 0.15009582697E+02
 0.16076272291E+02 0.17148079673E+02 0.18180148655E+02 0.19121955157E+02 0.19921872432E+02
 0.20532410515E+02 0.20915321699E+02 0.21045815589E+02 0.20915312097E+02 0.20532395062E+02
 0.19921857655E+02 0.19121948604E+02 0.18180156893E+02 0.17148106471E+02 0.16076317547E+02
 0.15009642367E+02 0.13984046661E+02 0.15268742719E+02 0.13977095179E+02 0.12820042450E+02
 0.11800266921E+02 0.10912129178E+02 0.10145433817E+02 0.94885201678E+01 0.89303324099E+01
 0.84614247451E+01 0.80741078018E+01 0.77620979706E+01 0.75200608088E+01 0.73433434175E+01
 0.72280125422E+01 0.71711357302E+01 0.71711314093E+01 0.72280013579E+01 0.73433299779E+01
 0.75200506607E+01 0.77620952251E+01 0.80741132485E+01 0.84614351127E+01 0.89303411760E+01
 0.94885195420E+01 0.10145417342E+02 0.10912093974E+02 0.11800214766E+02 0.12819979577E+02
 0.13977030621E+02 0.15268685915E+02 0.16680147505E+02 0.18181556129E+02 0.19726805298E+02
 0.21254805998E+02 0.22693416571E+02 0.23965646328E+02 0.24997212054E+02 0.25724256610E+02
 0.26100088287E+02 0.26100082642E+02 0.25724240648E+02 0.24997188649E+02 0.23965620160E+02
 0.22693393686E+02 0.21254793002E+02 0.19726808084E+02 0.18181578264E+02 0.16680189000E+02
 0.18542066945E+02 0.16669487711E+02 0.14993021679E+02 0.13523352705E+02 0.12255096683E+02
 0.11172675126E+02 0.10255768907E+02 0.94835589082E+01 0.88374205553E+01 0.83021338759E+01
 0.78659568669E+01 0.75200562787E+01 0.72577794220E+01 0.70741050982E+01 0.69653991607E+01
 0.69294154019E+01 0.69653901079E+01 0.70740910898E+01 0.72577667927E+01 0.75200506607E+01
 0.78659604320E+01 0.83021439055E+01 0.88374300758E+01 0.94835591139E+01 0.10255752612E+02
 0.11172639776E+02 0.12255045816E+02 0.13523295361E+02 0.14992969650E+02 0.16669452013E+02
 0.18542054567E+02 0.20578934638E+02 0.22724207412E+02 0.24898466754E+02 0.27003282647E+02
 0.28929310972E+02 0.30566763366E+02 0.31816526797E+02 0.32600728990E+02 0.32868244273E+02
 0.32600719652E+02 0.31816507238E+02 0.30566732920E+02 0.28929270874E+02 0.27003237251E+02
 0.24898423536E+02 0.22724175581E+02 0.20578922585E+02 0.23237916519E+02 0.20563536086E+02
 0.18156715708E+02 0.16047670635E+02 0.14238187833E+02 0.12709735136E+02 0.11432102873E+02
 0.10370957250E+02 0.94933888045E+01 0.87712070309E+01 0.81822281720E+01 0.77101023486E+01
 0.73433363117E+01 0.70741026360E+01 0.68972329799E+01 0.68095555769E+01 0.68095512916E+01
 0.68972223103E+01 0.70740910898E+01 0.73433299779E+01 0.77101047702E+01 0.81822381952E+01
 0.87712187704E+01 0.94933937776E+01 0.10370948038E+02 0.11432076642E+02 0.12709695708E+02
 0.14238145219E+02 0.16047637998E+02 0.18156705120E+02 0.20563554318E+02 0.23237962551E+02
 0.26115790962E+02 0.29098108947E+02 0.32056114066E+02 0.34853315720E+02 0.37358814592E+02
 0.39422119222E+02 0.40896134684E+02 0.41664948313E+02 0.41664947327E+02 0.40896129412E+02
 0.39422103968E+02 0.37358783311E+02 0.34853265651E+02 0.32056048326E+02 0.29098036807E+02
 0.26115725499E+02 0.29831694623E+02 0.26094831132E+02 0.22689318318E+02 0.19684993509E+02
 0.17105703404E+02 0.14938518821E+02 0.13145939558E+02 0.11678073189E+02 0.10482678379E+02
 0.95120897433E+01 0.87269747882E+01 0.80974627594E+01 0.76024598359E+01 0.72280061706E+01
 0.69653976982E+01 0.68095567554E+01 0.67578741693E+01 0.68095512916E+01 0.69653901079E+01
 0.72280013579E+01 0.76024615790E+01 0.80974713941E+01 0.87269865084E+01 0.95120979401E+01
 0.10482676685E+02 0.11678058843E+02 0.13145915735E+02 0.14938494603E+02 0.17105691182E+02
 0.19685004834E+02 0.22689359256E+02 0.26094899519E+02 0.29831780286E+02 0.33784497109E+02
 0.37848402770E+02 0.41892682634E+02 0.45709385774E+02 0.49046914530E+02 0.51652102751E+02
 0.53310727635E+02 0.53880242702E+02 0.53310736692E+02 0.51652113368E+02 0.49046914834E+02
 0.45709364498E+02 0.41892633999E+02 0.37848329385E+02 0.33784409706E+02 0.38912991097E+02
 0.33757487066E+02 0.29051814250E+02 0.24841124968E+02 0.21194274621E+02 0.18123150753E+02
 0.15593621228E+02 0.13543104333E+02 0.11897094952E+02 0.10582003477E+02 0.95333814159E+01
 0.86998557216E+01 0.80437417341E+01 0.75394994682E+01 0.71711327851E+01 0.69294179073E+01
 0.68095567554E+01 0.68095555769E+01 0.69294154019E+01 0.71711314093E+01 0.75395015720E+01
 0.80437479253E+01 0.86998640773E+01 0.95333880648E+01 0.10582004527E+02 0.11897088881E+02
 0.13543093857E+02 0.15593613430E+02 0.18123155257E+02 0.21194300260E+02 0.24841175776E+02
 0.29051887263E+02 0.33757571770E+02 0.38913072004E+02 0.44462171166E+02 0.50212439894E+02
 0.55856235768E+02 0.61017807737E+02 0.65309517189E+02 0.68386734201E+02 0.69993355440E+02
 0.69993367445E+02 0.68386765282E+02 0.65309554211E+02 0.61017834013E+02 0.55856236844E+02