   2   2   1   0
  0.2083299E+02  0.3028269E-09  0.3028269E-09  0.5246406E-09  0.5000000E-15
  1.000000000000000E-004
  CAR 
 Pt-hcc                                  
     28.54760733    -48.66811870  301      6.64548210      1.00000000
    -48.668  0.0000E+00  0.0000E+00
    -48.411  0.0000E+00  0.0000E+00
    -48.153  0.0000E+00  0.0000E+00
    -47.896  0.0000E+00  0.0000E+00
    -47.639  0.0000E+00  0.0000E+00
    -47.381  0.0000E+00  0.0000E+00
    -47.124  0.0000E+00  0.0000E+00
    -46.866  0.0000E+00  0.0000E+00
    -46.609  0.0000E+00  0.0000E+00
    -46.352  0.0000E+00  0.0000E+00
    -46.094  0.0000E+00  0.0000E+00
    -45.837  0.0000E+00  0.0000E+00
    -45.579  0.0000E+00  0.0000E+00
    -45.322  0.1720E-07  0.4426E-08
    -45.065  0.1954E+00  0.5030E-01
    -44.807  0.2707E+00  0.1200E+00
    -44.550  0.6971E-04  0.1200E+00
    -44.293  0.0000E+00  0.1200E+00
    -44.035  0.0000E+00  0.1200E+00
    -43.778  0.0000E+00  0.1200E+00
    -43.520  0.0000E+00  0.1200E+00
    -43.263  0.0000E+00  0.1200E+00
    -43.006  0.0000E+00  0.1200E+00
    -42.748  0.0000E+00  0.1200E+00
    -42.491  0.0000E+00  0.1200E+00
    -42.233  0.0000E+00  0.1200E+00
    -41.976  0.0000E+00  0.1200E+00
    -41.719  0.0000E+00  0.1200E+00
    -41.461  0.0000E+00  0.1200E+00
    -41.204  0.0000E+00  0.1200E+00
    -40.947  0.0000E+00  0.1200E+00
    -40.689  0.0000E+00  0.1200E+00
    -40.432  0.0000E+00  0.1200E+00
    -40.174  0.0000E+00  0.1200E+00
    -39.917  0.0000E+00  0.1200E+00
    -39.660  0.0000E+00  0.1200E+00
    -39.402  0.0000E+00  0.1200E+00
    -39.145  0.0000E+00  0.1200E+00
    -38.887  0.0000E+00  0.1200E+00
    -38.630  0.0000E+00  0.1200E+00
    -38.373  0.0000E+00  0.1200E+00
    -38.115  0.0000E+00  0.1200E+00
    -37.858  0.0000E+00  0.1200E+00
    -37.601  0.0000E+00  0.1200E+00
    -37.343  0.0000E+00  0.1200E+00
    -37.086  0.0000E+00  0.1200E+00
    -36.828  0.0000E+00  0.1200E+00
    -36.571  0.0000E+00  0.1200E+00
    -36.314  0.0000E+00  0.1200E+00
    -36.056  0.0000E+00  0.1200E+00
    -35.799  0.0000E+00  0.1200E+00
    -35.541  0.0000E+00  0.1200E+00
    -35.284  0.0000E+00  0.1200E+00
    -35.027  0.0000E+00  0.1200E+00
    -34.769  0.0000E+00  0.1200E+00
    -34.512  0.0000E+00  0.1200E+00
    -34.255  0.0000E+00  0.1200E+00
    -33.997  0.0000E+00  0.1200E+00
    -33.740  0.0000E+00  0.1200E+00
    -33.482  0.0000E+00  0.1200E+00
    -33.225  0.0000E+00  0.1200E+00
    -32.968  0.0000E+00  0.1200E+00
    -32.710  0.0000E+00  0.1200E+00
    -32.453  0.0000E+00  0.1200E+00
    -32.195  0.0000E+00  0.1200E+00
    -31.938  0.0000E+00  0.1200E+00
    -31.681  0.0000E+00  0.1200E+00
    -31.423  0.0000E+00  0.1200E+00
    -31.166  0.0000E+00  0.1200E+00
    -30.909  0.0000E+00  0.1200E+00
    -30.651  0.0000E+00  0.1200E+00
    -30.394  0.0000E+00  0.1200E+00
    -30.136  0.0000E+00  0.1200E+00
    -29.879  0.0000E+00  0.1200E+00
    -29.622  0.0000E+00  0.1200E+00
    -29.364  0.0000E+00  0.1200E+00
    -29.107  0.0000E+00  0.1200E+00
    -28.849  0.0000E+00  0.1200E+00
    -28.592  0.0000E+00  0.1200E+00
    -28.335  0.0000E+00  0.1200E+00
    -28.077  0.0000E+00  0.1200E+00
    -27.820  0.0000E+00  0.1200E+00
    -27.562  0.0000E+00  0.1200E+00
    -27.305  0.0000E+00  0.1200E+00
    -27.048  0.0000E+00  0.1200E+00
    -26.790  0.0000E+00  0.1200E+00
    -26.533  0.0000E+00  0.1200E+00
    -26.276  0.0000E+00  0.1200E+00
    -26.018  0.0000E+00  0.1200E+00
    -25.761  0.0000E+00  0.1200E+00
    -25.503  0.0000E+00  0.1200E+00
    -25.246  0.0000E+00  0.1200E+00
    -24.989  0.0000E+00  0.1200E+00
    -24.731  0.0000E+00  0.1200E+00
    -24.474  0.0000E+00  0.1200E+00
    -24.216  0.0000E+00  0.1200E+00
    -23.959  0.0000E+00  0.1200E+00
    -23.702  0.0000E+00  0.1200E+00
    -23.444  0.0000E+00  0.1200E+00
    -23.187  0.0000E+00  0.1200E+00
    -22.930  0.0000E+00  0.1200E+00
    -22.672  0.0000E+00  0.1200E+00
    -22.415  0.0000E+00  0.1200E+00
    -22.157  0.0000E+00  0.1200E+00
    -21.900  0.0000E+00  0.1200E+00
    -21.643  0.0000E+00  0.1200E+00
    -21.385  0.0000E+00  0.1200E+00
    -21.128  0.0000E+00  0.1200E+00
    -20.870  0.0000E+00  0.1200E+00
    -20.613  0.0000E+00  0.1200E+00
    -20.356  0.0000E+00  0.1200E+00
    -20.098  0.0000E+00  0.1200E+00
    -19.841  0.0000E+00  0.1200E+00
    -19.584  0.0000E+00  0.1200E+00
    -19.326  0.0000E+00  0.1200E+00
    -19.069  0.0000E+00  0.1200E+00
    -18.811  0.0000E+00  0.1200E+00
    -18.554  0.0000E+00  0.1200E+00
    -18.297  0.0000E+00  0.1200E+00
    -18.039  0.0000E+00  0.1200E+00
    -17.782  0.0000E+00  0.1200E+00
    -17.524  0.0000E+00  0.1200E+00
    -17.267  0.0000E+00  0.1200E+00
    -17.010  0.0000E+00  0.1200E+00
    -16.752  0.0000E+00  0.1200E+00
    -16.495  0.0000E+00  0.1200E+00
    -16.238  0.0000E+00  0.1200E+00
    -15.980  0.0000E+00  0.1200E+00
    -15.723  0.0000E+00  0.1200E+00
    -15.465  0.0000E+00  0.1200E+00
    -15.208  0.0000E+00  0.1200E+00
    -14.951  0.0000E+00  0.1200E+00
    -14.693  0.0000E+00  0.1200E+00
    -14.436  0.0000E+00  0.1200E+00
    -14.178  0.0000E+00  0.1200E+00
    -13.921  0.0000E+00  0.1200E+00
    -13.664  0.0000E+00  0.1200E+00
    -13.406  0.0000E+00  0.1200E+00
    -13.149  0.0000E+00  0.1200E+00
    -12.891  0.0000E+00  0.1200E+00
    -12.634  0.0000E+00  0.1200E+00
    -12.377  0.0000E+00  0.1200E+00
    -12.119  0.0000E+00  0.1200E+00
    -11.862  0.0000E+00  0.1200E+00
    -11.605  0.0000E+00  0.1200E+00
    -11.347  0.0000E+00  0.1200E+00
    -11.090  0.0000E+00  0.1200E+00
    -10.832  0.0000E+00  0.1200E+00
    -10.575  0.0000E+00  0.1200E+00
    -10.318  0.0000E+00  0.1200E+00
    -10.060  0.0000E+00  0.1200E+00
     -9.803  0.0000E+00  0.1200E+00
     -9.545  0.0000E+00  0.1200E+00
     -9.288  0.0000E+00  0.1200E+00
     -9.031  0.0000E+00  0.1200E+00
     -8.773  0.0000E+00  0.1200E+00
     -8.516  0.0000E+00  0.1200E+00
     -8.259  0.0000E+00  0.1200E+00
     -8.001  0.0000E+00  0.1200E+00
     -7.744  0.0000E+00  0.1200E+00
     -7.486  0.0000E+00  0.1200E+00
     -7.229  0.0000E+00  0.1200E+00
     -6.972  0.0000E+00  0.1200E+00
     -6.714  0.0000E+00  0.1200E+00
     -6.457  0.0000E+00  0.1200E+00
     -6.199  0.0000E+00  0.1200E+00
     -5.942  0.0000E+00  0.1200E+00
     -5.685  0.0000E+00  0.1200E+00
     -5.427  0.0000E+00  0.1200E+00
     -5.170  0.0000E+00  0.1200E+00
     -4.913  0.0000E+00  0.1200E+00
     -4.655  0.0000E+00  0.1200E+00
     -4.398  0.0000E+00  0.1200E+00
     -4.140  0.0000E+00  0.1200E+00
     -3.883  0.0000E+00  0.1200E+00
     -3.626  0.0000E+00  0.1200E+00
     -3.368  0.0000E+00  0.1200E+00
     -3.111  0.0000E+00  0.1200E+00
     -2.853  0.0000E+00  0.1200E+00
     -2.596  0.0000E+00  0.1200E+00
     -2.339  0.0000E+00  0.1200E+00
     -2.081  0.0000E+00  0.1200E+00
     -1.824  0.0000E+00  0.1200E+00
     -1.567  0.0000E+00  0.1200E+00
     -1.309  0.0000E+00  0.1200E+00
     -1.052  0.0000E+00  0.1200E+00
     -0.794  0.0000E+00  0.1200E+00
     -0.537  0.5448E-06  0.1200E+00
     -0.280  0.2846E-03  0.1201E+00
     -0.022  0.1771E-02  0.1205E+00
      0.235  0.8224E-03  0.1207E+00
      0.493  0.2225E-02  0.1213E+00
      0.750  0.3612E-02  0.1222E+00
      1.007  0.1827E-02  0.1227E+00
      1.265  0.2497E-02  0.1234E+00
      1.522  0.4936E-02  0.1246E+00
      1.779  0.6537E-02  0.1263E+00
      2.037  0.6021E-02  0.1279E+00
      2.294  0.1114E-01  0.1307E+00
      2.552  0.2610E-01  0.1374E+00
      2.809  0.2536E-01  0.1440E+00
      3.066  0.3276E-01  0.1524E+00
      3.324  0.2125E-01  0.1579E+00
      3.581  0.5225E-01  0.1713E+00
      3.839  0.4197E-01  0.1821E+00
      4.096  0.4726E-01  0.1943E+00
      4.353  0.4258E-01  0.2052E+00
      4.611  0.5438E-01  0.2192E+00
      4.868  0.5326E-01  0.2330E+00
      5.126  0.6369E-01  0.2493E+00
      5.383  0.4555E-01  0.2611E+00
      5.640  0.3272E-01  0.2695E+00
      5.898  0.4331E-01  0.2806E+00
      6.155  0.4261E-01  0.2916E+00
      6.412  0.4353E-01  0.3028E+00
      6.670  0.7351E-01  0.3217E+00
      6.927  0.3662E-01  0.3312E+00
      7.185  0.1067E-01  0.3339E+00
      7.442  0.7737E-02  0.3359E+00
      7.699  0.3789E-02  0.3369E+00
      7.957  0.1311E-03  0.3369E+00
      8.214  0.1434E-01  0.3406E+00
      8.472  0.1191E-01  0.3437E+00
      8.729  0.3949E-02  0.3447E+00
      8.986  0.4402E-02  0.3458E+00
      9.244  0.6370E-02  0.3474E+00
      9.501  0.6868E-02  0.3492E+00
      9.758  0.6935E-02  0.3510E+00
     10.016  0.6927E-02  0.3528E+00
     10.273  0.9416E-02  0.3552E+00
     10.531  0.4508E-02  0.3564E+00
     10.788  0.8724E-02  0.3586E+00
     11.045  0.2424E-02  0.3592E+00
     11.303  0.4988E-02  0.3605E+00
     11.560  0.1214E-01  0.3636E+00
     11.818  0.4277E-02  0.3647E+00
     12.075  0.6813E-02  0.3665E+00
     12.332  0.1234E-01  0.3697E+00
     12.590  0.4261E-02  0.3708E+00
     12.847  0.1130E-01  0.3737E+00
     13.104  0.7503E-02  0.3756E+00
     13.362  0.6669E-02  0.3773E+00
     13.619  0.6896E-02  0.3791E+00
     13.877  0.4151E-02  0.3802E+00
     14.134  0.9665E-02  0.3827E+00
     14.391  0.1114E-01  0.3855E+00
     14.649  0.6848E-02  0.3873E+00
     14.906  0.7785E-02  0.3893E+00
     15.164  0.6026E-02  0.3908E+00
     15.421  0.9338E-02  0.3932E+00
     15.678  0.8740E-02  0.3955E+00
     15.936  0.5673E-02  0.3970E+00
     16.193  0.1005E-01  0.3995E+00
     16.450  0.3869E-02  0.4005E+00
     16.708  0.9578E-02  0.4030E+00
     16.965  0.7978E-02  0.4051E+00
     17.223  0.1020E-01  0.4077E+00
     17.480  0.1461E-01  0.4114E+00
     17.737  0.5613E-02  0.4129E+00
     17.995  0.8371E-02  0.4150E+00
     18.252  0.4510E-02  0.4162E+00
     18.510  0.5869E-02  0.4177E+00
     18.767  0.1710E-01  0.4221E+00
     19.024  0.2260E-01  0.4279E+00
     19.282  0.1224E-01  0.4311E+00
     19.539  0.6659E-02  0.4328E+00
     19.796  0.1409E-01  0.4364E+00
     20.054  0.1048E-01  0.4391E+00
     20.311  0.1806E-01  0.4438E+00
     20.569  0.1680E-01  0.4481E+00
     20.826  0.1182E-01  0.4511E+00
     21.083  0.1251E-01  0.4544E+00
     21.341  0.1027E-01  0.4570E+00
     21.598  0.1337E-01  0.4604E+00
     21.856  0.5370E-02  0.4618E+00
     22.113  0.1728E-01  0.4663E+00
     22.370  0.9426E-02  0.4687E+00
     22.628  0.7377E-02  0.4706E+00
     22.885  0.5703E-02  0.4721E+00
     23.143  0.5099E-02  0.4734E+00
     23.400  0.9160E-02  0.4757E+00
     23.657  0.8844E-02  0.4780E+00
     23.915  0.1862E-02  0.4785E+00
     24.172  0.3743E-02  0.4794E+00
     24.429  0.3386E-03  0.4795E+00
     24.687  0.1378E-02  0.4799E+00
     24.944  0.2311E-03  0.4800E+00
     25.202  0.1935E-03  0.4800E+00
     25.459  0.0000E+00  0.4800E+00
     25.716  0.0000E+00  0.4800E+00
     25.974  0.0000E+00  0.4800E+00
     26.231  0.0000E+00  0.4800E+00
     26.489  0.0000E+00  0.4800E+00
     26.746  0.0000E+00  0.4800E+00
     27.003  0.0000E+00  0.4800E+00
     27.261  0.0000E+00  0.4800E+00
     27.518  0.0000E+00  0.4800E+00
     27.775  0.0000E+00  0.4800E+00
     28.033  0.0000E+00  0.4800E+00
     28.290  0.0000E+00  0.4800E+00
     28.548  0.0000E+00  0.4800E+00
     28.54760733    -48.66811870  301      6.64548210      1.00000000
    -48.668  0.0000E+00  0.0000E+00  0.0000E+00  0.0000E+00  0.0000E+00  0.0000E+00  0.0000E+00  0.0000E+00  0.0000E+00
    -48.411  0.0000E+00  0.0000E+00  0.0000E+00  0.0000E+00  0.0000E+00  0.0000E+00  0.0000E+00  0.0000E+00  0.0000E+00
    -48.153  0.0000E+00  0.0000E+00  0.0000E+00  0.0000E+00  0.0000E+00  0.0000E+00  0.0000E+00  0.0000E+00  0.0000E+00
    -47.896  0.0000E+00  0.0000E+00  0.0000E+00  0.0000E+00  0.0000E+00  0.0000E+00  0.0000E+00  0.0000E+00  0.0000E+00
    -47.639  0.0000E+00  0.0000E+00  0.0000E+00  0.0000E+00  0.0000E+00  0.0000E+00  0.0000E+00  0.0000E+00  0.0000E+00
    -47.381  0.0000E+00  0.0000E+00  0.0000E+00  0.0000E+00  0.0000E+00  0.0000E+00  0.0000E+00  0.0000E+00  0.0000E+00
    -47.124  0.0000E+00  0.0000E+00  0.0000E+00  0.0000E+00  0.0000E+00  0.0000E+00  0.0000E+00  0.0000E+00  0.0000E+00
    -46.866  0.0000E+00  0.0000E+00  0.0000E+00  0.0000E+00  0.0000E+00  0.0000E+00  0.0000E+00  0.0000E+00  0.0000E+00
    -46.609  0.0000E+00  0.0000E+00  0.0000E+00  0.0000E+00  0.0000E+00  0.0000E+00  0.0000E+00  0.0000E+00  0.0000E+00
    -46.352  0.0000E+00  0.0000E+00  0.0000E+00  0.0000E+00  0.0000E+00  0.0000E+00  0.0000E+00  0.0000E+00  0.0000E+00
    -46.094  0.0000E+00  0.0000E+00  0.0000E+00  0.0000E+00  0.0000E+00  0.0000E+00  0.0000E+00  0.0000E+00  0.0000E+00
    -45.837  0.0000E+00  0.0000E+00  0.0000E+00  0.0000E+00  0.0000E+00  0.0000E+00  0.0000E+00  0.0000E+00  0.0000E+00
    -45.579  0.0000E+00  0.0000E+00  0.0000E+00  0.0000E+00  0.0000E+00  0.0000E+00  0.0000E+00  0.0000E+00  0.0000E+00
    -45.322  0.9987E-12  0.4218E-06  0.6365E-08  0.4218E-06  0.4750E-12  0.5650E-13  0.7351E-12  0.5650E-13  0.4750E-12
    -45.065  0.2538E-04  0.4804E+01  0.6891E-01  0.4804E+01  0.1355E-04  0.1003E-05  0.1261E-04  0.1003E-05  0.1355E-04
    -44.807  0.1295E-04  0.2898E+01  0.7629E+01  0.2898E+01  0.8134E-05  0.6347E-05  0.7199E-05  0.6347E-05  0.8134E-05
    -44.550  0.1540E-08  0.7408E-05  0.3444E-02  0.7408E-05  0.1162E-09  0.1413E-08  0.1069E-08  0.1413E-08  0.1162E-09
    -44.293  0.0000E+00  0.0000E+00  0.0000E+00  0.0000E+00  0.0000E+00  0.0000E+00  0.0000E+00  0.0000E+00  0.0000E+00
    -44.035  0.0000E+00  0.0000E+00  0.0000E+00  0.0000E+00  0.0000E+00  0.0000E+00  0.0000E+00  0.0000E+00  0.0000E+00
    -43.778  0.0000E+00  0.0000E+00  0.0000E+00  0.0000E+00  0.0000E+00  0.0000E+00  0.0000E+00  0.0000E+00  0.0000E+00
    -43.520  0.0000E+00  0.0000E+00  0.0000E+00  0.0000E+00  0.0000E+00  0.0000E+00  0.0000E+00  0.0000E+00  0.0000E+00
    -43.263  0.0000E+00  0.0000E+00  0.0000E+00  0.0000E+00  0.0000E+00  0.0000E+00  0.0000E+00  0.0000E+00  0.0000E+00
    -43.006  0.0000E+00  0.0000E+00  0.0000E+00  0.0000E+00  0.0000E+00  0.0000E+00  0.0000E+00  0.0000E+00  0.0000E+00
    -42.748  0.0000E+00  0.0000E+00  0.0000E+00  0.0000E+00  0.0000E+00  0.0000E+00  0.0000E+00  0.0000E+00  0.0000E+00
    -42.491  0.0000E+00  0.0000E+00  0.0000E+00  0.0000E+00  0.0000E+00  0.0000E+00  0.0000E+00  0.0000E+00  0.0000E+00
    -42.233  0.0000E+00  0.0000E+00  0.0000E+00  0.0000E+00  0.0000E+00  0.0000E+00  0.0000E+00  0.0000E+00  0.0000E+00
    -41.976  0.0000E+00  0.0000E+00  0.0000E+00  0.0000E+00  0.0000E+00  0.0000E+00  0.0000E+00  0.0000E+00  0.0000E+00
    -41.719  0.0000E+00  0.0000E+00  0.0000E+00  0.0000E+00  0.0000E+00  0.0000E+00  0.0000E+00  0.0000E+00  0.0000E+00
    -41.461  0.0000E+00  0.0000E+00  0.0000E+00  0.0000E+00  0.0000E+00  0.0000E+00  0.0000E+00  0.0000E+00  0.0000E+00
    -41.204  0.0000E+00  0.0000E+00  0.0000E+00  0.0000E+00  0.0000E+00  0.0000E+00  0.0000E+00  0.0000E+00  0.0000E+00
    -40.947  0.0000E+00  0.0000E+00  0.0000E+00  0.0000E+00  0.0000E+00  0.0000E+00  0.0000E+00  0.0000E+00  0.0000E+00
    -40.689  0.0000E+00  0.0000E+00  0.0000E+00  0.0000E+00  0.0000E+00  0.0000E+00  0.0000E+00  0.0000E+00  0.0000E+00
    -40.432  0.0000E+00  0.0000E+00  0.0000E+00  0.0000E+00  0.0000E+00  0.0000E+00  0.0000E+00  0.0000E+00  0.0000E+00
    -40.174  0.0000E+00  0.0000E+00  0.0000E+00  0.0000E+00  0.0000E+00  0.0000E+00  0.0000E+00  0.0000E+00  0.0000E+00
    -39.917  0.0000E+00  0.0000E+00  0.0000E+00  0.0000E+00  0.0000E+00  0.0000E+00  0.0000E+00  0.0000E+00  0.0000E+00
    -39.660  0.0000E+00  0.0000E+00  0.0000E+00  0.0000E+00  0.0000E+00  0.0000E+00  0.0000E+00  0.0000E+00  0.0000E+00
    -39.402  0.0000E+00  0.0000E+00  0.0000E+00  0.0000E+00  0.0000E+00  0.0000E+00  0.0000E+00  0.0000E+00  0.0000E+00
    -39.145  0.0000E+00  0.0000E+00  0.0000E+00  0.0000E+00  0.0000E+00  0.0000E+00  0.0000E+00  0.0000E+00  0.0000E+00
    -38.887  0.0000E+00  0.0000E+00  0.0000E+00  0.0000E+00  0.0000E+00  0.0000E+00  0.0000E+00  0.0000E+00  0.0000E+00
    -38.630  0.0000E+00  0.0000E+00  0.0000E+00  0.0000E+00  0.0000E+00  0.0000E+00  0.0000E+00  0.0000E+00  0.0000E+00
    -38.373  0.0000E+00  0.0000E+00  0.0000E+00  0.0000E+00  0.0000E+00  0.0000E+00  0.0000E+00  0.0000E+00  0.0000E+00
    -38.115  0.0000E+00  0.0000E+00  0.0000E+00  0.0000E+00  0.0000E+00  0.0000E+00  0.0000E+00  0.0000E+00  0.0000E+00
    -37.858  0.0000E+00  0.0000E+00  0.0000E+00  0.0000E+00  0.0000E+00  0.0000E+00  0.0000E+00  0.0000E+00  0.0000E+00
    -37.601  0.0000E+00  0.0000E+00  0.0000E+00  0.0000E+00  0.0000E+00  0.0000E+00  0.0000E+00  0.0000E+00  0.0000E+00
    -37.343  0.0000E+00  0.0000E+00  0.0000E+00  0.0000E+00  0.0000E+00  0.0000E+00  0.0000E+00  0.0000E+00  0.0000E+00
    -37.086  0.0000E+00  0.0000E+00  0.0000E+00  0.0000E+00  0.0000E+00  0.0000E+00  0.0000E+00  0.0000E+00  0.0000E+00
    -36.828  0.0000E+00  0.0000E+00  0.0000E+00  0.0000E+00  0.0000E+00  0.0000E+00  0.0000E+00  0.0000E+00  0.0000E+00
    -36.571  0.0000E+00  0.0000E+00  0.0000E+00  0.0000E+00  0.0000E+00  0.0000E+00  0.0000E+00  0.0000E+00  0.0000E+00
    -36.314  0.0000E+00  0.0000E+00  0.0000E+00  0.0000E+00  0.0000E+00  0.0000E+00  0.0000E+00  0.0000E+00  0.0000E+00
    -36.056  0.0000E+00  0.0000E+00  0.0000E+00  0.0000E+00  0.0000E+00  0.0000E+00  0.0000E+00  0.0000E+00  0.0000E+00
    -35.799  0.0000E+00  0.0000E+00  0.0000E+00  0.0000E+00  0.0000E+00  0.0000E+00  0.0000E+00  0.0000E+00  0.0000E+00
    -35.541  0.0000E+00  0.0000E+00  0.0000E+00  0.0000E+00  0.0000E+00  0.0000E+00  0.0000E+00  0.0000E+00  0.0000E+00
    -35.284  0.0000E+00  0.0000E+00  0.0000E+00  0.0000E+00  0.0000E+00  0.0000E+00  0.0000E+00  0.0000E+00  0.0000E+00
    -35.027  0.0000E+00  0.0000E+00  0.0000E+00  0.0000E+00  0.0000E+00  0.0000E+00  0.0000E+00  0.0000E+00  0.0000E+00
    -34.769  0.0000E+00  0.0000E+00  0.0000E+00  0.0000E+00  0.0000E+00  0.0000E+00  0.0000E+00  0.0000E+00  0.0000E+00
    -34.512  0.0000E+00  0.0000E+00  0.0000E+00  0.0000E+00  0.0000E+00  0.0000E+00  0.0000E+00  0.0000E+00  0.0000E+00
    -34.255  0.0000E+00  0.0000E+00  0.0000E+00  0.0000E+00  0.0000E+00  0.0000E+00  0.0000E+00  0.0000E+00  0.0000E+00
    -33.997  0.0000E+00  0.0000E+00  0.0000E+00  0.0000E+00  0.0000E+00  0.0000E+00  0.0000E+00  0.0000E+00  0.0000E+00
    -33.740  0.0000E+00  0.0000E+00  0.0000E+00  0.0000E+00  0.0000E+00  0.0000E+00  0.0000E+00  0.0000E+00  0.0000E+00
    -33.482  0.0000E+00  0.0000E+00  0.0000E+00  0.0000E+00  0.0000E+00  0.0000E+00  0.0000E+00  0.0000E+00  0.0000E+00
    -33.225  0.0000E+00  0.0000E+00  0.0000E+00  0.0000E+00  0.0000E+00  0.0000E+00  0.0000E+00  0.0000E+00  0.0000E+00
    -32.968  0.0000E+00  0.0000E+00  0.0000E+00  0.0000E+00  0.0000E+00  0.0000E+00  0.0000E+00  0.0000E+00  0.0000E+00
    -32.710  0.0000E+00  0.0000E+00  0.0000E+00  0.0000E+00  0.0000E+00  0.0000E+00  0.0000E+00  0.0000E+00  0.0000E+00
    -32.453  0.0000E+00  0.0000E+00  0.0000E+00  0.0000E+00  0.0000E+00  0.0000E+00  0.0000E+00  0.0000E+00  0.0000E+00
    -32.195  0.0000E+00  0.0000E+00  0.0000E+00  0.0000E+00  0.0000E+00  0.0000E+00  0.0000E+00  0.0000E+00  0.0000E+00
    -31.938  0.0000E+00  0.0000E+00  0.0000E+00  0.0000E+00  0.0000E+00  0.0000E+00  0.0000E+00  0.0000E+00  0.0000E+00
    -31.681  0.0000E+00  0.0000E+00  0.0000E+00  0.0000E+00  0.0000E+00  0.0000E+00  0.0000E+00  0.0000E+00  0.0000E+00
    -31.423  0.0000E+00  0.0000E+00  0.0000E+00  0.0000E+00  0.0000E+00  0.0000E+00  0.0000E+00  0.0000E+00  0.0000E+00
    -31.166  0.0000E+00  0.0000E+00  0.0000E+00  0.0000E+00  0.0000E+00  0.0000E+00  0.0000E+00  0.0000E+00  0.0000E+00
    -30.909  0.0000E+00  0.0000E+00  0.0000E+00  0.0000E+00  0.0000E+00  0.0000E+00  0.0000E+00  0.0000E+00  0.0000E+00
    -30.651  0.0000E+00  0.0000E+00  0.0000E+00  0.0000E+00  0.0000E+00  0.0000E+00  0.0000E+00  0.0000E+00  0.0000E+00
    -30.394  0.0000E+00  0.0000E+00  0.0000E+00  0.0000E+00  0.0000E+00  0.0000E+00  0.0000E+00  0.0000E+00  0.0000E+00
    -30.136  0.0000E+00  0.0000E+00  0.0000E+00  0.0000E+00  0.0000E+00  0.0000E+00  0.0000E+00  0.0000E+00  0.0000E+00
    -29.879  0.0000E+00  0.0000E+00  0.0000E+00  0.0000E+00  0.0000E+00  0.0000E+00  0.0000E+00  0.0000E+00  0.0000E+00
    -29.622  0.0000E+00  0.0000E+00  0.0000E+00  0.0000E+00  0.0000E+00  0.0000E+00  0.0000E+00  0.0000E+00  0.0000E+00
    -29.364  0.0000E+00  0.0000E+00  0.0000E+00  0.0000E+00  0.0000E+00  0.0000E+00  0.0000E+00  0.0000E+00  0.0000E+00
    -29.107  0.0000E+00  0.0000E+00  0.0000E+00  0.0000E+00  0.0000E+00  0.0000E+00  0.0000E+00  0.0000E+00  0.0000E+00
    -28.849  0.0000E+00  0.0000E+00  0.0000E+00  0.0000E+00  0.0000E+00  0.0000E+00  0.0000E+00  0.0000E+00  0.0000E+00
    -28.592  0.0000E+00  0.0000E+00  0.0000E+00  0.0000E+00  0.0000E+00  0.0000E+00  0.0000E+00  0.0000E+00  0.0000E+00
    -28.335  0.0000E+00  0.0000E+00  0.0000E+00  0.0000E+00  0.0000E+00  0.0000E+00  0.0000E+00  0.0000E+00  0.0000E+00
    -28.077  0.0000E+00  0.0000E+00  0.0000E+00  0.0000E+00  0.0000E+00  0.0000E+00  0.0000E+00  0.0000E+00  0.0000E+00
    -27.820  0.0000E+00  0.0000E+00  0.0000E+00  0.0000E+00  0.0000E+00  0.0000E+00  0.0000E+00  0.0000E+00  0.0000E+00
    -27.562  0.0000E+00  0.0000E+00  0.0000E+00  0.0000E+00  0.0000E+00  0.0000E+00  0.0000E+00  0.0000E+00  0.0000E+00
    -27.305  0.0000E+00  0.0000E+00  0.0000E+00  0.0000E+00  0.0000E+00  0.0000E+00  0.0000E+00  0.0000E+00  0.0000E+00
    -27.048  0.0000E+00  0.0000E+00  0.0000E+00  0.0000E+00  0.0000E+00  0.0000E+00  0.0000E+00  0.0000E+00  0.0000E+00
    -26.790  0.0000E+00  0.0000E+00  0.0000E+00  0.0000E+00  0.0000E+00  0.0000E+00  0.0000E+00  0.0000E+00  0.0000E+00
    -26.533  0.0000E+00  0.0000E+00  0.0000E+00  0.0000E+00  0.0000E+00  0.0000E+00  0.0000E+00  0.0000E+00  0.0000E+00
    -26.276  0.0000E+00  0.0000E+00  0.0000E+00  0.0000E+00  0.0000E+00  0.0000E+00  0.0000E+00  0.0000E+00  0.0000E+00
    -26.018  0.0000E+00  0.0000E+00  0.0000E+00  0.0000E+00  0.0000E+00  0.0000E+00  0.0000E+00  0.0000E+00  0.0000E+00
    -25.761  0.0000E+00  0.0000E+00  0.0000E+00  0.0000E+00  0.0000E+00  0.0000E+00  0.0000E+00  0.0000E+00  0.0000E+00
    -25.503  0.0000E+00  0.0000E+00  0.0000E+00  0.0000E+00  0.0000E+00  0.0000E+00  0.0000E+00  0.0000E+00  0.0000E+00
    -25.246  0.0000E+00  0.0000E+00  0.0000E+00  0.0000E+00  0.0000E+00  0.0000E+00  0.0000E+00  0.0000E+00  0.0000E+00
    -24.989  0.0000E+00  0.0000E+00  0.0000E+00  0.0000E+00  0.0000E+00  0.0000E+00  0.0000E+00  0.0000E+00  0.0000E+00
    -24.731  0.0000E+00  0.0000E+00  0.0000E+00  0.0000E+00  0.0000E+00  0.0000E+00  0.0000E+00  0.0000E+00  0.0000E+00
    -24.474  0.0000E+00  0.0000E+00  0.0000E+00  0.0000E+00  0.0000E+00  0.0000E+00  0.0000E+00  0.0000E+00  0.0000E+00
    -24.216  0.0000E+00  0.0000E+00  0.0000E+00  0.0000E+00  0.0000E+00  0.0000E+00  0.0000E+00  0.0000E+00  0.0000E+00
    -23.959  0.0000E+00  0.0000E+00  0.0000E+00  0.0000E+00  0.0000E+00  0.0000E+00  0.0000E+00  0.0000E+00  0.0000E+00
    -23.702  0.0000E+00  0.0000E+00  0.0000E+00  0.0000E+00  0.0000E+00  0.0000E+00  0.0000E+00  0.0000E+00  0.0000E+00
    -23.444  0.0000E+00  0.0000E+00  0.0000E+00  0.0000E+00  0.0000E+00  0.0000E+00  0.0000E+00  0.0000E+00  0.0000E+00
    -23.187  0.0000E+00  0.0000E+00  0.0000E+00  0.0000E+00  0.0000E+00  0.0000E+00  0.0000E+00  0.0000E+00  0.0000E+00
    -22.930  0.0000E+00  0.0000E+00  0.0000E+00  0.0000E+00  0.0000E+00  0.0000E+00  0.0000E+00  0.0000E+00  0.0000E+00
    -22.672  0.0000E+00  0.0000E+00  0.0000E+00  0.0000E+00  0.0000E+00  0.0000E+00  0.0000E+00  0.0000E+00  0.0000E+00
    -22.415  0.0000E+00  0.0000E+00  0.0000E+00  0.0000E+00  0.0000E+00  0.0000E+00  0.0000E+00  0.0000E+00  0.0000E+00
    -22.157  0.0000E+00  0.0000E+00  0.0000E+00  0.0000E+00  0.0000E+00  0.0000E+00  0.0000E+00  0.0000E+00  0.0000E+00
    -21.900  0.0000E+00  0.0000E+00  0.0000E+00  0.0000E+00  0.0000E+00  0.0000E+00  0.0000E+00  0.0000E+00  0.0000E+00
    -21.643  0.0000E+00  0.0000E+00  0.0000E+00  0.0000E+00  0.0000E+00  0.0000E+00  0.0000E+00  0.0000E+00  0.0000E+00
    -21.385  0.0000E+00  0.0000E+00  0.0000E+00  0.0000E+00  0.0000E+00  0.0000E+00  0.0000E+00  0.0000E+00  0.0000E+00
    -21.128  0.0000E+00  0.0000E+00  0.0000E+00  0.0000E+00  0.0000E+00  0.0000E+00  0.0000E+00  0.0000E+00  0.0000E+00
    -20.870  0.0000E+00  0.0000E+00  0.0000E+00  0.0000E+00  0.0000E+00  0.0000E+00  0.0000E+00  0.0000E+00  0.0000E+00
    -20.613  0.0000E+00  0.0000E+00  0.0000E+00  0.0000E+00  0.0000E+00  0.0000E+00  0.0000E+00  0.0000E+00  0.0000E+00
    -20.356  0.0000E+00  0.0000E+00  0.0000E+00  0.0000E+00  0.0000E+00  0.0000E+00  0.0000E+00  0.0000E+00  0.0000E+00
    -20.098  0.0000E+00  0.0000E+00  0.0000E+00  0.0000E+00  0.0000E+00  0.0000E+00  0.0000E+00  0.0000E+00  0.0000E+00
    -19.841  0.0000E+00  0.0000E+00  0.0000E+00  0.0000E+00  0.0000E+00  0.0000E+00  0.0000E+00  0.0000E+00  0.0000E+00
    -19.584  0.0000E+00  0.0000E+00  0.0000E+00  0.0000E+00  0.0000E+00  0.0000E+00  0.0000E+00  0.0000E+00  0.0000E+00
    -19.326  0.0000E+00  0.0000E+00  0.0000E+00  0.0000E+00  0.0000E+00  0.0000E+00  0.0000E+00  0.0000E+00  0.0000E+00
    -19.069  0.0000E+00  0.0000E+00  0.0000E+00  0.0000E+00  0.0000E+00  0.0000E+00  0.0000E+00  0.0000E+00  0.0000E+00
    -18.811  0.0000E+00  0.0000E+00  0.0000E+00  0.0000E+00  0.0000E+00  0.0000E+00  0.0000E+00  0.0000E+00  0.0000E+00
    -18.554  0.0000E+00  0.0000E+00  0.0000E+00  0.0000E+00  0.0000E+00  0.0000E+00  0.0000E+00  0.0000E+00  0.0000E+00
    -18.297  0.0000E+00  0.0000E+00  0.0000E+00  0.0000E+00  0.0000E+00  0.0000E+00  0.0000E+00  0.0000E+00  0.0000E+00
    -18.039  0.0000E+00  0.0000E+00  0.0000E+00  0.0000E+00  0.0000E+00  0.0000E+00  0.0000E+00  0.0000E+00  0.0000E+00
    -17.782  0.0000E+00  0.0000E+00  0.0000E+00  0.0000E+00  0.0000E+00  0.0000E+00  0.0000E+00  0.0000E+00  0.0000E+00
    -17.524  0.0000E+00  0.0000E+00  0.0000E+00  0.0000E+00  0.0000E+00  0.0000E+00  0.0000E+00  0.0000E+00  0.0000E+00
    -17.267  0.0000E+00  0.0000E+00  0.0000E+00  0.0000E+00  0.0000E+00  0.0000E+00  0.0000E+00  0.0000E+00  0.0000E+00
    -17.010  0.0000E+00  0.0000E+00  0.0000E+00  0.0000E+00  0.0000E+00  0.0000E+00  0.0000E+00  0.0000E+00  0.0000E+00
    -16.752  0.0000E+00  0.0000E+00  0.0000E+00  0.0000E+00  0.0000E+00  0.0000E+00  0.0000E+00  0.0000E+00  0.0000E+00
    -16.495  0.0000E+00  0.0000E+00  0.0000E+00  0.0000E+00  0.0000E+00  0.0000E+00  0.0000E+00  0.0000E+00  0.0000E+00
    -16.238  0.0000E+00  0.0000E+00  0.0000E+00  0.0000E+00  0.0000E+00  0.0000E+00  0.0000E+00  0.0000E+00  0.0000E+00
    -15.980  0.0000E+00  0.0000E+00  0.0000E+00  0.0000E+00  0.0000E+00  0.0000E+00  0.0000E+00  0.0000E+00  0.0000E+00
    -15.723  0.0000E+00  0.0000E+00  0.0000E+00  0.0000E+00  0.0000E+00  0.0000E+00  0.0000E+00  0.0000E+00  0.0000E+00
    -15.465  0.0000E+00  0.0000E+00  0.0000E+00  0.0000E+00  0.0000E+00  0.0000E+00  0.0000E+00  0.0000E+00  0.0000E+00
    -15.208  0.0000E+00  0.0000E+00  0.0000E+00  0.0000E+00  0.0000E+00  0.0000E+00  0.0000E+00  0.0000E+00  0.0000E+00
    -14.951  0.0000E+00  0.0000E+00  0.0000E+00  0.0000E+00  0.0000E+00  0.0000E+00  0.0000E+00  0.0000E+00  0.0000E+00
    -14.693  0.0000E+00  0.0000E+00  0.0000E+00  0.0000E+00  0.0000E+00  0.0000E+00  0.0000E+00  0.0000E+00  0.0000E+00
    -14.436  0.0000E+00  0.0000E+00  0.0000E+00  0.0000E+00  0.0000E+00  0.0000E+00  0.0000E+00  0.0000E+00  0.0000E+00
    -14.178  0.0000E+00  0.0000E+00  0.0000E+00  0.0000E+00  0.0000E+00  0.0000E+00  0.0000E+00  0.0000E+00  0.0000E+00
    -13.921  0.0000E+00  0.0000E+00  0.0000E+00  0.0000E+00  0.0000E+00  0.0000E+00  0.0000E+00  0.0000E+00  0.0000E+00
    -13.664  0.0000E+00  0.0000E+00  0.0000E+00  0.0000E+00  0.0000E+00  0.0000E+00  0.0000E+00  0.0000E+00  0.0000E+00
    -13.406  0.0000E+00  0.0000E+00  0.0000E+00  0.0000E+00  0.0000E+00  0.0000E+00  0.0000E+00  0.0000E+00  0.0000E+00
    -13.149  0.0000E+00  0.0000E+00  0.0000E+00  0.0000E+00  0.0000E+00  0.0000E+00  0.0000E+00  0.0000E+00  0.0000E+00
    -12.891  0.0000E+00  0.0000E+00  0.0000E+00  0.0000E+00  0.0000E+00  0.0000E+00  0.0000E+00  0.0000E+00  0.0000E+00
    -12.634  0.0000E+00  0.0000E+00  0.0000E+00  0.0000E+00  0.0000E+00  0.0000E+00  0.0000E+00  0.0000E+00  0.0000E+00
    -12.377  0.0000E+00  0.0000E+00  0.0000E+00  0.0000E+00  0.0000E+00  0.0000E+00  0.0000E+00  0.0000E+00  0.0000E+00
    -12.119  0.0000E+00  0.0000E+00  0.0000E+00  0.0000E+00  0.0000E+00  0.0000E+00  0.0000E+00  0.0000E+00  0.0000E+00
    -11.862  0.0000E+00  0.0000E+00  0.0000E+00  0.0000E+00  0.0000E+00  0.0000E+00  0.0000E+00  0.0000E+00  0.0000E+00
    -11.605  0.0000E+00  0.0000E+00  0.0000E+00  0.0000E+00  0.0000E+00  0.0000E+00  0.0000E+00  0.0000E+00  0.0000E+00
    -11.347  0.0000E+00  0.0000E+00  0.0000E+00  0.0000E+00  0.0000E+00  0.0000E+00  0.0000E+00  0.0000E+00  0.0000E+00
    -11.090  0.0000E+00  0.0000E+00  0.0000E+00  0.0000E+00  0.0000E+00  0.0000E+00  0.0000E+00  0.0000E+00  0.0000E+00
    -10.832  0.0000E+00  0.0000E+00  0.0000E+00  0.0000E+00  0.0000E+00  0.0000E+00  0.0000E+00  0.0000E+00  0.0000E+00
    -10.575  0.0000E+00  0.0000E+00  0.0000E+00  0.0000E+00  0.0000E+00  0.0000E+00  0.0000E+00  0.0000E+00  0.0000E+00
    -10.318  0.0000E+00  0.0000E+00  0.0000E+00  0.0000E+00  0.0000E+00  0.0000E+00  0.0000E+00  0.0000E+00  0.0000E+00
    -10.060  0.0000E+00  0.0000E+00  0.0000E+00  0.0000E+00  0.0000E+00  0.0000E+00  0.0000E+00  0.0000E+00  0.0000E+00
     -9.803  0.0000E+00  0.0000E+00  0.0000E+00  0.0000E+00  0.0000E+00  0.0000E+00  0.0000E+00  0.0000E+00  0.0000E+00
     -9.545  0.0000E+00  0.0000E+00  0.0000E+00  0.0000E+00  0.0000E+00  0.0000E+00  0.0000E+00  0.0000E+00  0.0000E+00
     -9.288  0.0000E+00  0.0000E+00  0.0000E+00  0.0000E+00  0.0000E+00  0.0000E+00  0.0000E+00  0.0000E+00  0.0000E+00
     -9.031  0.0000E+00  0.0000E+00  0.0000E+00  0.0000E+00  0.0000E+00  0.0000E+00  0.0000E+00  0.0000E+00  0.0000E+00
     -8.773  0.0000E+00  0.0000E+00  0.0000E+00  0.0000E+00  0.0000E+00  0.0000E+00  0.0000E+00  0.0000E+00  0.0000E+00
     -8.516  0.0000E+00  0.0000E+00  0.0000E+00  0.0000E+00  0.0000E+00  0.0000E+00  0.0000E+00  0.0000E+00  0.0000E+00