    2    2  100    1
  0.2083299E+02  0.3028269E-09  0.3028269E-09  0.5246406E-09  0.5000000E-15
  1.000000000000000E-004
  CAR 
 Pt-hcc                                  
     32     70     24
 
  0.0000000E+00  0.0000000E+00  0.0000000E+00  0.1250000E-02
      1        -45.030578   1.000000
      2        -45.030578   1.000000
      3        -45.016377   1.000000
      4        -45.016376   1.000000
      5        -45.005541   1.000000
      6        -44.898716   1.000000
      7         -0.447327   1.000000
      8          1.888254   1.000000
      9          4.178922   1.000000
     10          4.486862   1.000000
     11          4.486863   1.000000
     12          4.709634   1.000000
     13          4.709635   1.000000
     14          5.529317   1.000000
     15          5.529317   1.000000
     16          6.518633   0.999833
     17          6.518634   0.999833
     18          7.085631   0.000000
     19          9.851924   0.000000
     20         21.770360   0.000000
     21         21.962006   0.000000
     22         23.494038   0.000000
     23         24.696014   0.000000
     24         24.696014   0.000000
 
  0.1000000E+00 -0.1387779E-16  0.0000000E+00  0.7500000E-02
      1        -45.042714   1.000000
      2        -45.034054   1.000000
      3        -45.029412   1.000000
      4        -45.019305   1.000000
      5        -45.001710   1.000000
      6        -44.899889   1.000000
      7         -0.168150   1.000000
      8          2.131678   1.000000
      9          4.136294   1.000000
     10          4.502775   1.000000
     11          4.624353   1.000000
     12          4.667523   1.000000
     13          4.879508   1.000000
     14          5.264936   1.000000
     15          5.428716   1.000000
     16          5.676283   1.000000
     17          6.551277   0.996145
     18          8.312955   0.000000
     19          9.848561   0.000000
     20         21.509514   0.000000
     21         22.372086   0.000000
     22         22.762678   0.000000
     23         23.412020   0.000000
     24         24.422846   0.000000
 
  0.2000000E+00 -0.2775558E-16  0.0000000E+00  0.7500000E-02
      1        -45.074569   1.000000
      2        -45.061269   1.000000
      3        -45.043415   1.000000
      4        -45.026329   1.000000
      5        -44.991193   1.000000
      6        -44.902752   1.000000
      7          0.610754   1.000000
      8          2.687936   1.000000
      9          3.998623   1.000000
     10          4.324075   1.000000
     11          4.411151   1.000000
     12          4.904585   1.000000
     13          5.172872   1.000000
     14          5.200409   1.000000
     15          5.267710   1.000000
     16          5.353377   1.000000
     17          6.604449   0.877098
     18          9.883293   0.000000
     19          9.975906   0.000000
     20         18.526938   0.000000
     21         21.407231   0.000000
     22         22.883031   0.000000
     23         23.235393   0.000000
     24         23.618692   0.000000
 
  0.3000000E+00 -0.2775558E-16  0.0000000E+00  0.7500000E-02
      1        -45.113632   1.000000
      2        -45.101248   1.000000
      3        -45.055197   1.000000
      4        -45.035372   1.000000
      5        -44.976707   1.000000
      6        -44.907936   1.000000
      7          1.631094   1.000000
      8          2.856307   1.000000
      9          3.698446   1.000000
     10          4.182532   1.000000
     11          4.397531   1.000000
     12          4.942126   1.000000
     13          4.958934   1.000000
     14          5.648224   1.000000
     15          5.879528   1.000000
     16          6.008799   1.000000
     17          6.633508   0.632576
     18         10.155454   0.000000
     19         11.754965   0.000000
     20         15.081241   0.000000
     21         19.535452   0.000000
     22         20.227836   0.000000
     23         21.008494   0.000000
     24         23.066155   0.000000
 
  0.4000000E+00 -0.5551115E-16  0.0000000E+00  0.7500000E-02
      1        -45.146076   1.000000
      2        -45.133125   1.000000
      3        -45.064384   1.000000
      4        -45.042835   1.000000
      5        -44.962169   1.000000
      6        -44.915225   1.000000
      7          2.296022   1.000000
      8          2.656987   1.000000
      9          3.261064   1.000000
     10          4.526403   1.000000
     11          4.701828   1.000000
     12          4.783805   1.000000
     13          4.992838   1.000000
     14          6.528691   0.999522
     15          6.633202   0.635834
     16          6.639950   0.562173
     17          6.923623   0.000000
     18         11.130389   0.000000
     19         11.860566   0.000000
     20         13.456548   0.000000
     21         16.501282   0.000000
     22         18.134207   0.000000
     23         19.221644   0.000000
     24         22.116345   0.000000
 
  0.5000000E+00 -0.5551115E-16  0.0000000E+00  0.3750000E-02
      1        -45.158087   1.000000
      2        -45.145024   1.000000
      3        -45.067892   1.000000
      4        -45.045633   1.000000
      5        -44.954941   1.000000
      6        -44.919501   1.000000
      7          2.459030   1.000000
      8          2.534632   1.000000
      9          3.114343   1.000000
     10          4.614271   1.000000
     11          4.720383   1.000000
     12          4.841311   1.000000
     13          5.206060   1.000000
     14          6.639526   0.566886
     15          6.791642   0.000018
     16          6.912446   0.000000
     17          8.549347   0.000000
     18          9.501902   0.000000
     19         12.789070   0.000000
     20         13.873168   0.000000
     21         14.369644   0.000000
     22         17.594395   0.000000
     23         18.283939   0.000000
     24         21.779395   0.000000
 
  0.1000000E+00  0.1000000E+00  0.0000000E+00  0.7500000E-02
      1        -45.062876   1.000000
      2        -45.053909   1.000000
      3        -45.038608   1.000000
      4        -45.025920   1.000000
      5        -44.994569   1.000000
      6        -44.901877   1.000000
      7          0.365617   1.000000
      8          2.561122   1.000000
      9          3.972632   1.000000
     10          4.442380   1.000000
     11          4.650705   1.000000
     12          4.688645   1.000000
     13          5.046172   1.000000
     14          5.088117   1.000000
     15          5.258320   1.000000
     16          5.511890   1.000000
     17          6.562517   0.990528
     18          9.522644   0.000000
     19          9.865355   0.000000
     20         20.189498   0.000000
     21         20.385030   0.000000
     22         23.111085   0.000000
     23         23.836735   0.000000
     24         23.994494   0.000000
 
  0.2000000E+00  0.1000000E+00  0.0000000E+00  0.1500000E-01
      1        -45.095880   1.000000
      2        -45.087290   1.000000
      3        -45.051852   1.000000
      4        -45.036664   1.000000
      5        -44.982161   1.000000
      6        -44.906013   1.000000
      7          1.311088   1.000000
      8          3.057796   1.000000
      9          3.864500   1.000000
     10          3.975401   1.000000
     11          4.268817   1.000000
     12          4.790449   1.000000
     13          5.040962   1.000000
     14          5.275435   1.000000
     15          5.721149   1.000000
     16          5.961871   1.000000
     17          6.560979   0.991578
     18         10.027756   0.000000
     19         11.156588   0.000000
     20         16.810292   0.000000
     21         18.723435   0.000000
     22         22.050778   0.000000
     23         22.470098   0.000000
     24         23.357478   0.000000
 
  0.3000000E+00  0.1000000E+00  0.0000000E+00  0.1500000E-01
      1        -45.130175   1.000000
      2        -45.119321   1.000000
      3        -45.065258   1.000000
      4        -45.046524   1.000000
      5        -44.967169   1.000000
      6        -44.912637   1.000000
      7          2.250927   1.000000
      8          2.943841   1.000000
      9          3.455653   1.000000
     10          4.200435   1.000000
     11          4.578392   1.000000
     12          4.606562   1.000000
     13          4.968044   1.000000
     14          5.740621   1.000000
     15          6.387038   1.000000
     16          6.552377   0.995773
     17          6.887920   0.000000
     18         10.684028   0.000000
     19         12.914833   0.000000
     20         13.481199   0.000000
     21         16.958589   0.000000
     22         19.065964   0.000000
     23         20.215121   0.000000
     24         22.161870   0.000000
 
  0.4000000E+00  0.1000000E+00  0.0000000E+00  0.1500000E-01
      1        -45.151509   1.000000
      2        -45.138489   1.000000
      3        -45.073476   1.000000
      4        -45.052822   1.000000
      5        -44.954974   1.000000
      6        -44.919558   1.000000
      7          2.617168   1.000000
      8          2.753576   1.000000
      9          3.189108   1.000000
     10          4.574724   1.000000
     11          4.710594   1.000000
     12          4.738770   1.000000
     13          4.951285   1.000000
     14          6.495226   0.999989
     15          6.542336   0.998235
     16          6.709253   0.035638
     17          8.195453   0.000000
     18         10.523437   0.000000
     19         12.292287   0.000000
     20         14.416728   0.000000
     21         14.713808   0.000000
     22         17.111534   0.000000
     23         18.653158   0.000000
     24         21.546744   0.000000
 
  0.2000000E+00  0.2000000E+00  0.0000000E+00  0.7500000E-02
      1        -45.115957   1.000000
      2        -45.115333   1.000000
      3        -45.066761   1.000000
      4        -45.054103   1.000000
      5        -44.969087   1.000000
      6        -44.911933   1.000000
      7          2.303059   1.000000
      8          3.507876   1.000000
      9          3.576584   1.000000
     10          3.591641   1.000000
     11          4.405621   1.000000
     12          4.485424   1.000000
     13          5.094552   1.000000
     14          5.270746   1.000000
     15          6.383079   1.000000
     16          6.456778   1.000000
     17          6.939572   0.000000
     18         10.591016   0.000000
     19         12.753612   0.000000
     20         14.871820   0.000000
     21         15.780519   0.000000
     22         20.623769   0.000000
     23         21.239048   0.000000
     24         21.618671   0.000000
 
  0.3000000E+00  0.2000000E+00  0.0000000E+00  0.1500000E-01
      1        -45.136133   1.000000
      2        -45.127588   1.000000
      3        -45.084174   1.000000
      4        -45.068607   1.000000
      5        -44.955005   1.000000
      6        -44.919539   1.000000
      7          3.014254   1.000000
      8          3.289754   1.000000
      9          3.338410   1.000000
     10          4.059472   1.000000
     11          4.394758   1.000000
     12          4.780337   1.000000
     13          4.793680   1.000000
     14          5.769233   1.000000
     15          6.376361   1.000000
     16          6.642811   0.530116
     17          8.127379   0.000000
     18         11.413067   0.000000
     19         12.666032   0.000000
     20         14.259569   0.000000
     21         14.490339   0.000000
     22         17.904682   0.000000
     23         19.568853   0.000000
     24         20.347013   0.000000
 
  0.4000000E+00  0.2000000E+00  0.0000000E+00  0.7500000E-02
      1        -45.143889   1.000000
      2        -45.130442   1.000000
      3        -45.092535   1.000000
      4        -45.074303   1.000000
      5        -44.946868   1.000000
      6        -44.925264   1.000000
      7          3.136152   1.000000
      8          3.189493   1.000000
      9          3.251048   1.000000
     10          4.470605   1.000000
     11          4.477534   1.000000
     12          4.561797   1.000000
     13          4.957313   1.000000
     14          6.242862   1.000000
     15          6.347177   1.000000
     16          6.520838   0.999789
     17          9.614723   0.000000
     18          9.746006   0.000000
     19         12.981487   0.000000
     20         14.212423   0.000000
     21         15.587864   0.000000
     22         16.026251   0.000000
     23         18.405807   0.000000
     24         19.852470   0.000000
 
  0.3000000E+00  0.3000000E+00  0.0000000E+00  0.7500000E-02
      1        -45.131308   1.000000
      2        -45.121473   1.000000
      3        -45.105171   1.000000
      4        -45.092269   1.000000
      5        -44.942715   1.000000
      6        -44.928960   1.000000
      7          3.316574   1.000000
      8          3.469933   1.000000
      9          3.668750   1.000000
     10          3.992672   1.000000
     11          4.368160   1.000000
     12          4.543683   1.000000
     13          5.014838   1.000000
     14          5.989214   1.000000
     15          6.248644   1.000000
     16          6.427580   1.000000
     17          9.438673   0.000000
     18         10.618008   0.000000
     19         12.149971   0.000000
     20         14.695636   0.000000
     21         16.252622   0.000000
     22         16.976035   0.000000
     23         17.609394   0.000000
     24         18.312043   0.000000
 
  0.0000000E+00  0.0000000E+00  0.1250000E+00  0.2500000E-02
      1        -45.030023   1.000000
      2        -45.030023   1.000000
      3        -45.016891   1.000000
      4        -45.016891   1.000000
      5        -45.001340   1.000000
      6        -44.902780   1.000000
      7         -0.343839   1.000000
      8          1.857272   1.000000
      9          4.160458   1.000000
     10          4.474277   1.000000
     11          4.474277   1.000000
     12          4.686188   1.000000
     13          4.686189   1.000000
     14          5.589875   1.000000
     15          5.589875   1.000000
     16          6.405533   1.000000
     17          6.499107   0.999983
     18          6.499107   0.999983
     19         10.767869   0.000000
     20         21.226327   0.000000
     21         22.259343   0.000000
     22         23.275729   0.000000
     23         24.622883   0.000000
     24         24.622883   0.000000
 
  0.1000000E+00 -0.1387779E-16  0.1250000E+00  0.1500000E-01
      1        -45.042385   1.000000
      2        -45.033425   1.000000
      3        -45.029759   1.000000
      4        -45.019692   1.000000
      5        -44.997487   1.000000
      6        -44.903563   1.000000
      7         -0.066099   1.000000
      8          2.106242   1.000000
      9          4.139414   1.000000
     10          4.451098   1.000000
     11          4.569609   1.000000
     12          4.649515   1.000000
     13          4.853940   1.000000
     14          5.287224   1.000000
     15          5.500147   1.000000
     16          5.595031   1.000000
     17          6.525902   0.999640
     18          7.621190   0.000000
     19         10.915294   0.000000
     20         21.347482   0.000000
     21         22.142731   0.000000
     22         22.898269   0.000000
     23         23.468231   0.000000
     24         23.934691   0.000000
 
  0.2000000E+00 -0.2775558E-16  0.1250000E+00  0.1500000E-01
      1        -45.074454   1.000000
      2        -45.062275   1.000000
      3        -45.042803   1.000000
      4        -45.026901   1.000000
      5        -44.987491   1.000000
      6        -44.906075   1.000000
      7          0.704297   1.000000
      8          2.682057   1.000000
      9          4.019672   1.000000
     10          4.189039   1.000000
     11          4.368477   1.000000
     12          4.865149   1.000000
     13          5.075810   1.000000
     14          5.287778   1.000000
     15          5.368735   1.000000
     16          5.394075   1.000000
     17          6.567387   0.986407
     18          8.638354   0.000000
     19         11.490923   0.000000
     20         18.631040   0.000000
     21         21.544308   0.000000
     22         22.342120   0.000000
     23         22.710411   0.000000
     24         23.602325   0.000000
 
  0.3000000E+00 -0.2775558E-16  0.1250000E+00  0.1500000E-01
      1        -45.114163   1.000000
      2        -45.102163   1.000000
      3        -45.054453   1.000000
      4        -45.036252   1.000000
      5        -44.973730   1.000000
      6        -44.910626   1.000000
      7          1.687831   1.000000
      8          2.869564   1.000000
      9          3.673039   1.000000
     10          4.077066   1.000000
     11          4.421842   1.000000
     12          4.998018   1.000000
     13          5.006111   1.000000
     14          5.679500   1.000000
     15          5.894002   1.000000
     16          5.979596   1.000000
     17          6.591202   0.937640
     18          9.428122   0.000000
     19         12.567779   0.000000
     20         15.291505   0.000000
     21         19.452987   0.000000
     22         19.709090   0.000000
     23         21.564229   0.000000
     24         23.217878   0.000000
 
  0.4000000E+00 -0.5551115E-16  0.1250000E+00  0.1500000E-01
      1        -45.146070   1.000000
      2        -45.134030   1.000000
      3        -45.063455   1.000000
      4        -45.043614   1.000000
      5        -44.959923   1.000000
      6        -44.916766   1.000000
      7          2.270774   1.000000
      8          2.667127   1.000000
      9          3.342991   1.000000
     10          4.127893   1.000000
     11          4.806429   1.000000
     12          4.838247   1.000000
     13          5.392630   1.000000
     14          6.486641   0.999996
     15          6.540790   0.998468
     16          6.690625   0.100831
     17          6.866979   0.000000
     18         10.547074   0.000000
     19         11.809159   0.000000
     20         14.138700   0.000000
     21         16.275402   0.000000
     22         18.326435   0.000000
     23         19.548911   0.000000
     24         22.261838   0.000000
 
  0.5000000E+00 -0.5551115E-16  0.1250000E+00  0.7500000E-02
      1        -45.158313   1.000000
      2        -45.145967   1.000000
      3        -45.066865   1.000000
      4        -45.046172   1.000000
      5        -44.953006   1.000000
      6        -44.920718   1.000000
      7          2.382580   1.000000
      8          2.551520   1.000000
      9          3.236735   1.000000
     10          4.180440   1.000000
     11          4.778687   1.000000
     12          4.902591   1.000000
     13          5.720303   1.000000
     14          6.537330   0.998890
     15          6.804857   0.000003
     16          6.908929   0.000000
     17          8.457137   0.000000
     18          9.468676   0.000000
     19         12.569246   0.000000
     20         12.834580   0.000000
     21         15.618775   0.000000
     22         17.793327   0.000000
     23         18.499239   0.000000
     24         21.947315   0.000000
 
  0.1000000E+00  0.1000000E+00  0.1250000E+00  0.1500000E-01
      1        -45.062868   1.000000
      2        -45.053957   1.000000
      3        -45.038453   1.000000
      4        -45.026538   1.000000
      5        -44.990623   1.000000
      6        -44.905213   1.000000
      7          0.463148   1.000000
      8          2.548416   1.000000
      9          3.992240   1.000000
     10          4.310524   1.000000
     11          4.515265   1.000000
     12          4.728658   1.000000
     13          5.007869   1.000000
     14          5.151458   1.000000
     15          5.329946   1.000000
     16          5.539007   1.000000
     17          6.530318   0.999438
     18          8.404783   0.000000
     19         11.285123   0.000000
     20         20.282992   0.000000
     21         20.445486   0.000000
     22         22.630414   0.000000
     23         23.323837   0.000000
     24         24.076093   0.000000
 
  0.2000000E+00  0.1000000E+00  0.1250000E+00  0.3000000E-01
      1        -45.095994   1.000000
      2        -45.087794   1.000000
      3        -45.051276   1.000000
      4        -45.037188   1.000000
      5        -44.978676   1.000000
      6        -44.908727   1.000000
      7          1.390012   1.000000
      8          3.073424   1.000000
      9          3.828507   1.000000
     10          3.915171   1.000000
     11          4.267895   1.000000
     12          4.712750   1.000000
     13          5.155657   1.000000
     14          5.251240   1.000000
     15          5.792858   1.000000
     16          5.929844   1.000000
     17          6.530255   0.999441
     18          9.185857   0.000000
     19         12.187966   0.000000
     20         16.953613   0.000000
     21         18.819146   0.000000
     22         21.317547   0.000000
     23         22.466827   0.000000
     24         23.466408   0.000000
 
  0.3000000E+00  0.1000000E+00  0.1250000E+00  0.3000000E-01
      1        -45.130366   1.000000
      2        -45.120110   1.000000
      3        -45.064633   1.000000
      4        -45.047479   1.000000
      5        -44.964581   1.000000
      6        -44.914295   1.000000
      7          2.264825   1.000000
      8          2.964829   1.000000
      9          3.479663   1.000000
     10          4.021033   1.000000
     11          4.566218   1.000000
     12          4.822883   1.000000
     13          4.980669   1.000000
     14          5.750604   1.000000
     15          6.415325   1.000000
     16          6.449311   1.000000
     17          6.916202   0.000000
     18         10.124944   0.000000
     19         12.970284   0.000000
     20         14.217409   0.000000
     21         16.931573   0.000000
     22         18.669542   0.000000
     23         20.692842   0.000000
     24         21.903152   0.000000
 
  0.4000000E+00  0.1000000E+00  0.1250000E+00  0.3000000E-01
      1        -45.151453   1.000000
      2        -45.139435   1.000000
      3        -45.072639   1.000000
      4        -45.053719   1.000000
      5        -44.953016   1.000000
      6        -44.920598   1.000000
      7          2.543186   1.000000
      8          2.769595   1.000000
      9          3.327413   1.000000
     10          4.136637   1.000000
     11          4.623682   1.000000
     12          4.980419   1.000000
     13          5.337917   1.000000
     14          6.422665   1.000000
     15          6.498469   0.999984
     16          6.733766   0.006261
     17          8.187473   0.000000
     18         10.514139   0.000000
     19         11.797625   0.000000
     20         14.074441   0.000000
     21         15.403435   0.000000
     22         17.309859   0.000000
     23         18.959747   0.000000
     24         21.185952   0.000000
 
  0.2000000E+00  0.2000000E+00  0.1250000E+00  0.1500000E-01
      1        -45.116339   1.000000
      2        -45.115409   1.000000
      3        -45.066395   1.000000
      4        -45.054620   1.000000
      5        -44.966054   1.000000
      6        -44.913590   1.000000
      7          2.345228   1.000000
      8          3.453977   1.000000
      9          3.590466   1.000000
     10          3.635036   1.000000
     11          4.418451   1.000000
     12          4.464849   1.000000
     13          5.014985   1.000000
     14          5.375124   1.000000
     15          6.335294   1.000000
     16          6.448585   1.000000
     17          6.978704   0.000000
     18         10.040748   0.000000
     19         13.245997   0.000000
     20         15.202796   0.000000
     21         15.890055   0.000000
     22         19.882849   0.000000
     23         20.574873   0.000000
     24         22.191164   0.000000
 
  0.3000000E+00  0.2000000E+00  0.1250000E+00  0.3000000E-01
      1        -45.136137   1.000000
      2        -45.128313   1.000000
      3        -45.083986   1.000000
      4        -45.069334   1.000000
      5        -44.953088   1.000000
      6        -44.920554   1.000000
      7          2.957404   1.000000
      8          3.304053   1.000000
      9          3.431063   1.000000
     10          3.934431   1.000000
     11          4.475646   1.000000
     12          4.726764   1.000000
     13          4.881030   1.000000
     14          5.809466   1.000000
     15          6.260386   1.000000
     16          6.700188   0.060892
     17          8.161592   0.000000
     18         11.353988   0.000000
     19         12.198040   0.000000
     20         14.261242   0.000000
     21         15.217335   0.000000
     22         17.481382   0.000000
     23         19.569528   0.000000
     24         20.132163   0.000000
 
  0.4000000E+00  0.2000000E+00  0.1250000E+00  0.1500000E-01
      1        -45.143358   1.000000
      2        -45.131463   1.000000
      3        -45.092138   1.000000
      4        -45.074992   1.000000
      5        -44.945695   1.000000
      6        -44.925672   1.000000
      7          2.983597   1.000000
      8          3.220656   1.000000
      9          3.484017   1.000000
     10          4.088858   1.000000
     11          4.383390   1.000000
     12          4.881675   1.000000
     13          5.073349   1.000000
     14          6.226605   1.000000
     15          6.257692   1.000000
     16          6.564983   0.988603
     17          9.706073   0.000000
     18          9.789489   0.000000
     19         12.851739   0.000000
     20         13.880364   0.000000
     21         14.870337   0.000000
     22         17.170783   0.000000
     23         18.561901   0.000000
     24         19.328155   0.000000
 
  0.3000000E+00  0.3000000E+00  0.1250000E+00  0.1500000E-01
      1        -45.130883   1.000000
      2        -45.121988   1.000000
      3        -45.105341   1.000000
      4        -45.093002   1.000000
      5        -44.941196   1.000000
      6        -44.928737   1.000000
      7          3.330662   1.000000
      8          3.458526   1.000000
      9          3.702690   1.000000
     10          3.923951   1.000000
     11          4.447503   1.000000
     12          4.474052   1.000000
     13          5.022499   1.000000
     14          6.048306   1.000000
     15          6.126620   1.000000
     16          6.482677   0.999998
     17          9.515330   0.000000
     18         10.733842   0.000000
     19         12.313595   0.000000
     20         13.959638   0.000000
     21         16.130015   0.000000
     22         16.485087   0.000000
     23         17.859830   0.000000
     24         19.213157   0.000000
 
  0.0000000E+00  0.0000000E+00  0.2500000E+00  0.2500000E-02
      1        -45.028578   1.000000
      2        -45.028578   1.000000
      3        -45.018586   1.000000
      4        -45.018585   1.000000
      5        -44.989939   1.000000
      6        -44.915098   1.000000
      7         -0.043488   1.000000
      8          1.732309   1.000000
      9          4.119781   1.000000
     10          4.454025   1.000000
     11          4.454026   1.000000
     12          4.625535   1.000000
     13          4.625536   1.000000
     14          5.366999   1.000000
     15          5.745964   1.000000
     16          5.745964   1.000000
     17          6.435073   1.000000
     18          6.435073   1.000000
     19         12.535272   0.000000
     20         20.285760   0.000000
     21         22.163068   0.000000
     22         22.798689   0.000000
     23         24.549288   0.000000
     24         24.549288   0.000000
 
  0.1000000E+00 -0.1387779E-16  0.2500000E+00  0.1500000E-01
      1        -45.041626   1.000000
      2        -45.031986   1.000000
      3        -45.031434   1.000000
      4        -45.021452   1.000000
      5        -44.985998   1.000000
      6        -44.914797   1.000000
      7          0.230495   1.000000
      8          1.993876   1.000000
      9          4.137019   1.000000
     10          4.354977   1.000000
     11          4.429482   1.000000
     12          4.620392   1.000000
     13          4.790114   1.000000
     14          4.998383   1.000000
     15          5.676413   1.000000
     16          5.687117   1.000000
     17          6.446630   1.000000
     18          6.928436   0.000000
     19         12.719415   0.000000
     20         20.567217   0.000000
     21         21.939612   0.000000
     22         22.738582   0.000000
     23         23.394935   0.000000
     24         23.661601   0.000000
 
  0.2000000E+00 -0.2775558E-16  0.2500000E+00  0.1500000E-01
      1        -45.073938   1.000000
      2        -45.064191   1.000000
      3        -45.041017   1.000000
      4        -45.028923   1.000000
      5        -44.976968   1.000000
      6        -44.915129   1.000000
      7          0.976487   1.000000
      8          2.617539   1.000000
      9          3.944975   1.000000
     10          4.085808   1.000000
     11          4.211043   1.000000
     12          4.737808   1.000000
     13          5.022143   1.000000
     14          5.238139   1.000000
     15          5.590858   1.000000
     16          5.626194   1.000000
     17          6.458776   1.000000
     18          7.653756   0.000000
     19         13.263543   0.000000
     20         18.938822   0.000000
     21         21.090756   0.000000
     22         21.810983   0.000000
     23         21.950746   0.000000
     24         23.523949   0.000000
 
  0.3000000E+00 -0.2775558E-16  0.2500000E+00  0.1500000E-01
      1        -45.113768   1.000000
      2        -45.104306   1.000000
      3        -45.052155   1.000000
      4        -45.038276   1.000000
      5        -44.965128   1.000000
      6        -44.917252   1.000000
      7          1.852655   1.000000