PROCAR lm decomposed
# of k-points:   70         # of bands:   24         # of ions:    2

 k-point     1 :    0.00000000 0.00000000 0.00000000     weight = 0.00125000

band     1 # energy  -45.03057808 # occ.  2.00000000
 
ion      s     py     pz     px    dxy    dyz    dz2    dxz  x2-y2    tot
    1  0.000  0.124  0.000  0.372  0.000  0.000  0.000  0.000  0.000  0.497
    2  0.000  0.124  0.000  0.372  0.000  0.000  0.000  0.000  0.000  0.497
tot    0.000  0.248  0.000  0.745  0.000  0.000  0.000  0.000  0.000  0.993
 
band     2 # energy  -45.03057752 # occ.  2.00000000
 
ion      s     py     pz     px    dxy    dyz    dz2    dxz  x2-y2    tot
    1  0.000  0.372  0.000  0.124  0.000  0.000  0.000  0.000  0.000  0.497
    2  0.000  0.372  0.000  0.124  0.000  0.000  0.000  0.000  0.000  0.497
tot    0.000  0.745  0.000  0.248  0.000  0.000  0.000  0.000  0.000  0.993
 
band     3 # energy  -45.01637692 # occ.  2.00000000
 
ion      s     py     pz     px    dxy    dyz    dz2    dxz  x2-y2    tot
    1  0.000  0.124  0.000  0.373  0.000  0.000  0.000  0.000  0.000  0.497
    2  0.000  0.124  0.000  0.373  0.000  0.000  0.000  0.000  0.000  0.497
tot    0.000  0.248  0.000  0.745  0.000  0.000  0.000  0.000  0.000  0.994
 
band     4 # energy  -45.01637636 # occ.  2.00000000
 
ion      s     py     pz     px    dxy    dyz    dz2    dxz  x2-y2    tot
    1  0.000  0.373  0.000  0.124  0.000  0.000  0.000  0.000  0.000  0.497
    2  0.000  0.373  0.000  0.124  0.000  0.000  0.000  0.000  0.000  0.497
tot    0.000  0.745  0.000  0.248  0.000  0.000  0.000  0.000  0.000  0.994
 
band     5 # energy  -45.00554102 # occ.  2.00000000
 
ion      s     py     pz     px    dxy    dyz    dz2    dxz  x2-y2    tot
    1  0.000  0.000  0.494  0.000  0.000  0.000  0.000  0.000  0.000  0.494
    2  0.000  0.000  0.494  0.000  0.000  0.000  0.000  0.000  0.000  0.494
tot    0.000  0.000  0.988  0.000  0.000  0.000  0.000  0.000  0.000  0.988
 
band     6 # energy  -44.89871557 # occ.  2.00000000
 
ion      s     py     pz     px    dxy    dyz    dz2    dxz  x2-y2    tot
    1  0.000  0.000  0.497  0.000  0.000  0.000  0.000  0.000  0.000  0.497
    2  0.000  0.000  0.497  0.000  0.000  0.000  0.000  0.000  0.000  0.497
tot    0.000  0.000  0.993  0.000  0.000  0.000  0.000  0.000  0.000  0.993
 
band     7 # energy   -0.44732688 # occ.  2.00000000
 
ion      s     py     pz     px    dxy    dyz    dz2    dxz  x2-y2    tot
    1  0.155  0.000  0.000  0.000  0.000  0.000  0.000  0.000  0.000  0.155
    2  0.155  0.000  0.000  0.000  0.000  0.000  0.000  0.000  0.000  0.155
tot    0.310  0.000  0.000  0.000  0.000  0.000  0.001  0.000  0.000  0.311
 
band     8 # energy    1.88825440 # occ.  2.00000000
 
ion      s     py     pz     px    dxy    dyz    dz2    dxz  x2-y2    tot
    1  0.068  0.000  0.000  0.000  0.000  0.000  0.218  0.000  0.000  0.286
    2  0.068  0.000  0.000  0.000  0.000  0.000  0.218  0.000  0.000  0.286
tot    0.136  0.000  0.000  0.000  0.000  0.000  0.436  0.000  0.000  0.572
 
band     9 # energy    4.17892203 # occ.  2.00000000
 
ion      s     py     pz     px    dxy    dyz    dz2    dxz  x2-y2    tot
    1  0.000  0.000  0.000  0.000  0.000  0.000  0.403  0.000  0.000  0.403
    2  0.000  0.000  0.000  0.000  0.000  0.000  0.403  0.000  0.000  0.403
tot    0.000  0.000  0.000  0.000  0.000  0.000  0.805  0.000  0.000  0.805
 
band    10 # energy    4.48686249 # occ.  2.00000000
 
ion      s     py     pz     px    dxy    dyz    dz2    dxz  x2-y2    tot
    1  0.000  0.000  0.000  0.000  0.103  0.000  0.000  0.000  0.309  0.412
    2  0.000  0.000  0.000  0.000  0.103  0.000  0.000  0.000  0.309  0.412
tot    0.000  0.000  0.000  0.000  0.206  0.000  0.000  0.000  0.619  0.825
 
band    11 # energy    4.48686314 # occ.  2.00000000
 
ion      s     py     pz     px    dxy    dyz    dz2    dxz  x2-y2    tot
    1  0.000  0.000  0.000  0.000  0.309  0.000  0.000  0.000  0.103  0.412
    2  0.000  0.000  0.000  0.000  0.309  0.000  0.000  0.000  0.103  0.412
tot    0.000  0.000  0.000  0.000  0.619  0.000  0.000  0.000  0.206  0.825
 
band    12 # energy    4.70963406 # occ.  2.00000000
 
ion      s     py     pz     px    dxy    dyz    dz2    dxz  x2-y2    tot
    1  0.000  0.000  0.000  0.000  0.105  0.000  0.000  0.000  0.315  0.421
    2  0.000  0.000  0.000  0.000  0.105  0.000  0.000  0.000  0.315  0.421
tot    0.000  0.000  0.000  0.000  0.210  0.000  0.000  0.000  0.631  0.841
 
band    13 # energy    4.70963473 # occ.  2.00000000
 
ion      s     py     pz     px    dxy    dyz    dz2    dxz  x2-y2    tot
    1  0.000  0.000  0.000  0.000  0.315  0.000  0.000  0.000  0.105  0.421
    2  0.000  0.000  0.000  0.000  0.315  0.000  0.000  0.000  0.105  0.421
tot    0.000  0.000  0.000  0.000  0.631  0.000  0.000  0.000  0.210  0.841
 
band    14 # energy    5.52931696 # occ.  2.00000000
 
ion      s     py     pz     px    dxy    dyz    dz2    dxz  x2-y2    tot
    1  0.000  0.000  0.000  0.000  0.000  0.326  0.000  0.109  0.000  0.434
    2  0.000  0.000  0.000  0.000  0.000  0.326  0.000  0.109  0.000  0.434
tot    0.000  0.000  0.000  0.000  0.000  0.652  0.000  0.217  0.000  0.869
 
band    15 # energy    5.52931704 # occ.  2.00000000
 
ion      s     py     pz     px    dxy    dyz    dz2    dxz  x2-y2    tot
    1  0.000  0.000  0.000  0.000  0.000  0.109  0.000  0.326  0.000  0.434
    2  0.000  0.000  0.000  0.000  0.000  0.109  0.000  0.326  0.000  0.434
tot    0.000  0.000  0.000  0.000  0.000  0.217  0.000  0.652  0.000  0.869
 
band    16 # energy    6.51863346 # occ.  1.99966655
 
ion      s     py     pz     px    dxy    dyz    dz2    dxz  x2-y2    tot
    1  0.000  0.000  0.000  0.000  0.000  0.342  0.000  0.114  0.000  0.456
    2  0.000  0.000  0.000  0.000  0.000  0.342  0.000  0.114  0.000  0.456
tot    0.000  0.000  0.000  0.000  0.000  0.684  0.000  0.228  0.000  0.912
 
band    17 # energy    6.51863354 # occ.  1.99966654
 
ion      s     py     pz     px    dxy    dyz    dz2    dxz  x2-y2    tot
    1  0.000  0.000  0.000  0.000  0.000  0.114  0.000  0.342  0.000  0.456
    2  0.000  0.000  0.000  0.000  0.000  0.114  0.000  0.342  0.000  0.456
tot    0.000  0.000  0.000  0.000  0.000  0.228  0.000  0.684  0.000  0.912
 
band    18 # energy    7.08563120 # occ.  0.00000000
 
ion      s     py     pz     px    dxy    dyz    dz2    dxz  x2-y2    tot
    1  0.000  0.000  0.060  0.000  0.000  0.000  0.000  0.000  0.000  0.060
    2  0.000  0.000  0.060  0.000  0.000  0.000  0.000  0.000  0.000  0.060
tot    0.000  0.000  0.120  0.000  0.000  0.000  0.000  0.000  0.000  0.120
 
band    19 # energy    9.85192404 # occ.  0.00000000
 
ion      s     py     pz     px    dxy    dyz    dz2    dxz  x2-y2    tot
    1  0.151  0.000  0.000  0.000  0.000  0.000  0.223  0.000  0.000  0.374
    2  0.151  0.000  0.000  0.000  0.000  0.000  0.223  0.000  0.000  0.374
tot    0.302  0.000  0.000  0.000  0.000  0.000  0.447  0.000  0.000  0.748
 
band    20 # energy   21.77036046 # occ.  0.00000000
 
ion      s     py     pz     px    dxy    dyz    dz2    dxz  x2-y2    tot
    1  0.004  0.000  0.000  0.000  0.000  0.000  0.002  0.000  0.000  0.006
    2  0.004  0.000  0.000  0.000  0.000  0.000  0.002  0.000  0.000  0.006
tot    0.007  0.000  0.000  0.000  0.000  0.000  0.004  0.000  0.000  0.012
 
band    21 # energy   21.96200622 # occ.  0.00000000
 
ion      s     py     pz     px    dxy    dyz    dz2    dxz  x2-y2    tot
    1  0.000  0.000  0.030  0.000  0.000  0.000  0.000  0.000  0.000  0.030
    2  0.000  0.000  0.030  0.000  0.000  0.000  0.000  0.000  0.000  0.030
tot    0.000  0.000  0.059  0.000  0.000  0.000  0.000  0.000  0.000  0.059
 
band    22 # energy   23.49403770 # occ.  0.00000000
 
ion      s     py     pz     px    dxy    dyz    dz2    dxz  x2-y2    tot
    1  0.002  0.000  0.000  0.000  0.000  0.000  0.015  0.000  0.000  0.016
    2  0.002  0.000  0.000  0.000  0.000  0.000  0.015  0.000  0.000  0.016
tot    0.004  0.000  0.000  0.000  0.000  0.000  0.029  0.000  0.000  0.033
 
band    23 # energy   24.69601418 # occ.  0.00000000
 
ion      s     py     pz     px    dxy    dyz    dz2    dxz  x2-y2    tot
    1  0.000  0.029  0.000  0.087  0.011  0.000  0.000  0.000  0.004  0.131
    2  0.000  0.029  0.000  0.087  0.011  0.000  0.000  0.000  0.004  0.131
tot    0.000  0.058  0.000  0.175  0.022  0.000  0.000  0.000  0.007  0.263
 
band    24 # energy   24.69601430 # occ.  0.00000000
 
ion      s     py     pz     px    dxy    dyz    dz2    dxz  x2-y2    tot
    1  0.000  0.087  0.000  0.029  0.004  0.000  0.000  0.000  0.011  0.131
    2  0.000  0.087  0.000  0.029  0.004  0.000  0.000  0.000  0.011  0.131
tot    0.000  0.175  0.000  0.058  0.007  0.000  0.000  0.000  0.022  0.263
 

 k-point     2 :    0.10000000-0.00000000 0.00000000     weight = 0.00750000

band     1 # energy  -45.04271449 # occ.  2.00000000
 
ion      s     py     pz     px    dxy    dyz    dz2    dxz  x2-y2    tot
    1  0.000  0.124  0.000  0.372  0.000  0.000  0.000  0.000  0.000  0.496
    2  0.000  0.124  0.000  0.372  0.000  0.000  0.000  0.000  0.000  0.496
tot    0.000  0.248  0.000  0.745  0.000  0.000  0.000  0.000  0.000  0.993
 
band     2 # energy  -45.03405393 # occ.  2.00000000
 
ion      s     py     pz     px    dxy    dyz    dz2    dxz  x2-y2    tot
    1  0.000  0.372  0.000  0.124  0.000  0.000  0.000  0.000  0.000  0.497
    2  0.000  0.372  0.000  0.124  0.000  0.000  0.000  0.000  0.000  0.497
tot    0.000  0.745  0.000  0.248  0.000  0.000  0.000  0.000  0.000  0.993
 
band     3 # energy  -45.02941247 # occ.  2.00000000
 
ion      s     py     pz     px    dxy    dyz    dz2    dxz  x2-y2    tot
    1  0.000  0.124  0.000  0.372  0.000  0.000  0.000  0.000  0.000  0.497
    2  0.000  0.124  0.000  0.372  0.000  0.000  0.000  0.000  0.000  0.497
tot    0.000  0.248  0.000  0.745  0.000  0.000  0.000  0.000  0.000  0.993
 
band     4 # energy  -45.01930530 # occ.  2.00000000
 
ion      s     py     pz     px    dxy    dyz    dz2    dxz  x2-y2    tot
    1  0.000  0.373  0.000  0.124  0.000  0.000  0.000  0.000  0.000  0.497
    2  0.000  0.373  0.000  0.124  0.000  0.000  0.000  0.000  0.000  0.497
tot    0.000  0.745  0.000  0.248  0.000  0.000  0.000  0.000  0.000  0.994
 
band     5 # energy  -45.00171016 # occ.  2.00000000
 
ion      s     py     pz     px    dxy    dyz    dz2    dxz  x2-y2    tot
    1  0.000  0.000  0.494  0.000  0.000  0.000  0.000  0.000  0.000  0.494
    2  0.000  0.000  0.494  0.000  0.000  0.000  0.000  0.000  0.000  0.494
tot    0.000  0.000  0.988  0.000  0.000  0.000  0.000  0.000  0.000  0.988
 
band     6 # energy  -44.89988889 # occ.  2.00000000
 
ion      s     py     pz     px    dxy    dyz    dz2    dxz  x2-y2    tot
    1  0.000  0.000  0.496  0.000  0.000  0.000  0.000  0.000  0.000  0.496
    2  0.000  0.000  0.496  0.000  0.000  0.000  0.000  0.000  0.000  0.496
tot    0.000  0.000  0.993  0.000  0.000  0.000  0.000  0.000  0.000  0.993
 
band     7 # energy   -0.16814985 # occ.  2.00000000
 
ion      s     py     pz     px    dxy    dyz    dz2    dxz  x2-y2    tot
    1  0.152  0.000  0.000  0.001  0.000  0.000  0.000  0.000  0.000  0.154
    2  0.152  0.000  0.000  0.001  0.000  0.000  0.000  0.000  0.000  0.154
tot    0.305  0.001  0.000  0.002  0.000  0.000  0.000  0.000  0.000  0.309
 
band     8 # energy    2.13167772 # occ.  2.00000000
 
ion      s     py     pz     px    dxy    dyz    dz2    dxz  x2-y2    tot
    1  0.062  0.000  0.000  0.001  0.001  0.000  0.224  0.000  0.000  0.290
    2  0.062  0.000  0.000  0.001  0.001  0.000  0.224  0.000  0.000  0.290
tot    0.125  0.001  0.000  0.002  0.003  0.000  0.448  0.000  0.001  0.579
 
band     9 # energy    4.13629360 # occ.  2.00000000
 
ion      s     py     pz     px    dxy    dyz    dz2    dxz  x2-y2    tot
    1  0.000  0.000  0.000  0.000  0.114  0.000  0.247  0.000  0.038  0.400
    2  0.000  0.000  0.000  0.000  0.114  0.000  0.247  0.000  0.038  0.400
tot    0.000  0.000  0.000  0.000  0.229  0.000  0.494  0.000  0.076  0.800
 
band    10 # energy    4.50277518 # occ.  2.00000000
 
ion      s     py     pz     px    dxy    dyz    dz2    dxz  x2-y2    tot
    1  0.000  0.000  0.000  0.000  0.210  0.000  0.130  0.000  0.070  0.411
    2  0.000  0.000  0.000  0.000  0.210  0.000  0.130  0.000  0.070  0.411
tot    0.000  0.000  0.000  0.000  0.420  0.000  0.260  0.000  0.140  0.821
 
band    11 # energy    4.62435264 # occ.  2.00000000
 
ion      s     py     pz     px    dxy    dyz    dz2    dxz  x2-y2    tot
    1  0.001  0.000  0.000  0.000  0.289  0.000  0.029  0.000  0.096  0.415
    2  0.001  0.000  0.000  0.000  0.289  0.000  0.029  0.000  0.096  0.415
tot    0.002  0.000  0.000  0.000  0.578  0.000  0.057  0.000  0.193  0.830
 
band    12 # energy    4.66752290 # occ.  2.00000000
 
ion      s     py     pz     px    dxy    dyz    dz2    dxz  x2-y2    tot
    1  0.000  0.000  0.000  0.000  0.104  0.000  0.000  0.000  0.311  0.415
    2  0.000  0.000  0.000  0.000  0.104  0.000  0.000  0.000  0.311  0.415
tot    0.000  0.000  0.000  0.000  0.207  0.000  0.000  0.000  0.622  0.830
 
band    13 # energy    4.87950836 # occ.  2.00000000
 
ion      s     py     pz     px    dxy    dyz    dz2    dxz  x2-y2    tot
    1  0.000  0.000  0.000  0.000  0.106  0.000  0.000  0.000  0.317  0.423
    2  0.000  0.000  0.000  0.000  0.106  0.000  0.000  0.000  0.317  0.423
tot    0.000  0.000  0.000  0.000  0.211  0.000  0.000  0.000  0.634  0.846
 
band    14 # energy    5.26493596 # occ.  2.00000000
 
ion      s     py     pz     px    dxy    dyz    dz2    dxz  x2-y2    tot
    1  0.000  0.000  0.004  0.000  0.000  0.098  0.000  0.293  0.000  0.395
    2  0.000  0.000  0.004  0.000  0.000  0.098  0.000  0.293  0.000  0.395
tot    0.000  0.000  0.008  0.000  0.000  0.196  0.000  0.587  0.000  0.790
 
band    15 # energy    5.42871635 # occ.  2.00000000
 
ion      s     py     pz     px    dxy    dyz    dz2    dxz  x2-y2    tot
    1  0.000  0.000  0.000  0.000  0.000  0.323  0.000  0.108  0.000  0.431
    2  0.000  0.000  0.000  0.000  0.000  0.323  0.000  0.108  0.000  0.431
tot    0.000  0.000  0.000  0.000  0.000  0.646  0.000  0.215  0.000  0.862
 
band    16 # energy    5.67628347 # occ.  2.00000000
 
ion      s     py     pz     px    dxy    dyz    dz2    dxz  x2-y2    tot
    1  0.000  0.000  0.013  0.000  0.000  0.083  0.000  0.250  0.000  0.347
    2  0.000  0.000  0.013  0.000  0.000  0.083  0.000  0.250  0.000  0.347
tot    0.000  0.000  0.026  0.000  0.000  0.167  0.000  0.500  0.000  0.693
 
band    17 # energy    6.55127667 # occ.  1.99229044
 
ion      s     py     pz     px    dxy    dyz    dz2    dxz  x2-y2    tot
    1  0.000  0.000  0.000  0.000  0.000  0.343  0.000  0.114  0.000  0.457
    2  0.000  0.000  0.000  0.000  0.000  0.343  0.000  0.114  0.000  0.457
tot    0.000  0.000  0.000  0.000  0.000  0.686  0.000  0.229  0.000  0.915
 
band    18 # energy    8.31295503 # occ.  0.00000000
 
ion      s     py     pz     px    dxy    dyz    dz2    dxz  x2-y2    tot
    1  0.000  0.000  0.043  0.000  0.000  0.040  0.000  0.120  0.000  0.203
    2  0.000  0.000  0.043  0.000  0.000  0.040  0.000  0.120  0.000  0.203
tot    0.000  0.000  0.086  0.000  0.000  0.080  0.000  0.239  0.000  0.405
 
band    19 # energy    9.84856103 # occ.  0.00000000
 
ion      s     py     pz     px    dxy    dyz    dz2    dxz  x2-y2    tot
    1  0.153  0.000  0.000  0.000  0.001  0.000  0.214  0.000  0.000  0.369
    2  0.153  0.000  0.000  0.000  0.001  0.000  0.214  0.000  0.000  0.369
tot    0.306  0.000  0.000  0.001  0.002  0.000  0.427  0.000  0.001  0.737
 
band    20 # energy   21.50951390 # occ.  0.00000000
 
ion      s     py     pz     px    dxy    dyz    dz2    dxz  x2-y2    tot
    1  0.010  0.007  0.000  0.022  0.024  0.000  0.007  0.000  0.008  0.078
    2  0.010  0.007  0.000  0.022  0.024  0.000  0.007  0.000  0.008  0.078
tot    0.019  0.014  0.000  0.043  0.049  0.000  0.014  0.000  0.016  0.156
 
band    21 # energy   22.37208584 # occ.  0.00000000
 
ion      s     py     pz     px    dxy    dyz    dz2    dxz  x2-y2    tot
    1  0.000  0.000  0.028  0.000  0.000  0.001  0.000  0.004  0.000  0.032
    2  0.000  0.000  0.028  0.000  0.000  0.001  0.000  0.004  0.000  0.032
tot    0.000  0.000  0.055  0.000  0.000  0.002  0.000  0.007  0.000  0.065
 
band    22 # energy   22.76267835 # occ.  0.00000000
 
ion      s     py     pz     px    dxy    dyz    dz2    dxz  x2-y2    tot
    1  0.009  0.010  0.000  0.030  0.012  0.000  0.016  0.000  0.004  0.081
    2  0.009  0.010  0.000  0.030  0.012  0.000  0.016  0.000  0.004  0.081
tot    0.018  0.020  0.000  0.061  0.023  0.000  0.032  0.000  0.008  0.161
 
band    23 # energy   23.41201976 # occ.  0.00000000
 
ion      s     py     pz     px    dxy    dyz    dz2    dxz  x2-y2    tot
    1  0.000  0.076  0.000  0.025  0.007  0.000  0.000  0.000  0.022  0.131
    2  0.000  0.076  0.000  0.025  0.007  0.000  0.000  0.000  0.022  0.131
tot    0.000  0.152  0.000  0.051  0.015  0.000  0.000  0.000  0.044  0.262
 
band    24 # energy   24.42284626 # occ.  0.00000000
 
ion      s     py     pz     px    dxy    dyz    dz2    dxz  x2-y2    tot
    1  0.001  0.008  0.000  0.023  0.003  0.000  0.002  0.000  0.001  0.038
    2  0.001  0.008  0.000  0.023  0.003  0.000  0.002  0.000  0.001  0.038
tot    0.002  0.016  0.000  0.047  0.006  0.000  0.004  0.000  0.002  0.076
 

 k-point     3 :    0.20000000-0.00000000 0.00000000     weight = 0.00750000

band     1 # energy  -45.07456883 # occ.  2.00000000
 
ion      s     py     pz     px    dxy    dyz    dz2    dxz  x2-y2    tot
    1  0.000  0.124  0.000  0.372  0.000  0.000  0.000  0.000  0.000  0.496
    2  0.000  0.124  0.000  0.372  0.000  0.000  0.000  0.000  0.000  0.496
tot    0.000  0.248  0.000  0.744  0.000  0.000  0.000  0.000  0.000  0.991
 
band     2 # energy  -45.06126948 # occ.  2.00000000
 
ion      s     py     pz     px    dxy    dyz    dz2    dxz  x2-y2    tot
    1  0.000  0.124  0.000  0.372  0.000  0.000  0.000  0.000  0.000  0.496
    2  0.000  0.124  0.000  0.372  0.000  0.000  0.000  0.000  0.000  0.496
tot    0.000  0.248  0.000  0.744  0.000  0.000  0.000  0.000  0.000  0.992
 
band     3 # energy  -45.04341453 # occ.  2.00000000
 
ion      s     py     pz     px    dxy    dyz    dz2    dxz  x2-y2    tot
    1  0.000  0.372  0.000  0.124  0.000  0.000  0.000  0.000  0.000  0.496
    2  0.000  0.372  0.000  0.124  0.000  0.000  0.000  0.000  0.000  0.496
tot    0.000  0.745  0.000  0.248  0.000  0.000  0.000  0.000  0.000  0.993
 
band     4 # energy  -45.02632939 # occ.  2.00000000
 
ion      s     py     pz     px    dxy    dyz    dz2    dxz  x2-y2    tot
    1  0.000  0.373  0.000  0.124  0.000  0.000  0.000  0.000  0.000  0.497
    2  0.000  0.373  0.000  0.124  0.000  0.000  0.000  0.000  0.000  0.497
tot    0.000  0.745  0.000  0.248  0.000  0.000  0.000  0.000  0.000  0.993
 
band     5 # energy  -44.99119280 # occ.  2.00000000
 
ion      s     py     pz     px    dxy    dyz    dz2    dxz  x2-y2    tot
    1  0.000  0.000  0.494  0.000  0.000  0.000  0.000  0.000  0.000  0.494
    2  0.000  0.000  0.494  0.000  0.000  0.000  0.000  0.000  0.000  0.494
tot    0.000  0.000  0.989  0.000  0.000  0.000  0.000  0.000  0.000  0.989
 
band     6 # energy  -44.90275200 # occ.  2.00000000
 
ion      s     py     pz     px    dxy    dyz    dz2    dxz  x2-y2    tot
    1  0.000  0.000  0.496  0.000  0.000  0.000  0.000  0.000  0.000  0.496
    2  0.000  0.000  0.496  0.000  0.000  0.000  0.000  0.000  0.000  0.496
tot    0.000  0.000  0.993  0.000  0.000  0.000  0.000  0.000  0.000  0.993
 
band     7 # energy    0.61075398 # occ.  2.00000000
 
ion      s     py     pz     px    dxy    dyz    dz2    dxz  x2-y2    tot
    1  0.144  0.001  0.000  0.004  0.005  0.000  0.000  0.000  0.002  0.155
    2  0.144  0.001  0.000  0.004  0.005  0.000  0.000  0.000  0.002  0.155
tot    0.288  0.002  0.000  0.007  0.009  0.000  0.001  0.000  0.003  0.311
 
band     8 # energy    2.68793610 # occ.  2.00000000
 
ion      s     py     pz     px    dxy    dyz    dz2    dxz  x2-y2    tot
    1  0.043  0.001  0.000  0.002  0.033  0.000  0.218  0.000  0.011  0.309
    2  0.043  0.001  0.000  0.002  0.033  0.000  0.218  0.000  0.011  0.309
tot    0.086  0.002  0.000  0.005  0.066  0.000  0.436  0.000  0.022  0.617
 
band     9 # energy    3.99862293 # occ.  2.00000000
 
ion      s     py     pz     px    dxy    dyz    dz2    dxz  x2-y2    tot
    1  0.002  0.001  0.000  0.002  0.185  0.000  0.129  0.000  0.062  0.380
    2  0.002  0.001  0.000  0.002  0.185  0.000  0.129  0.000  0.062  0.380
tot    0.004  0.001  0.000  0.003  0.370  0.000  0.257  0.000  0.123  0.760
 
band    10 # energy    4.32407542 # occ.  2.00000000
 
ion      s     py     pz     px    dxy    dyz    dz2    dxz  x2-y2    tot
    1  0.004  0.000  0.000  0.001  0.259  0.000  0.048  0.000  0.086  0.398
    2  0.004  0.000  0.000  0.001  0.259  0.000  0.048  0.000  0.086  0.398
tot    0.007  0.000  0.000  0.001  0.518  0.000  0.096  0.000  0.173  0.796
 
band    11 # energy    4.41115120 # occ.  2.00000000
 
ion      s     py     pz     px    dxy    dyz    dz2    dxz  x2-y2    tot
    1  0.000  0.000  0.009  0.000  0.000  0.082  0.000  0.245  0.000  0.335
    2  0.000  0.000  0.009  0.000  0.000  0.082  0.000  0.245  0.000  0.335
tot    0.000  0.000  0.018  0.000  0.000  0.163  0.000  0.490  0.000  0.671
 
band    12 # energy    4.90458477 # occ.  2.00000000
 
ion      s     py     pz     px    dxy    dyz    dz2    dxz  x2-y2    tot
    1  0.002  0.000  0.000  0.001  0.109  0.000  0.265  0.000  0.036  0.413
    2  0.002  0.000  0.000  0.001  0.109  0.000  0.265  0.000  0.036  0.413
tot    0.005  0.001  0.000  0.002  0.218  0.000  0.529  0.000  0.073  0.827
 
band    13 # energy    5.17287246 # occ.  2.00000000
 
ion      s     py     pz     px    dxy    dyz    dz2    dxz  x2-y2    tot
    1  0.000  0.000  0.000  0.000  0.106  0.000  0.000  0.000  0.317  0.423
    2  0.000  0.000  0.000  0.000  0.106  0.000  0.000  0.000  0.317  0.423
tot    0.000  0.001  0.000  0.000  0.211  0.000  0.000  0.000  0.634  0.847
 
band    14 # energy    5.20040877 # occ.  2.00000000
 
ion      s     py     pz     px    dxy    dyz    dz2    dxz  x2-y2    tot
    1  0.000  0.000  0.000  0.000  0.000  0.318  0.000  0.106  0.000  0.423
    2  0.000  0.000  0.000  0.000  0.000  0.318  0.000  0.106  0.000  0.423
tot    0.000  0.000  0.000  0.000  0.000  0.635  0.000  0.212  0.000  0.847
 
band    15 # energy    5.26770972 # occ.  2.00000000
 
ion      s     py     pz     px    dxy    dyz    dz2    dxz  x2-y2    tot
    1  0.000  0.000  0.005  0.000  0.000  0.096  0.000  0.288  0.000  0.390
    2  0.000  0.000  0.005  0.000  0.000  0.096  0.000  0.288  0.000  0.390
tot    0.000  0.000  0.011  0.000  0.000  0.192  0.000  0.577  0.000  0.779
 
band    16 # energy    5.35337674 # occ.  2.00000000
 
ion      s     py     pz     px    dxy    dyz    dz2    dxz  x2-y2    tot
    1  0.000  0.000  0.000  0.000  0.108  0.000  0.000  0.000  0.323  0.431
    2  0.000  0.000  0.000  0.000  0.108  0.000  0.000  0.000  0.323  0.431
tot    0.000  0.001  0.000  0.000  0.215  0.000  0.000  0.000  0.645  0.862
 
band    17 # energy    6.60444863 # occ.  1.75419614
 
ion      s     py     pz     px    dxy    dyz    dz2    dxz  x2-y2    tot
    1  0.000  0.000  0.000  0.000  0.000  0.345  0.000  0.115  0.000  0.460
    2  0.000  0.000  0.000  0.000  0.000  0.345  0.000  0.115  0.000  0.460
tot    0.000  0.000  0.000  0.000  0.000  0.690  0.000  0.230  0.000  0.920
 
band    18 # energy    9.88329313 # occ.  0.00000000
 
ion      s     py     pz     px    dxy    dyz    dz2    dxz  x2-y2    tot
    1  0.160  0.001  0.000  0.002  0.004  0.000  0.180  0.000  0.001  0.349
    2  0.160  0.001  0.000  0.002  0.004  0.000  0.180  0.000  0.001  0.349
tot    0.320  0.001  0.000  0.004  0.008  0.000  0.361  0.000  0.003  0.697
 
band    19 # energy    9.97590584 # occ.  0.00000000
 
ion      s     py     pz     px    dxy    dyz    dz2    dxz  x2-y2    tot
    1  0.000  0.000  0.048  0.000  0.000  0.039  0.000  0.118  0.000  0.205
    2  0.000  0.000  0.048  0.000  0.000  0.039  0.000  0.118  0.000  0.205
tot    0.000  0.000  0.096  0.000  0.000  0.079  0.000  0.236  0.000  0.410
 
band    20 # energy   18.52693789 # occ.  0.00000000
 
ion      s     py     pz     px    dxy    dyz    dz2    dxz  x2-y2    tot
    1  0.030  0.015  0.000  0.046  0.038  0.000  0.025  0.000  0.013  0.168
    2  0.030  0.015  0.000  0.046  0.038  0.000  0.025  0.000  0.013  0.168
tot    0.060  0.031  0.000  0.093  0.077  0.000  0.050  0.000  0.026  0.336
 
band    21 # energy   21.40723082 # occ.  0.00000000
 
ion      s     py     pz     px    dxy    dyz    dz2    dxz  x2-y2    tot
    1  0.000  0.070  0.000  0.023  0.008  0.000  0.000  0.000  0.025  0.127
    2  0.000  0.070  0.000  0.023  0.008  0.000  0.000  0.000  0.025  0.127
tot    0.000  0.139  0.000  0.046  0.017  0.000  0.000  0.000  0.051  0.253
 
band    22 # energy   22.88303069 # occ.  0.00000000
 
ion      s     py     pz     px    dxy    dyz    dz2    dxz  x2-y2    tot
    1  0.000  0.000  0.022  0.000  0.000  0.004  0.000  0.011  0.000  0.036
    2  0.000  0.000  0.022  0.000  0.000  0.004  0.000  0.011  0.000  0.036
tot    0.000  0.000  0.044  0.000  0.000  0.007  0.000  0.021  0.000  0.072
 
band    23 # energy   23.23539324 # occ.  0.00000000
 
ion      s     py     pz     px    dxy    dyz    dz2    dxz  x2-y2    tot
    1  0.008  0.002  0.000  0.006  0.035  0.000  0.013  0.000  0.012  0.076
    2  0.008  0.002  0.000  0.006  0.035  0.000  0.013  0.000  0.012  0.076
tot    0.017  0.004  0.000  0.011  0.070  0.000  0.027  0.000  0.023  0.152
 
band    24 # energy   23.61869192 # occ.  0.00000000
 
ion      s     py     pz     px    dxy    dyz    dz2    dxz  x2-y2    tot
    1  0.000  0.000  0.001  0.000  0.000  0.013  0.000  0.040  0.000  0.055
    2  0.000  0.000  0.001  0.000  0.000  0.013  0.000  0.040  0.000  0.055
tot    0.000  0.000  0.003  0.000  0.000  0.027  0.000  0.080  0.000  0.110
 

 k-point     4 :    0.30000000-0.00000000 0.00000000     weight = 0.00750000

band     1 # energy  -45.11363154 # occ.  2.00000000
 
ion      s     py     pz     px    dxy    dyz    dz2    dxz  x2-y2    tot
    1  0.000  0.124  0.000  0.371  0.000  0.000  0.000  0.000  0.000  0.495
    2  0.000  0.124  0.000  0.371  0.000  0.000  0.000  0.000  0.000  0.495
tot    0.000  0.247  0.000  0.742  0.000  0.000  0.000  0.000  0.000  0.990
 
band     2 # energy  -45.10124838 # occ.  2.00000000
 
ion      s     py     pz     px    dxy    dyz    dz2    dxz  x2-y2    tot
    1  0.000  0.124  0.000  0.371  0.000  0.000  0.000  0.000  0.000  0.495
    2  0.000  0.124  0.000  0.371  0.000  0.000  0.000  0.000  0.000  0.495
tot    0.000  0.248  0.000  0.743  0.000  0.000  0.000  0.000  0.000  0.990
 
band     3 # energy  -45.05519748 # occ.  2.00000000
 
ion      s     py     pz     px    dxy    dyz    dz2    dxz  x2-y2    tot
    1  0.000  0.372  0.000  0.124  0.000  0.000  0.000  0.000  0.000  0.496
    2  0.000  0.372  0.000  0.124  0.000  0.000  0.000  0.000  0.000  0.496
tot    0.000  0.744  0.000  0.248  0.000  0.000  0.000  0.000  0.000  0.992
 
band     4 # energy  -45.03537203 # occ.  2.00000000
 
ion      s     py     pz     px    dxy    dyz    dz2    dxz  x2-y2    tot
    1  0.000  0.372  0.000  0.124  0.000  0.000  0.000  0.000  0.000  0.497
    2  0.000  0.372  0.000  0.124  0.000  0.000  0.000  0.000  0.000  0.497
tot    0.000  0.745  0.000  0.248  0.000  0.000  0.000  0.000  0.000  0.993
 
band     5 # energy  -44.97670654 # occ.  2.00000000
 
ion      s     py     pz     px    dxy    dyz    dz2    dxz  x2-y2    tot
    1  0.000  0.000  0.495  0.000  0.000  0.000  0.000  0.000  0.000  0.495
    2  0.000  0.000  0.495  0.000  0.000  0.000  0.000  0.000  0.000  0.495
tot    0.000  0.000  0.990  0.000  0.000  0.000  0.000  0.000  0.000  0.990
 
band     6 # energy  -44.90793638 # occ.  2.00000000
 
ion      s     py     pz     px    dxy    dyz    dz2    dxz  x2-y2    tot
    1  0.000  0.000  0.496  0.000  0.000  0.000  0.000  0.000  0.000  0.496
    2  0.000  0.000  0.496  0.000  0.000  0.000  0.000  0.000  0.000  0.496
tot    0.000  0.000  0.993  0.000  0.000  0.000  0.000  0.000  0.000  0.993
 
band     7 # energy    1.63109414 # occ.  2.00000000
 
ion      s     py     pz     px    dxy    dyz    dz2    dxz  x2-y2    tot
    1  0.119  0.002  0.000  0.006  0.038  0.000  0.005  0.000  0.013  0.182
    2  0.119  0.002  0.000  0.006  0.038  0.000  0.005  0.000  0.013  0.182
tot    0.238  0.004  0.000  0.011  0.077  0.000  0.009  0.000  0.026  0.364
 
band     8 # energy    2.85630736 # occ.  2.00000000
 
ion      s     py     pz     px    dxy    dyz    dz2    dxz  x2-y2    tot
    1  0.017  0.000  0.000  0.001  0.155  0.000  0.120  0.000  0.052  0.345
    2  0.017  0.000  0.000  0.001  0.155  0.000  0.120  0.000  0.052  0.345
tot    0.034  0.000  0.000  0.001  0.310  0.000  0.241  0.000  0.103  0.690
 
band     9 # energy    3.69844646 # occ.  2.00000000
 
ion      s     py     pz     px    dxy    dyz    dz2    dxz  x2-y2    tot
    1  0.000  0.000  0.006  0.000  0.000  0.082  0.000  0.246  0.000  0.334
    2  0.000  0.000  0.006  0.000  0.000  0.082  0.000  0.246  0.000  0.334
tot    0.000  0.000  0.012  0.000  0.000  0.164  0.000  0.492  0.000  0.667
 
band    10 # energy    4.18253169 # occ.  2.00000000
 
ion      s     py     pz     px    dxy    dyz    dz2    dxz  x2-y2    tot
    1  0.011  0.001  0.000  0.004  0.219  0.000  0.045  0.000  0.073  0.353
    2  0.011  0.001  0.000  0.004  0.219  0.000  0.045  0.000  0.073  0.353
tot    0.021  0.003  0.000  0.009  0.439  0.000  0.089  0.000  0.146  0.707
 
band    11 # energy    4.39753112 # occ.  2.00000000
 
ion      s     py     pz     px    dxy    dyz    dz2    dxz  x2-y2    tot