<?xml version="1.0" encoding="ISO-8859-1"?>
<modeling>
 <generator>
  <i name="program" type="string">vasp </i>
  <i name="version" type="string">6.3.2  </i>
  <i name="subversion" type="string">27Jun22 (build Aug 12 2022 00:53:59) complex                          parallel </i>
  <i name="platform" type="string">tv2STD </i>
  <i name="date" type="string">2024 12 03 </i>
  <i name="time" type="string">01:39:30 </i>
 </generator>
 <incar>
  <i type="string" name="SYSTEM">Pt-hcc</i>
  <i type="int" name="ISTART">     0</i>
  <i type="string" name="PREC">Accurate      normal | accurate</i>
  <i type="string" name="ALGO">Normal     Normal, Fast, Very_Fast</i>
  <i type="logical" name="ADDGRID"> F  </i>
  <i type="int" name="ICHARG">     2</i>
  <i type="int" name="INIWAV">     1</i>
  <i type="int" name="NELM">   100</i>
  <i type="int" name="IBRION">     2</i>
  <i name="EDIFF">      0.00000100</i>
  <i name="EDIFFG">     -0.02000000</i>
  <i type="int" name="NSW">   100</i>
  <i type="int" name="ISIF">     2</i>
  <i type="int" name="ISYM">     1</i>
  <i name="ENCUT">    450.00000000</i>
  <i type="logical" name="LREAL"> F  </i>
  <i type="int" name="ISMEAR">     0</i>
  <i name="SIGMA">      0.05000000</i>
  <i type="int" name="NWRITE">     2</i>
  <i type="logical" name="LWAVE"> T  </i>
  <i type="logical" name="LCHARG"> T  </i>
  <i type="int" name="LORBIT">    11</i>
 </incar>
 <primitive_cell>
  <structure name="primitive_cell" >
   <crystal>
    <varray name="basis" >
     <v>       3.02826933       0.00000000       0.00000000 </v>
     <v>      -1.51413467       2.62255817       0.00000000 </v>
     <v>       0.00000000       0.00000000       5.24640605 </v>
    </varray>
    <i name="volume">     41.66597309 </i>
    <varray name="rec_basis" >
     <v>       0.33022162       0.19065354       0.00000000 </v>
     <v>       0.00000000       0.38130708       0.00000000 </v>
     <v>       0.00000000       0.00000000       0.19060667 </v>
    </varray>
   </crystal>
   <varray name="positions" >
    <v>       0.00000000       0.00000000       0.00000000 </v>
    <v>       0.33333333       0.66666667       0.50000000 </v>
   </varray>
  </structure>
  <varray name="primitive_index" >
   <v type="int" >        1 </v>
   <v type="int" >        2 </v>
  </varray>
 </primitive_cell>
 <kpoints>
  <generation param="Gamma">
   <v type="int" name="divisions">      10       10        8 </v>
   <v name="usershift">      0.00000000       0.00000000       0.00000000 </v>
   <v name="genvec1">      0.10000000       0.00000000       0.00000000 </v>
   <v name="genvec2">      0.00000000       0.10000000       0.00000000 </v>
   <v name="genvec3">      0.00000000       0.00000000       0.12500000 </v>
   <v name="shift">      0.00000000       0.00000000       0.00000000 </v>
  </generation>
  <varray name="kpointlist" >
   <v>       0.00000000       0.00000000       0.00000000 </v>
   <v>       0.10000000      -0.00000000       0.00000000 </v>
   <v>       0.20000000      -0.00000000       0.00000000 </v>
   <v>       0.30000000      -0.00000000       0.00000000 </v>
   <v>       0.40000000      -0.00000000       0.00000000 </v>
   <v>       0.50000000      -0.00000000       0.00000000 </v>
   <v>       0.10000000       0.10000000       0.00000000 </v>
   <v>       0.20000000       0.10000000       0.00000000 </v>
   <v>       0.30000000       0.10000000       0.00000000 </v>
   <v>       0.40000000       0.10000000       0.00000000 </v>
   <v>       0.20000000       0.20000000       0.00000000 </v>
   <v>       0.30000000       0.20000000       0.00000000 </v>
   <v>       0.40000000       0.20000000       0.00000000 </v>
   <v>       0.30000000       0.30000000       0.00000000 </v>
   <v>       0.00000000       0.00000000       0.12500000 </v>
   <v>       0.10000000      -0.00000000       0.12500000 </v>
   <v>       0.20000000      -0.00000000       0.12500000 </v>
   <v>       0.30000000      -0.00000000       0.12500000 </v>
   <v>       0.40000000      -0.00000000       0.12500000 </v>
   <v>       0.50000000      -0.00000000       0.12500000 </v>
   <v>       0.10000000       0.10000000       0.12500000 </v>
   <v>       0.20000000       0.10000000       0.12500000 </v>
   <v>       0.30000000       0.10000000       0.12500000 </v>
   <v>       0.40000000       0.10000000       0.12500000 </v>
   <v>       0.20000000       0.20000000       0.12500000 </v>
   <v>       0.30000000       0.20000000       0.12500000 </v>
   <v>       0.40000000       0.20000000       0.12500000 </v>
   <v>       0.30000000       0.30000000       0.12500000 </v>
   <v>       0.00000000       0.00000000       0.25000000 </v>
   <v>       0.10000000      -0.00000000       0.25000000 </v>
   <v>       0.20000000      -0.00000000       0.25000000 </v>
   <v>       0.30000000      -0.00000000       0.25000000 </v>
   <v>       0.40000000      -0.00000000       0.25000000 </v>
   <v>       0.50000000      -0.00000000       0.25000000 </v>
   <v>       0.10000000       0.10000000       0.25000000 </v>
   <v>       0.20000000       0.10000000       0.25000000 </v>
   <v>       0.30000000       0.10000000       0.25000000 </v>
   <v>       0.40000000       0.10000000       0.25000000 </v>
   <v>       0.20000000       0.20000000       0.25000000 </v>
   <v>       0.30000000       0.20000000       0.25000000 </v>
   <v>       0.40000000       0.20000000       0.25000000 </v>
   <v>       0.30000000       0.30000000       0.25000000 </v>
   <v>       0.00000000       0.00000000       0.37500000 </v>
   <v>       0.10000000      -0.00000000       0.37500000 </v>
   <v>       0.20000000      -0.00000000       0.37500000 </v>
   <v>       0.30000000      -0.00000000       0.37500000 </v>
   <v>       0.40000000      -0.00000000       0.37500000 </v>
   <v>       0.50000000      -0.00000000       0.37500000 </v>
   <v>       0.10000000       0.10000000       0.37500000 </v>
   <v>       0.20000000       0.10000000       0.37500000 </v>
   <v>       0.30000000       0.10000000       0.37500000 </v>
   <v>       0.40000000       0.10000000       0.37500000 </v>
   <v>       0.20000000       0.20000000       0.37500000 </v>
   <v>       0.30000000       0.20000000       0.37500000 </v>
   <v>       0.40000000       0.20000000       0.37500000 </v>
   <v>       0.30000000       0.30000000       0.37500000 </v>
   <v>       0.00000000       0.00000000       0.50000000 </v>
   <v>       0.10000000      -0.00000000       0.50000000 </v>
   <v>       0.20000000      -0.00000000       0.50000000 </v>
   <v>       0.30000000      -0.00000000       0.50000000 </v>
   <v>       0.40000000      -0.00000000       0.50000000 </v>
   <v>       0.50000000      -0.00000000       0.50000000 </v>
   <v>       0.10000000       0.10000000       0.50000000 </v>
   <v>       0.20000000       0.10000000       0.50000000 </v>
   <v>       0.30000000       0.10000000       0.50000000 </v>
   <v>       0.40000000       0.10000000       0.50000000 </v>
   <v>       0.20000000       0.20000000       0.50000000 </v>
   <v>       0.30000000       0.20000000       0.50000000 </v>
   <v>       0.40000000       0.20000000       0.50000000 </v>
   <v>       0.30000000       0.30000000       0.50000000 </v>
  </varray>
  <varray name="weights" >
   <v>       0.00125000 </v>
   <v>       0.00750000 </v>
   <v>       0.00750000 </v>
   <v>       0.00750000 </v>
   <v>       0.00750000 </v>
   <v>       0.00375000 </v>
   <v>       0.00750000 </v>
   <v>       0.01500000 </v>
   <v>       0.01500000 </v>
   <v>       0.01500000 </v>
   <v>       0.00750000 </v>
   <v>       0.01500000 </v>
   <v>       0.00750000 </v>
   <v>       0.00750000 </v>
   <v>       0.00250000 </v>
   <v>       0.01500000 </v>
   <v>       0.01500000 </v>
   <v>       0.01500000 </v>
   <v>       0.01500000 </v>
   <v>       0.00750000 </v>
   <v>       0.01500000 </v>
   <v>       0.03000000 </v>
   <v>       0.03000000 </v>
   <v>       0.03000000 </v>
   <v>       0.01500000 </v>
   <v>       0.03000000 </v>
   <v>       0.01500000 </v>
   <v>       0.01500000 </v>
   <v>       0.00250000 </v>
   <v>       0.01500000 </v>
   <v>       0.01500000 </v>
   <v>       0.01500000 </v>
   <v>       0.01500000 </v>
   <v>       0.00750000 </v>
   <v>       0.01500000 </v>
   <v>       0.03000000 </v>
   <v>       0.03000000 </v>
   <v>       0.03000000 </v>
   <v>       0.01500000 </v>
   <v>       0.03000000 </v>
   <v>       0.01500000 </v>
   <v>       0.01500000 </v>
   <v>       0.00250000 </v>
   <v>       0.01500000 </v>
   <v>       0.01500000 </v>
   <v>       0.01500000 </v>
   <v>       0.01500000 </v>
   <v>       0.00750000 </v>
   <v>       0.01500000 </v>
   <v>       0.03000000 </v>
   <v>       0.03000000 </v>
   <v>       0.03000000 </v>
   <v>       0.01500000 </v>
   <v>       0.03000000 </v>
   <v>       0.01500000 </v>
   <v>       0.01500000 </v>
   <v>       0.00125000 </v>
   <v>       0.00750000 </v>
   <v>       0.00750000 </v>
   <v>       0.00750000 </v>
   <v>       0.00750000 </v>
   <v>       0.00375000 </v>
   <v>       0.00750000 </v>
   <v>       0.01500000 </v>
   <v>       0.01500000 </v>
   <v>       0.01500000 </v>
   <v>       0.00750000 </v>
   <v>       0.01500000 </v>
   <v>       0.00750000 </v>
   <v>       0.00750000 </v>
  </varray>
 </kpoints>
 <parameters>
  <separator name="general" >
   <i type="string" name="SYSTEM">Pt-hcc</i>
   <i type="logical" name="LCOMPAT"> F  </i>
  </separator>
  <separator name="electronic" >
   <i type="string" name="PREC">accura</i>
   <i name="ENMAX">    450.00000000</i>
   <i name="ENAUG">    527.01400000</i>
   <i name="EDIFF">      0.00000100</i>
   <i type="int" name="IALGO">    38</i>
   <i type="int" name="IWAVPR">    11</i>
   <i type="int" name="NBANDS">    24</i>
   <i type="int" name="NBANDSLOW">    -1</i>
   <i type="int" name="NBANDSHIGH">    -1</i>
   <i name="NELECT">     32.00000000</i>
   <i type="int" name="TURBO">     0</i>
   <i type="int" name="IRESTART">     0</i>
   <i type="int" name="NREBOOT">     0</i>
   <i type="int" name="NMIN">     0</i>
   <i name="EREF">      0.00000000</i>
   <separator name="electronic smearing" >
    <i type="int" name="ISMEAR">     0</i>
    <i name="SIGMA">      0.05000000</i>
    <i name="KSPACING">      0.50000000</i>
    <i type="logical" name="KGAMMA"> T  </i>
    <i type="logical" name="KBLOWUP"> T  </i>
   </separator>
   <separator name="electronic projectors" >
    <i type="logical" name="LREAL"> F  </i>
    <v name="ROPT">      0.00000000</v>
    <i type="int" name="LMAXPAW">  -100</i>
    <i type="int" name="LMAXMIX">     2</i>
    <i type="logical" name="NLSPLINE"> F  </i>
   </separator>
   <separator name="electronic startup" >
    <i type="int" name="ISTART">     0</i>
    <i type="int" name="ICHARG">     2</i>
    <i type="int" name="INIWAV">     1</i>
   </separator>
   <separator name="electronic spin" >
    <i type="int" name="ISPIN">     1</i>
    <i type="logical" name="LNONCOLLINEAR"> F  </i>
    <v name="MAGMOM">      1.00000000      1.00000000</v>
    <i name="NUPDOWN">     -1.00000000</i>
    <i type="logical" name="LSORBIT"> F  </i>
    <v name="SAXIS">      0.00000000      0.00000000      1.00000000</v>
    <i type="logical" name="LSPIRAL"> F  </i>
    <v name="QSPIRAL">      0.00000000      0.00000000      0.00000000</v>
    <i type="logical" name="LZEROZ"> F  </i>
   </separator>
   <separator name="electronic exchange-correlation" >
    <i type="logical" name="LASPH"> F  </i>
    <i type="logical" name="LMETAGGA"> F  </i>
   </separator>
   <separator name="electronic convergence" >
    <i type="int" name="NELM">   100</i>
    <i type="int" name="NELMDL">    -5</i>
    <i type="int" name="NELMIN">     2</i>
    <i name="ENINI">    450.00000000</i>
    <separator name="electronic convergence detail" >
     <i type="logical" name="LDIAG"> T  </i>
     <i type="logical" name="LSUBROT"> F  </i>
     <i name="WEIMIN">      0.00100000</i>
     <i name="EBREAK">      0.00000001</i>
     <i name="DEPER">      0.30000000</i>
     <i type="int" name="NRMM">     4</i>
     <i name="TIME">      0.40000000</i>
    </separator>
   </separator>
   <separator name="electronic mixer" >
    <i name="AMIX">      0.40000000</i>
    <i name="BMIX">      1.00000000</i>
    <i name="AMIN">      0.10000000</i>
    <i name="AMIX_MAG">      1.60000000</i>
    <i name="BMIX_MAG">      1.00000000</i>
    <separator name="electronic mixer details" >
     <i type="int" name="IMIX">     4</i>
     <i type="logical" name="MIXFIRST"> F  </i>
     <i type="int" name="MAXMIX">   -45</i>
     <i name="WC">    100.00000000</i>
     <i type="int" name="INIMIX">     1</i>
     <i type="int" name="MIXPRE">     1</i>
     <i type="int" name="MREMOVE">     5</i>
    </separator>
   </separator>
   <separator name="electronic dipolcorrection" >
    <i type="logical" name="LDIPOL"> F  </i>
    <i type="logical" name="LMONO"> F  </i>
    <i type="int" name="IDIPOL">     0</i>
    <i name="EPSILON">      1.00000000</i>
    <v name="DIPOL">   -100.00000000   -100.00000000   -100.00000000</v>
    <i name="EFIELD">      0.00000000</i>
   </separator>
  </separator>
  <separator name="grids" >
   <i type="int" name="NGX">    24</i>
   <i type="int" name="NGY">    24</i>
   <i type="int" name="NGZ">    36</i>
   <i type="int" name="NGXF">    48</i>
   <i type="int" name="NGYF">    48</i>
   <i type="int" name="NGZF">    72</i>
   <i type="logical" name="ADDGRID"> F  </i>
  </separator>
  <separator name="ionic" >
   <i type="int" name="NSW">   100</i>
   <i type="int" name="IBRION">     2</i>
   <i type="int" name="MDALGO">     0</i>
   <i type="int" name="ISIF">     2</i>
   <i name="PSTRESS">      0.00000000</i>
   <i name="EDIFFG">     -0.02000000</i>
   <i type="int" name="NFREE">     1</i>
   <i name="POTIM">      0.50000000</i>
   <i name="SMASS">     -3.00000000</i>
   <i name="SCALEE">      1.00000000</i>
  </separator>
  <separator name="ionic md" >
   <i name="TEBEG">      0.00010000</i>
   <i name="TEEND">      0.00010000</i>
   <i type="int" name="NBLOCK">     1</i>
   <i type="int" name="KBLOCK">   100</i>
   <i type="int" name="NPACO">   256</i>
   <i name="APACO">     10.00000000</i>
  </separator>
  <separator name="symmetry" >
   <i type="int" name="ISYM">     1</i>
   <i name="SYMPREC">      0.00001000</i>
  </separator>
  <separator name="dos" >
   <i type="int" name="LORBIT">    11</i>
   <v name="RWIGS">     -1.00000000</v>
   <i type="int" name="NEDOS">   301</i>
   <i name="EMIN">     10.00000000</i>
   <i name="EMAX">    -10.00000000</i>
   <i name="EFERMI">      0.00000000</i>
  </separator>
  <separator name="writing" >
   <i type="int" name="NWRITE">     2</i>
   <i type="logical" name="LWAVE"> T  </i>
   <i type="logical" name="LDOWNSAMPLE"> F  </i>
   <i type="logical" name="LCHARG"> T  </i>
   <i type="logical" name="LPARD"> F  </i>
   <i type="logical" name="LVTOT"> F  </i>
   <i type="logical" name="LVHAR"> F  </i>
   <i type="logical" name="LELF"> F  </i>
   <i type="logical" name="LOPTICS"> F  </i>
   <v name="STM">      0.00000000      0.00000000      0.00000000      0.00000000      0.00000000      0.00000000      0.00000000</v>
  </separator>
  <separator name="performance" >
   <i type="int" name="NPAR">    24</i>
   <i type="int" name="NSIM">     4</i>
   <i type="int" name="NBLK">    -1</i>
   <i type="logical" name="LPLANE"> T  </i>
   <i type="logical" name="LSCALAPACK"> T  </i>
   <i type="logical" name="LSCAAWARE"> F  </i>
   <i type="logical" name="LSCALU"> F  </i>
   <i type="logical" name="LASYNC"> F  </i>
   <i type="logical" name="LORBITALREAL"> F  </i>
  </separator>
  <separator name="miscellaneous" >
   <i type="int" name="IDIOT">     3</i>
   <i type="int" name="PHON_NSTRUCT">    -1</i>
   <i type="logical" name="LMUSIC"> F  </i>
   <v name="POMASS">    195.08000000</v>
   <v name="DARWINR">      0.00000000</v>
   <v name="DARWINV">      1.00000000</v>
   <i type="logical" name="LCORR"> T  </i>
  </separator>
  <i type="logical" name="GGA_COMPAT"> T  </i>
  <i type="logical" name="LBERRY"> F  </i>
  <i type="int" name="ICORELEVEL">     0</i>
  <i type="logical" name="LDAU"> F  </i>
  <i type="int" name="I_CONSTRAINED_M">     0</i>
  <separator name="electronic exchange-correlation" >
   <i type="string" name="GGA">--</i>
   <i type="int" name="VOSKOWN">     0</i>
   <i type="logical" name="LHFCALC"> F  </i>
   <i type="string" name="PRECFOCK"></i>
   <i type="logical" name="LSYMGRAD"> F  </i>
   <i type="logical" name="LHFONE"> F  </i>
   <i type="logical" name="LRHFCALC"> F  </i>
   <i type="logical" name="LTHOMAS"> F  </i>
   <i type="logical" name="LMODELHF"> F  </i>
   <i type="logical" name="LFOCKACE"> F  </i>
   <i name="ENCUT4O">     -1.00000000</i>
   <i type="int" name="EXXOEP">     0</i>
   <i type="int" name="FOURORBIT">     0</i>
   <i name="AEXX">      0.00000000</i>
   <i name="HFALPHA">      0.00000000</i>
   <i name="MCALPHA">      0.00000000</i>
   <i name="ALDAX">      1.00000000</i>
   <i name="AGGAX">      1.00000000</i>
   <i name="ALDAC">      1.00000000</i>
   <i name="AGGAC">      1.00000000</i>
   <i type="int" name="NKREDX">     1</i>
   <i type="int" name="NKREDY">     1</i>
   <i type="int" name="NKREDZ">     1</i>
   <i type="logical" name="SHIFTRED"> F  </i>
   <i type="logical" name="ODDONLY"> F  </i>
   <i type="logical" name="EVENONLY"> F  </i>
   <i type="int" name="LMAXFOCK">     0</i>
   <i type="int" name="NMAXFOCKAE">     0</i>
   <i type="logical" name="LFOCKAEDFT"> F  </i>
   <i name="HFSCREEN">      0.00000000</i>
   <i name="HFSCREENC">      0.00000000</i>
   <i type="int" name="NBANDSGWLOW">     0</i>
  </separator>
  <separator name="vdW DFT" >
   <i type="logical" name="LUSE_VDW"> F  </i>
   <i name="Zab_VDW">     -0.84910000</i>
   <i name="PARAM1">      0.12340000</i>
   <i name="PARAM2">      1.00000000</i>
   <i name="PARAM3">      0.00000000</i>
  </separator>
  <separator name="model GW" >
   <i type="int" name="MODEL_GW">     0</i>
   <i name="MODEL_EPS0">     12.49979193</i>
   <i name="MODEL_ALPHA">      1.00000000</i>
  </separator>
  <separator name="linear response parameters" >
   <i type="logical" name="LEPSILON"> F  </i>
   <i type="logical" name="LRPA"> F  </i>
   <i type="logical" name="LNABLA"> F  </i>
   <i type="logical" name="LVEL"> F  </i>
   <i name="CSHIFT">      0.10000000</i>
   <i name="OMEGAMAX">     -1.00000000</i>
   <i name="DEG_THRESHOLD">      0.00200000</i>
   <i name="RTIME">     -0.10000000</i>
   <i name="WPLASMAI">      0.00000000</i>
   <v name="DFIELD">      0.00000000      0.00000000      0.00000000</v>
   <v name="WPLASMA">      0.00000000      0.00000000      0.00000000      0.00000000      0.00000000      0.00000000      0.00000000      0.00000000      0.00000000</v>
  </separator>
  <separator name="orbital magnetization" >
   <i type="logical" name="NUCIND"> F  </i>
   <v name="MAGPOS">      0.00000000      0.00000000      0.00000000</v>
   <i type="logical" name="LNICSALL"> T  </i>
   <i type="logical" name="ORBITALMAG"> F  </i>
   <i type="logical" name="LMAGBLOCH"> F  </i>
   <i type="logical" name="LCHIMAG"> F  </i>
   <i type="logical" name="LGAUGE"> T  </i>
   <i type="int" name="MAGATOM">     0</i>
   <v name="MAGDIPOL">      0.00000000      0.00000000      0.00000000</v>
   <v name="AVECCONST">      0.00000000      0.00000000      0.00000000</v>
  </separator>
  <separator name="response functions" >
   <i type="logical" name="LFINITE_TEMPERATURE"> F  </i>
   <i type="logical" name="LADDER"> F  </i>
   <i type="logical" name="LRPAFORCE"> F  </i>
   <i type="logical" name="LFXC"> F  </i>
   <i type="logical" name="LHARTREE"> T  </i>
   <i type="int" name="IBSE">     0</i>
   <v type="int" name="KPOINT">    -1     0     0     0</v>
   <i type="logical" name="LTCTC"> F  </i>
   <i type="logical" name="LTCTE"> F  </i>
   <i type="logical" name="LTETE"> F  </i>
   <i type="logical" name="LTRIPLET"> F  </i>
   <i type="logical" name="LFXCEPS"> F  </i>
   <i type="logical" name="LFXHEG"> F  </i>
   <i type="int" name="NATURALO">     2</i>
   <i type="logical" name="LHOLEGF"> F  </i>
   <i type="logical" name="L2ORDER"> F  </i>
   <i type="logical" name="LDMP1"> F  </i>
   <i type="logical" name="LMP2LT"> F  </i>
   <i type="logical" name="LSMP2LT"> F  </i>
   <i type="logical" name="LGWLF"> F  </i>
   <i name="ENCUTGW">     -2.00000000</i>
   <i name="ENCUTGWSOFT">     -2.00000000</i>
   <i name="ENCUTLF">     -1.00000000</i>
   <i type="logical" name="LESF_SPLINES"> F  </i>
   <i type="int" name="LMAXMP2">    -1</i>
   <i name="SCISSOR">      0.00000000</i>
   <i type="int" name="NOMEGA">     0</i>
   <i type="int" name="NOMEGAR">     0</i>
   <i type="int" name="NBANDSGW">    -1</i>
   <i type="int" name="NBANDSO">    -1</i>
   <i type="int" name="NBANDSV">    -1</i>
   <i type="int" name="NELMGW">     1</i>
   <i type="int" name="NELMHF">     1</i>
   <i type="int" name="DIM">     3</i>
   <i type="int" name="IESPILON">     4</i>
   <i type="int" name="ANTIRES">     0</i>
   <i name="OMEGAMAX">    -30.00000000</i>
   <i name="OMEGAMIN">    -30.00000000</i>
   <i name="OMEGATL">   -200.00000000</i>
   <i type="int" name="OMEGAGRID">     0</i>
   <i name="CSHIFT">     -0.10000000</i>
   <i type="logical" name="LSELFENERGY"> F  </i>
   <i type="logical" name="LSPECTRAL"> F  </i>
   <i type="logical" name="LSPECTRALGW"> F  </i>
   <i type="logical" name="LSINGLES"> F  </i>
   <i type="logical" name="LFERMIGW"> F  </i>
   <i type="logical" name="ODDONLYGW"> F  </i>
   <i type="logical" name="EVENONLYGW"> F  </i>
   <i type="int" name="NKREDLFX">     1</i>
   <i type="int" name="NKREDLFY">     1</i>
   <i type="int" name="NKREDLFZ">     1</i>
   <i type="int" name="MAXMEM">  2800</i>
   <i type="int" name="TELESCOPE">     0</i>
   <i type="int" name="NTAUPAR">    -1</i>
   <i type="int" name="NOMEGAPAR">    -1</i>
   <i name="DAMP_NEWTON">      0.80000001</i>
   <i name="LAMBDA">      1.00000000</i>
  </separator>
  <separator name="External order field" >
   <i name="OFIELD_KAPPA">      0.00000000</i>
   <v name="OFIELD_K">      0.00000000      0.00000000      0.00000000</v>
   <i name="OFIELD_Q6_NEAR">      0.00000000</i>
   <i name="OFIELD_Q6_FAR">      0.00000000</i>
   <i name="OFIELD_A">      0.00000000</i>
  </separator>
  <separator name="optional k-points parameters" >
   <i type="int" name="KPOINTS_OPT_MODE">     1</i>
   <i type="logical" name="LKPOINTS_OPT"> F  </i>
  </separator>
 </parameters>
 <atominfo>
  <atoms>       2 </atoms>
  <types>       1 </types>
  <array name="atoms" >
   <dimension dim="1">ion</dimension>
   <field type="string">element</field>
   <field type="int">atomtype</field>
   <set>
    <rc><c>Pt</c><c>   1</c></rc>
    <rc><c>Pt</c><c>   1</c></rc>
   </set>
  </array>
  <array name="atomtypes" >
   <dimension dim="1">type</dimension>
   <field type="int">atomspertype</field>
   <field type="string">element</field>
   <field>mass</field>
   <field>valence</field>
   <field type="string">pseudopotential</field>
   <set>
    <rc><c>   2</c><c>Pt</c><c>    195.08000000</c><c>     16.00000000</c><c>  PAW_PBE Pt_pv 12Dec2005               </c></rc>
   </set>
  </array>
 </atominfo>
 <structure name="initialpos" >
  <crystal>
   <varray name="basis" >
    <v>       3.02826933       0.00000000       0.00000000 </v>
    <v>      -1.51413467       2.62255817       0.00000000 </v>
    <v>       0.00000000       0.00000000       5.24640605 </v>
   </varray>
   <i name="volume">     41.66597309 </i>
   <varray name="rec_basis" >
    <v>       0.33022162       0.19065354       0.00000000 </v>
    <v>       0.00000000       0.38130708       0.00000000 </v>
    <v>       0.00000000       0.00000000       0.19060667 </v>
   </varray>
  </crystal>
  <varray name="positions" >
   <v>       0.00000000       0.00000000       0.00000000 </v>
   <v>       0.33333333       0.66666667       0.50000000 </v>
  </varray>
 </structure>
 <calculation>
  <scstep>
   <time name="dav">    0.35    0.35</time>
   <time name="total">    0.36    0.36</time>
   <energy>
    <i name="alphaZ">    230.33841594 </i>
    <i name="ewald">  -3867.39010959 </i>
    <i name="hartreedc">  -1008.24767026 </i>
    <i name="XCdc">    125.10814127 </i>
    <i name="pawpsdc">   4131.50523274 </i>
    <i name="pawaedc">  -4061.67189606 </i>
    <i name="eentropy">     -0.00126223 </i>
    <i name="bandstr">   -252.95529849 </i>
    <i name="atom">   4856.42966544 </i>
    <i name="e_fr_energy">    153.11521877 </i>
    <i name="e_wo_entrp">    153.11648099 </i>
    <i name="e_0_energy">    153.11584988 </i>
   </energy>
  </scstep>
  <scstep>
   <time name="dav">    0.42    0.42</time>
   <time name="total">    0.42    0.42</time>
   <energy>
    <i name="e_fr_energy">     -9.62704586 </i>
    <i name="e_wo_entrp">     -9.62261617 </i>
    <i name="e_0_energy">     -9.62483102 </i>
   </energy>
  </scstep>
  <scstep>
   <time name="dav">    0.49    0.50</time>
   <time name="total">    0.49    0.50</time>
   <energy>
    <i name="e_fr_energy">    -11.35615688 </i>
    <i name="e_wo_entrp">    -11.34968031 </i>
    <i name="e_0_energy">    -11.35291859 </i>
   </energy>
  </scstep>
  <scstep>
   <time name="dav">    0.68    0.68</time>
   <time name="total">    0.68    0.68</time>
   <energy>
    <i name="e_fr_energy">    -11.36290556 </i>
    <i name="e_wo_entrp">    -11.35642311 </i>
    <i name="e_0_energy">    -11.35966433 </i>
   </energy>
  </scstep>
  <scstep>
   <time name="dav">    0.53    0.53</time>
   <time name="total">    0.56    0.56</time>
   <energy>
    <i name="e_fr_energy">    -11.36290732 </i>
    <i name="e_wo_entrp">    -11.35642488 </i>
    <i name="e_0_energy">    -11.35966610 </i>
   </energy>
  </scstep>
  <scstep>
   <time name="dav">    0.38    0.38</time>
   <time name="total">    0.42    0.42</time>
   <energy>
    <i name="e_fr_energy">    -10.70324304 </i>
    <i name="e_wo_entrp">    -10.69456608 </i>
    <i name="e_0_energy">    -10.69890456 </i>
   </energy>
  </scstep>
  <scstep>
   <time name="dav">    0.46    0.46</time>
   <time name="total">    0.50    0.50</time>
   <energy>
    <i name="e_fr_energy">    -10.69687291 </i>
    <i name="e_wo_entrp">    -10.68796257 </i>
    <i name="e_0_energy">    -10.69241774 </i>
   </energy>
  </scstep>
  <scstep>
   <time name="dav">    0.53    0.53</time>
   <time name="total">    0.56    0.57</time>
   <energy>
    <i name="e_fr_energy">    -10.69638639 </i>
    <i name="e_wo_entrp">    -10.68739216 </i>
    <i name="e_0_energy">    -10.69188928 </i>
   </energy>
  </scstep>
  <scstep>
   <time name="dav">    0.57    0.57</time>
   <time name="total">    0.61    0.61</time>
   <energy>
    <i name="e_fr_energy">    -10.69645414 </i>
    <i name="e_wo_entrp">    -10.68747683 </i>
    <i name="e_0_energy">    -10.69196549 </i>
   </energy>
  </scstep>
  <scstep>
   <time name="dav">    0.50    0.50</time>
   <time name="total">    0.54    0.54</time>
   <energy>
    <i name="e_fr_energy">    -10.69648364 </i>
    <i name="e_wo_entrp">    -10.68750930 </i>
    <i name="e_0_energy">    -10.69199647 </i>
   </energy>
  </scstep>
  <scstep>
   <time name="dav">    0.49    0.49</time>
   <time name="total">    0.50    0.50</time>
   <energy>
    <i name="alphaZ">    230.33841594 </i>
    <i name="ewald">  -3867.39010959 </i>
    <i name="hartreedc">   -970.83120651 </i>
    <i name="XCdc">    123.50788671 </i>
    <i name="pawpsdc">   4164.44560753 </i>
    <i name="pawaedc">  -4097.12405534 </i>
    <i name="eentropy">     -0.00897649 </i>
    <i name="bandstr">   -450.06371125 </i>
    <i name="atom">   4856.42966544 </i>
    <i name="e_fr_energy">    -10.69648355 </i>
    <i name="e_wo_entrp">    -10.68750706 </i>
    <i name="e_0_energy">    -10.69199531 </i>
   </energy>
  </scstep>
  <structure>
   <crystal>
    <varray name="basis" >
     <v>       3.02826933       0.00000000       0.00000000 </v>
     <v>      -1.51413467       2.62255817       0.00000000 </v>
     <v>       0.00000000       0.00000000       5.24640605 </v>
    </varray>
    <i name="volume">     41.66597309 </i>
    <varray name="rec_basis" >
     <v>       0.33022162       0.19065354       0.00000000 </v>
     <v>       0.00000000       0.38130708       0.00000000 </v>
     <v>       0.00000000       0.00000000       0.19060667 </v>
    </varray>
   </crystal>
   <varray name="positions" >
    <v>       0.00000000       0.00000000       0.00000000 </v>
    <v>       0.33333333       0.66666667       0.50000000 </v>
   </varray>
  </structure>
  <varray name="forces" >
   <v>       0.00000000      -0.00000000       0.00000000 </v>
   <v>      -0.00000000       0.00000000       0.00000000 </v>
  </varray>
  <varray name="stress" >
   <v>    -339.39047069       0.00000000       0.00000000 </v>
   <v>       0.00000000    -339.39047069       0.00000000 </v>
   <v>       0.00000000      -0.00000000    -296.64244571 </v>
  </varray>
  <energy>
   <i name="e_fr_energy">    -10.69648355 </i>
   <i name="e_wo_entrp">    -10.68750706 </i>
   <i name="e_0_energy">    -10.69199531 </i>
  </energy>
  <time name="totalsc">    6.13    6.37</time>
  <eigenvalues>
   <array>
    <dimension dim="1">band</dimension>
    <dimension dim="2">kpoint</dimension>
    <dimension dim="3">spin</dimension>
    <field>eigene</field>
    <field>occ</field>
    <set>
     <set comment="spin 1">
      <set comment="kpoint 1">
       <r>  -45.0306    1.0000 </r>
       <r>  -45.0306    1.0000 </r>
       <r>  -45.0164    1.0000 </r>
       <r>  -45.0164    1.0000 </r>
       <r>  -45.0055    1.0000 </r>
       <r>  -44.8987    1.0000 </r>
       <r>   -0.4473    1.0000 </r>
       <r>    1.8883    1.0000 </r>
       <r>    4.1789    1.0000 </r>
       <r>    4.4869    1.0000 </r>
       <r>    4.4869    1.0000 </r>
       <r>    4.7096    1.0000 </r>
       <r>    4.7096    1.0000 </r>
       <r>    5.5293    1.0000 </r>
       <r>    5.5293    1.0000 </r>
       <r>    6.5186    0.9998 </r>
       <r>    6.5186    0.9998 </r>
       <r>    7.0856    0.0000 </r>
       <r>    9.8519    0.0000 </r>
       <r>   21.7704    0.0000 </r>
       <r>   21.9620    0.0000 </r>
       <r>   23.4940    0.0000 </r>
       <r>   24.6960    0.0000 </r>
       <r>   24.6960    0.0000 </r>
      </set>
      <set comment="kpoint 2">
       <r>  -45.0427    1.0000 </r>
       <r>  -45.0341    1.0000 </r>
       <r>  -45.0294    1.0000 </r>
       <r>  -45.0193    1.0000 </r>
       <r>  -45.0017    1.0000 </r>
       <r>  -44.8999    1.0000 </r>
       <r>   -0.1681    1.0000 </r>
       <r>    2.1317    1.0000 </r>
       <r>    4.1363    1.0000 </r>
       <r>    4.5028    1.0000 </r>
       <r>    4.6244    1.0000 </r>
       <r>    4.6675    1.0000 </r>
       <r>    4.8795    1.0000 </r>
       <r>    5.2649    1.0000 </r>
       <r>    5.4287    1.0000 </r>
       <r>    5.6763    1.0000 </r>
       <r>    6.5513    0.9961 </r>
       <r>    8.3130    0.0000 </r>
       <r>    9.8486    0.0000 </r>
       <r>   21.5095    0.0000 </r>
       <r>   22.3721    0.0000 </r>
       <r>   22.7627    0.0000 </r>
       <r>   23.4120    0.0000 </r>
       <r>   24.4228    0.0000 </r>
      </set>
      <set comment="kpoint 3">
       <r>  -45.0746    1.0000 </r>
       <r>  -45.0613    1.0000 </r>
       <r>  -45.0434    1.0000 </r>
       <r>  -45.0263    1.0000 </r>
       <r>  -44.9912    1.0000 </r>
       <r>  -44.9028    1.0000 </r>
       <r>    0.6108    1.0000 </r>
       <r>    2.6879    1.0000 </r>
       <r>    3.9986    1.0000 </r>
       <r>    4.3241    1.0000 </r>
       <r>    4.4112    1.0000 </r>
       <r>    4.9046    1.0000 </r>
       <r>    5.1729    1.0000 </r>
       <r>    5.2004    1.0000 </r>
       <r>    5.2677    1.0000 </r>
       <r>    5.3534    1.0000 </r>
       <r>    6.6044    0.8771 </r>
       <r>    9.8833    0.0000 </r>
       <r>    9.9759    0.0000 </r>
       <r>   18.5269    0.0000 </r>
       <r>   21.4072    0.0000 </r>
       <r>   22.8830    0.0000 </r>
       <r>   23.2354    0.0000 </r>
       <r>   23.6187    0.0000 </r>
      </set>
      <set comment="kpoint 4">
       <r>  -45.1136    1.0000 </r>
       <r>  -45.1012    1.0000 </r>
       <r>  -45.0552    1.0000 </r>
       <r>  -45.0354    1.0000 </r>
       <r>  -44.9767    1.0000 </r>
       <r>  -44.9079    1.0000 </r>
       <r>    1.6311    1.0000 </r>
       <r>    2.8563    1.0000 </r>
       <r>    3.6984    1.0000 </r>
       <r>    4.1825    1.0000 </r>
       <r>    4.3975    1.0000 </r>
       <r>    4.9421    1.0000 </r>
       <r>    4.9589    1.0000 </r>
       <r>    5.6482    1.0000 </r>
       <r>    5.8795    1.0000 </r>
       <r>    6.0088    1.0000 </r>
       <r>    6.6335    0.6326 </r>
       <r>   10.1555    0.0000 </r>
       <r>   11.7550    0.0000 </r>
       <r>   15.0812    0.0000 </r>
       <r>   19.5355    0.0000 </r>
       <r>   20.2278    0.0000 </r>
       <r>   21.0085    0.0000 </r>
       <r>   23.0662    0.0000 </r>
      </set>
      <set comment="kpoint 5">
       <r>  -45.1461    1.0000 </r>
       <r>  -45.1331    1.0000 </r>
       <r>  -45.0644    1.0000 </r>
       <r>  -45.0428    1.0000 </r>
       <r>  -44.9622    1.0000 </r>
       <r>  -44.9152    1.0000 </r>
       <r>    2.2960    1.0000 </r>
       <r>    2.6570    1.0000 </r>
       <r>    3.2611    1.0000 </r>
       <r>    4.5264    1.0000 </r>
       <r>    4.7018    1.0000 </r>
       <r>    4.7838    1.0000 </r>
       <r>    4.9928    1.0000 </r>
       <r>    6.5287    0.9995 </r>
       <r>    6.6332    0.6358 </r>
       <r>    6.6399    0.5622 </r>
       <r>    6.9236    0.0000 </r>
       <r>   11.1304    0.0000 </r>
       <r>   11.8606    0.0000 </r>
       <r>   13.4565    0.0000 </r>
       <r>   16.5013    0.0000 </r>
       <r>   18.1342    0.0000 </r>
       <r>   19.2216    0.0000 </r>
       <r>   22.1163    0.0000 </r>
      </set>
      <set comment="kpoint 6">
       <r>  -45.1581    1.0000 </r>
       <r>  -45.1450    1.0000 </r>
       <r>  -45.0679    1.0000 </r>
       <r>  -45.0456    1.0000 </r>
       <r>  -44.9549    1.0000 </r>
       <r>  -44.9195    1.0000 </r>
       <r>    2.4590    1.0000 </r>
       <r>    2.5346    1.0000 </r>
       <r>    3.1143    1.0000 </r>
       <r>    4.6143    1.0000 </r>
       <r>    4.7204    1.0000 </r>
       <r>    4.8413    1.0000 </r>
       <r>    5.2061    1.0000 </r>
       <r>    6.6395    0.5669 </r>
       <r>    6.7916    0.0000 </r>
       <r>    6.9124    0.0000 </r>
       <r>    8.5493    0.0000 </r>
       <r>    9.5019    0.0000 </r>
       <r>   12.7891    0.0000 </r>
       <r>   13.8732    0.0000 </r>
       <r>   14.3696    0.0000 </r>
       <r>   17.5944    0.0000 </r>
       <r>   18.2839    0.0000 </r>
       <r>   21.7794    0.0000 </r>
      </set>
      <set comment="kpoint 7">
       <r>  -45.0629    1.0000 </r>
       <r>  -45.0539    1.0000 </r>
       <r>  -45.0386    1.0000 </r>
       <r>  -45.0259    1.0000 </r>
       <r>  -44.9946    1.0000 </r>
       <r>  -44.9019    1.0000 </r>
       <r>    0.3656    1.0000 </r>
       <r>    2.5611    1.0000 </r>
       <r>    3.9726    1.0000 </r>
       <r>    4.4424    1.0000 </r>
       <r>    4.6507    1.0000 </r>
       <r>    4.6886    1.0000 </r>
       <r>    5.0462    1.0000 </r>
       <r>    5.0881    1.0000 </r>
       <r>    5.2583    1.0000 </r>
       <r>    5.5119    1.0000 </r>
       <r>    6.5625    0.9905 </r>
       <r>    9.5226    0.0000 </r>
       <r>    9.8654    0.0000 </r>
       <r>   20.1895    0.0000 </r>
       <r>   20.3850    0.0000 </r>
       <r>   23.1111    0.0000 </r>
       <r>   23.8367    0.0000 </r>
       <r>   23.9945    0.0000 </r>
      </set>
      <set comment="kpoint 8">
       <r>  -45.0959    1.0000 </r>
       <r>  -45.0873    1.0000 </r>
       <r>  -45.0519    1.0000 </r>
       <r>  -45.0367    1.0000 </r>
       <r>  -44.9822    1.0000 </r>
       <r>  -44.9060    1.0000 </r>
       <r>    1.3111    1.0000 </r>
       <r>    3.0578    1.0000 </r>
       <r>    3.8645    1.0000 </r>
       <r>    3.9754    1.0000 </r>
       <r>    4.2688    1.0000 </r>
       <r>    4.7904    1.0000 </r>
       <r>    5.0410    1.0000 </r>
       <r>    5.2754    1.0000 </r>
       <r>    5.7211    1.0000 </r>
       <r>    5.9619    1.0000 </r>
       <r>    6.5610    0.9916 </r>
       <r>   10.0278    0.0000 </r>
       <r>   11.1566    0.0000 </r>
       <r>   16.8103    0.0000 </r>
       <r>   18.7234    0.0000 </r>
       <r>   22.0508    0.0000 </r>
       <r>   22.4701    0.0000 </r>
       <r>   23.3575    0.0000 </r>
      </set>
      <set comment="kpoint 9">
       <r>  -45.1302    1.0000 </r>
       <r>  -45.1193    1.0000 </r>
       <r>  -45.0653    1.0000 </r>
       <r>  -45.0465    1.0000 </r>
       <r>  -44.9672    1.0000 </r>
       <r>  -44.9126    1.0000 </r>
       <r>    2.2509    1.0000 </r>
       <r>    2.9438    1.0000 </r>
       <r>    3.4557    1.0000 </r>
       <r>    4.2004    1.0000 </r>
       <r>    4.5784    1.0000 </r>
       <r>    4.6066    1.0000 </r>
       <r>    4.9680    1.0000 </r>
       <r>    5.7406    1.0000 </r>
       <r>    6.3870    1.0000 </r>
       <r>    6.5524    0.9958 </r>
       <r>    6.8879    0.0000 </r>
       <r>   10.6840    0.0000 </r>
       <r>   12.9148    0.0000 </r>
       <r>   13.4812    0.0000 </r>
       <r>   16.9586    0.0000 </r>
       <r>   19.0660    0.0000 </r>
       <r>   20.2151    0.0000 </r>
       <r>   22.1619    0.0000 </r>
      </set>
      <set comment="kpoint 10">
       <r>  -45.1515    1.0000 </r>
       <r>  -45.1385    1.0000 </r>
       <r>  -45.0735    1.0000 </r>
       <r>  -45.0528    1.0000 </r>
       <r>  -44.9550    1.0000 </r>
       <r>  -44.9196    1.0000 </r>
       <r>    2.6172    1.0000 </r>
       <r>    2.7536    1.0000 </r>
       <r>    3.1891    1.0000 </r>
       <r>    4.5747    1.0000 </r>
       <r>    4.7106    1.0000 </r>
       <r>    4.7388    1.0000 </r>
       <r>    4.9513    1.0000 </r>
       <r>    6.4952    1.0000 </r>
       <r>    6.5423    0.9982 </r>
       <r>    6.7093    0.0356 </r>
       <r>    8.1955    0.0000 </r>
       <r>   10.5234    0.0000 </r>
       <r>   12.2923    0.0000 </r>
       <r>   14.4167    0.0000 </r>
       <r>   14.7138    0.0000 </r>
       <r>   17.1115    0.0000 </r>
       <r>   18.6532    0.0000 </r>
       <r>   21.5467    0.0000 </r>
      </set>
      <set comment="kpoint 11">
       <r>  -45.1160    1.0000 </r>
       <r>  -45.1153    1.0000 </r>
       <r>  -45.0668    1.0000 </r>
       <r>  -45.0541    1.0000 </r>
       <r>  -44.9691    1.0000 </r>
       <r>  -44.9119    1.0000 </r>
       <r>    2.3031    1.0000 </r>
       <r>    3.5079    1.0000 </r>
       <r>    3.5766    1.0000 </r>
       <r>    3.5916    1.0000 </r>
       <r>    4.4056    1.0000 </r>
       <r>    4.4854    1.0000 </r>
       <r>    5.0946    1.0000 </r>
       <r>    5.2707    1.0000 </r>
       <r>    6.3831    1.0000 </r>
       <r>    6.4568    1.0000 </r>
       <r>    6.9396    0.0000 </r>
       <r>   10.5910    0.0000 </r>
       <r>   12.7536    0.0000 </r>
       <r>   14.8718    0.0000 </r>
       <r>   15.7805    0.0000 </r>
       <r>   20.6238    0.0000 </r>
       <r>   21.2390    0.0000 </r>
       <r>   21.6187    0.0000 </r>
      </set>
      <set comment="kpoint 12">
       <r>  -45.1361    1.0000 </r>
       <r>  -45.1276    1.0000 </r>
       <r>  -45.0842    1.0000 </r>
       <r>  -45.0686    1.0000 </r>
       <r>  -44.9550    1.0000 </r>
       <r>  -44.9195    1.0000 </r>
       <r>    3.0143    1.0000 </r>
       <r>    3.2898    1.0000 </r>
       <r>    3.3384    1.0000 </r>
       <r>    4.0595    1.0000 </r>
       <r>    4.3948    1.0000 </r>
       <r>    4.7803    1.0000 </r>
       <r>    4.7937    1.0000 </r>
       <r>    5.7692    1.0000 </r>
       <r>    6.3764    1.0000 </r>
       <r>    6.6428    0.5301 </r>
       <r>    8.1274    0.0000 </r>
       <r>   11.4131    0.0000 </r>
       <r>   12.6660    0.0000 </r>
       <r>   14.2596    0.0000 </r>
       <r>   14.4903    0.0000 </r>
       <r>   17.9047    0.0000 </r>
       <r>   19.5689    0.0000 </r>
       <r>   20.3470    0.0000 </r>
      </set>
      <set comment="kpoint 13">
       <r>  -45.1439    1.0000 </r>
       <r>  -45.1304    1.0000 </r>
       <r>  -45.0925    1.0000 </r>
       <r>  -45.0743    1.0000 </r>
       <r>  -44.9469    1.0000 </r>
       <r>  -44.9253    1.0000 </r>
       <r>    3.1362    1.0000 </r>
       <r>    3.1895    1.0000 </r>
       <r>    3.2510    1.0000 </r>
       <r>    4.4706    1.0000 </r>
       <r>    4.4775    1.0000 </r>
       <r>    4.5618    1.0000 </r>
       <r>    4.9573    1.0000 </r>
       <r>    6.2429    1.0000 </r>
       <r>    6.3472    1.0000 </r>
       <r>    6.5208    0.9998 </r>
       <r>    9.6147    0.0000 </r>
       <r>    9.7460    0.0000 </r>
       <r>   12.9815    0.0000 </r>
       <r>   14.2124    0.0000 </r>
       <r>   15.5879    0.0000 </r>
       <r>   16.0263    0.0000 </r>
       <r>   18.4058    0.0000 </r>
       <r>   19.8525    0.0000 </r>
      </set>
      <set comment="kpoint 14">
       <r>  -45.1313    1.0000 </r>
       <r>  -45.1215    1.0000 </r>
       <r>  -45.1052    1.0000 </r>
       <r>  -45.0923    1.0000 </r>
       <r>  -44.9427    1.0000 </r>
       <r>  -44.9290    1.0000 </r>
       <r>    3.3166    1.0000 </r>
       <r>    3.4699    1.0000 </r>
       <r>    3.6687    1.0000 </r>
       <r>    3.9927    1.0000 </r>
       <r>    4.3682    1.0000 </r>
       <r>    4.5437    1.0000 </r>
       <r>    5.0148    1.0000 </r>
       <r>    5.9892    1.0000 </r>
       <r>    6.2486    1.0000 </r>
       <r>    6.4276    1.0000 </r>
       <r>    9.4387    0.0000 </r>
       <r>   10.6180    0.0000 </r>
       <r>   12.1500    0.0000 </r>
       <r>   14.6956    0.0000 </r>
       <r>   16.2526    0.0000 </r>
       <r>   16.9760    0.0000 </r>
       <r>   17.6094    0.0000 </r>
       <r>   18.3120    0.0000 </r>
      </set>
      <set comment="kpoint 15">
       <r>  -45.0300    1.0000 </r>
       <r>  -45.0300    1.0000 </r>
       <r>  -45.0169    1.0000 </r>
       <r>  -45.0169    1.0000 </r>
       <r>  -45.0013    1.0000 </r>
       <r>  -44.9028    1.0000 </r>
       <r>   -0.3438    1.0000 </r>
       <r>    1.8573    1.0000 </r>
       <r>    4.1605    1.0000 </r>
       <r>    4.4743    1.0000 </r>
       <r>    4.4743    1.0000 </r>
       <r>    4.6862    1.0000 </r>
       <r>    4.6862    1.0000 </r>
       <r>    5.5899    1.0000 </r>
       <r>    5.5899    1.0000 </r>
       <r>    6.4055    1.0000 </r>
       <r>    6.4991    1.0000 </r>
       <r>    6.4991    1.0000 </r>
       <r>   10.7679    0.0000 </r>
       <r>   21.2263    0.0000 </r>
       <r>   22.2593    0.0000 </r>
       <r>   23.2757    0.0000 </r>
       <r>   24.6229    0.0000 </r>
       <r>   24.6229    0.0000 </r>
      </set>
      <set comment="kpoint 16">
       <r>  -45.0424    1.0000 </r>
       <r>  -45.0334    1.0000 </r>
       <r>  -45.0298    1.0000 </r>
       <r>  -45.0197    1.0000 </r>
       <r>  -44.9975    1.0000 </r>
       <r>  -44.9036    1.0000 </r>
       <r>   -0.0661    1.0000 </r>
       <r>    2.1062    1.0000 </r>
       <r>    4.1394    1.0000 </r>
       <r>    4.4511    1.0000 </r>
       <r>    4.5696    1.0000 </r>
       <r>    4.6495    1.0000 </r>
       <r>    4.8539    1.0000 </r>
       <r>    5.2872    1.0000 </r>
       <r>    5.5001    1.0000 </r>
       <r>    5.5950    1.0000 </r>
       <r>    6.5259    0.9996 </r>
       <r>    7.6212    0.0000 </r>
       <r>   10.9153    0.0000 </r>
       <r>   21.3475    0.0000 </r>
       <r>   22.1427    0.0000 </r>
       <r>   22.8983    0.0000 </r>
       <r>   23.4682    0.0000 </r>
       <r>   23.9347    0.0000 </r>
      </set>
      <set comment="kpoint 17">
       <r>  -45.0745    1.0000 </r>
       <r>  -45.0623    1.0000 </r>
       <r>  -45.0428    1.0000 </r>
       <r>  -45.0269    1.0000 </r>
       <r>  -44.9875    1.0000 </r>
       <r>  -44.9061    1.0000 </r>
       <r>    0.7043    1.0000 </r>
       <r>    2.6821    1.0000 </r>
       <r>    4.0197    1.0000 </r>
       <r>    4.1890    1.0000 </r>
       <r>    4.3685    1.0000 </r>
       <r>    4.8651    1.0000 </r>
       <r>    5.0758    1.0000 </r>
       <r>    5.2878    1.0000 </r>
       <r>    5.3687    1.0000 </r>
       <r>    5.3941    1.0000 </r>
       <r>    6.5674    0.9864 </r>
       <r>    8.6384    0.0000 </r>
       <r>   11.4909    0.0000 </r>
       <r>   18.6310    0.0000 </r>
       <r>   21.5443    0.0000 </r>
       <r>   22.3421    0.0000 </r>
       <r>   22.7104    0.0000 </r>
       <r>   23.6023    0.0000 </r>
      </set>
      <set comment="kpoint 18">
       <r>  -45.1142    1.0000 </r>
       <r>  -45.1022    1.0000 </r>
       <r>  -45.0545    1.0000 </r>
       <r>  -45.0363    1.0000 </r>
       <r>  -44.9737    1.0000 </r>
       <r>  -44.9106    1.0000 </r>
       <r>    1.6878    1.0000 </r>
       <r>    2.8696    1.0000 </r>
       <r>    3.6730    1.0000 </r>
       <r>    4.0771    1.0000 </r>
       <r>    4.4218    1.0000 </r>
       <r>    4.9980    1.0000 </r>
       <r>    5.0061    1.0000 </r>
       <r>    5.6795    1.0000 </r>
       <r>    5.8940    1.0000 </r>
       <r>    5.9796    1.0000 </r>
       <r>    6.5912    0.9376 </r>
       <r>    9.4281    0.0000 </r>
       <r>   12.5678    0.0000 </r>
       <r>   15.2915    0.0000 </r>
       <r>   19.4530    0.0000 </r>
       <r>   19.7091    0.0000 </r>
       <r>   21.5642    0.0000 </r>
       <r>   23.2179    0.0000 </r>
      </set>
      <set comment="kpoint 19">
       <r>  -45.1461    1.0000 </r>
       <r>  -45.1340    1.0000 </r>
       <r>  -45.0635    1.0000 </r>
       <r>  -45.0436    1.0000 </r>
       <r>  -44.9599    1.0000 </r>
       <r>  -44.9168    1.0000 </r>
       <r>    2.2708    1.0000 </r>
       <r>    2.6671    1.0000 </r>
       <r>    3.3430    1.0000 </r>
       <r>    4.1279    1.0000 </r>
       <r>    4.8064    1.0000 </r>
       <r>    4.8382    1.0000 </r>
       <r>    5.3926    1.0000 </r>
       <r>    6.4866    1.0000 </r>
       <r>    6.5408    0.9985 </r>
       <r>    6.6906    0.1008 </r>
       <r>    6.8670    0.0000 </r>
       <r>   10.5471    0.0000 </r>
       <r>   11.8092    0.0000 </r>
       <r>   14.1387    0.0000 </r>
       <r>   16.2754    0.0000 </r>
       <r>   18.3264    0.0000 </r>
       <r>   19.5489    0.0000 </r>
       <r>   22.2618    0.0000 </r>
      </set>
      <set comment="kpoint 20">
       <r>  -45.1583    1.0000 </r>
       <r>  -45.1460    1.0000 </r>
       <r>  -45.0669    1.0000 </r>
       <r>  -45.0462    1.0000 </r>
       <r>  -44.9530    1.0000 </r>
       <r>  -44.9207    1.0000 </r>
       <r>    2.3826    1.0000 </r>
       <r>    2.5515    1.0000 </r>
       <r>    3.2367    1.0000 </r>
       <r>    4.1804    1.0000 </r>
       <r>    4.7787    1.0000 </r>
       <r>    4.9026    1.0000 </r>
       <r>    5.7203    1.0000 </r>
       <r>    6.5373    0.9989 </r>
       <r>    6.8049    0.0000 </r>
       <r>    6.9089    0.0000 </r>
       <r>    8.4571    0.0000 </r>
       <r>    9.4687    0.0000 </r>
       <r>   12.5692    0.0000 </r>
       <r>   12.8346    0.0000 </r>
       <r>   15.6188    0.0000 </r>
       <r>   17.7933    0.0000 </r>
       <r>   18.4992    0.0000 </r>
       <r>   21.9473    0.0000 </r>
      </set>
      <set comment="kpoint 21">
       <r>  -45.0629    1.0000 </r>
       <r>  -45.0540    1.0000 </r>
       <r>  -45.0385    1.0000 </r>
       <r>  -45.0265    1.0000 </r>
       <r>  -44.9906    1.0000 </r>
       <r>  -44.9052    1.0000 </r>
       <r>    0.4631    1.0000 </r>
       <r>    2.5484    1.0000 </r>
       <r>    3.9922    1.0000 </r>
       <r>    4.3105    1.0000 </r>
       <r>    4.5153    1.0000 </r>
       <r>    4.7287    1.0000 </r>
       <r>    5.0079    1.0000 </r>
       <r>    5.1515    1.0000 </r>
       <r>    5.3299    1.0000 </r>
       <r>    5.5390    1.0000 </r>
       <r>    6.5303    0.9994 </r>
       <r>    8.4048    0.0000 </r>
       <r>   11.2851    0.0000 </r>
       <r>   20.2830    0.0000 </r>
       <r>   20.4455    0.0000 </r>
       <r>   22.6304    0.0000 </r>
       <r>   23.3238    0.0000 </r>
       <r>   24.0761    0.0000 </r>
      </set>
      <set comment="kpoint 22">
       <r>  -45.0960    1.0000 </r>
       <r>  -45.0878    1.0000 </r>
       <r>  -45.0513    1.0000 </r>
       <r>  -45.0372    1.0000 </r>
       <r>  -44.9787    1.0000 </r>
       <r>  -44.9087    1.0000 </r>
       <r>    1.3900    1.0000 </r>
       <r>    3.0734    1.0000 </r>
       <r>    3.8285    1.0000 </r>
       <r>    3.9152    1.0000 </r>
       <r>    4.2679    1.0000 </r>
       <r>    4.7128    1.0000 </r>
       <r>    5.1557    1.0000 </r>
       <r>    5.2512    1.0000 </r>
       <r>    5.7929    1.0000 </r>
       <r>    5.9298    1.0000 </r>
       <r>    6.5303    0.9994 </r>
       <r>    9.1859    0.0000 </r>
       <r>   12.1880    0.0000 </r>
       <r>   16.9536    0.0000 </r>
       <r>   18.8191    0.0000 </r>
       <r>   21.3175    0.0000 </r>
       <r>   22.4668    0.0000 </r>
       <r>   23.4664    0.0000 </r>
      </set>
      <set comment="kpoint 23">
       <r>  -45.1304    1.0000 </r>
       <r>  -45.1201    1.0000 </r>
       <r>  -45.0646    1.0000 </r>
       <r>  -45.0475    1.0000 </r>
       <r>  -44.9646    1.0000 </r>
       <r>  -44.9143    1.0000 </r>
       <r>    2.2648    1.0000 </r>
       <r>    2.9648    1.0000 </r>
       <r>    3.4797    1.0000 </r>
       <r>    4.0210    1.0000 </r>
       <r>    4.5662    1.0000 </r>
       <r>    4.8229    1.0000 </r>
       <r>    4.9807    1.0000 </r>
       <r>    5.7506    1.0000 </r>
       <r>    6.4153    1.0000 </r>
       <r>    6.4493    1.0000 </r>
       <r>    6.9162    0.0000 </r>
       <r>   10.1249    0.0000 </r>
       <r>   12.9703    0.0000 </r>
       <r>   14.2174    0.0000 </r>
       <r>   16.9316    0.0000 </r>
       <r>   18.6695    0.0000 </r>
       <r>   20.6928    0.0000 </r>
       <r>   21.9032    0.0000 </r>
      </set>
      <set comment="kpoint 24">
       <r>  -45.1515    1.0000 </r>
       <r>  -45.1394    1.0000 </r>
       <r>  -45.0726    1.0000 </r>
       <r>  -45.0537    1.0000 </r>
       <r>  -44.9530    1.0000 </r>
       <r>  -44.9206    1.0000 </r>
       <r>    2.5432    1.0000 </r>
       <r>    2.7696    1.0000 </r>
       <r>    3.3274    1.0000 </r>
       <r>    4.1366    1.0000 </r>
       <r>    4.6237    1.0000 </r>
       <r>    4.9804    1.0000 </r>
       <r>    5.3379    1.0000 </r>
       <r>    6.4227    1.0000 </r>
       <r>    6.4985    1.0000 </r>
       <r>    6.7338    0.0063 </r>
       <r>    8.1875    0.0000 </r>
       <r>   10.5141    0.0000 </r>
       <r>   11.7976    0.0000 </r>
       <r>   14.0744    0.0000 </r>
       <r>   15.4034    0.0000 </r>
       <r>   17.3099    0.0000 </r>
       <r>   18.9597    0.0000 </r>
       <r>   21.1860    0.0000 </r>
      </set>
      <set comment="kpoint 25">
       <r>  -45.1163    1.0000 </r>
       <r>  -45.1154    1.0000 </r>
       <r>  -45.0664    1.0000 </r>
       <r>  -45.0546    1.0000 </r>
       <r>  -44.9661    1.0000 </r>
       <r>  -44.9136    1.0000 </r>
       <r>    2.3452    1.0000 </r>
       <r>    3.4540    1.0000 </r>
       <r>    3.5905    1.0000 </r>
       <r>    3.6350    1.0000 </r>
       <r>    4.4185    1.0000 </r>
       <r>    4.4648    1.0000 </r>
       <r>    5.0150    1.0000 </r>
       <r>    5.3751    1.0000 </r>
       <r>    6.3353    1.0000 </r>
       <r>    6.4486    1.0000 </r>
       <r>    6.9787    0.0000 </r>
       <r>   10.0407    0.0000 </r>
       <r>   13.2460    0.0000 </r>
       <r>   15.2028    0.0000 </r>
       <r>   15.8901    0.0000 </r>
       <r>   19.8828    0.0000 </r>
       <r>   20.5749    0.0000 </r>
       <r>   22.1912    0.0000 </r>
      </set>
      <set comment="kpoint 26">
       <r>  -45.1361    1.0000 </r>
       <r>  -45.1283    1.0000 </r>
       <r>  -45.0840    1.0000 </r>
       <r>  -45.0693    1.0000 </r>
       <r>  -44.9531    1.0000 </r>
       <r>  -44.9206    1.0000 </r>
       <r>    2.9574    1.0000 </r>
       <r>    3.3041    1.0000 </r>
       <r>    3.4311    1.0000 </r>
       <r>    3.9344    1.0000 </r>
       <r>    4.4756    1.0000 </r>
       <r>    4.7268    1.0000 </r>
       <r>    4.8810    1.0000 </r>
       <r>    5.8095    1.0000 </r>
       <r>    6.2604    1.0000 </r>
       <r>    6.7002    0.0609 </r>
       <r>    8.1616    0.0000 </r>
       <r>   11.3540    0.0000 </r>
       <r>   12.1980    0.0000 </r>
       <r>   14.2612    0.0000 </r>
       <r>   15.2173    0.0000 </r>
       <r>   17.4814    0.0000 </r>
       <r>   19.5695    0.0000 </r>
       <r>   20.1322    0.0000 </r>
      </set>
      <set comment="kpoint 27">
       <r>  -45.1434    1.0000 </r>
       <r>  -45.1315    1.0000 </r>
       <r>  -45.0921    1.0000 </r>
       <r>  -45.0750    1.0000 </r>
       <r>  -44.9457    1.0000 </r>
       <r>  -44.9257    1.0000 </r>
       <r>    2.9836    1.0000 </r>
       <r>    3.2207    1.0000 </r>
       <r>    3.4840    1.0000 </r>
       <r>    4.0889    1.0000 </r>
       <r>    4.3834    1.0000 </r>
       <r>    4.8817    1.0000 </r>
       <r>    5.0733    1.0000 </r>
       <r>    6.2266    1.0000 </r>
       <r>    6.2577    1.0000 </r>
       <r>    6.5650    0.9886 </r>
       <r>    9.7061    0.0000 </r>
       <r>    9.7895    0.0000 </r>
       <r>   12.8517    0.0000 </r>
       <r>   13.8804    0.0000 </r>
       <r>   14.8703    0.0000 </r>
       <r>   17.1708    0.0000 </r>
       <r>   18.5619    0.0000 </r>
       <r>   19.3282    0.0000 </r>
      </set>
      <set comment="kpoint 28">
       <r>  -45.1309    1.0000 </r>
       <r>  -45.1220    1.0000 </r>
       <r>  -45.1053    1.0000 </r>
       <r>  -45.0930    1.0000 </r>
       <r>  -44.9412    1.0000 </r>
       <r>  -44.9287    1.0000 </r>
       <r>    3.3307    1.0000 </r>
       <r>    3.4585    1.0000 </r>
       <r>    3.7027    1.0000 </r>
       <r>    3.9240    1.0000 </r>
       <r>    4.4475    1.0000 </r>
       <r>    4.4741    1.0000 </r>
       <r>    5.0225    1.0000 </r>
       <r>    6.0483    1.0000 </r>
       <r>    6.1266    1.0000 </r>
       <r>    6.4827    1.0000 </r>
       <r>    9.5153    0.0000 </r>
       <r>   10.7338    0.0000 </r>
       <r>   12.3136    0.0000 </r>
       <r>   13.9596    0.0000 </r>
       <r>   16.1300    0.0000 </r>
       <r>   16.4851    0.0000 </r>
       <r>   17.8598    0.0000 </r>
       <r>   19.2132    0.0000 </r>
      </set>
      <set comment="kpoint 29">
       <r>  -45.0286    1.0000 </r>
       <r>  -45.0286    1.0000 </r>
       <r>  -45.0186    1.0000 </r>
       <r>  -45.0186    1.0000 </r>
       <r>  -44.9899    1.0000 </r>
       <r>  -44.9151    1.0000 </r>
       <r>   -0.0435    1.0000 </r>
       <r>    1.7323    1.0000 </r>
       <r>    4.1198    1.0000 </r>
       <r>    4.4540    1.0000 </r>
       <r>    4.4540    1.0000 </r>
       <r>    4.6255    1.0000 </r>
       <r>    4.6255    1.0000 </r>
       <r>    5.3670    1.0000 </r>
       <r>    5.7460    1.0000 </r>
       <r>    5.7460    1.0000 </r>
       <r>    6.4351    1.0000 </r>
       <r>    6.4351    1.0000 </r>
       <r>   12.5353    0.0000 </r>
       <r>   20.2858    0.0000 </r>
       <r>   22.1631    0.0000 </r>
       <r>   22.7987    0.0000 </r>
       <r>   24.5493    0.0000 </r>
       <r>   24.5493    0.0000 </r>
      </set>
      <set comment="kpoint 30">
       <r>  -45.0416    1.0000 </r>
       <r>  -45.0320    1.0000 </r>
       <r>  -45.0314    1.0000 </r>
       <r>  -45.0215    1.0000 </r>
       <r>  -44.9860    1.0000 </r>
       <r>  -44.9148    1.0000 </r>
       <r>    0.2305    1.0000 </r>
       <r>    1.9939    1.0000 </r>
       <r>    4.1370    1.0000 </r>
       <r>    4.3550    1.0000 </r>
       <r>    4.4295    1.0000 </r>
       <r>    4.6204    1.0000 </r>
       <r>    4.7901    1.0000 </r>
       <r>    4.9984    1.0000 </r>
       <r>    5.6764    1.0000 </r>
       <r>    5.6871    1.0000 </r>
       <r>    6.4466    1.0000 </r>
       <r>    6.9284    0.0000 </r>
       <r>   12.7194    0.0000 </r>
       <r>   20.5672    0.0000 </r>
       <r>   21.9396    0.0000 </r>
       <r>   22.7386    0.0000 </r>
       <r>   23.3949    0.0000 </r>
       <r>   23.6616    0.0000 </r>
      </set>
      <set comment="kpoint 31">
       <r>  -45.0739    1.0000 </r>
       <r>  -45.0642    1.0000 </r>
       <r>  -45.0410    1.0000 </r>
       <r>  -45.0289    1.0000 </r>
       <r>  -44.9770    1.0000 </r>
       <r>  -44.9151    1.0000 </r>
       <r>    0.9765    1.0000 </r>
       <r>    2.6175    1.0000 </r>
       <r>    3.9450    1.0000 </r>
       <r>    4.0858    1.0000 </r>
       <r>    4.2110    1.0000 </r>
       <r>    4.7378    1.0000 </r>
       <r>    5.0221    1.0000 </r>
       <r>    5.2381    1.0000 </r>
       <r>    5.5909    1.0000 </r>
       <r>    5.6262    1.0000 </r>
       <r>    6.4588    1.0000 </r>
       <r>    7.6538    0.0000 </r>
       <r>   13.2635    0.0000 </r>
       <r>   18.9388    0.0000 </r>
       <r>   21.0908    0.0000 </r>
       <r>   21.8110    0.0000 </r>
       <r>   21.9507    0.0000 </r>
       <r>   23.5239    0.0000 </r>
      </set>
      <set comment="kpoint 32">
       <r>  -45.1138    1.0000 </r>
       <r>  -45.1043    1.0000 </r>
       <r>  -45.0522    1.0000 </r>
       <r>  -45.0383    1.0000 </r>
       <r>  -44.9651    1.0000 </r>
       <r>  -44.9173    1.0000 </r>
       <r>    1.8527    1.0000 </r>
       <r>    2.8669    1.0000 </r>
       <r>    3.5735    1.0000 </r>
       <r>    3.9155    1.0000 </r>
       <r>    4.5125    1.0000 </r>
       <r>    5.0618    1.0000 </r>
       <r>    5.1110    1.0000 </r>
       <r>    5.8242    1.0000 </r>
       <r>    5.8506    1.0000 </r>
       <r>    5.9792    1.0000 </r>
       <r>    6.4800    1.0000 </r>
       <r>    8.3693    0.0000 </r>
       <r>   13.8349    0.0000 </r>
       <r>   15.9422    0.0000 </r>
       <r>   18.3813    0.0000 </r>
       <r>   20.2122    0.0000 </r>
       <r>   21.6020    0.0000 </r>
       <r>   23.0785    0.0000 </r>
      </set>
      <set comment="kpoint 33">
       <r>  -45.1458    1.0000 </r>
       <r>  -45.1364    1.0000 </r>
       <r>  -45.0611    1.0000 </r>
       <r>  -45.0458    1.0000 </r>
       <r>  -44.9538    1.0000 </r>
       <r>  -44.9209    1.0000 </r>
       <r>    2.2514    1.0000 </r>
       <r>    2.6785    1.0000 </r>
       <r>    3.4539    1.0000 </r>
       <r>    3.7187    1.0000 </r>
       <r>    4.9976    1.0000 </r>
       <r>    5.0176    1.0000 </r>
       <r>    6.0034    1.0000 </r>
       <r>    6.2367    1.0000 </r>
       <r>    6.5610    0.9916 </r>
       <r>    6.6920    0.0940 </r>
       <r>    6.6925    0.0916 </r>
       <r>    9.4132    0.0000 </r>
       <r>   12.0649    0.0000 </r>
       <r>   14.5365    0.0000 </r>
       <r>   16.5498    0.0000 </r>
       <r>   18.8746    0.0000 </r>
       <r>   20.0855    0.0000 </r>
       <r>   22.5894    0.0000 </r>
      </set>
      <set comment="kpoint 34">
       <r>  -45.1579    1.0000 </r>
       <r>  -45.1485    1.0000 </r>
       <r>  -45.0646    1.0000 </r>
       <r>  -45.0490    1.0000 </r>
       <r>  -44.9482    1.0000 </r>
       <r>  -44.9236    1.0000 </r>
       <r>    2.2935    1.0000 </r>
       <r>    2.5778    1.0000 </r>
       <r>    3.4025    1.0000 </r>
       <r>    3.6886    1.0000 </r>
       <r>    4.9482    1.0000 </r>
       <r>    5.1492    1.0000 </r>
       <r>    6.2780    1.0000 </r>
       <r>    6.4128    1.0000 </r>
       <r>    6.8231    0.0000 </r>
       <r>    6.8982    0.0000 </r>
       <r>    8.2114    0.0000 </r>
       <r>    9.3469    0.0000 </r>
       <r>   11.9177    0.0000 </r>
       <r>   12.0588    0.0000 </r>
       <r>   17.1568    0.0000 </r>
       <r>   18.3568    0.0000 </r>
       <r>   18.9967    0.0000 </r>
       <r>   22.2709    0.0000 </r>
      </set>
      <set comment="kpoint 35">
       <r>  -45.0624    1.0000 </r>
       <r>  -45.0549    1.0000 </r>
       <r>  -45.0376    1.0000 </r>
       <r>  -45.0281    1.0000 </r>
       <r>  -44.9799    1.0000 </r>
       <r>  -44.9149    1.0000 </r>
       <r>    0.7472    1.0000 </r>
       <r>    2.4656    1.0000 </r>
       <r>    4.0535    1.0000 </r>
       <r>    4.0675    1.0000 </r>
       <r>    4.2840    1.0000 </r>
       <r>    4.6833    1.0000 </r>
       <r>    4.9377    1.0000 </r>
       <r>    5.1158    1.0000 </r>
       <r>    5.6072    1.0000 </r>
       <r>    5.6548    1.0000 </r>
       <r>    6.4337    1.0000 </r>
       <r>    7.4772    0.0000 </r>
       <r>   13.0918    0.0000 </r>
       <r>   20.5245    0.0000 </r>
       <r>   20.5610    0.0000 </r>
       <r>   21.5025    0.0000 </r>
       <r>   22.6394    0.0000 </r>
       <r>   23.0307    0.0000 </r>
      </set>
      <set comment="kpoint 36">
       <r>  -45.0958    1.0000 </r>
       <r>  -45.0893    1.0000 </r>
       <r>  -45.0500    1.0000 </r>
       <r>  -45.0390    1.0000 </r>
       <r>  -44.9692    1.0000 </r>
       <r>  -44.9161    1.0000 </r>
       <r>    1.6192    1.0000 </r>
       <r>    3.0640    1.0000 </r>
       <r>    3.6301    1.0000 </r>
       <r>    3.9615    1.0000 </r>
       <r>    4.1755    1.0000 </r>
       <r>    4.6143    1.0000 </r>
       <r>    5.1329    1.0000 </r>
       <r>    5.4980    1.0000 </r>
       <r>    5.8651    1.0000 </r>
       <r>    5.9280    1.0000 </r>
       <r>    6.4460    1.0000 </r>
       <r>    8.1537    0.0000 </r>
       <r>   13.7703    0.0000 </r>
       <r>   17.3732    0.0000 </r>
       <r>   18.9911    0.0000 </r>
       <r>   20.4248    0.0000 </r>
       <r>   21.9934    0.0000 </r>
       <r>   22.0216    0.0000 </r>
      </set>
      <set comment="kpoint 37">
       <r>  -45.1301    1.0000 </r>
       <r>  -45.1220    1.0000 </r>
       <r>  -45.0627    1.0000 </r>
       <r>  -45.0495    1.0000 </r>
       <r>  -44.9575    1.0000 </r>
       <r>  -44.9194    1.0000 </r>
       <r>    2.3225    1.0000 </r>
       <r>    2.9865    1.0000 </r>
       <r>    3.4622    1.0000 </r>
       <r>    3.8436    1.0000 </r>
       <r>    4.6090    1.0000 </r>
       <r>    5.0060    1.0000 </r>
       <r>    5.1182    1.0000 </r>
       <r>    5.8324    1.0000 </r>
       <r>    6.1692    1.0000 </r>
       <r>    6.5473    0.9973 </r>
       <r>    6.9395    0.0000 </r>
       <r>    9.0924    0.0000 </r>
       <r>   13.3373    0.0000 </r>
       <r>   15.4811    0.0000 </r>
       <r>   16.6488    0.0000 </r>
       <r>   18.5524    0.0000 </r>
       <r>   21.0053    0.0000 </r>
       <r>   21.3340    0.0000 </r>
      </set>
      <set comment="kpoint 38">
       <r>  -45.1511    1.0000 </r>
       <r>  -45.1421    1.0000 </r>
       <r>  -45.0707    1.0000 </r>
       <r>  -45.0560    1.0000 </r>
       <r>  -44.9480    1.0000 </r>
       <r>  -44.9233    1.0000 </r>
       <r>    2.4608    1.0000 </r>
       <r>    2.8021    1.0000 </r>
       <r>    3.5150    1.0000 </r>
       <r>    3.7029    1.0000 </r>
       <r>    4.6405    1.0000 </r>
       <r>    5.2848    1.0000 </r>
       <r>    5.7968    1.0000 </r>
       <r>    6.1511    1.0000 </r>
       <r>    6.4688    1.0000 </r>
       <r>    6.7925    0.0000 </r>
       <r>    8.1965    0.0000 </r>
       <r>   10.2065    0.0000 </r>
       <r>   11.3086    0.0000 </r>
       <r>   13.4259    0.0000 </r>
       <r>   16.5117    0.0000 </r>
       <r>   17.9598    0.0000 </r>
       <r>   19.5881    0.0000 </r>
       <r>   20.5030    0.0000 </r>
      </set>
      <set comment="kpoint 39">
       <r>  -45.1169    1.0000 </r>
       <r>  -45.1159    1.0000 </r>
       <r>  -45.0655    1.0000 </r>
       <r>  -45.0563    1.0000 </r>
       <r>  -44.9588    1.0000 </r>
       <r>  -44.9185    1.0000 </r>
       <r>    2.4682    1.0000 </r>
       <r>    3.3294    1.0000 </r>
       <r>    3.6400    1.0000 </r>
       <r>    3.7114    1.0000 </r>
       <r>    4.3913    1.0000 </r>
       <r>    4.4057    1.0000 </r>
       <r>    4.9233    1.0000 </r>
       <r>    5.6737    1.0000 </r>
       <r>    6.0730    1.0000 </r>
       <r>    6.5785    0.9709 </r>
       <r>    7.0338    0.0000 </r>
       <r>    9.0560    0.0000 </r>
       <r>   14.0947    0.0000 </r>
       <r>   16.1141    0.0000 </r>
       <r>   16.1631    0.0000 </r>
       <r>   18.8432    0.0000 </r>
       <r>   19.7967    0.0000 </r>
       <r>   22.1079    0.0000 </r>
      </set>
      <set comment="kpoint 40">
       <r>  -45.1358    1.0000 </r>
       <r>  -45.1298    1.0000 </r>
       <r>  -45.0829    1.0000 </r>
       <r>  -45.0715    1.0000 </r>
       <r>  -44.9479    1.0000 </r>
       <r>  -44.9231    1.0000 </r>
       <r>    2.8971    1.0000 </r>
       <r>    3.3914    1.0000 </r>
       <r>    3.4053    1.0000 </r>
       <r>    3.9383    1.0000 </r>
       <r>    4.3818    1.0000 </r>
       <r>    4.7757    1.0000 </r>
       <r>    5.0216    1.0000 </r>
       <r>    5.9044    1.0000 </r>
       <r>    6.0445    1.0000 </r>
       <r>    6.8054    0.0000 </r>
       <r>    8.2661    0.0000 </r>
       <r>   10.6228    0.0000 </r>
       <r>   12.2163    0.0000 </r>
       <r>   14.4334    0.0000 </r>
       <r>   15.8125    0.0000 </r>
       <r>   17.3498    0.0000 </r>
       <r>   18.8041    0.0000 </r>
       <r>   20.9383    0.0000 </r>
      </set>
      <set comment="kpoint 41">
       <r>  -45.1429    1.0000 </r>
       <r>  -45.1339    1.0000 </r>
       <r>  -45.0907    1.0000 </r>
       <r>  -45.0774    1.0000 </r>
       <r>  -44.9419    1.0000 </r>
       <r>  -44.9266    1.0000 </r>
       <r>    2.8832    1.0000 </r>
       <r>    3.2964    1.0000 </r>
       <r>    3.6973    1.0000 </r>
       <r>    3.8104    1.0000 </r>
       <r>    4.2193    1.0000 </r>
       <r>    5.0989    1.0000 </r>
       <r>    5.2915    1.0000 </r>
       <r>    5.9319    1.0000 </r>
       <r>    6.3147    1.0000 </r>
       <r>    6.6525    0.4212 </r>
       <r>    9.9292    0.0000 </r>
       <r>    9.9846    0.0000 </r>
       <r>   12.2806    0.0000 </r>
       <r>   13.1199    0.0000 </r>
       <r>   14.8207    0.0000 </r>
       <r>   17.9749    0.0000 </r>
       <r>   18.6148    0.0000 </r>
       <r>   19.7248    0.0000 </r>
      </set>
      <set comment="kpoint 42">
       <r>  -45.1300    1.0000 </r>
       <r>  -45.1238    1.0000 </r>
       <r>  -45.1054    1.0000 </r>
       <r>  -45.0955    1.0000 </r>
       <r>  -44.9384    1.0000 </r>
       <r>  -44.9292    1.0000 </r>
       <r>    3.3495    1.0000 </r>
       <r>    3.4181    1.0000 </r>
       <r>    3.8090    1.0000 </r>
       <r>    3.8588    1.0000 </r>
       <r>    4.3382    1.0000 </r>
       <r>    4.5386    1.0000 </r>
       <r>    5.0388    1.0000 </r>
       <r>    5.8169    1.0000 </r>
       <r>    6.2155    1.0000 </r>
       <r>    6.5870    0.9511 </r>
       <r>    9.7530    0.0000 </r>
       <r>   11.0765    0.0000 </r>
       <r>   12.7325    0.0000 </r>
       <r>   12.8329    0.0000 </r>
       <r>   14.9708    0.0000 </r>
       <r>   15.9991    0.0000 </r>
       <r>   19.0022    0.0000 </r>
       <r>   20.4943    0.0000 </r>
      </set>
      <set comment="kpoint 43">
       <r>  -45.0260    1.0000 </r>
       <r>  -45.0260    1.0000 </r>
       <r>  -45.0206    1.0000 </r>
       <r>  -45.0206    1.0000 </r>
       <r>  -44.9723    1.0000 </r>
       <r>  -44.9318    1.0000 </r>
       <r>    0.4176    1.0000 </r>
       <r>    1.4377    1.0000 </r>
       <r>    4.1071    1.0000 </r>
       <r>    4.4546    1.0000 </r>
       <r>    4.4546    1.0000 </r>
       <r>    4.5514    1.0000 </r>
       <r>    4.5514    1.0000 </r>
       <r>    4.6012    1.0000 </r>
       <r>    5.9485    1.0000 </r>
       <r>    5.9485    1.0000 </r>
       <r>    6.3187    1.0000 </r>
       <r>    6.3187    1.0000 </r>
       <r>   14.5640    0.0000 </r>
       <r>   18.7040    0.0000 </r>
       <r>   21.9486    0.0000 </r>
       <r>   22.3248    0.0000 </r>
       <r>   24.6637    0.0000 </r>
       <r>   24.6637    0.0000 </r>
      </set>
      <set comment="kpoint 44">
       <r>  -45.0395    1.0000 </r>
       <r>  -45.0340    1.0000 </r>
       <r>  -45.0296    1.0000 </r>
       <r>  -45.0238    1.0000 </r>
       <r>  -44.9693    1.0000 </r>
       <r>  -44.9309    1.0000 </r>
       <r>    0.6876    1.0000 </r>
       <r>    1.7070    1.0000 </r>
       <r>    4.0945    1.0000 </r>
       <r>    4.2216    1.0000 </r>
       <r>    4.3429    1.0000 </r>
       <r>    4.6164    1.0000 </r>
       <r>    4.6312    1.0000 </r>
       <r>    4.7137    1.0000 </r>
       <r>    5.8983    1.0000 </r>
       <r>    5.9396    1.0000 </r>
       <r>    6.3096    1.0000 </r>
       <r>    6.5246    0.9997 </r>
       <r>   14.7419    0.0000 </r>
       <r>   18.9204    0.0000 </r>
       <r>   21.9003    0.0000 </r>
       <r>   22.3665    0.0000 </r>
       <r>   23.2953    0.0000 </r>
       <r>   24.0410    0.0000 </r>
      </set>
      <set comment="kpoint 45">
       <r>  -45.0724    1.0000 </r>
       <r>  -45.0671    1.0000 </r>
       <r>  -45.0384    1.0000 </r>
       <r>  -45.0319    1.0000 </r>
       <r>  -44.9619    1.0000 </r>
       <r>  -44.9288    1.0000 </r>
       <r>    1.3982    1.0000 </r>
       <r>    2.3646    1.0000 </r>
       <r>    3.7959    1.0000 </r>
       <r>    4.0087    1.0000 </r>
       <r>    4.2013    1.0000 </r>
       <r>    4.5510    1.0000 </r>
       <r>    5.0252    1.0000 </r>
       <r>    5.1542    1.0000 </r>
       <r>    5.8281    1.0000 </r>
       <r>    5.9783    1.0000 </r>
       <r>    6.2873    1.0000 </r>
       <r>    6.9408    0.0000 </r>
       <r>   15.1930    0.0000 </r>
       <r>   19.2305    0.0000 </r>
       <r>   19.4708    0.0000 </r>
       <r>   20.8943    0.0000 </r>
       <r>   22.6114    0.0000 </r>
       <r>   23.2790    0.0000 </r>
      </set>
      <set comment="kpoint 46">
       <r>  -45.1127    1.0000 </r>
       <r>  -45.1075    1.0000 </r>
       <r>  -45.0491    1.0000 </r>
       <r>  -45.0417    1.0000 </r>
       <r>  -44.9532    1.0000 </r>
       <r>  -44.9275    1.0000 </r>
       <r>    2.1083    1.0000 </r>
       <r>    2.7174    1.0000 </r>
       <r>    3.5296    1.0000 </r>
       <r>    3.7764    1.0000 </r>
       <r>    4.6724    1.0000 </r>
       <r>    5.0018    1.0000 </r>
       <r>    5.2828    1.0000 </r>
       <r>    5.6905    1.0000 </r>
       <r>    6.0696    1.0000 </r>
       <r>    6.1532    1.0000 </r>
       <r>    6.3365    1.0000 </r>
       <r>    7.4327    0.0000 </r>
       <r>   15.0173    0.0000 </r>
       <r>   16.8079    0.0000 </r>
       <r>   17.5818    0.0000 </r>
       <r>   20.3471    0.0000 </r>
       <r>   20.9973    0.0000 </r>
       <r>   23.1328    0.0000 </r>
      </set>
      <set comment="kpoint 47">
       <r>  -45.1446    1.0000 </r>
       <r>  -45.1396    1.0000 </r>
       <r>  -45.0578    1.0000 </r>
       <r>  -45.0496    1.0000 </r>
       <r>  -44.9453    1.0000 </r>
       <r>  -44.9276    1.0000 </r>
       <r>    2.3070    1.0000 </r>
       <r>    2.6098    1.0000 </r>
       <r>    3.4285    1.0000 </r>
       <r>    3.5427    1.0000 </r>
       <r>    5.2477    1.0000 </r>
       <r>    5.4321    1.0000 </r>
       <r>    5.9109    1.0000 </r>
       <r>    6.3860    1.0000 </r>
       <r>    6.5936    0.9288 </r>
       <r>    6.6556    0.3871 </r>
       <r>    6.6677    0.2651 </r>
       <r>    8.3190    0.0000 </r>
       <r>   12.5470    0.0000 </r>
       <r>   13.9372    0.0000 </r>
       <r>   17.8283    0.0000 </r>
       <r>   19.7055    0.0000 </r>
       <r>   20.0809    0.0000 </r>
       <r>   21.8152    0.0000 </r>
      </set>
      <set comment="kpoint 48">
       <r>  -45.1568    1.0000 </r>
       <r>  -45.1519    1.0000 </r>
       <r>  -45.0611    1.0000 </r>
       <r>  -45.0527    1.0000 </r>
       <r>  -44.9418    1.0000 </r>
       <r>  -44.9279    1.0000 </r>
       <r>    2.2996    1.0000 </r>
       <r>    2.5370    1.0000 </r>
       <r>    3.4173    1.0000 </r>
       <r>    3.4351    1.0000 </r>
       <r>    5.2159    1.0000 </r>
       <r>    5.6423    1.0000 </r>
       <r>    5.9284    1.0000 </r>
       <r>    6.7096    0.0348 </r>
       <r>    6.8423    0.0000 </r>
       <r>    6.8819    0.0000 </r>
       <r>    8.1398    0.0000 </r>
       <r>    9.0688    0.0000 </r>
       <r>   11.4091    0.0000 </r>
       <r>   11.5524    0.0000 </r>
       <r>   18.5637    0.0000 </r>
       <r>   19.2008    0.0000 </r>
       <r>   19.4567    0.0000 </r>
       <r>   21.2886    0.0000 </r>
      </set>
      <set comment="kpoint 49">
       <r>  -45.0612    1.0000 </r>
       <r>  -45.0569    1.0000 </r>
       <r>  -45.0357    1.0000 </r>
       <r>  -45.0307    1.0000 </r>
       <r>  -44.9640    1.0000 </r>
       <r>  -44.9293    1.0000 </r>
       <r>    1.1876    1.0000 </r>
       <r>    2.1943    1.0000 </r>
       <r>    3.8935    1.0000 </r>
       <r>    4.0639    1.0000 </r>
       <r>    4.1605    1.0000 </r>
       <r>    4.5037    1.0000 </r>
       <r>    4.9329    1.0000 </r>
       <r>    5.0424    1.0000 </r>
       <r>    5.8506    1.0000 </r>
       <r>    5.9583    1.0000 </r>
       <r>    6.2774    1.0000 </r>
       <r>    6.8370    0.0000 </r>
       <r>   15.0701    0.0000 </r>
       <r>   19.2410    0.0000 </r>
       <r>   21.0053    0.0000 </r>
       <r>   21.1489    0.0000 </r>
       <r>   22.0511    0.0000 </r>
       <r>   22.2647    0.0000 </r>
      </set>
      <set comment="kpoint 50">
       <r>  -45.0950    1.0000 </r>
       <r>  -45.0915    1.0000 </r>
       <r>  -45.0477    1.0000 </r>
       <r>  -45.0417    1.0000 </r>
       <r>  -44.9561    1.0000 </r>
       <r>  -44.9277    1.0000 </r>
       <r>    1.9738    1.0000 </r>
       <r>    2.8286    1.0000 </r>
       <r>    3.5960    1.0000 </r>
       <r>    3.9331    1.0000 </r>
       <r>    4.1311    1.0000 </r>
       <r>    4.4563    1.0000 </r>
       <r>    5.2241    1.0000 </r>
       <r>    5.5570    1.0000 </r>
       <r>    6.0390    1.0000 </r>
       <r>    6.0995    1.0000 </r>
       <r>    6.3283    1.0000 </r>
       <r>    7.2942    0.0000 </r>
       <r>   15.4766    0.0000 </r>
       <r>   18.0457    0.0000 </r>
       <r>   18.5293    0.0000 </r>
       <r>   20.0556    0.0000 </r>
       <r>   20.5087    0.0000 </r>
       <r>   21.3944    0.0000 </r>
      </set>
      <set comment="kpoint 51">
       <r>  -45.1291    1.0000 </r>
       <r>  -45.1247    1.0000 </r>
       <r>  -45.0599    1.0000 </r>
       <r>  -45.0527    1.0000 </r>
       <r>  -44.9475    1.0000 </r>
       <r>  -44.9271    1.0000 </r>
       <r>    2.4484    1.0000 </r>
       <r>    2.8700    1.0000 </r>
       <r>    3.4677    1.0000 </r>
       <r>    3.7406    1.0000 </r>
       <r>    4.7658    1.0000 </r>
       <r>    5.0354    1.0000 </r>
       <r>    5.2847    1.0000 </r>
       <r>    5.7676    1.0000 </r>
       <r>    6.2274    1.0000 </r>
       <r>    6.6513    0.4343 </r>
       <r>    6.9727    0.0000 </r>
       <r>    8.0837    0.0000 </r>
       <r>   13.9502    0.0000 </r>
       <r>   15.5310    0.0000 </r>
       <r>   17.3400    0.0000 </r>
       <r>   19.0280    0.0000 </r>
       <r>   20.2550    0.0000 </r>
       <r>   20.6520    0.0000 </r>
      </set>
      <set comment="kpoint 52">
       <r>  -45.1501    1.0000 </r>
       <r>  -45.1452    1.0000 </r>
       <r>  -45.0674    1.0000 </r>
       <r>  -45.0595    1.0000 </r>
       <r>  -44.9414    1.0000 </r>
       <r>  -44.9279    1.0000 </r>
       <r>    2.4759    1.0000 </r>
       <r>    2.7525    1.0000 </r>
       <r>    3.4537    1.0000 </r>
       <r>    3.5790    1.0000 </r>
       <r>    4.8789    1.0000 </r>
       <r>    5.6293    1.0000 </r>
       <r>    5.7315    1.0000 </r>
       <r>    6.0886    1.0000 </r>
       <r>    6.4829    1.0000 </r>
       <r>    6.7916    0.0000 </r>
       <r>    8.3504    0.0000 </r>
       <r>    9.4531    0.0000 </r>
       <r>   11.5019    0.0000 </r>
       <r>   12.6825    0.0000 </r>
       <r>   17.5888    0.0000 </r>
       <r>   18.9038    0.0000 </r>
       <r>   19.6433    0.0000 </r>
       <r>   20.0502    0.0000 </r>
      </set>
      <set comment="kpoint 53">
       <r>  -45.1174    1.0000 </r>
       <r>  -45.1166    1.0000 </r>
       <r>  -45.0640    1.0000 </r>
       <r>  -45.0589    1.0000 </r>
       <r>  -44.9485    1.0000 </r>
       <r>  -44.9269    1.0000 </r>
       <r>    2.6600    1.0000 </r>
       <r>    3.1349    1.0000 </r>
       <r>    3.7293    1.0000 </r>
       <r>    3.7950    1.0000 </r>
       <r>    4.2800    1.0000 </r>
       <r>    4.2824    1.0000 </r>
       <r>    5.0446    1.0000 </r>
       <r>    5.6601    1.0000 </r>
       <r>    6.2262    1.0000 </r>
       <r>    6.6781    0.1781 </r>
       <r>    7.0911    0.0000 </r>
       <r>    8.0949    0.0000 </r>
       <r>   14.9934    0.0000 </r>
       <r>   16.3413    0.0000 </r>
       <r>   17.2705    0.0000 </r>
       <r>   18.0267    0.0000 </r>
       <r>   19.2298    0.0000 </r>
       <r>   20.8906    0.0000 </r>
      </set>
      <set comment="kpoint 54">
       <r>  -45.1353    1.0000 </r>
       <r>  -45.1320    1.0000 </r>
       <r>  -45.0810    1.0000 </r>
       <r>  -45.0746    1.0000 </r>
       <r>  -44.9410    1.0000 </r>
       <r>  -44.9277    1.0000 </r>
       <r>    2.9130    1.0000 </r>
       <r>    3.1972    1.0000 </r>
       <r>    3.5621    1.0000 </r>
       <r>    3.9488    1.0000 </r>
       <r>    4.4160    1.0000 </r>
       <r>    4.7749    1.0000 </r>
       <r>    5.1345    1.0000 </r>
       <r>    5.5755    1.0000 </r>
       <r>    6.3494    1.0000 </r>
       <r>    6.8325    0.0000 </r>
       <r>    8.4842    0.0000 </r>
       <r>    9.6712    0.0000 </r>
       <r>   12.7563    0.0000 </r>
       <r>   14.1782    0.0000 </r>
       <r>   16.0298    0.0000 </r>
       <r>   17.3129    0.0000 </r>
       <r>   19.0675    0.0000 </r>
       <r>   21.0398    0.0000 </r>
      </set>
      <set comment="kpoint 55">
       <r>  -45.1418    1.0000 </r>
       <r>  -45.1370    1.0000 </r>
       <r>  -45.0883    1.0000 </r>
       <r>  -45.0810    1.0000 </r>
       <r>  -44.9373    1.0000 </r>
       <r>  -44.9289    1.0000 </r>
       <r>    2.8939    1.0000 </r>
       <r>    3.2347    1.0000 </r>
       <r>    3.5647    1.0000 </r>
       <r>    3.9038    1.0000 </r>
       <r>    4.3205    1.0000 </r>
       <r>    5.0630    1.0000 </r>
       <r>    5.4730    1.0000 </r>
       <r>    5.6623    1.0000 </r>
       <r>    6.4368    1.0000 </r>
       <r>    6.6808    0.1588 </r>
       <r>   10.1876    0.0000 </r>
       <r>   10.4163    0.0000 </r>
       <r>   11.5763    0.0000 </r>
       <r>   12.2497    0.0000 </r>
       <r>   15.3773    0.0000 </r>
       <r>   17.0690    0.0000 </r>
       <r>   19.9258    0.0000 </r>
       <r>   20.4469    0.0000 </r>
      </set>
      <set comment="kpoint 56">
       <r>  -45.1285    1.0000 </r>
       <r>  -45.1257    1.0000 </r>
       <r>  -45.1047    1.0000 </r>
       <r>  -45.0988    1.0000 </r>
       <r>  -44.9350    1.0000 </r>
       <r>  -44.9297    1.0000 </r>
       <r>    3.3490    1.0000 </r>
       <r>    3.3685    1.0000 </r>
       <r>    3.8699    1.0000 </r>
       <r>    3.9284    1.0000 </r>
       <r>    4.2814    1.0000 </r>
       <r>    4.5320    1.0000 </r>
       <r>    5.0812    1.0000 </r>
[...]
       </set>
       <set comment="band 12">
        <r>  0.0004  0.0002  0.0000  0.0001  0.0035  0.0505  0.0137  0.0411  0.0031 </r>
        <r>  0.0116  0.0061  0.0000  0.0024  0.1045  0.0017  0.4069  0.0014  0.0917 </r>
       </set>
       <set comment="band 13">
        <r>  0.0000  0.0000  0.0001  0.0000  0.0000  0.2127  0.0000  0.5150  0.0000 </r>
        <r>  0.0021  0.0006  0.0000  0.0002  0.0602  0.0001  0.0025  0.0001  0.0434 </r>
       </set>
       <set comment="band 14">
        <r>  0.0021  0.0006  0.0000  0.0002  0.0602  0.0001  0.0025  0.0001  0.0434 </r>
        <r>  0.0000  0.0000  0.0001  0.0000  0.0000  0.2127  0.0000  0.5150  0.0000 </r>
       </set>
       <set comment="band 15">
        <r>  0.0025  0.0000  0.0000  0.0000  0.1921  0.0055  0.3258  0.0044  0.0669 </r>
        <r>  0.0001  0.0000  0.0007  0.0000  0.0064  0.1644  0.0108  0.1329  0.0022 </r>
       </set>
       <set comment="band 16">
        <r>  0.0001  0.0000  0.0007  0.0000  0.0064  0.1644  0.0108  0.1329  0.0022 </r>
        <r>  0.0025  0.0000  0.0000  0.0000  0.1921  0.0055  0.3258  0.0044  0.0669 </r>
       </set>
       <set comment="band 17">
        <r>  0.0379  0.0054  0.0041  0.0018  0.1104  0.0892  0.0052  0.0301  0.0396 </r>
        <r>  0.0560  0.0080  0.0028  0.0027  0.1633  0.0603  0.0076  0.0203  0.0587 </r>
       </set>
       <set comment="band 18">
        <r>  0.0560  0.0080  0.0028  0.0027  0.1633  0.0603  0.0076  0.0203  0.0587 </r>
        <r>  0.0379  0.0054  0.0041  0.0018  0.1104  0.0892  0.0052  0.0301  0.0396 </r>
       </set>
       <set comment="band 19">
        <r>  0.1753  0.0376  0.0071  0.0133  0.0040  0.0038  0.0078  0.0080  0.0028 </r>
        <r>  0.0651  0.0140  0.0190  0.0049  0.0015  0.0103  0.0029  0.0215  0.0010 </r>
       </set>
       <set comment="band 20">
        <r>  0.0651  0.0140  0.0190  0.0049  0.0015  0.0103  0.0029  0.0215  0.0010 </r>
        <r>  0.1753  0.0376  0.0071  0.0133  0.0040  0.0038  0.0078  0.0080  0.0028 </r>
       </set>
       <set comment="band 21">
        <r>  0.0002  0.0308  0.0074  0.0501  0.0261  0.0009  0.0287  0.0019  0.0780 </r>
        <r>  0.0000  0.0046  0.0494  0.0075  0.0039  0.0060  0.0043  0.0124  0.0117 </r>
       </set>
       <set comment="band 22">
        <r>  0.0000  0.0046  0.0494  0.0075  0.0039  0.0060  0.0043  0.0124  0.0117 </r>
        <r>  0.0002  0.0308  0.0074  0.0501  0.0261  0.0009  0.0287  0.0019  0.0780 </r>
       </set>
       <set comment="band 23">
        <r>  0.0038  0.0211  0.0155  0.0211  0.0083  0.0187  0.0342  0.0073  0.0248 </r>
        <r>  0.0019  0.0106  0.0310  0.0106  0.0042  0.0372  0.0172  0.0145  0.0124 </r>
       </set>
       <set comment="band 24">
        <r>  0.0019  0.0106  0.0310  0.0106  0.0042  0.0372  0.0172  0.0145  0.0124 </r>
        <r>  0.0038  0.0211  0.0155  0.0211  0.0083  0.0187  0.0342  0.0073  0.0248 </r>
       </set>
      </set>
      <set comment="kpoint 68">
       <set comment="band 1">
        <r>  0.0000  0.5037  0.0000  0.4708  0.0000  0.0000  0.0000  0.0000  0.0000 </r>
        <r>  0.0000  0.0002  0.0140  0.0002  0.0000  0.0000  0.0000  0.0000  0.0000 </r>
       </set>
       <set comment="band 2">
        <r>  0.0000  0.0002  0.0140  0.0002  0.0000  0.0000  0.0000  0.0000  0.0000 </r>
        <r>  0.0000  0.5037  0.0000  0.4708  0.0000  0.0000  0.0000  0.0000  0.0000 </r>
       </set>
       <set comment="band 3">
        <r>  0.0000  0.4757  0.0000  0.5089  0.0000  0.0000  0.0000  0.0000  0.0000 </r>
        <r>  0.0000  0.0002  0.0064  0.0002  0.0000  0.0000  0.0000  0.0000  0.0000 </r>
       </set>
       <set comment="band 4">
        <r>  0.0000  0.0002  0.0064  0.0002  0.0000  0.0000  0.0000  0.0000  0.0000 </r>
        <r>  0.0000  0.4757  0.0000  0.5089  0.0000  0.0000  0.0000  0.0000  0.0000 </r>
       </set>
       <set comment="band 5">
        <r>  0.0000  0.0002  0.9546  0.0002  0.0000  0.0000  0.0000  0.0000  0.0000 </r>
        <r>  0.0000  0.0103  0.0163  0.0101  0.0000  0.0000  0.0000  0.0000  0.0000 </r>
       </set>
       <set comment="band 6">
        <r>  0.0000  0.0103  0.0163  0.0101  0.0000  0.0000  0.0000  0.0000  0.0000 </r>
        <r>  0.0000  0.0002  0.9546  0.0002  0.0000  0.0000  0.0000  0.0000  0.0000 </r>
       </set>
       <set comment="band 7">
        <r>  0.0026  0.0002  0.0016  0.0000  0.0048  0.1801  0.0024  0.1671  0.0016 </r>
        <r>  0.0543  0.0036  0.0001  0.0008  0.1009  0.0086  0.0505  0.0079  0.0330 </r>
       </set>
       <set comment="band 8">
        <r>  0.0543  0.0036  0.0001  0.0008  0.1009  0.0086  0.0505  0.0079  0.0330 </r>
        <r>  0.0026  0.0002  0.0016  0.0000  0.0048  0.1801  0.0024  0.1671  0.0016 </r>
       </set>
       <set comment="band 9">
        <r>  0.0056  0.0037  0.0000  0.0027  0.2635  0.0006  0.1267  0.0002  0.2137 </r>
        <r>  0.0000  0.0000  0.0015  0.0000  0.0023  0.0736  0.0011  0.0289  0.0018 </r>
       </set>
       <set comment="band 10">
        <r>  0.0000  0.0000  0.0015  0.0000  0.0023  0.0736  0.0011  0.0289  0.0018 </r>
        <r>  0.0056  0.0037  0.0000  0.0027  0.2635  0.0006  0.1267  0.0002  0.2137 </r>
       </set>
       <set comment="band 11">
        <r>  0.0127  0.0057  0.0000  0.0107  0.0607  0.0003  0.1508  0.0005  0.1924 </r>
        <r>  0.0000  0.0000  0.0021  0.0000  0.0002  0.0967  0.0005  0.1567  0.0006 </r>
       </set>
       <set comment="band 12">
        <r>  0.0000  0.0000  0.0021  0.0000  0.0002  0.0967  0.0005  0.1567  0.0006 </r>
        <r>  0.0127  0.0057  0.0000  0.0107  0.0607  0.0003  0.1508  0.0005  0.1924 </r>
       </set>
       <set comment="band 13">
        <r>  0.0012  0.0001  0.0002  0.0003  0.0092  0.1903  0.0046  0.2361  0.0275 </r>
        <r>  0.0083  0.0007  0.0000  0.0017  0.0620  0.0283  0.0312  0.0351  0.1852 </r>
       </set>
       <set comment="band 14">
        <r>  0.0083  0.0007  0.0000  0.0017  0.0620  0.0283  0.0312  0.0351  0.1852 </r>
        <r>  0.0012  0.0001  0.0002  0.0003  0.0092  0.1903  0.0046  0.2361  0.0275 </r>
       </set>
       <set comment="band 15">
        <r>  0.0024  0.0006  0.0000  0.0002  0.1040  0.0007  0.4677  0.0005  0.0413 </r>
        <r>  0.0000  0.0000  0.0008  0.0000  0.0004  0.1628  0.0020  0.1275  0.0002 </r>
       </set>
       <set comment="band 16">
        <r>  0.0000  0.0000  0.0008  0.0000  0.0004  0.1628  0.0020  0.1275  0.0002 </r>
        <r>  0.0024  0.0006  0.0000  0.0002  0.1040  0.0007  0.4677  0.0005  0.0413 </r>
       </set>
       <set comment="band 17">
        <r>  0.1280  0.0194  0.0001  0.0139  0.2361  0.0008  0.0039  0.0003  0.0896 </r>
        <r>  0.0013  0.0002  0.0108  0.0001  0.0024  0.0728  0.0000  0.0255  0.0009 </r>
       </set>
       <set comment="band 18">
        <r>  0.0013  0.0002  0.0108  0.0001  0.0024  0.0728  0.0000  0.0255  0.0009 </r>
        <r>  0.1280  0.0194  0.0001  0.0139  0.2361  0.0008  0.0039  0.0003  0.0896 </r>
       </set>
       <set comment="band 19">
        <r>  0.2082  0.0195  0.0019  0.0326  0.0065  0.0011  0.0179  0.0094  0.0303 </r>
        <r>  0.0370  0.0035  0.0107  0.0058  0.0012  0.0063  0.0032  0.0528  0.0054 </r>
       </set>
       <set comment="band 20">
        <r>  0.0370  0.0035  0.0107  0.0058  0.0012  0.0063  0.0032  0.0528  0.0054 </r>
        <r>  0.2082  0.0195  0.0019  0.0326  0.0065  0.0011  0.0179  0.0094  0.0303 </r>
       </set>
       <set comment="band 21">
        <r>  0.0188  0.0519  0.0050  0.0355  0.0399  0.0054  0.0044  0.0022  0.0738 </r>
        <r>  0.0039  0.0107  0.0244  0.0073  0.0082  0.0260  0.0009  0.0106  0.0152 </r>
       </set>
       <set comment="band 22">
        <r>  0.0039  0.0107  0.0244  0.0073  0.0082  0.0260  0.0009  0.0106  0.0152 </r>
        <r>  0.0188  0.0519  0.0050  0.0355  0.0399  0.0054  0.0044  0.0022  0.0738 </r>
       </set>
       <set comment="band 23">
        <r>  0.0026  0.0081  0.0653  0.0065  0.0025  0.0247  0.0072  0.0102  0.0035 </r>
        <r>  0.0063  0.0198  0.0268  0.0157  0.0060  0.0102  0.0175  0.0042  0.0084 </r>
       </set>
       <set comment="band 24">
        <r>  0.0063  0.0198  0.0268  0.0157  0.0060  0.0102  0.0175  0.0042  0.0084 </r>
        <r>  0.0026  0.0081  0.0653  0.0065  0.0025  0.0247  0.0072  0.0102  0.0035 </r>
       </set>
      </set>
      <set comment="kpoint 69">
       <set comment="band 1">
        <r>  0.0000  0.2441  0.0000  0.7305  0.0000  0.0000  0.0000  0.0000  0.0000 </r>
        <r>  0.0000  0.0001  0.0137  0.0003  0.0000  0.0000  0.0000  0.0000  0.0000 </r>
       </set>
       <set comment="band 2">
        <r>  0.0000  0.0001  0.0137  0.0003  0.0000  0.0000  0.0000  0.0000  0.0000 </r>
        <r>  0.0000  0.2441  0.0000  0.7305  0.0000  0.0000  0.0000  0.0000  0.0000 </r>
       </set>
       <set comment="band 3">
        <r>  0.0000  0.7346  0.0000  0.2459  0.0000  0.0000  0.0000  0.0000  0.0000 </r>
        <r>  0.0000  0.0028  0.0069  0.0009  0.0000  0.0000  0.0000  0.0000  0.0000 </r>
       </set>
       <set comment="band 4">
        <r>  0.0000  0.0028  0.0069  0.0009  0.0000  0.0000  0.0000  0.0000  0.0000 </r>
        <r>  0.0000  0.7346  0.0000  0.2459  0.0000  0.0000  0.0000  0.0000  0.0000 </r>
       </set>
       <set comment="band 5">
        <r>  0.0000  0.0001  0.9648  0.0001  0.0000  0.0000  0.0000  0.0000  0.0000 </r>
        <r>  0.0000  0.0090  0.0059  0.0118  0.0000  0.0000  0.0000  0.0000  0.0000 </r>
       </set>
       <set comment="band 6">
        <r>  0.0000  0.0090  0.0059  0.0118  0.0000  0.0000  0.0000  0.0000  0.0000 </r>
        <r>  0.0000  0.0001  0.9648  0.0001  0.0000  0.0000  0.0000  0.0000  0.0000 </r>
       </set>
       <set comment="band 7">
        <r>  0.0043  0.0003  0.0005  0.0001  0.0134  0.0808  0.0043  0.2323  0.0046 </r>
        <r>  0.0430  0.0026  0.0001  0.0013  0.1333  0.0081  0.0423  0.0234  0.0454 </r>
       </set>
       <set comment="band 8">
        <r>  0.0430  0.0026  0.0001  0.0013  0.1333  0.0081  0.0423  0.0234  0.0454 </r>
        <r>  0.0043  0.0003  0.0005  0.0001  0.0134  0.0808  0.0043  0.2323  0.0046 </r>
       </set>
       <set comment="band 9">
        <r>  0.0001  0.0040  0.0000  0.0016  0.2923  0.0002  0.1836  0.0003  0.0989 </r>
        <r>  0.0000  0.0000  0.0005  0.0000  0.0009  0.0692  0.0006  0.0854  0.0003 </r>
       </set>
       <set comment="band 10">
        <r>  0.0000  0.0000  0.0005  0.0000  0.0009  0.0692  0.0006  0.0854  0.0003 </r>
        <r>  0.0001  0.0040  0.0000  0.0016  0.2923  0.0002  0.1836  0.0003  0.0989 </r>
       </set>
       <set comment="band 11">
        <r>  0.0004  0.0001  0.0021  0.0004  0.0029  0.3403  0.0010  0.1610  0.0048 </r>
        <r>  0.0066  0.0027  0.0001  0.0081  0.0524  0.0186  0.0177  0.0088  0.0886 </r>
       </set>
       <set comment="band 12">
        <r>  0.0066  0.0027  0.0001  0.0081  0.0524  0.0186  0.0177  0.0088  0.0886 </r>
        <r>  0.0004  0.0001  0.0021  0.0004  0.0029  0.3403  0.0010  0.1610  0.0048 </r>
       </set>
       <set comment="band 13">
        <r>  0.0001  0.0030  0.0000  0.0087  0.1503  0.0003  0.0073  0.0002  0.4267 </r>
        <r>  0.0000  0.0000  0.0012  0.0000  0.0004  0.1325  0.0000  0.0654  0.0010 </r>
       </set>
       <set comment="band 14">
        <r>  0.0000  0.0000  0.0012  0.0000  0.0004  0.1325  0.0000  0.0654  0.0010 </r>
        <r>  0.0001  0.0030  0.0000  0.0087  0.1503  0.0003  0.0073  0.0002  0.4267 </r>
       </set>
       <set comment="band 15">
        <r>  0.0000  0.0002  0.0000  0.0001  0.0320  0.0002  0.5845  0.0002  0.0234 </r>
        <r>  0.0000  0.0000  0.0003  0.0000  0.0000  0.1182  0.0009  0.1535  0.0000 </r>
       </set>
       <set comment="band 16">
        <r>  0.0000  0.0000  0.0003  0.0000  0.0000  0.1182  0.0009  0.1535  0.0000 </r>
        <r>  0.0000  0.0002  0.0000  0.0001  0.0320  0.0002  0.5845  0.0002  0.0234 </r>
       </set>
       <set comment="band 17">
        <r>  0.0813  0.0157  0.0014  0.0441  0.0785  0.0015  0.0152  0.0005  0.1331 </r>
        <r>  0.0051  0.0010  0.0214  0.0028  0.0050  0.0233  0.0010  0.0078  0.0084 </r>
       </set>
       <set comment="band 18">
        <r>  0.0051  0.0010  0.0214  0.0028  0.0050  0.0233  0.0010  0.0078  0.0084 </r>
        <r>  0.0813  0.0157  0.0014  0.0441  0.0785  0.0015  0.0152  0.0005  0.1331 </r>
       </set>
       <set comment="band 19">
        <r>  0.2287  0.0056  0.0003  0.0164  0.0406  0.0092  0.0102  0.0242  0.0385 </r>
        <r>  0.0804  0.0020  0.0007  0.0058  0.0143  0.0263  0.0036  0.0689  0.0135 </r>
       </set>
       <set comment="band 20">
        <r>  0.0804  0.0020  0.0007  0.0058  0.0143  0.0263  0.0036  0.0689  0.0135 </r>
        <r>  0.2287  0.0056  0.0003  0.0164  0.0406  0.0092  0.0102  0.0242  0.0385 </r>
       </set>
       <set comment="band 21">
        <r>  0.0126  0.0276  0.0147  0.0104  0.0301  0.0241  0.0008  0.0102  0.0106 </r>
        <r>  0.0238  0.0522  0.0078  0.0197  0.0568  0.0128  0.0014  0.0054  0.0200 </r>
       </set>
       <set comment="band 22">
        <r>  0.0238  0.0522  0.0078  0.0197  0.0568  0.0128  0.0014  0.0054  0.0200 </r>
        <r>  0.0126  0.0276  0.0147  0.0104  0.0301  0.0241  0.0008  0.0102  0.0106 </r>
       </set>
       <set comment="band 23">
        <r>  0.0040  0.0135  0.0267  0.0254  0.0084  0.0039  0.0041  0.0036  0.0075 </r>
        <r>  0.0013  0.0046  0.0794  0.0086  0.0028  0.0114  0.0014  0.0108  0.0025 </r>
       </set>
       <set comment="band 24">
        <r>  0.0013  0.0046  0.0794  0.0086  0.0028  0.0114  0.0014  0.0108  0.0025 </r>
        <r>  0.0040  0.0135  0.0267  0.0254  0.0084  0.0039  0.0041  0.0036  0.0075 </r>
       </set>
      </set>
      <set comment="kpoint 70">
       <set comment="band 1">
        <r>  0.0000  0.7076  0.0004  0.2401  0.0000  0.0000  0.0000  0.0000  0.0000 </r>
        <r>  0.0000  0.0206  0.0136  0.0070  0.0000  0.0000  0.0000  0.0000  0.0000 </r>
       </set>
       <set comment="band 2">
        <r>  0.0000  0.0206  0.0136  0.0070  0.0000  0.0000  0.0000  0.0000  0.0000 </r>
        <r>  0.0000  0.7076  0.0004  0.2401  0.0000  0.0000  0.0000  0.0000  0.0000 </r>
       </set>
       <set comment="band 3">
        <r>  0.0000  0.2465  0.0001  0.7230  0.0000  0.0000  0.0000  0.0000  0.0000 </r>
        <r>  0.0000  0.0032  0.0081  0.0094  0.0000  0.0000  0.0000  0.0000  0.0000 </r>
       </set>
       <set comment="band 4">
        <r>  0.0000  0.0032  0.0081  0.0094  0.0000  0.0000  0.0000  0.0000  0.0000 </r>
        <r>  0.0000  0.2465  0.0001  0.7230  0.0000  0.0000  0.0000  0.0000  0.0000 </r>
       </set>
       <set comment="band 5">
        <r>  0.0000  0.0001  0.9597  0.0001  0.0000  0.0000  0.0000  0.0000  0.0000 </r>
        <r>  0.0000  0.0116  0.0095  0.0106  0.0000  0.0000  0.0000  0.0000  0.0000 </r>
       </set>
       <set comment="band 6">
        <r>  0.0000  0.0116  0.0095  0.0106  0.0000  0.0000  0.0000  0.0000  0.0000 </r>
        <r>  0.0000  0.0001  0.9597  0.0001  0.0000  0.0000  0.0000  0.0000  0.0000 </r>
       </set>
       <set comment="band 7">
        <r>  0.0012  0.0000  0.0002  0.0000  0.0005  0.3020  0.0049  0.1361  0.0006 </r>
        <r>  0.0367  0.0011  0.0000  0.0010  0.0153  0.0102  0.1452  0.0046  0.0184 </r>
       </set>
       <set comment="band 8">
        <r>  0.0367  0.0011  0.0000  0.0010  0.0153  0.0102  0.1452  0.0046  0.0184 </r>
        <r>  0.0012  0.0000  0.0002  0.0000  0.0005  0.3020  0.0049  0.1361  0.0006 </r>
       </set>
       <set comment="band 9">
        <r>  0.0026  0.0033  0.0001  0.0076  0.0879  0.0095  0.0342  0.0244  0.2459 </r>
        <r>  0.0004  0.0005  0.0005  0.0012  0.0141  0.0591  0.0055  0.1519  0.0395 </r>
       </set>
       <set comment="band 10">
        <r>  0.0004  0.0005  0.0005  0.0012  0.0141  0.0591  0.0055  0.1519  0.0395 </r>
        <r>  0.0026  0.0033  0.0001  0.0076  0.0879  0.0095  0.0342  0.0244  0.2459 </r>
       </set>
       <set comment="band 11">
        <r>  0.0016  0.0116  0.0000  0.0055  0.2748  0.0003  0.0341  0.0005  0.2193 </r>
        <r>  0.0000  0.0001  0.0030  0.0000  0.0015  0.0477  0.0002  0.0892  0.0012 </r>
       </set>
       <set comment="band 12">
        <r>  0.0000  0.0001  0.0030  0.0000  0.0015  0.0477  0.0002  0.0892  0.0012 </r>
        <r>  0.0016  0.0116  0.0000  0.0055  0.2748  0.0003  0.0341  0.0005  0.2193 </r>
       </set>
       <set comment="band 13">
        <r>  0.0037  0.0024  0.0000  0.0009  0.2608  0.0004  0.0129  0.0006  0.1593 </r>
        <r>  0.0000  0.0000  0.0001  0.0000  0.0007  0.1583  0.0000  0.2223  0.0004 </r>
       </set>
       <set comment="band 14">
        <r>  0.0000  0.0000  0.0001  0.0000  0.0007  0.1583  0.0000  0.2223  0.0004 </r>
        <r>  0.0037  0.0024  0.0000  0.0009  0.2608  0.0004  0.0129  0.0006  0.1593 </r>
       </set>
       <set comment="band 15">
        <r>  0.0003  0.0003  0.0000  0.0001  0.0238  0.0011  0.6091  0.0009  0.0088 </r>
        <r>  0.0000  0.0000  0.0001  0.0000  0.0002  0.1433  0.0047  0.1205  0.0001 </r>
       </set>
       <set comment="band 16">
        <r>  0.0000  0.0000  0.0001  0.0000  0.0002  0.1433  0.0047  0.1205  0.0001 </r>
        <r>  0.0003  0.0003  0.0000  0.0001  0.0238  0.0011  0.6091  0.0009  0.0088 </r>
       </set>
       <set comment="band 17">
        <r>  0.2167  0.0189  0.0013  0.0072  0.1136  0.0069  0.0111  0.0032  0.0436 </r>
        <r>  0.0258  0.0023  0.0111  0.0009  0.0135  0.0578  0.0013  0.0265  0.0052 </r>
       </set>
       <set comment="band 18">
        <r>  0.0258  0.0023  0.0111  0.0009  0.0135  0.0578  0.0013  0.0265  0.0052 </r>
        <r>  0.2167  0.0189  0.0013  0.0072  0.1136  0.0069  0.0111  0.0032  0.0436 </r>
       </set>
       <set comment="band 19">
        <r>  0.1653  0.0343  0.0036  0.0146  0.0424  0.0039  0.0094  0.0076  0.0247 </r>
        <r>  0.0356  0.0074  0.0166  0.0031  0.0091  0.0183  0.0020  0.0352  0.0053 </r>
       </set>
       <set comment="band 20">
        <r>  0.0356  0.0074  0.0166  0.0031  0.0091  0.0183  0.0020  0.0352  0.0053 </r>
        <r>  0.1653  0.0343  0.0036  0.0146  0.0424  0.0039  0.0094  0.0076  0.0247 </r>
       </set>
       <set comment="band 21">
        <r>  0.0010  0.0309  0.0016  0.0628  0.0501  0.0044  0.0010  0.0050  0.1212 </r>
        <r>  0.0002  0.0049  0.0102  0.0100  0.0079  0.0281  0.0002  0.0316  0.0192 </r>
       </set>
       <set comment="band 22">
        <r>  0.0002  0.0049  0.0102  0.0100  0.0079  0.0281  0.0002  0.0316  0.0192 </r>
        <r>  0.0010  0.0309  0.0016  0.0628  0.0501  0.0044  0.0010  0.0050  0.1212 </r>
       </set>
       <set comment="band 23">
        <r>  0.0013  0.0175  0.0669  0.0109  0.0068  0.0071  0.0022  0.0041  0.0063 </r>
        <r>  0.0015  0.0193  0.0606  0.0120  0.0075  0.0064  0.0025  0.0037  0.0070 </r>
       </set>
       <set comment="band 24">
        <r>  0.0015  0.0193  0.0606  0.0120  0.0075  0.0064  0.0025  0.0037  0.0070 </r>
        <r>  0.0013  0.0175  0.0669  0.0109  0.0068  0.0071  0.0022  0.0041  0.0063 </r>
       </set>
      </set>
     </set>
    </set>
   </array>
  </projected>
 </calculation>
 <structure name="finalpos" >
  <crystal>
   <varray name="basis" >
    <v>       3.02826933       0.00000000       0.00000000 </v>
    <v>      -1.51413467       2.62255817       0.00000000 </v>
    <v>       0.00000000       0.00000000       5.24640605 </v>
   </varray>
   <i name="volume">     41.66597309 </i>
   <varray name="rec_basis" >
    <v>       0.33022162       0.19065354       0.00000000 </v>
    <v>       0.00000000       0.38130708       0.00000000 </v>
    <v>       0.00000000       0.00000000       0.19060667 </v>
   </varray>
  </crystal>
  <varray name="positions" >
   <v>       0.00000000       0.00000000       0.00000000 </v>
   <v>       0.33333333       0.66666667       0.50000000 </v>
  </varray>
 </structure>
</modeling>
