 vasp.6.3.2 27Jun22 (build Aug 12 2022 00:53:59) complex                        
  
 executed on               tv2STD date 2024.12.03  02:19:39
 running   24 mpi-ranks, with    1 threads/rank
 distrk:  each k-point on   24 cores,    1 groups
 distr:  one band on NCORE=   1 cores,   24 groups


--------------------------------------------------------------------------------------------------------


 INCAR:
   SYSTEM = Pt-hcc
   NWRITE = 2    write-flag
   ISTART = 0    job   : 0-new, 1-cont, 2-samecut
   ICHARG = 2    charge: 0-wave, 1-file, 2-atom, >10-const
   INIWAV = 1    electr: 0-lowe 1-rand  2-diag
   ENCUT = 450.0     energy cutoff in eV
   PREC = Accurate      normal | accurate
   ADDGRID = .FALSE.  (use fine grid)
   NELM = 100     number of ELM steps
   EDIFF = 1E-06    energy stopping-criterion for ELM
   LREAL = .FALSE.      real-space projection (.FALSE., .TRUE., On, Auto)
   ALGO = Normal     Normal, Fast, Very_Fast
   LWAVE = .TRUE.
   LCHARG = .TRUE.
   NSW = 100       max number of geometry steps
   IBRION = 2     ionic relax: 0-MD, 1-quasi-Newton, 2-CG, 3-Damped MD
   EDIFFG = -0.02  force (eV/A) stopping-criterion for geometry steps
   ISIF = 2     (1:force\=y stress\=trace only ions\=y shape\=n volume\=n)
   ISYM = 1     (1-use symmetry, 0-no symmetry)
   ISMEAR = 0     (-1-Fermi, 1-Methfessel/Paxton)
   SIGMA = 0.05   broadening in eV
   LORBIT = 11

 POTCAR:    PAW_PBE Pt_pv 12Dec2005               
 POTCAR:    PAW_PBE Pt_pv 12Dec2005               
   SHA256 =  e5abf7e8cd8db70d0153315afc5ad66b6e3eeee29cc2d5b91b16730957c1d208 Pt_pv/POTCAR          
   COPYR  = (c) Copyright 12Dec2005 Georg Kresse                                                    
   COPYR  = This file is part of the software VASP. Any use, copying, and all other rights are regul
   COPYR  = If you do not have a valid VASP license, you may not use, copy or distribute this file. 
   VRHFIN =Pt: 5ps1d9                                                                               
   LEXCH  = PE                                                                                      
   EATOM  =  2428.2504 eV,  178.4714 Ry                                                             
                                                                                                    
   TITEL  = PAW_PBE Pt_pv 12Dec2005                                                                 
   LULTRA =        F    use ultrasoft PP ?                                                          
   IUNSCR =        1    unscreen: 0-lin 1-nonlin 2-no                                               
   RPACOR =    2.000    partial core radius                                                         
   POMASS =  195.080; ZVAL   =   16.000    mass and valenz                                          
   RCORE  =    2.200    outmost cutoff radius                                                       
   RWIGS  =    2.200; RWIGS  =    1.164    wigner-seitz radius (au A)                               
   ENMAX  =  294.607; ENMIN  =  220.955 eV                                                          
   ICORE  =        3    local potential                                                             
   LCOR   =        T    correct aug charges                                                         
   LPAW   =        T    paw PP                                                                      
   EAUG   =  527.014                                                                                
   DEXC   =    0.000                                                                                
   RMAX   =    2.247    core radius for proj-oper                                                   
   RAUG   =    1.300    factor for augmentation sphere                                              
   RDEP   =    2.279    radius for radial grids                                                     
   RDEPT  =    1.878    core radius for aug-charge                                                  
                                                                                                    
   Atomic configuration                                                                             
   16 entries                                                                                       
     n  l   j            E        occ.                                                              
     1  0  0.50    -78401.1885   2.0000                                                             
     2  0  0.50    -13770.7750   2.0000                                                             
     2  1  1.50    -11931.0468   6.0000                                                             
     3  0  0.50     -3234.7234   2.0000                                                             
     3  1  1.50     -2699.2216   6.0000                                                             
     3  2  2.50     -2119.5714  10.0000                                                             
     4  0  0.50      -695.1528   2.0000                                                             
     4  1  1.50      -519.6034   6.0000                                                             
     4  2  2.50      -306.6786  10.0000                                                             
     4  3  3.50       -70.1041  14.0000                                                             
     5  0  0.50      -101.7747   2.0000                                                             
     5  1  1.50       -55.9873   6.0000                                                             
     6  1  1.50        -6.8029   0.0000                                                             
     5  2  2.50        -6.1423   9.0000                                                             
     6  0  0.50        -5.6573   1.0000                                                             
     5  3  2.50        -1.3606   0.0000                                                             
   Description                                                                                      
     l       E           TYP  RCUT    TYP  RCUT                                                     
     1    -55.9873477     23  2.000                                                                 
     1     27.2116520     23  2.000                                                                 
     2     -6.1423404     23  2.200                                                                 
     2     -4.6754623     23  2.200                                                                 
     0     -5.6573207     23  2.200                                                                 
     0     47.6203910     23  2.200                                                                 
     3      6.8029130     23  2.200                                                                 
  local pseudopotential read in
  partial core-charges read in
  partial kinetic energy density read in
  atomic valenz-charges read in
  non local Contribution for L=           1  read in
    real space projection operators read in
  non local Contribution for L=           1  read in
    real space projection operators read in
  non local Contribution for L=           2  read in
    real space projection operators read in
  non local Contribution for L=           2  read in
    real space projection operators read in
  non local Contribution for L=           0  read in
    real space projection operators read in
  non local Contribution for L=           0  read in
    real space projection operators read in
    PAW grid and wavefunctions read in
 
   number of l-projection  operators is LMAX  =           6
   number of lm-projection operators is LMMAX =          18
 
  PAW_PBE Pt_pv 12Dec2005               :
 energy of atom  1       EATOM=-2428.2504
 kinetic energy error for atom=    0.0356 (will be added to EATOM!!)
 
 
 POSCAR: Pt
  positions in cartesian coordinates
  No initial velocities read in
 exchange correlation table for  LEXCH =        8
   RHO(1)=    0.500       N(1)  =     2000
   RHO(2)=  100.500       N(2)  =     4000
 


--------------------------------------------------------------------------------------------------------


 ion  position               nearest neighbor table
   1  0.000  0.000  0.000-
   2  0.333  0.667  0.500-
 
  LATTYP: Found a hexagonal cell.
 ALAT       =     2.7529721219
 C/A-ratio  =     1.7324766951
  
  Lattice vectors:
  
 A1 = (   2.7529721219,   0.0000000000,   0.0000000000)
 A2 = (  -1.3764860610,   2.3841437935,   0.0000000000)
 A3 = (   0.0000000000,   0.0000000000,   4.7694600436)


Analysis of symmetry for initial positions (statically):
=====================================================================
 Subroutine PRICEL returns:
 Original cell was already a primitive cell.
 

 Routine SETGRP: Setting up the symmetry group for a 
 hexagonal supercell.


 Subroutine GETGRP returns: Found 24 space group operations
 (whereof 12 operations were pure point group operations)
 out of a pool of 24 trial point group operations.


The static configuration has the point symmetry D_3h.
 The point group associated with its full space group is D_6h.


Analysis of symmetry for dynamics (positions and initial velocities):
=====================================================================
 Subroutine PRICEL returns:
 Original cell was already a primitive cell.
 

 Routine SETGRP: Setting up the symmetry group for a 
 hexagonal supercell.


 Subroutine GETGRP returns: Found 24 space group operations
 (whereof 12 operations were pure point group operations)
 out of a pool of 24 trial point group operations.


The dynamic configuration has the point symmetry D_3h.
 The point group associated with its full space group is D_6h.


 Subroutine INISYM returns: Found 24 space group operations
 (whereof 12 operations are pure point group operations),
 and found     1 'primitive' translations


----------------------------------------------------------------------------------------

                                     Primitive cell                                     

  volume of cell :      31.3043

  direct lattice vectors                    reciprocal lattice vectors
     2.752972122  0.000000000  0.000000000     0.363243780  0.209718894  0.000000000
    -1.376486061  2.384143793  0.000000000     0.000000000  0.419437788  0.000000000
     0.000000000  0.000000000  4.769460044     0.000000000  0.000000000  0.209667340

  length of vectors
     2.752972122  2.752972122  4.769460044     0.419437788  0.419437788  0.209667340

  position of ions in fractional coordinates (direct lattice)
     0.000000000  0.000000000  0.000000000
     0.333333333  0.666666667  0.500000000

  ion indices of the primitive-cell ions
   primitive index   ion index
                 1           1
                 2           2

----------------------------------------------------------------------------------------

 
 
 KPOINTS: Automatic mesh                          

Automatic generation of k-mesh.
 Grid dimensions read from file:
 generate k-points for:   10   10    8

 Generating k-lattice:

  Cartesian coordinates                     Fractional coordinates (reciprocal lattice)
     0.036324378  0.020971889  0.000000000     0.100000000 -0.000000000  0.000000000
     0.000000000  0.041943779  0.000000000     0.000000000  0.100000000  0.000000000
     0.000000000  0.000000000  0.026208417     0.000000000  0.000000000  0.125000000

  Length of vectors
     0.041943779  0.041943779  0.026208417

  Shift w.r.t. Gamma in fractional coordinates (k-lattice)
     0.000000000  0.000000000  0.000000000

 
 Subroutine IBZKPT returns following result:
 ===========================================
 
 Found     70 irreducible k-points:
 
 Following reciprocal coordinates:
            Coordinates               Weight
  0.000000  0.000000  0.000000      1.000000
  0.100000  0.000000  0.000000      6.000000
  0.200000  0.000000  0.000000      6.000000
  0.300000  0.000000  0.000000      6.000000
  0.400000  0.000000  0.000000      6.000000
  0.500000  0.000000  0.000000      3.000000
  0.100000  0.100000  0.000000      6.000000
  0.200000  0.100000  0.000000     12.000000
  0.300000  0.100000  0.000000     12.000000
  0.400000  0.100000  0.000000     12.000000
  0.200000  0.200000  0.000000      6.000000
  0.300000  0.200000  0.000000     12.000000
  0.400000  0.200000  0.000000      6.000000
  0.300000  0.300000  0.000000      6.000000
  0.000000  0.000000  0.125000      2.000000
  0.100000  0.000000  0.125000     12.000000
  0.200000  0.000000  0.125000     12.000000
  0.300000  0.000000  0.125000     12.000000
  0.400000  0.000000  0.125000     12.000000
  0.500000  0.000000  0.125000      6.000000
  0.100000  0.100000  0.125000     12.000000
  0.200000  0.100000  0.125000     24.000000
  0.300000  0.100000  0.125000     24.000000
  0.400000  0.100000  0.125000     24.000000
  0.200000  0.200000  0.125000     12.000000
  0.300000  0.200000  0.125000     24.000000
  0.400000  0.200000  0.125000     12.000000
  0.300000  0.300000  0.125000     12.000000
  0.000000  0.000000  0.250000      2.000000
  0.100000  0.000000  0.250000     12.000000
  0.200000  0.000000  0.250000     12.000000
  0.300000  0.000000  0.250000     12.000000
  0.400000  0.000000  0.250000     12.000000
  0.500000  0.000000  0.250000      6.000000
  0.100000  0.100000  0.250000     12.000000
  0.200000  0.100000  0.250000     24.000000
  0.300000  0.100000  0.250000     24.000000
  0.400000  0.100000  0.250000     24.000000
  0.200000  0.200000  0.250000     12.000000
  0.300000  0.200000  0.250000     24.000000
  0.400000  0.200000  0.250000     12.000000
  0.300000  0.300000  0.250000     12.000000
  0.000000  0.000000  0.375000      2.000000
  0.100000  0.000000  0.375000     12.000000
  0.200000  0.000000  0.375000     12.000000
  0.300000  0.000000  0.375000     12.000000
  0.400000  0.000000  0.375000     12.000000
  0.500000  0.000000  0.375000      6.000000
  0.100000  0.100000  0.375000     12.000000
  0.200000  0.100000  0.375000     24.000000
  0.300000  0.100000  0.375000     24.000000
  0.400000  0.100000  0.375000     24.000000
  0.200000  0.200000  0.375000     12.000000
  0.300000  0.200000  0.375000     24.000000
  0.400000  0.200000  0.375000     12.000000
  0.300000  0.300000  0.375000     12.000000
  0.000000  0.000000  0.500000      1.000000
  0.100000  0.000000  0.500000      6.000000
  0.200000  0.000000  0.500000      6.000000
  0.300000  0.000000  0.500000      6.000000
  0.400000  0.000000  0.500000      6.000000
  0.500000  0.000000  0.500000      3.000000
  0.100000  0.100000  0.500000      6.000000
  0.200000  0.100000  0.500000     12.000000
  0.300000  0.100000  0.500000     12.000000
  0.400000  0.100000  0.500000     12.000000
  0.200000  0.200000  0.500000      6.000000
  0.300000  0.200000  0.500000     12.000000
  0.400000  0.200000  0.500000      6.000000
  0.300000  0.300000  0.500000      6.000000
 
 Following cartesian coordinates:
            Coordinates               Weight
  0.000000  0.000000  0.000000      1.000000
  0.036324  0.020972  0.000000      6.000000
  0.072649  0.041944  0.000000      6.000000
  0.108973  0.062916  0.000000      6.000000
  0.145298  0.083888  0.000000      6.000000
  0.181622  0.104859  0.000000      3.000000
  0.036324  0.062916  0.000000      6.000000
  0.072649  0.083888  0.000000     12.000000
  0.108973  0.104859  0.000000     12.000000
  0.145298  0.125831  0.000000     12.000000
  0.072649  0.125831  0.000000      6.000000
  0.108973  0.146803  0.000000     12.000000
  0.145298  0.167775  0.000000      6.000000
  0.108973  0.188747  0.000000      6.000000
  0.000000  0.000000  0.026208      2.000000
  0.036324  0.020972  0.026208     12.000000
  0.072649  0.041944  0.026208     12.000000
  0.108973  0.062916  0.026208     12.000000
  0.145298  0.083888  0.026208     12.000000
  0.181622  0.104859  0.026208      6.000000
  0.036324  0.062916  0.026208     12.000000
  0.072649  0.083888  0.026208     24.000000
  0.108973  0.104859  0.026208     24.000000
  0.145298  0.125831  0.026208     24.000000
  0.072649  0.125831  0.026208     12.000000
  0.108973  0.146803  0.026208     24.000000
  0.145298  0.167775  0.026208     12.000000
  0.108973  0.188747  0.026208     12.000000
  0.000000  0.000000  0.052417      2.000000
  0.036324  0.020972  0.052417     12.000000
  0.072649  0.041944  0.052417     12.000000
  0.108973  0.062916  0.052417     12.000000
  0.145298  0.083888  0.052417     12.000000
  0.181622  0.104859  0.052417      6.000000
  0.036324  0.062916  0.052417     12.000000
  0.072649  0.083888  0.052417     24.000000
  0.108973  0.104859  0.052417     24.000000
  0.145298  0.125831  0.052417     24.000000
  0.072649  0.125831  0.052417     12.000000
  0.108973  0.146803  0.052417     24.000000
  0.145298  0.167775  0.052417     12.000000
  0.108973  0.188747  0.052417     12.000000
  0.000000  0.000000  0.078625      2.000000
  0.036324  0.020972  0.078625     12.000000
  0.072649  0.041944  0.078625     12.000000
  0.108973  0.062916  0.078625     12.000000
  0.145298  0.083888  0.078625     12.000000
  0.181622  0.104859  0.078625      6.000000
  0.036324  0.062916  0.078625     12.000000
  0.072649  0.083888  0.078625     24.000000
  0.108973  0.104859  0.078625     24.000000
  0.145298  0.125831  0.078625     24.000000
  0.072649  0.125831  0.078625     12.000000
  0.108973  0.146803  0.078625     24.000000
  0.145298  0.167775  0.078625     12.000000
  0.108973  0.188747  0.078625     12.000000
  0.000000  0.000000  0.104834      1.000000
  0.036324  0.020972  0.104834      6.000000
  0.072649  0.041944  0.104834      6.000000
  0.108973  0.062916  0.104834      6.000000
  0.145298  0.083888  0.104834      6.000000
  0.181622  0.104859  0.104834      3.000000
  0.036324  0.062916  0.104834      6.000000
  0.072649  0.083888  0.104834     12.000000
  0.108973  0.104859  0.104834     12.000000
  0.145298  0.125831  0.104834     12.000000
  0.072649  0.125831  0.104834      6.000000
  0.108973  0.146803  0.104834     12.000000
  0.145298  0.167775  0.104834      6.000000
  0.108973  0.188747  0.104834      6.000000
 


--------------------------------------------------------------------------------------------------------




 Dimension of arrays:
   k-points           NKPTS =     70   k-points in BZ     NKDIM =     70   number of bands    NBANDS=     24
   number of dos      NEDOS =    301   number of ions     NIONS =      2
   non local maximal  LDIM  =      6   non local SUM 2l+1 LMDIM =     18
   total plane-waves  NPLWV =  14400
   max r-space proj   IRMAX =      1   max aug-charges    IRDMAX=  15860
   dimension x,y,z NGX =    20 NGY =   20 NGZ =   36
   dimension x,y,z NGXF=    40 NGYF=   40 NGZF=   72
   support grid    NGXF=    40 NGYF=   40 NGZF=   72
   ions per type =               2
   NGX,Y,Z   is equivalent  to a cutoff of  12.08, 12.08, 12.55 a.u.
   NGXF,Y,Z  is equivalent  to a cutoff of  24.16, 24.16, 25.10 a.u.

 SYSTEM =  Pt-hcc                                  
 POSCAR =  Pt                                      

 Startparameter for this run:
   NWRITE =      2    write-flag & timer
   PREC   = accura    normal or accurate (medium, high low for compatibility)
   ISTART =      0    job   : 0-new  1-cont  2-samecut
   ICHARG =      2    charge: 1-file 2-atom 10-const
   ISPIN  =      1    spin polarized calculation?
   LNONCOLLINEAR =      F non collinear calculations
   LSORBIT =      F    spin-orbit coupling
   INIWAV =      1    electr: 0-lowe 1-rand  2-diag
   LASPH  =      F    aspherical Exc in radial PAW
 Electronic Relaxation 1
   ENCUT  =  450.0 eV  33.07 Ry    5.75 a.u.   4.76  4.76  8.25*2*pi/ulx,y,z
   ENINI  =  450.0     initial cutoff
   ENAUG  =  527.0 eV  augmentation charge cutoff
   NELM   =    100;   NELMIN=  2; NELMDL= -5     # of ELM steps 
   EDIFF  = 0.1E-05   stopping-criterion for ELM
   LREAL  =      F    real-space projection
   NLSPLINE    = F    spline interpolate recip. space projectors
   LCOMPAT=      F    compatible to vasp.4.4
   GGA_COMPAT  = T    GGA compatible to vasp.4.4-vasp.4.6
   LMAXPAW     = -100 max onsite density
   LMAXMIX     =    2 max onsite mixed and CHGCAR
   VOSKOWN=      0    Vosko Wilk Nusair interpolation
   ROPT   =    0.00000
 Ionic relaxation
   EDIFFG = -.2E-01   stopping-criterion for IOM
   NSW    =    100    number of steps for IOM
   NBLOCK =      1;   KBLOCK =    100    inner block; outer block 
   IBRION =      2    ionic relax: 0-MD 1-quasi-New 2-CG
   NFREE  =      1    steps in history (QN), initial steepest desc. (CG)
   ISIF   =      2    stress and relaxation
   IWAVPR =     11    prediction:  0-non 1-charg 2-wave 3-comb
   ISYM   =      1    0-nonsym 1-usesym 2-fastsym
   LCORR  =      T    Harris-Foulkes like correction to forces

   POTIM  = 0.5000    time-step for ionic-motion
   TEIN   =    0.0    initial temperature
   TEBEG  =    0.0;   TEEND  =   0.0 temperature during run
   SMASS  =  -3.00    Nose mass-parameter (am)
   estimated Nose-frequenzy (Omega)   =  0.10E-29 period in steps = 0.13E+47 mass=  -0.173E-27a.u.
   SCALEE = 1.0000    scale energy and forces
   NPACO  =    256;   APACO  = 10.0  distance and # of slots for P.C.
   PSTRESS=    0.0 pullay stress

  Mass of Ions in am
   POMASS = 195.08
  Ionic Valenz
   ZVAL   =  16.00
  Atomic Wigner-Seitz radii
   RWIGS  =  -1.00
  virtual crystal weights 
   VCA    =   1.00
   NELECT =      32.0000    total number of electrons
   NUPDOWN=      -1.0000    fix difference up-down

 DOS related values:
   EMIN   =  10.00;   EMAX   =-10.00  energy-range for DOS
   EFERMI =   0.00
   ISMEAR =     0;   SIGMA  =   0.05  broadening in eV -4-tet -1-fermi 0-gaus

 Electronic relaxation 2 (details)
   IALGO  =     38    algorithm
   LDIAG  =      T    sub-space diagonalisation (order eigenvalues)
   LSUBROT=      F    optimize rotation matrix (better conditioning)
   TURBO    =      0    0=normal 1=particle mesh
   IRESTART =      0    0=no restart 2=restart with 2 vectors
   NREBOOT  =      0    no. of reboots
   NMIN     =      0    reboot dimension
   EREF     =   0.00    reference energy to select bands
   IMIX   =      4    mixing-type and parameters
     AMIX     =   0.40;   BMIX     =  1.00
     AMIX_MAG =   1.60;   BMIX_MAG =  1.00
     AMIN     =   0.10
     WC   =   100.;   INIMIX=   1;  MIXPRE=   1;  MAXMIX= -45

 Intra band minimization:
   WEIMIN = 0.0010     energy-eigenvalue tresh-hold
   EBREAK =  0.10E-07  absolut break condition
   DEPER  =   0.30     relativ break condition  

   TIME   =   0.40     timestep for ELM

  volume/ion in A,a.u.               =      15.65       105.63
  Fermi-wavevector in a.u.,A,eV,Ry     =   1.649138  3.116419 37.003168  2.719656
  Thomas-Fermi vector in A             =   2.738309
 
 Write flags
   LWAVE        =      T    write WAVECAR
   LDOWNSAMPLE  =      F    k-point downsampling of WAVECAR
   LCHARG       =      T    write CHGCAR
   LVTOT        =      F    write LOCPOT, total local potential
   LVHAR        =      F    write LOCPOT, Hartree potential only
   LELF         =      F    write electronic localiz. function (ELF)
   LORBIT       =     11    0 simple, 1 ext, 2 COOP (PROOUT), +10 PAW based schemes


 Dipole corrections
   LMONO  =      F    monopole corrections only (constant potential shift)
   LDIPOL =      F    correct potential (dipole corrections)
   IDIPOL =      0    1-x, 2-y, 3-z, 4-all directions 
   EPSILON=  1.0000000 bulk dielectric constant

 Exchange correlation treatment:
   GGA     =    --    GGA type
   LEXCH   =     8    internal setting for exchange type
   LIBXC   =     F    Libxc                    
   VOSKOWN =     0    Vosko Wilk Nusair interpolation
   LHFCALC =     F    Hartree Fock is set to
   LHFONE  =     F    Hartree Fock one center treatment
   AEXX    =    0.0000 exact exchange contribution

 Linear response parameters
   LEPSILON=     F    determine dielectric tensor
   LRPA    =     F    only Hartree local field effects (RPA)
   LNABLA  =     F    use nabla operator in PAW spheres
   LVEL    =     F    velocity operator in full k-point grid
   CSHIFT  =0.1000    complex shift for real part using Kramers Kronig
   OMEGAMAX=  -1.0    maximum frequency
   DEG_THRESHOLD= 0.2000000E-02 threshold for treating states as degnerate
   RTIME   =   -0.100 relaxation time in fs
  (WPLASMAI=    0.000 imaginary part of plasma frequency in eV, 0.658/RTIME)
   DFIELD  = 0.0000000 0.0000000 0.0000000 field for delta impulse in time
 
  Optional k-point grid parameters
   LKPOINTS_OPT  =     F    use optional k-point grid
   KPOINTS_OPT_MODE=     1    mode for optional k-point grid
 
 Orbital magnetization related:
   ORBITALMAG=     F  switch on orbital magnetization
   LCHIMAG   =     F  perturbation theory with respect to B field
   DQ        =  0.001000  dq finite difference perturbation B field
   LLRAUG    =     F  two centre corrections for induced B field



--------------------------------------------------------------------------------------------------------


 conjugate gradient relaxation of ions
 charge density and potential will be updated during run
 non-spin polarized calculation
 Variant of blocked Davidson
 Davidson routine will perform the subspace rotation
 perform sub-space diagonalisation
    after iterative eigenvector-optimisation
 modified Broyden-mixing scheme, WC =      100.0
 initial mixing is a Kerker type mixing with AMIX =  0.4000 and BMIX =      1.0000
 Hartree-type preconditioning will be used
 using additional bands            8
 reciprocal scheme for non local part
 use partial core corrections
 calculate Harris-corrections to forces 
   (improved forces if not selfconsistent)
 use gradient corrections 
 use of overlap-Matrix (Vanderbilt PP)
 Gauss-broadening in eV      SIGMA  =   0.05


--------------------------------------------------------------------------------------------------------


  energy-cutoff  :      450.00
  volume of cell :       31.30
      direct lattice vectors                 reciprocal lattice vectors
     2.752972122  0.000000000  0.000000000     0.363243780  0.209718894  0.000000000
    -1.376486061  2.384143793  0.000000000     0.000000000  0.419437788  0.000000000
     0.000000000  0.000000000  4.769460044     0.000000000  0.000000000  0.209667340

  length of vectors
     2.752972122  2.752972122  4.769460044     0.419437788  0.419437788  0.209667340


 
 k-points in units of 2pi/SCALE and weight: Automatic mesh                          
   0.00000000  0.00000000  0.00000000       0.001
   0.03632438  0.02097189  0.00000000       0.007
   0.07264876  0.04194378  0.00000000       0.007
   0.10897313  0.06291567  0.00000000       0.007
   0.14529751  0.08388756  0.00000000       0.007
   0.18162189  0.10485945  0.00000000       0.004
   0.03632438  0.06291567  0.00000000       0.007
   0.07264876  0.08388756  0.00000000       0.015
   0.10897313  0.10485945  0.00000000       0.015
   0.14529751  0.12583134  0.00000000       0.015
   0.07264876  0.12583134  0.00000000       0.007
   0.10897313  0.14680323  0.00000000       0.015
   0.14529751  0.16777512  0.00000000       0.007
   0.10897313  0.18874700  0.00000000       0.007
   0.00000000  0.00000000  0.02620842       0.003
   0.03632438  0.02097189  0.02620842       0.015
   0.07264876  0.04194378  0.02620842       0.015
   0.10897313  0.06291567  0.02620842       0.015
   0.14529751  0.08388756  0.02620842       0.015
   0.18162189  0.10485945  0.02620842       0.007
   0.03632438  0.06291567  0.02620842       0.015
   0.07264876  0.08388756  0.02620842       0.030
   0.10897313  0.10485945  0.02620842       0.030
   0.14529751  0.12583134  0.02620842       0.030
   0.07264876  0.12583134  0.02620842       0.015
   0.10897313  0.14680323  0.02620842       0.030
   0.14529751  0.16777512  0.02620842       0.015
   0.10897313  0.18874700  0.02620842       0.015
   0.00000000  0.00000000  0.05241683       0.003
   0.03632438  0.02097189  0.05241683       0.015
   0.07264876  0.04194378  0.05241683       0.015
   0.10897313  0.06291567  0.05241683       0.015
   0.14529751  0.08388756  0.05241683       0.015
   0.18162189  0.10485945  0.05241683       0.007
   0.03632438  0.06291567  0.05241683       0.015
   0.07264876  0.08388756  0.05241683       0.030
   0.10897313  0.10485945  0.05241683       0.030
   0.14529751  0.12583134  0.05241683       0.030
   0.07264876  0.12583134  0.05241683       0.015
   0.10897313  0.14680323  0.05241683       0.030
   0.14529751  0.16777512  0.05241683       0.015
   0.10897313  0.18874700  0.05241683       0.015
   0.00000000  0.00000000  0.07862525       0.003
   0.03632438  0.02097189  0.07862525       0.015
   0.07264876  0.04194378  0.07862525       0.015
   0.10897313  0.06291567  0.07862525       0.015
   0.14529751  0.08388756  0.07862525       0.015
   0.18162189  0.10485945  0.07862525       0.007
   0.03632438  0.06291567  0.07862525       0.015
   0.07264876  0.08388756  0.07862525       0.030
   0.10897313  0.10485945  0.07862525       0.030
   0.14529751  0.12583134  0.07862525       0.030
   0.07264876  0.12583134  0.07862525       0.015
   0.10897313  0.14680323  0.07862525       0.030
   0.14529751  0.16777512  0.07862525       0.015
   0.10897313  0.18874700  0.07862525       0.015
   0.00000000  0.00000000  0.10483367       0.001
   0.03632438  0.02097189  0.10483367       0.007
   0.07264876  0.04194378  0.10483367       0.007
   0.10897313  0.06291567  0.10483367       0.007
   0.14529751  0.08388756  0.10483367       0.007
   0.18162189  0.10485945  0.10483367       0.004
   0.03632438  0.06291567  0.10483367       0.007
   0.07264876  0.08388756  0.10483367       0.015
   0.10897313  0.10485945  0.10483367       0.015
   0.14529751  0.12583134  0.10483367       0.015
   0.07264876  0.12583134  0.10483367       0.007
   0.10897313  0.14680323  0.10483367       0.015
   0.14529751  0.16777512  0.10483367       0.007
   0.10897313  0.18874700  0.10483367       0.007
 
 k-points in reciprocal lattice and weights: Automatic mesh                          
   0.00000000  0.00000000  0.00000000       0.001
   0.10000000  0.00000000  0.00000000       0.007
   0.20000000  0.00000000  0.00000000       0.007
   0.30000000  0.00000000  0.00000000       0.007
   0.40000000  0.00000000  0.00000000       0.007
   0.50000000  0.00000000  0.00000000       0.004
   0.10000000  0.10000000  0.00000000       0.007
   0.20000000  0.10000000  0.00000000       0.015
   0.30000000  0.10000000  0.00000000       0.015
   0.40000000  0.10000000  0.00000000       0.015
   0.20000000  0.20000000  0.00000000       0.007
   0.30000000  0.20000000  0.00000000       0.015
   0.40000000  0.20000000  0.00000000       0.007
   0.30000000  0.30000000  0.00000000       0.007
   0.00000000  0.00000000  0.12500000       0.003
   0.10000000  0.00000000  0.12500000       0.015
   0.20000000  0.00000000  0.12500000       0.015
   0.30000000  0.00000000  0.12500000       0.015
   0.40000000  0.00000000  0.12500000       0.015
   0.50000000  0.00000000  0.12500000       0.007
   0.10000000  0.10000000  0.12500000       0.015
   0.20000000  0.10000000  0.12500000       0.030
   0.30000000  0.10000000  0.12500000       0.030
   0.40000000  0.10000000  0.12500000       0.030
   0.20000000  0.20000000  0.12500000       0.015
   0.30000000  0.20000000  0.12500000       0.030
   0.40000000  0.20000000  0.12500000       0.015
   0.30000000  0.30000000  0.12500000       0.015
   0.00000000  0.00000000  0.25000000       0.003
   0.10000000  0.00000000  0.25000000       0.015
   0.20000000  0.00000000  0.25000000       0.015
   0.30000000  0.00000000  0.25000000       0.015
   0.40000000  0.00000000  0.25000000       0.015
   0.50000000  0.00000000  0.25000000       0.007
   0.10000000  0.10000000  0.25000000       0.015
   0.20000000  0.10000000  0.25000000       0.030
   0.30000000  0.10000000  0.25000000       0.030
   0.40000000  0.10000000  0.25000000       0.030
   0.20000000  0.20000000  0.25000000       0.015
   0.30000000  0.20000000  0.25000000       0.030
   0.40000000  0.20000000  0.25000000       0.015
   0.30000000  0.30000000  0.25000000       0.015
   0.00000000  0.00000000  0.37500000       0.003
   0.10000000  0.00000000  0.37500000       0.015
   0.20000000  0.00000000  0.37500000       0.015
   0.30000000  0.00000000  0.37500000       0.015
   0.40000000  0.00000000  0.37500000       0.015
   0.50000000  0.00000000  0.37500000       0.007
   0.10000000  0.10000000  0.37500000       0.015
   0.20000000  0.10000000  0.37500000       0.030
   0.30000000  0.10000000  0.37500000       0.030
   0.40000000  0.10000000  0.37500000       0.030
   0.20000000  0.20000000  0.37500000       0.015
   0.30000000  0.20000000  0.37500000       0.030
   0.40000000  0.20000000  0.37500000       0.015
   0.30000000  0.30000000  0.37500000       0.015
   0.00000000  0.00000000  0.50000000       0.001
   0.10000000  0.00000000  0.50000000       0.007
   0.20000000  0.00000000  0.50000000       0.007
   0.30000000  0.00000000  0.50000000       0.007
   0.40000000  0.00000000  0.50000000       0.007
   0.50000000  0.00000000  0.50000000       0.004
   0.10000000  0.10000000  0.50000000       0.007
   0.20000000  0.10000000  0.50000000       0.015
   0.30000000  0.10000000  0.50000000       0.015
   0.40000000  0.10000000  0.50000000       0.015
   0.20000000  0.20000000  0.50000000       0.007
   0.30000000  0.20000000  0.50000000       0.015
   0.40000000  0.20000000  0.50000000       0.007
   0.30000000  0.30000000  0.50000000       0.007
 
 position of ions in fractional coordinates (direct lattice) 
   0.00000000  0.00000000  0.00000000
   0.33333333  0.66666667  0.50000000
 
 position of ions in cartesian coordinates  (Angst):
   0.00000000  0.00000000  0.00000000
   0.00000000  1.58942920  2.38473002
 


--------------------------------------------------------------------------------------------------------


 k-point   1 :   0.0000 0.0000 0.0000  plane waves:     713
 k-point   2 :   0.1000 0.0000 0.0000  plane waves:     687
 k-point   3 :   0.2000 0.0000 0.0000  plane waves:     676
 k-point   4 :   0.3000 0.0000 0.0000  plane waves:     676
 k-point   5 :   0.4000 0.0000 0.0000  plane waves:     690
 k-point   6 :   0.5000 0.0000 0.0000  plane waves:     700
 k-point   7 :   0.1000 0.1000 0.0000  plane waves:     677
 k-point   8 :   0.2000 0.1000 0.0000  plane waves:     677
 k-point   9 :   0.3000 0.1000 0.0000  plane waves:     678
 k-point  10 :   0.4000 0.1000 0.0000  plane waves:     680
 k-point  11 :   0.2000 0.2000 0.0000  plane waves:     669
 k-point  12 :   0.3000 0.2000 0.0000  plane waves:     676
 k-point  13 :   0.4000 0.2000 0.0000  plane waves:     676
 k-point  14 :   0.3000 0.3000 0.0000  plane waves:     681
 k-point  15 :   0.0000 0.0000 0.1250  plane waves:     689
 k-point  16 :   0.1000 0.0000 0.1250  plane waves:     687
 k-point  17 :   0.2000 0.0000 0.1250  plane waves:     678
 k-point  18 :   0.3000 0.0000 0.1250  plane waves:     679
 k-point  19 :   0.4000 0.0000 0.1250  plane waves:     683
 k-point  20 :   0.5000 0.0000 0.1250  plane waves:     682
 k-point  21 :   0.1000 0.1000 0.1250  plane waves:     683
 k-point  22 :   0.2000 0.1000 0.1250  plane waves:     678
 k-point  23 :   0.3000 0.1000 0.1250  plane waves:     679
 k-point  24 :   0.4000 0.1000 0.1250  plane waves:     676
 k-point  25 :   0.2000 0.2000 0.1250  plane waves:     677
 k-point  26 :   0.3000 0.2000 0.1250  plane waves:     677
 k-point  27 :   0.4000 0.2000 0.1250  plane waves:     676
 k-point  28 :   0.3000 0.3000 0.1250  plane waves:     683
 k-point  29 :   0.0000 0.0000 0.2500  plane waves:     682
 k-point  30 :   0.1000 0.0000 0.2500  plane waves:     679
 k-point  31 :   0.2000 0.0000 0.2500  plane waves:     677
 k-point  32 :   0.3000 0.0000 0.2500  plane waves:     674
 k-point  33 :   0.4000 0.0000 0.2500  plane waves:     680
 k-point  34 :   0.5000 0.0000 0.2500  plane waves:     684
 k-point  35 :   0.1000 0.1000 0.2500  plane waves:     674
 k-point  36 :   0.2000 0.1000 0.2500  plane waves:     674
 k-point  37 :   0.3000 0.1000 0.2500  plane waves:     681
 k-point  38 :   0.4000 0.1000 0.2500  plane waves:     679
 k-point  39 :   0.2000 0.2000 0.2500  plane waves:     679
 k-point  40 :   0.3000 0.2000 0.2500  plane waves:     679
 k-point  41 :   0.4000 0.2000 0.2500  plane waves:     677
 k-point  42 :   0.3000 0.3000 0.2500  plane waves:     676
 k-point  43 :   0.0000 0.0000 0.3750  plane waves:     676
 k-point  44 :   0.1000 0.0000 0.3750  plane waves:     675
 k-point  45 :   0.2000 0.0000 0.3750  plane waves:     677
 k-point  46 :   0.3000 0.0000 0.3750  plane waves:     679
 k-point  47 :   0.4000 0.0000 0.3750  plane waves:     684
 k-point  48 :   0.5000 0.0000 0.3750  plane waves:     680
 k-point  49 :   0.1000 0.1000 0.3750  plane waves:     672
 k-point  50 :   0.2000 0.1000 0.3750  plane waves:     678
 k-point  51 :   0.3000 0.1000 0.3750  plane waves:     680
 k-point  52 :   0.4000 0.1000 0.3750  plane waves:     680
 k-point  53 :   0.2000 0.2000 0.3750  plane waves:     685
 k-point  54 :   0.3000 0.2000 0.3750  plane waves:     682
 k-point  55 :   0.4000 0.2000 0.3750  plane waves:     674
 k-point  56 :   0.3000 0.3000 0.3750  plane waves:     680
 k-point  57 :   0.0000 0.0000 0.5000  plane waves:     664
 k-point  58 :   0.1000 0.0000 0.5000  plane waves:     670
 k-point  59 :   0.2000 0.0000 0.5000  plane waves:     668
 k-point  60 :   0.3000 0.0000 0.5000  plane waves:     676
 k-point  61 :   0.4000 0.0000 0.5000  plane waves:     676
 k-point  62 :   0.5000 0.0000 0.5000  plane waves:     676
 k-point  63 :   0.1000 0.1000 0.5000  plane waves:     676
 k-point  64 :   0.2000 0.1000 0.5000  plane waves:     678
 k-point  65 :   0.3000 0.1000 0.5000  plane waves:     686
 k-point  66 :   0.4000 0.1000 0.5000  plane waves:     684
 k-point  67 :   0.2000 0.2000 0.5000  plane waves:     686
 k-point  68 :   0.3000 0.2000 0.5000  plane waves:     682
 k-point  69 :   0.4000 0.2000 0.5000  plane waves:     674
 k-point  70 :   0.3000 0.3000 0.5000  plane waves:     678

 maximum and minimum number of plane-waves per node :       713      664

 maximum number of plane-waves:       713
 maximum index in each direction: 
   IXMAX=    4   IYMAX=    4   IZMAX=    8
   IXMIN=   -5   IYMIN=   -5   IZMIN=   -8


 serial   3D FFT for wavefunctions
 parallel 3D FFT for charge:
    minimum data exchange during FFTs selected (reduces bandwidth)


 total amount of memory used by VASP MPI-rank0    39289. kBytes
=======================================================================

   base      :      30000. kBytes
   nonl-proj :       7280. kBytes
   fftplans  :        254. kBytes
   grid      :        864. kBytes
   one-center:         31. kBytes
   wavefun   :        860. kBytes
 
     INWAV:  cpu time      0.0000: real time      0.0004
 Broyden mixing: mesh for mixing (old mesh)
   NGX =  9   NGY =  9   NGZ = 17
  (NGX  = 40   NGY  = 40   NGZ  = 72)
  gives a total of   1377 points

 initial charge density was supplied:
 charge density of overlapping atoms calculated
 number of electron      32.0000000 magnetization 
 keeping initial charge density in first step


--------------------------------------------------------------------------------------------------------


 Maximum index for augmentation-charges          736 (set IRDMAX)


--------------------------------------------------------------------------------------------------------


 First call to EWALD:  gamma=   0.562
 Maximum number of real-space cells 3x 3x 2
 Maximum number of reciprocal cells 2x 2x 4

    FEWALD:  cpu time      0.0014: real time      0.0014


--------------------------------------- Iteration      1(   1)  ---------------------------------------


    POTLOK:  cpu time      0.0038: real time      0.0039
    SETDIJ:  cpu time      0.0022: real time      0.0022
     EDDAV:  cpu time      0.3096: real time      0.3117
       DOS:  cpu time      0.0005: real time      0.0006
    --------------------------------------------
      LOOP:  cpu time      0.3161: real time      0.3183

 eigenvalue-minimisations  :  3360
 total energy-change (2. order) : 0.1439285E+03  (-0.2314522E+04)
 number of electron      32.0000000 magnetization 
 augmentation part       32.0000000 magnetization 

 Free energy of the ion-electron system (eV)
  ---------------------------------------------------
  alpha Z        PSCENC =       306.58043162
  Ewald energy   TEWEN  =     -4254.12912055
  -Hartree energ DENC   =      -813.12838363
  -exchange      EXHF   =         0.00000000
  -V(xc)+E(xc)   XCENC  =       127.41893810
  PAW double counting   =      4131.50523274    -4061.67189606
  entropy T*S    EENTRO =        -0.00058491
  eigenvalues    EBANDS =      -149.07575194
  atomic energy  EATOM  =      4856.42966544
  Solvation  Ediel_sol  =         0.00000000
  ---------------------------------------------------
  free energy    TOTEN  =       143.92853081 eV

  energy without entropy =      143.92911573  energy(sigma->0) =      143.92882327


--------------------------------------------------------------------------------------------------------




--------------------------------------- Iteration      1(   2)  ---------------------------------------


     EDDAV:  cpu time      0.3406: real time      0.3431
       DOS:  cpu time      0.0004: real time      0.0004
    --------------------------------------------
      LOOP:  cpu time      0.3409: real time      0.3435

 eigenvalue-minimisations  :  3600
 total energy-change (2. order) :-0.1553203E+03  (-0.1545828E+03)
 number of electron      32.0000000 magnetization 
 augmentation part       32.0000000 magnetization 

 Free energy of the ion-electron system (eV)
  ---------------------------------------------------
  alpha Z        PSCENC =       306.58043162
  Ewald energy   TEWEN  =     -4254.12912055
  -Hartree energ DENC   =      -813.12838363
  -exchange      EXHF   =         0.00000000
  -V(xc)+E(xc)   XCENC  =       127.41893810
  PAW double counting   =      4131.50523274    -4061.67189606
  entropy T*S    EENTRO =        -0.00430129
  eigenvalues    EBANDS =      -304.39234066
  atomic energy  EATOM  =      4856.42966544
  Solvation  Ediel_sol  =         0.00000000
  ---------------------------------------------------
  free energy    TOTEN  =       -11.39177428 eV

  energy without entropy =      -11.38747299  energy(sigma->0) =      -11.38962364


--------------------------------------------------------------------------------------------------------




--------------------------------------- Iteration      1(   3)  ---------------------------------------


     EDDAV:  cpu time      0.4400: real time      0.4425
       DOS:  cpu time      0.0004: real time      0.0004
    --------------------------------------------
      LOOP:  cpu time      0.4403: real time      0.4429

 eigenvalue-minimisations  :  4200
 total energy-change (2. order) :-0.1348661E+01  (-0.1340809E+01)
 number of electron      32.0000000 magnetization 
 augmentation part       32.0000000 magnetization 

 Free energy of the ion-electron system (eV)
  ---------------------------------------------------
  alpha Z        PSCENC =       306.58043162
  Ewald energy   TEWEN  =     -4254.12912055
  -Hartree energ DENC   =      -813.12838363
  -exchange      EXHF   =         0.00000000
  -V(xc)+E(xc)   XCENC  =       127.41893810
  PAW double counting   =      4131.50523274    -4061.67189606
  entropy T*S    EENTRO =        -0.00429321
  eigenvalues    EBANDS =      -305.74100946
  atomic energy  EATOM  =      4856.42966544
  Solvation  Ediel_sol  =         0.00000000
  ---------------------------------------------------
  free energy    TOTEN  =       -12.74043501 eV

  energy without entropy =      -12.73614179  energy(sigma->0) =      -12.73828840


--------------------------------------------------------------------------------------------------------




--------------------------------------- Iteration      1(   4)  ---------------------------------------


     EDDAV:  cpu time      0.6166: real time      0.6201
       DOS:  cpu time      0.0004: real time      0.0004
    --------------------------------------------
      LOOP:  cpu time      0.6169: real time      0.6205

 eigenvalue-minimisations  :  5160
 total energy-change (2. order) :-0.4624171E-02  (-0.4623871E-02)
 number of electron      32.0000000 magnetization 
 augmentation part       32.0000000 magnetization 

 Free energy of the ion-electron system (eV)
  ---------------------------------------------------
  alpha Z        PSCENC =       306.58043162
  Ewald energy   TEWEN  =     -4254.12912055
  -Hartree energ DENC   =      -813.12838363
  -exchange      EXHF   =         0.00000000
  -V(xc)+E(xc)   XCENC  =       127.41893810
  PAW double counting   =      4131.50523274    -4061.67189606
  entropy T*S    EENTRO =        -0.00430757
  eigenvalues    EBANDS =      -305.74561927
  atomic energy  EATOM  =      4856.42966544
  Solvation  Ediel_sol  =         0.00000000
  ---------------------------------------------------
  free energy    TOTEN  =       -12.74505918 eV

  energy without entropy =      -12.74075161  energy(sigma->0) =      -12.74290539


--------------------------------------------------------------------------------------------------------




--------------------------------------- Iteration      1(   5)  ---------------------------------------


     EDDAV:  cpu time      0.4975: real time      0.5005
       DOS:  cpu time      0.0004: real time      0.0004
    CHARGE:  cpu time      0.0237: real time      0.0238
    MIXING:  cpu time      0.0004: real time      0.0004
    --------------------------------------------
      LOOP:  cpu time      0.5220: real time      0.5251

 eigenvalue-minimisations  :  4464
 total energy-change (2. order) :-0.8429497E-06  (-0.8408592E-06)
 number of electron      31.9999998 magnetization 
 augmentation part        7.9547766 magnetization 

 Broyden mixing:
  rms(total) = 0.20152E+01    rms(broyden)= 0.20150E+01
  rms(prec ) = 0.22292E+01
  weight for this iteration     100.00

 Free energy of the ion-electron system (eV)
  ---------------------------------------------------
  alpha Z        PSCENC =       306.58043162
  Ewald energy   TEWEN  =     -4254.12912055
  -Hartree energ DENC   =      -813.12838363
  -exchange      EXHF   =         0.00000000
  -V(xc)+E(xc)   XCENC  =       127.41893810
  PAW double counting   =      4131.50523274    -4061.67189606
  entropy T*S    EENTRO =        -0.00430757
  eigenvalues    EBANDS =      -305.74562011
  atomic energy  EATOM  =      4856.42966544
  Solvation  Ediel_sol  =         0.00000000
  ---------------------------------------------------
  free energy    TOTEN  =       -12.74506002 eV

  energy without entropy =      -12.74075245  energy(sigma->0) =      -12.74290623


--------------------------------------------------------------------------------------------------------




--------------------------------------- Iteration      1(   6)  ---------------------------------------


    POTLOK:  cpu time      0.0035: real time      0.0037
    SETDIJ:  cpu time      0.0020: real time      0.0020
     EDDAV:  cpu time      0.3219: real time      0.3237
       DOS:  cpu time      0.0004: real time      0.0004
    CHARGE:  cpu time      0.0226: real time      0.0227
    MIXING:  cpu time      0.0003: real time      0.0003
    --------------------------------------------
      LOOP:  cpu time      0.3507: real time      0.3528

 eigenvalue-minimisations  :  3480
 total energy-change (2. order) : 0.6701241E+00  (-0.2595634E+00)
 number of electron      31.9999998 magnetization 
 augmentation part        8.1851453 magnetization 

 Broyden mixing:
  rms(total) = 0.62388E+00    rms(broyden)= 0.62386E+00
  rms(prec ) = 0.66271E+00
  weight for this iteration     100.00

 eigenvalues of (default mixing * dielectric matrix)
  average eigenvalue GAMMA=   1.4217
  1.4217

 Free energy of the ion-electron system (eV)
  ---------------------------------------------------
  alpha Z        PSCENC =       306.58043162
  Ewald energy   TEWEN  =     -4254.12912055
  -Hartree energ DENC   =      -782.21340723
  -exchange      EXHF   =         0.00000000
  -V(xc)+E(xc)   XCENC  =       126.09336936
  PAW double counting   =      4449.71481324    -4383.93544916
  entropy T*S    EENTRO =        -0.00442008
  eigenvalues    EBANDS =      -330.61081857
  atomic energy  EATOM  =      4856.42966544
  Solvation  Ediel_sol  =         0.00000000
  ---------------------------------------------------
  free energy    TOTEN  =       -12.07493593 eV

  energy without entropy =      -12.07051585  energy(sigma->0) =      -12.07272589


--------------------------------------------------------------------------------------------------------




--------------------------------------- Iteration      1(   7)  ---------------------------------------


    POTLOK:  cpu time      0.0034: real time      0.0036
    SETDIJ:  cpu time      0.0020: real time      0.0020
     EDDAV:  cpu time      0.4933: real time      0.4961
       DOS:  cpu time      0.0004: real time      0.0004
    CHARGE:  cpu time      0.0223: real time      0.0224
    MIXING:  cpu time      0.0004: real time      0.0004
    --------------------------------------------
      LOOP:  cpu time      0.5217: real time      0.5248

 eigenvalue-minimisations  :  4632
 total energy-change (2. order) : 0.3398303E-01  (-0.1505538E-01)
 number of electron      31.9999998 magnetization 
 augmentation part        8.2355628 magnetization 

 Broyden mixing:
  rms(total) = 0.18911E+00    rms(broyden)= 0.18911E+00
  rms(prec ) = 0.20041E+00
  weight for this iteration     100.00

 eigenvalues of (default mixing * dielectric matrix)
  average eigenvalue GAMMA=   1.9259
  1.1704  2.6815

 Free energy of the ion-electron system (eV)
  ---------------------------------------------------
  alpha Z        PSCENC =       306.58043162
  Ewald energy   TEWEN  =     -4254.12912055
  -Hartree energ DENC   =      -774.44699598
  -exchange      EXHF   =         0.00000000
  -V(xc)+E(xc)   XCENC  =       125.73978453
  PAW double counting   =      4581.63732565    -4516.93529996
  entropy T*S    EENTRO =        -0.00464242
  eigenvalues    EBANDS =      -336.91210122
  atomic energy  EATOM  =      4856.42966544
  Solvation  Ediel_sol  =         0.00000000
  ---------------------------------------------------
  free energy    TOTEN  =       -12.04095290 eV

  energy without entropy =      -12.03631048  energy(sigma->0) =      -12.03863169


--------------------------------------------------------------------------------------------------------




--------------------------------------- Iteration      1(   8)  ---------------------------------------


    POTLOK:  cpu time      0.0034: real time      0.0036
    SETDIJ:  cpu time      0.0019: real time      0.0019
     EDDAV:  cpu time      0.3328: real time      0.3346
       DOS:  cpu time      0.0004: real time      0.0004
    CHARGE:  cpu time      0.0223: real time      0.0223
    MIXING:  cpu time      0.0004: real time      0.0004
    --------------------------------------------
      LOOP:  cpu time      0.3611: real time      0.3631

 eigenvalue-minimisations  :  3576
 total energy-change (2. order) : 0.2326840E-02  (-0.7280411E-03)
 number of electron      31.9999998 magnetization 
 augmentation part        8.2282129 magnetization 

 Broyden mixing:
  rms(total) = 0.26827E-01    rms(broyden)= 0.26817E-01
  rms(prec ) = 0.28840E-01
  weight for this iteration     100.00

 eigenvalues of (default mixing * dielectric matrix)
  average eigenvalue GAMMA=   1.5859
  1.0924  1.2571  2.4080

 Free energy of the ion-electron system (eV)
  ---------------------------------------------------
  alpha Z        PSCENC =       306.58043162
  Ewald energy   TEWEN  =     -4254.12912055
  -Hartree energ DENC   =      -774.22290835
  -exchange      EXHF   =         0.00000000
  -V(xc)+E(xc)   XCENC  =       125.70485111
  PAW double counting   =      4658.93379226    -4594.28935902
  entropy T*S    EENTRO =        -0.00468675
  eigenvalues    EBANDS =      -337.04129183
  atomic energy  EATOM  =      4856.42966544
  Solvation  Ediel_sol  =         0.00000000
  ---------------------------------------------------
  free energy    TOTEN  =       -12.03862606 eV

  energy without entropy =      -12.03393931  energy(sigma->0) =      -12.03628268


--------------------------------------------------------------------------------------------------------




--------------------------------------- Iteration      1(   9)  ---------------------------------------


    POTLOK:  cpu time      0.0033: real time      0.0034
    SETDIJ:  cpu time      0.0019: real time      0.0019
     EDDAV:  cpu time      0.5037: real time      0.5065
       DOS:  cpu time      0.0004: real time      0.0004
    CHARGE:  cpu time      0.0229: real time      0.0230
    MIXING:  cpu time      0.0004: real time      0.0004
    --------------------------------------------
      LOOP:  cpu time      0.5325: real time      0.5356

 eigenvalue-minimisations  :  4512
 total energy-change (2. order) : 0.1761277E-03  (-0.2438552E-04)
 number of electron      31.9999998 magnetization 
 augmentation part        8.2273519 magnetization 

 Broyden mixing:
  rms(total) = 0.31403E-02    rms(broyden)= 0.31391E-02
  rms(prec ) = 0.36994E-02
  weight for this iteration     100.00

 eigenvalues of (default mixing * dielectric matrix)
  average eigenvalue GAMMA=   1.6746
  2.5292  1.0314  1.2021  1.9356

 Free energy of the ion-electron system (eV)
  ---------------------------------------------------
  alpha Z        PSCENC =       306.58043162
  Ewald energy   TEWEN  =     -4254.12912055
  -Hartree energ DENC   =      -774.51528306
  -exchange      EXHF   =         0.00000000
  -V(xc)+E(xc)   XCENC  =       125.71949806
  PAW double counting   =      4651.01237693    -4586.29148464
  entropy T*S    EENTRO =        -0.00466311
  eigenvalues    EBANDS =      -336.83987063
  atomic energy  EATOM  =      4856.42966544
  Solvation  Ediel_sol  =         0.00000000
  ---------------------------------------------------
  free energy    TOTEN  =       -12.03844993 eV

  energy without entropy =      -12.03378682  energy(sigma->0) =      -12.03611838


--------------------------------------------------------------------------------------------------------




--------------------------------------- Iteration      1(  10)  ---------------------------------------


    POTLOK:  cpu time      0.0034: real time      0.0036
    SETDIJ:  cpu time      0.0020: real time      0.0020
     EDDAV:  cpu time      0.4159: real time      0.4181
       DOS:  cpu time      0.0004: real time      0.0004
    CHARGE:  cpu time      0.0223: real time      0.0224
    MIXING:  cpu time      0.0004: real time      0.0004
    --------------------------------------------
      LOOP:  cpu time      0.4444: real time      0.4468

 eigenvalue-minimisations  :  4032
 total energy-change (2. order) :-0.1390701E-04  (-0.1054764E-05)
 number of electron      31.9999998 magnetization 
 augmentation part        8.2275147 magnetization 

 Broyden mixing:
  rms(total) = 0.10369E-02    rms(broyden)= 0.10366E-02
  rms(prec ) = 0.12077E-02
  weight for this iteration     100.00

 eigenvalues of (default mixing * dielectric matrix)
  average eigenvalue GAMMA=   1.7250
  2.6485  2.2755  0.9894  1.1997  1.5117

 Free energy of the ion-electron system (eV)
  ---------------------------------------------------
  alpha Z        PSCENC =       306.58043162
  Ewald energy   TEWEN  =     -4254.12912055
  -Hartree energ DENC   =      -774.52941551
  -exchange      EXHF   =         0.00000000
  -V(xc)+E(xc)   XCENC  =       125.71972940
  PAW double counting   =      4653.91253267    -4589.15961551
  entropy T*S    EENTRO =        -0.00465954
  eigenvalues    EBANDS =      -336.85801185
  atomic energy  EATOM  =      4856.42966544
  Solvation  Ediel_sol  =         0.00000000
  ---------------------------------------------------
  free energy    TOTEN  =       -12.03846384 eV

  energy without entropy =      -12.03380430  energy(sigma->0) =      -12.03613407


--------------------------------------------------------------------------------------------------------




--------------------------------------- Iteration      1(  11)  ---------------------------------------


    POTLOK:  cpu time      0.0033: real time      0.0034
    SETDIJ:  cpu time      0.0019: real time      0.0019
     EDDAV:  cpu time      0.3718: real time      0.3740
       DOS:  cpu time      0.0004: real time      0.0004
    --------------------------------------------
      LOOP:  cpu time      0.3773: real time      0.3797

 eigenvalue-minimisations  :  3696
 total energy-change (2. order) : 0.4413805E-06  (-0.1146776E-06)
 number of electron      31.9999998 magnetization 
 augmentation part        8.2275147 magnetization 

 Free energy of the ion-electron system (eV)
  ---------------------------------------------------
  alpha Z        PSCENC =       306.58043162
  Ewald energy   TEWEN  =     -4254.12912055
  -Hartree energ DENC   =      -774.54463842
  -exchange      EXHF   =         0.00000000
  -V(xc)+E(xc)   XCENC  =       125.72034261
  PAW double counting   =      4654.39947943    -4589.63148331
  entropy T*S    EENTRO =        -0.00466022
  eigenvalues    EBANDS =      -336.85848001
  atomic energy  EATOM  =      4856.42966544
  Solvation  Ediel_sol  =         0.00000000
  ---------------------------------------------------
  free energy    TOTEN  =       -12.03846340 eV

  energy without entropy =      -12.03380318  energy(sigma->0) =      -12.03613329


--------------------------------------------------------------------------------------------------------




 average (electrostatic) potential at core
  the test charge radii are     0.9952
  (the norm of the test charge is              1.0000)
       1 -89.3345       2 -89.3345
 
 
 
 E-fermi :  11.3031     XC(G=0): -13.7596     alpha+bet :-16.7599

 Fermi energy:        11.3031197800

 k-point     1 :       0.0000    0.0000    0.0000
  band No.  band energies     occupation 
      1     -41.3391      2.00000
      2     -41.1558      2.00000
      3     -41.1558      2.00000
      4     -41.1139      2.00000
      5     -41.1139      2.00000
      6     -40.9962      2.00000
      7       1.4975      2.00000
      8       4.1591      2.00000
      9       7.3322      2.00000
     10       7.8370      2.00000
     11       7.8370      2.00000
     12       8.2107      2.00000
     13       8.2107      2.00000
     14       9.4821      2.00000
     15       9.4821      2.00000
     16      10.5685      2.00000
     17      11.0940      2.00000
     18      11.0940      2.00000
     19      16.0681      0.00000
     20      26.3809      0.00000
     21      27.0119      0.00000
     22      28.5599      0.00000
     23      32.4238      0.00000
     24      32.4238      0.00000

 k-point     2 :       0.1000    0.0000    0.0000
  band No.  band energies     occupation 
      1     -41.3261      2.00000
      2     -41.1923      2.00000
      3     -41.1659      2.00000
      4     -41.1515      2.00000
      5     -41.1212      2.00000
      6     -40.9987      2.00000
      7       1.8615      2.00000
      8       4.4893      2.00000
      9       7.2627      2.00000
     10       7.8493      2.00000
     11       8.0606      2.00000
     12       8.1166      2.00000
     13       8.4762      2.00000
     14       8.8928      2.00000
     15       9.3092      2.00000
     16       9.4612      2.00000
     17      11.1587      1.99996
     18      12.8630      0.00000
     19      16.0309      0.00000
     20      26.8294      0.00000
     21      27.5422      0.00000
     22      28.9096      0.00000
     23      30.7784      0.00000
     24      30.9124      0.00000

 k-point     3 :       0.2000    0.0000    0.0000
  band No.  band energies     occupation 
      1     -41.2921      2.00000
      2     -41.2896      2.00000
      3     -41.2494      2.00000
      4     -41.1935      2.00000
      5     -41.1412      2.00000
      6     -41.0076      2.00000
      7       2.8532      2.00000
      8       5.2134      2.00000
      9       7.0301      2.00000
     10       7.5161      2.00000
     11       7.5643      2.00000
     12       8.4798      2.00000
     13       8.9072      2.00000
     14       8.9254      2.00000
     15       8.9436      2.00000
     16       9.2225      2.00000
     17      11.2614      1.76176
     18      15.0535      0.00000
     19      15.9583      0.00000
     20      25.3948      0.00000
     21      28.1487      0.00000
     22      28.4719      0.00000
     23      29.3201      0.00000
     24      29.5261      0.00000

 k-point     4 :       0.3000    0.0000    0.0000
  band No.  band energies     occupation 
      1     -41.4097      2.00000
      2     -41.3686      2.00000
      3     -41.2449      2.00000
      4     -41.2273      2.00000
      5     -41.1668      2.00000
      6     -41.0243      2.00000
      7       4.0641      2.00000
      8       5.3359      2.00000
      9       6.4489      2.00000
     10       7.2981      2.00000
     11       7.6613      2.00000
     12       8.4295      2.00000
     13       8.5299      2.00000
     14       9.6423      2.00000
     15      10.0431      2.00000
     16      10.2794      2.00000
     17      11.3173      0.68794
     18      16.0731      0.00000
     19      17.2807      0.00000
     20      21.6698      0.00000
     21      26.0727      0.00000
     22      26.5912      0.00000
     23      28.2817      0.00000
     24      29.3420      0.00000

 k-point     5 :       0.4000    0.0000    0.0000
  band No.  band energies     occupation 
      1     -41.5073      2.00000
      2     -41.4630      2.00000
      3     -41.2542      2.00000
      4     -41.1974      2.00000
      5     -41.1885      2.00000
      6     -41.0474      2.00000
      7       4.7240      2.00000
      8       5.0187      2.00000
      9       5.7876      2.00000
     10       7.8234      2.00000
     11       8.0530      2.00000
     12       8.2482      2.00000
     13       8.4756      2.00000
     14      11.1392      2.00000
     15      11.3206      0.62151
     16      11.3301      0.44572
     17      11.5318      0.00000
     18      16.8674      0.00000
     19      18.0219      0.00000
     20      19.2546      0.00000
     21      23.8064      0.00000
     22      24.1463      0.00000
     23      25.2544      0.00000
     24      28.0655      0.00000

 k-point     6 :       0.5000    0.0000    0.0000
  band No.  band energies     occupation 
      1     -41.5440      2.00000
      2     -41.4992      2.00000
      3     -41.2646      2.00000
      4     -41.1966      2.00000
      5     -41.1739      2.00000
      6     -41.0621      2.00000
      7       4.8101      2.00000
      8       4.8937      2.00000
      9       5.5637      2.00000
     10       7.9169      2.00000
     11       8.1474      2.00000
     12       8.3534      2.00000
     13       8.6771      2.00000
     14      11.3294      0.45721
     15      11.6013      0.00000
     16      11.8067      0.00000
     17      13.5920      0.00000
     18      15.0793      0.00000
     19      18.6228      0.00000
     20      20.2044      0.00000
     21      20.8993      0.00000
     22      23.3577      0.00000
     23      24.6233      0.00000
     24      27.4820      0.00000

 k-point     7 :       0.1000    0.1000    0.0000
  band No.  band energies     occupation 
      1     -41.3029      2.00000
      2     -41.2532      2.00000
      3     -41.2264      2.00000
      4     -41.1789      2.00000
      5     -41.1402      2.00000
      6     -41.0045      2.00000
      7       2.5479      2.00000
      8       5.0651      2.00000
      9       6.9894      2.00000
     10       7.7623      2.00000
     11       7.9231      2.00000
     12       8.0743      2.00000
     13       8.7070      2.00000
     14       8.7212      2.00000
     15       9.0706      2.00000
     16       9.3733      2.00000
     17      11.1817      1.99941
     18      14.4757      0.00000
     19      15.9780      0.00000
     20      26.7884      0.00000
     21      27.4342      0.00000
     22      28.4483      0.00000
     23      29.4592      0.00000
     24      30.2226      0.00000

 k-point     8 :       0.2000    0.1000    0.0000
  band No.  band energies     occupation 
      1     -41.3539      2.00000
      2     -41.3271      2.00000
      3     -41.2622      2.00000
      4     -41.2182      2.00000
      5     -41.1708      2.00000
      6     -41.0176      2.00000
      7       3.7244      2.00000
      8       5.6780      2.00000
      9       6.8089      2.00000
     10       6.8635      2.00000
     11       7.4899      2.00000
     12       8.2219      2.00000
     13       8.6925      2.00000
     14       9.0032      2.00000
     15       9.7754      2.00000
     16      10.1855      2.00000
     17      11.1838      1.99926
     18      16.0191      0.00000
     19      16.5776      0.00000
     20      23.5737      0.00000
     21      25.4740      0.00000
     22      27.5872      0.00000
     23      29.5102      0.00000
     24      30.2014      0.00000

 k-point     9 :       0.3000    0.1000    0.0000
  band No.  band energies     occupation 
      1     -41.4586      2.00000
      2     -41.4219      2.00000
      3     -41.2582      2.00000
      4     -41.2136      2.00000
      5     -41.2000      2.00000
      6     -41.0386      2.00000
      7       4.7847      2.00000
      8       5.4353      2.00000
      9       6.0816      2.00000
     10       7.3117      2.00000
     11       7.9229      2.00000
     12       7.9412      2.00000
     13       8.5086      2.00000
     14       9.8029      2.00000
     15      10.8715      2.00000
     16      11.1718      1.99980
     17      11.6247      0.00000
     18      16.6077      0.00000
     19      18.7215      0.00000
     20      19.7357      0.00000
     21      23.3532      0.00000
     22      26.1393      0.00000
     23      26.5146      0.00000
     24      28.4884      0.00000

 k-point    10 :       0.4000    0.1000    0.0000
  band No.  band energies     occupation 
      1     -41.5233      2.00000
      2     -41.4795      2.00000
      3     -41.2829      2.00000
      4     -41.2181      2.00000
      5     -41.1737      2.00000
      6     -41.0613      2.00000
      7       5.0886      2.00000
      8       5.1800      2.00000
      9       5.6746      2.00000
     10       7.8683      2.00000
     11       8.1029      2.00000
     12       8.1080      2.00000
     13       8.4430      2.00000
     14      11.0504      2.00000
     15      11.1550      1.99997
     16      11.4342      0.00021
     17      13.3414      0.00000
     18      16.3137      0.00000
     19      18.2870      0.00000
     20      20.3942      0.00000
     21      21.1568      0.00000
     22      23.5103      0.00000
     23      25.0961      0.00000
     24      27.4053      0.00000

 k-point    11 :       0.2000    0.2000    0.0000
  band No.  band energies     occupation 
      1     -41.4133      2.00000
      2     -41.4120      2.00000
      3     -41.2632      2.00000
      4     -41.2221      2.00000
      5     -41.2191      2.00000
      6     -41.0356      2.00000
      7       4.9405      2.00000
      8       6.2864      2.00000
      9       6.2865      2.00000
     10       6.3540      2.00000
     11       7.7081      2.00000
     12       7.7300      2.00000
     13       8.7034      2.00000
     14       9.0576      2.00000
     15      10.8558      2.00000
     16      11.0026      2.00000
     17      11.7061      0.00000
     18      16.5855      0.00000
     19      18.5997      0.00000
     20      21.1884      0.00000
     21      22.0996      0.00000
     22      26.8880      0.00000
     23      28.1570      0.00000
     24      28.6346      0.00000

 k-point    12 :       0.3000    0.2000    0.0000
  band No.  band energies     occupation 
      1     -41.4765      2.00000
      2     -41.4463      2.00000
      3     -41.3165      2.00000
      4     -41.2662      2.00000
      5     -41.1740      2.00000
      6     -41.0610      2.00000
      7       5.7248      2.00000
      8       5.8963      2.00000
      9       5.9378      2.00000
     10       7.0965      2.00000
     11       7.5839      2.00000
     12       8.2122      2.00000
     13       8.2616      2.00000
     14       9.8579      2.00000
     15      10.8637      2.00000
     16      11.3022      1.02058
     17      13.3952      0.00000
     18      17.5817      0.00000
     19      18.5159      0.00000
     20      20.1315      0.00000
     21      20.6948      0.00000
     22      25.1173      0.00000
     23      26.1267      0.00000
     24      27.1418      0.00000

 k-point    13 :       0.4000    0.2000    0.0000
  band No.  band energies     occupation 
      1     -41.4996      2.00000
      2     -41.4554      2.00000
      3     -41.3415      2.00000
      4     -41.2827      2.00000
      5     -41.1482      2.00000
      6     -41.0793      2.00000
      7       5.7589      2.00000
      8       5.7841      2.00000
      9       5.8420      2.00000
     10       7.6744      2.00000
     11       7.7227      2.00000
     12       7.8329      2.00000
     13       8.5315      2.00000
     14      10.6282      2.00000
     15      10.8133      2.00000
     16      11.1078      2.00000
     17      14.9920      0.00000
     18      15.5192      0.00000
     19      18.8293      0.00000
     20      20.4276      0.00000
     21      21.9068      0.00000
     22      22.9465      0.00000
     23      25.3616      0.00000
     24      26.6114      0.00000

 k-point    14 :       0.3000    0.3000    0.0000
  band No.  band energies     occupation 
      1     -41.4624      2.00000
      2     -41.4286      2.00000
      3     -41.3805      2.00000
      4     -41.3377      2.00000
      5     -41.1338      2.00000
      6     -41.0909      2.00000
      7       5.8522      2.00000
      8       6.2779      2.00000
      9       6.5351      2.00000
     10       6.9798      2.00000
     11       7.5361      2.00000
     12       7.8078      2.00000
     13       8.6231      2.00000
     14      10.2228      2.00000
     15      10.6449      2.00000
     16      10.9462      2.00000
     17      15.0082      0.00000
     18      16.2739      0.00000
     19      17.6976      0.00000
     20      21.2722      0.00000
     21      22.8401      0.00000
     22      24.0704      0.00000
     23      24.8936      0.00000
     24      25.2730      0.00000

 k-point    15 :       0.0000    0.0000    0.1250
  band No.  band energies     occupation 
      1     -41.3255      2.00000
      2     -41.1534      2.00000
      3     -41.1534      2.00000
      4     -41.1152      2.00000
      5     -41.1152      2.00000
      6     -41.0092      2.00000
      7       1.6328      2.00000
      8       4.1406      2.00000
      9       7.2983      2.00000
     10       7.8177      2.00000
     11       7.8177      2.00000
     12       8.1713      2.00000
     13       8.1713      2.00000
     14       9.5824      2.00000
     15       9.5824      2.00000
     16       9.9516      2.00000
     17      11.0672      2.00000
     18      11.0672      2.00000
     19      16.9355      0.00000
     20      25.9294      0.00000
     21      27.5232      0.00000
     22      28.2709      0.00000
     23      31.8456      0.00000
     24      31.8456      0.00000

 k-point    16 :       0.1000    0.0000    0.1250
  band No.  band energies     occupation 
      1     -41.3148      2.00000
      2     -41.1899      2.00000
      3     -41.1643      2.00000
      4     -41.1538      2.00000
      5     -41.1228      2.00000
      6     -41.0105      2.00000
      7       1.9941      2.00000
      8       4.4769      2.00000
      9       7.2657      2.00000
     10       7.7610      2.00000
     11       7.9550      2.00000
     12       8.0874      2.00000
     13       8.4322      2.00000
     14       8.8430      2.00000
     15       9.4275      2.00000
     16       9.4619      2.00000
     17      11.1200      2.00000
     18      12.3275      0.00000
     19      17.0200      0.00000
     20      26.4398      0.00000
     21      27.9566      0.00000
     22      28.6701      0.00000
     23      30.1610      0.00000
     24      30.8248      0.00000

 k-point    17 :       0.2000    0.0000    0.1250
  band No.  band energies     occupation 
      1     -41.3045      2.00000
      2     -41.2664      2.00000
      3     -41.2517      2.00000
      4     -41.1916      2.00000
      5     -41.1432      2.00000
      6     -41.0168      2.00000
      7       2.9702      2.00000
      8       5.2241      2.00000
      9       7.0620      2.00000
     10       7.2591      2.00000
     11       7.5684      2.00000
     12       8.3634      2.00000
     13       8.7412      2.00000
     14       9.0930      2.00000
     15       9.1595      2.00000
     16       9.2704      2.00000
     17      11.2005      1.99631
     18      13.8708      0.00000
     19      17.4209      0.00000
     20      25.4909      0.00000
     21      27.9368      0.00000
     22      28.6287      0.00000
     23      28.8096      0.00000
     24      29.9526      0.00000

 k-point    18 :       0.3000    0.0000    0.1250
  band No.  band energies     occupation 
      1     -41.4122      2.00000
      2     -41.3723      2.00000
      3     -41.2325      2.00000
      4     -41.2250      2.00000
      5     -41.1693      2.00000
      6     -41.0307      2.00000
      7       4.1172      2.00000
      8       5.3652      2.00000
      9       6.4301      2.00000
     10       7.1305      2.00000
     11       7.6872      2.00000
     12       8.5382      2.00000
     13       8.5923      2.00000
     14       9.6970      2.00000
     15      10.0649      2.00000
     16      10.2302      2.00000
     17      11.2460      1.89361
     18      14.9775      0.00000
     19      18.4028      0.00000
     20      21.9448      0.00000
     21      26.3152      0.00000
     22      26.3502      0.00000
     23      27.9399      0.00000
     24      29.8159      0.00000

 k-point    19 :       0.4000    0.0000    0.1250
  band No.  band energies     occupation 
      1     -41.5080      2.00000
      2     -41.4670      2.00000
      3     -41.2516      2.00000
      4     -41.1909      2.00000
      5     -41.1882      2.00000
      6     -41.0508      2.00000
      7       4.6574      2.00000
      8       5.0264      2.00000
      9       5.9470      2.00000
     10       7.1806      2.00000
     11       8.2750      2.00000
     12       8.3343      2.00000
     13       9.0304      2.00000
     14      11.0624      2.00000
     15      11.1552      1.99997
     16      11.4244      0.00060
     17      11.4434      0.00007
     18      16.0031      0.00000
     19      18.0661      0.00000
     20      20.0770      0.00000
     21      23.5299      0.00000
     22      24.4269      0.00000
     23      25.5825      0.00000
     24      28.2877      0.00000

 k-point    20 :       0.5000    0.0000    0.1250
  band No.  band energies     occupation 
      1     -41.5448      2.00000
      2     -41.5027      2.00000
      3     -41.2618      2.00000
      4     -41.1990      2.00000
      5     -41.1660      2.00000
      6     -41.0634      2.00000
      7       4.7331      2.00000
      8       4.8407      2.00000
      9       5.7929      2.00000
     10       7.2443      2.00000
     11       8.2391      2.00000
     12       8.4270      2.00000
     13       9.4843      2.00000
     14      11.1486      1.99999
     15      11.6221      0.00000
     16      11.8005      0.00000
     17      13.3515      0.00000
     18      14.9656      0.00000
     19      18.4854      0.00000
     20      19.2427      0.00000
     21      22.1164      0.00000
     22      23.6524      0.00000
     23      24.7568      0.00000
     24      27.7638      0.00000

 k-point    21 :       0.1000    0.1000    0.1250
  band No.  band energies     occupation 
      1     -41.2984      2.00000
      2     -41.2454      2.00000
      3     -41.2281      2.00000
      4     -41.1787      2.00000
      5     -41.1422      2.00000
      6     -41.0146      2.00000
      7       2.6722      2.00000
      8       5.0680      2.00000
      9       7.0212      2.00000
     10       7.4761      2.00000
     11       7.8441      2.00000
     12       8.0722      2.00000
     13       8.6371      2.00000
     14       8.8608      2.00000
     15       9.1586      2.00000
     16       9.4463      2.00000
     17      11.1298      2.00000
     18      13.5132      0.00000
     19      17.2694      0.00000
     20      26.7378      0.00000
     21      27.5000      0.00000
     22      28.3578      0.00000
     23      29.0055      0.00000
     24      30.4860      0.00000

 k-point    22 :       0.2000    0.1000    0.1250
  band No.  band energies     occupation 
      1     -41.3580      2.00000
      2     -41.3302      2.00000
      3     -41.2474      2.00000
      4     -41.2169      2.00000
      5     -41.1728      2.00000
      6     -41.0249      2.00000
      7       3.8158      2.00000
      8       5.7135      2.00000
      9       6.6836      2.00000
     10       6.8762      2.00000
     11       7.4582      2.00000
     12       8.1220      2.00000
     13       8.8412      2.00000
     14       8.9916      2.00000
     15       9.8879      2.00000
     16      10.1321      2.00000
     17      11.1322      2.00000
     18      14.7018      0.00000
     19      18.0595      0.00000
     20      23.7554      0.00000
     21      25.6049      0.00000
     22      27.5162      0.00000
     23      28.9210      0.00000
     24      30.7847      0.00000

 k-point    23 :       0.3000    0.1000    0.1250
  band No.  band energies     occupation 
      1     -41.4603      2.00000
      2     -41.4257      2.00000
      3     -41.2571      2.00000
      4     -41.2063      2.00000
      5     -41.1990      2.00000
      6     -41.0427      2.00000
      7       4.7667      2.00000
      8       5.4708      2.00000
      9       6.1484      2.00000
     10       7.0314      2.00000
     11       7.8967      2.00000
     12       8.2803      2.00000
     13       8.5233      2.00000
     14       9.8193      2.00000
     15      10.9191      2.00000
     16      10.9787      2.00000
     17      11.6863      0.00000
     18      15.8000      0.00000
     19      18.9782      0.00000
     20      20.5045      0.00000
     21      23.4714      0.00000
     22      25.6572      0.00000
     23      26.8163      0.00000
     24      28.6969      0.00000

 k-point    24 :       0.4000    0.1000    0.1250
  band No.  band energies     occupation 
      1     -41.5242      2.00000
      2     -41.4834      2.00000
      3     -41.2811      2.00000
      4     -41.2208      2.00000
      5     -41.1656      2.00000
      6     -41.0630      2.00000
      7       4.9637      2.00000
      8       5.1648      2.00000
      9       5.9374      2.00000
     10       7.1849      2.00000
     11       7.9774      2.00000
     12       8.5517      2.00000
     13       8.9561      2.00000
     14      10.9394      2.00000
     15      11.0562      2.00000
[...]
      1     -41.4073      2.00000
      2     -41.4073      2.00000
      3     -41.1969      2.00000
      4     -41.1969      2.00000
      5     -41.1169      2.00000
      6     -41.1169      2.00000
      7       4.8998      2.00000
      8       4.8998      2.00000
      9       6.4326      2.00000
     10       6.4327      2.00000
     11       8.3240      2.00000
     12       8.3240      2.00000
     13       9.3847      2.00000
     14       9.3847      2.00000
     15      10.5808      2.00000
     16      10.5808      2.00000
     17      11.2253      1.97234
     18      11.2253      1.97233
     19      22.7031      0.00000
     20      22.7031      0.00000
     21      25.6163      0.00000
     22      25.6163      0.00000
     23      29.4142      0.00000
     24      29.4142      0.00000

 k-point    61 :       0.4000    0.0000    0.5000
  band No.  band energies     occupation 
      1     -41.5022      2.00000
      2     -41.5022      2.00000
      3     -41.2209      2.00000
      4     -41.2209      2.00000
      5     -41.1046      2.00000
      6     -41.1046      2.00000
      7       4.7877      2.00000
      8       4.7877      2.00000
      9       6.1612      2.00000
     10       6.1612      2.00000
     11       9.4998      2.00000
     12       9.4998      2.00000
     13       9.8727      2.00000
     14       9.8727      2.00000
     15      11.3200      0.63284
     16      11.3200      0.63278
     17      11.9644      0.00000
     18      11.9644      0.00000
     19      19.7305      0.00000
     20      19.7305      0.00000
     21      25.5048      0.00000
     22      25.5048      0.00000
     23      27.7061      0.00000
     24      27.7061      0.00000

 k-point    62 :       0.5000    0.0000    0.5000
  band No.  band energies     occupation 
      1     -41.5380      2.00000
      2     -41.5380      2.00000
      3     -41.2300      2.00000
      4     -41.2300      2.00000
      5     -41.0999      2.00000
      6     -41.0999      2.00000
      7       4.6946      2.00000
      8       4.6946      2.00000
      9       6.0540      2.00000
     10       6.0540      2.00000
     11       9.4838      2.00000
     12       9.4838      2.00000
     13      10.4475      2.00000
     14      10.4475      2.00000
     15      11.7200      0.00000
     16      11.7200      0.00000
     17      13.0106      0.00000
     18      13.0106      0.00000
     19      17.8250      0.00000
     20      17.8250      0.00000
     21      25.5074      0.00000
     22      25.5074      0.00000
     23      26.9675      0.00000
     24      26.9675      0.00000

 k-point    63 :       0.1000    0.1000    0.5000
  band No.  band energies     occupation 
      1     -41.2568      2.00000
      2     -41.2568      2.00000
      3     -41.1645      2.00000
      4     -41.1645      2.00000
      5     -41.1330      2.00000
      6     -41.1330      2.00000
      7       4.2244      2.00000
      8       4.2244      2.00000
      9       6.8449      2.00000
     10       6.8449      2.00000
     11       7.5321      2.00000
     12       7.5321      2.00000
     13       8.5906      2.00000
     14       8.5906      2.00000
     15      10.3684      2.00000
     16      10.3684      2.00000
     17      10.8025      2.00000
     18      10.8025      2.00000
     19      23.8218      0.00000
     20      23.8218      0.00000
     21      27.6507      0.00000
     22      27.6507      0.00000
     23      28.6309      0.00000
     24      28.6309      0.00000

 k-point    64 :       0.2000    0.1000    0.5000
  band No.  band energies     occupation 
      1     -41.3572      2.00000
      2     -41.3572      2.00000
      3     -41.1986      2.00000
      4     -41.1986      2.00000
      5     -41.1197      2.00000
      6     -41.1197      2.00000
      7       4.9982      2.00000
      8       4.9982      2.00000
      9       6.6157      2.00000
     10       6.6157      2.00000
     11       7.4628      2.00000
     12       7.4628      2.00000
     13       9.2232      2.00000
     14       9.2232      2.00000
     15      10.5594      2.00000
     16      10.5594      2.00000
     17      11.1383      2.00000
     18      11.1383      2.00000
     19      23.7589      0.00000
     20      23.7589      0.00000
     21      26.0673      0.00000
     22      26.0673      0.00000
     23      27.7242      0.00000
     24      27.7242      0.00000

 k-point    65 :       0.3000    0.1000    0.5000
  band No.  band energies     occupation 
      1     -41.4570      2.00000
      2     -41.4570      2.00000
      3     -41.2329      2.00000
      4     -41.2329      2.00000
      5     -41.1061      2.00000
      6     -41.1061      2.00000
      7       5.1064      2.00000
      8       5.1064      2.00000
      9       6.3910      2.00000
     10       6.3910      2.00000
     11       8.4505      2.00000
     12       8.4505      2.00000
     13       9.3425      2.00000
     14       9.3425      2.00000
     15      11.1995      1.99662
     16      11.1995      1.99662
     17      12.0064      0.00000
     18      12.0064      0.00000
     19      21.3525      0.00000
     20      21.3525      0.00000
     21      25.5572      0.00000
     22      25.5572      0.00000
     23      26.6470      0.00000
     24      26.6470      0.00000

 k-point    66 :       0.4000    0.1000    0.5000
  band No.  band energies     occupation 
      1     -41.5178      2.00000
      2     -41.5178      2.00000
      3     -41.2539      2.00000
      4     -41.2539      2.00000
      5     -41.0975      2.00000
      6     -41.0975      2.00000
      7       4.9663      2.00000
      8       4.9663      2.00000
      9       6.2154      2.00000
     10       6.2154      2.00000
     11       8.9414      2.00000
     12       8.9414      2.00000
     13      10.0561      2.00000
     14      10.0561      2.00000
     15      11.2931      1.22359
     16      11.2931      1.22352
     17      13.6902      0.00000
     18      13.6902      0.00000
     19      18.4613      0.00000
     20      18.4613      0.00000
     21      25.3510      0.00000
     22      25.3510      0.00000
     23      26.0187      0.00000
     24      26.0187      0.00000

 k-point    67 :       0.2000    0.2000    0.5000
  band No.  band energies     occupation 
      1     -41.4269      2.00000
      2     -41.4269      2.00000
      3     -41.2516      2.00000
      4     -41.2516      2.00000
      5     -41.1054      2.00000
      6     -41.1054      2.00000
      7       5.4730      2.00000
      8       5.4730      2.00000
      9       6.7672      2.00000
     10       6.7672      2.00000
     11       7.3507      2.00000
     12       7.3507      2.00000
     13       9.0874      2.00000
     14       9.0874      2.00000
     15      11.2978      1.11984
     16      11.2978      1.11977
     17      12.1195      0.00000
     18      12.1195      0.00000
     19      22.5855      0.00000
     20      22.5855      0.00000
     21      24.6872      0.00000
     22      24.6872      0.00000
     23      26.3248      0.00000
     24      26.3248      0.00000

 k-point    68 :       0.3000    0.2000    0.5000
  band No.  band energies     occupation 
      1     -41.4752      2.00000
      2     -41.4752      2.00000
      3     -41.3007      2.00000
      4     -41.3007      2.00000
      5     -41.0942      2.00000
      6     -41.0942      2.00000
      7       5.5529      2.00000
      8       5.5529      2.00000
      9       6.6560      2.00000
     10       6.6560      2.00000
     11       7.9583      2.00000
     12       7.9583      2.00000
     13       9.0322      2.00000
     14       9.0322      2.00000
     15      11.3672      0.06983
     16      11.3672      0.06982
     17      14.2063      0.00000
     18      14.2064      0.00000
     19      19.9006      0.00000
     20      19.9006      0.00000
     21      23.2911      0.00000
     22      23.2911      0.00000
     23      26.7385      0.00000
     24      26.7385      0.00000

 k-point    69 :       0.4000    0.2000    0.5000
  band No.  band energies     occupation 
      1     -41.4914      2.00000
      2     -41.4914      2.00000
      3     -41.3211      2.00000
      4     -41.3211      2.00000
      5     -41.0900      2.00000
      6     -41.0900      2.00000
      7       5.5459      2.00000
      8       5.5459      2.00000
      9       6.5823      2.00000
     10       6.5823      2.00000
     11       8.0463      2.00000
     12       8.0463      2.00000
     13       9.4625      2.00000
     14       9.4625      2.00000
     15      11.2230      1.97647
     16      11.2231      1.97647
     17      15.9004      0.00000
     18      15.9004      0.00000
     19      17.9273      0.00000
     20      17.9273      0.00000
     21      22.6882      0.00000
     22      22.6882      0.00000
     23      27.1481      0.00000
     24      27.1481      0.00000

 k-point    70 :       0.3000    0.3000    0.5000
  band No.  band energies     occupation 
      1     -41.4541      2.00000
      2     -41.4541      2.00000
      3     -41.3746      2.00000
      4     -41.3746      2.00000
      5     -41.0872      2.00000
      6     -41.0872      2.00000
      7       6.0056      2.00000
      8       6.0056      2.00000
      9       6.8400      2.00000
     10       6.8400      2.00000
     11       7.6142      2.00000
     12       7.6142      2.00000
     13       8.9110      2.00000
     14       8.9110      2.00000
     15      11.2062      1.99386
     16      11.2062      1.99386
     17      16.6816      0.00000
     18      16.6816      0.00000
     19      18.6476      0.00000
     20      18.6476      0.00000
     21      20.8761      0.00000
     22      20.8761      0.00000
     23      28.2277      0.00000
     24      28.2277      0.00000


--------------------------------------------------------------------------------------------------------


 soft charge-density along one line, spin component           1
         0         1         2         3         4         5         6         7         8         9
 total charge-density along one line
 
 pseudopotential strength for first ion, spin component:           1
-31.630  -0.000   0.000  10.684   0.000  -0.000  -0.000  -0.000
 -0.000 -31.566  -0.000   0.000  10.620   0.000   0.000   0.000
  0.000  -0.000 -31.630  -0.000   0.000  10.684  -0.000   0.000
 10.684   0.000  -0.000  16.271  -0.000   0.000   0.000   0.000
  0.000  10.620   0.000  -0.000  16.294  -0.000  -0.000  -0.000
 -0.000   0.000  10.684   0.000  -0.000  16.271   0.000  -0.000
 -0.000   0.000  -0.000   0.000  -0.000   0.000  -3.684   0.000
 -0.000   0.000   0.000   0.000  -0.000  -0.000   0.000  -3.640
 -0.000  -0.000   0.000   0.000   0.000  -0.000  -0.000   0.000
  0.000  -0.000   0.000  -0.000   0.000  -0.000  -0.000   0.000
 -0.000   0.000  -0.000   0.000  -0.000   0.000  -0.000   0.000
 -0.000   0.000  -0.000   0.000  -0.000   0.000  -3.910   0.000
 -0.000   0.000   0.000   0.000  -0.000  -0.000   0.000  -3.861
 -0.000  -0.000   0.000   0.000   0.000  -0.000  -0.000   0.000
  0.000  -0.000   0.000  -0.000   0.000  -0.000  -0.000   0.000
 -0.000   0.000  -0.000   0.000  -0.000   0.000  -0.000   0.000
 -0.000   0.000   0.000  -0.000   0.000   0.000  -0.000   0.000
  0.000  -0.000  -0.000   0.000  -0.000  -0.000   0.000  -0.000
 total augmentation occupancy for first ion, spin component:           1
  2.003   0.000  -0.000  -0.021   0.000   0.000   0.000   0.000  -0.000   0.000   0.004  -0.000  -0.000   0.000   0.000  -0.004
  0.000   2.002   0.000  -0.000  -0.020  -0.000   0.000   0.000   0.000   0.000  -0.000   0.000   0.000   0.000   0.000   0.000
 -0.000   0.000   2.003   0.000  -0.000  -0.021   0.004   0.000   0.000  -0.000   0.000  -0.004   0.000  -0.000   0.000  -0.000
 -0.021   0.000   0.000   0.050   0.000   0.000  -0.000   0.000   0.000   0.000  -0.026   0.000   0.000  -0.000   0.000   0.025
  0.000  -0.020  -0.000  -0.000   0.043   0.000   0.000   0.000   0.000  -0.000   0.000   0.000   0.000   0.000   0.000  -0.000
  0.000  -0.000  -0.021   0.000   0.000   0.050  -0.026   0.000  -0.000  -0.000  -0.000   0.025   0.000   0.000  -0.000   0.000
  0.000   0.000   0.004  -0.000   0.000  -0.026   5.086  -0.000   0.000   0.000   0.000  -2.787  -0.000  -0.000   0.000  -0.000
  0.000   0.000   0.000   0.000   0.000   0.000   0.000   4.346   0.000   0.000   0.000   0.000  -2.387   0.000   0.000  -0.000
 -0.000   0.000   0.000   0.000   0.000  -0.000   0.000   0.000   5.144   0.000  -0.000  -0.000   0.000  -2.841  -0.000   0.000
  0.000   0.000   0.000   0.000  -0.000   0.000   0.000   0.000   0.000   4.346   0.000   0.000  -0.000   0.000  -2.387  -0.000
  0.004  -0.000   0.000  -0.026  -0.000  -0.000   0.000   0.000  -0.000   0.000   5.086  -0.000  -0.000   0.000  -0.000  -2.787
 -0.000   0.000  -0.004   0.000   0.000   0.025  -2.787  -0.000  -0.000  -0.000  -0.000   2.226   0.000   0.000   0.000   0.000
  0.000  -0.000   0.000  -0.000   0.000   0.000   0.000  -2.387  -0.000  -0.000  -0.000   0.000   2.275   0.000   0.000  -0.000
  0.000   0.000  -0.000  -0.000   0.000   0.000  -0.000   0.000  -2.841  -0.000   0.000   0.000   0.000   2.267  -0.000  -0.000
  0.000   0.000  -0.000  -0.000   0.000  -0.000   0.000   0.000   0.000  -2.387   0.000   0.000  -0.000   0.000   2.275   0.000
 -0.004  -0.000  -0.000   0.025   0.000   0.000  -0.000   0.000   0.000   0.000  -2.787   0.000   0.000  -0.000   0.000   2.226
 -0.000   0.000  -0.000  -0.000   0.000   0.000  -0.000   0.000  -0.213   0.000   0.000   0.000   0.000   0.196   0.000  -0.000
  0.000   0.000   0.000   0.000   0.000   0.000  -0.000   0.000   0.004   0.000   0.000   0.000  -0.000   0.001   0.000  -0.000


------------------------ aborting loop because EDIFF is reached ----------------------------------------





 total charge

# of ion       s       p       d       tot
------------------------------------------
    1        0.338   6.078   7.067  13.483
    2        0.338   6.078   7.067  13.483
--------------------------------------------------
tot          0.677  12.156  14.134  26.967
 
    CHARGE:  cpu time      0.0221: real time      0.0222
    FORLOC:  cpu time      0.0002: real time      0.0002
    FORNL :  cpu time      0.0160: real time      0.0161
    STRESS:  cpu time      0.1786: real time      0.1793
    FORCOR:  cpu time      0.0030: real time      0.0030
    FORHAR:  cpu time      0.0006: real time      0.0006
    MIXING:  cpu time      0.0002: real time      0.0002
    OFIELD:  cpu time      0.0000: real time      0.0000

  FORCE on cell =-STRESS in cart. coord.  units (eV):
  Direction    XX          YY          ZZ          XY          YZ          ZX
  --------------------------------------------------------------------------------------
  Alpha Z   306.58043   306.58043   306.58043
  Ewald   -1379.90401 -1379.90401 -1494.32308     0.00000     0.00000     0.00000
  Hartree   274.92669   274.92669   224.69311    -0.00000    -0.00000    -0.00000
  E(xc)    -170.83536  -170.83536  -171.06882    -0.00000    -0.00000    -0.00000
  Local     188.93207   188.93206   341.41574    -0.00002    -0.00000    -0.00000
  n-local   -58.69526   -61.11964   -62.01714   -13.18531     3.59815     3.34497
  augment   145.54569   145.54570   149.07851     0.00001    -0.00000    -0.00000
  Kinetic   697.67490   691.62700   705.61444   -16.81793     3.62780     1.02729
  Fock        0.00000     0.00000     0.00000     0.00000     0.00000     0.00000
  -------------------------------------------------------------------------------------
  Total      -0.01099    -0.01099    -0.02682    -0.00000     0.00000     0.00000
  in kB      -0.56271    -0.56271    -1.37260    -0.00000     0.00000     0.00000
  external pressure =       -0.83 kB  Pullay stress =        0.00 kB


 VOLUME and BASIS-vectors are now :
 -----------------------------------------------------------------------------
  energy-cutoff  :      450.00
  volume of cell :       31.30
      direct lattice vectors                 reciprocal lattice vectors
     2.752972122  0.000000000  0.000000000     0.363243780  0.209718894  0.000000000
    -1.376486061  2.384143793  0.000000000     0.000000000  0.419437788  0.000000000
     0.000000000  0.000000000  4.769460044     0.000000000  0.000000000  0.209667340

  length of vectors
     2.752972122  2.752972122  4.769460044     0.419437788  0.419437788  0.209667340


 FORCES acting on ions
    electron-ion (+dipol)            ewald-force                    non-local-force                 convergence-correction
 -----------------------------------------------------------------------------------------------
   0.363E-06 -.210E-06 0.285E-12   0.178E-11 -.106E-11 -.685E-13   -.104E-16 0.278E-16 0.000E+00   -.486E-08 0.281E-08 -.106E-12
   -.275E-06 0.159E-06 -.275E-11   -.179E-11 0.106E-11 0.685E-13   0.139E-16 -.278E-16 0.000E+00   0.489E-08 -.282E-08 -.136E-12
 -----------------------------------------------------------------------------------------------
   0.879E-07 -.507E-07 -.247E-11   -.631E-14 -.236E-14 0.000E+00   0.347E-17 0.000E+00 0.000E+00   0.242E-10 -.140E-10 -.242E-12
 
 
 POSITION                                       TOTAL-FORCE (eV/Angst)
 -----------------------------------------------------------------------------------
      0.00000      0.00000      0.00000         0.000000      0.000000      0.000000
      0.00000      1.58943      2.38473        -0.000000      0.000000      0.000000
 -----------------------------------------------------------------------------------
    total drift:                                0.000000     -0.000000     -0.000000


--------------------------------------------------------------------------------------------------------



  FREE ENERGIE OF THE ION-ELECTRON SYSTEM (eV)
  ---------------------------------------------------
  free  energy   TOTEN  =       -12.03846340 eV

  energy  without entropy=      -12.03380318  energy(sigma->0) =      -12.03613329
 


--------------------------------------------------------------------------------------------------------


    POTLOK:  cpu time      0.0055: real time      0.0055


--------------------------------------------------------------------------------------------------------




--------------------------------------------------------------------------------------------------------


  
 reached required accuracy - stopping structural energy minimisation
 writing wavefunctions
     LOOP+:  cpu time      5.1922: real time      5.3223
    4ORBIT:  cpu time      0.0000: real time      0.0000



 total charge

# of ion       s       p       d       tot
------------------------------------------
    1        0.338   6.078   7.067  13.483
    2        0.338   6.078   7.067  13.483
--------------------------------------------------
tot          0.677  12.156  14.134  26.967
 

 total amount of memory used by VASP MPI-rank0    39289. kBytes
=======================================================================

   base      :      30000. kBytes
   nonl-proj :       7280. kBytes
   fftplans  :        254. kBytes
   grid      :        864. kBytes
   one-center:         31. kBytes
   wavefun   :        860. kBytes
 
  
  
 General timing and accounting informations for this job:
 ========================================================
  
                  Total CPU time used (sec):        6.118
                            User time (sec):        5.609
                          System time (sec):        0.509
                         Elapsed time (sec):        7.669
  
                   Maximum memory used (kb):      227392.
                   Average memory used (kb):          N/A
  
                          Minor page faults:        29731
                          Major page faults:           69
                 Voluntary context switches:         2740
