 vasp.6.3.2 27Jun22 (build Aug 12 2022 00:53:59) complex                        
  
 executed on               tv2STD date 2024.11.30  17:14:55
 running   24 mpi-ranks, with    1 threads/rank
 distrk:  each k-point on   24 cores,    1 groups
 distr:  one band on NCORE=   1 cores,   24 groups


--------------------------------------------------------------------------------------------------------


 INCAR:
   SYSTEM = Pt-fcc
   NWRITE = 2    write-flag
   ISTART = 0    job   : 0-new, 1-cont, 2-samecut
   ICHARG = 2    charge: 0-wave, 1-file, 2-atom, >10-const
   INIWAV = 1    electr: 0-lowe 1-rand  2-diag
   ENCUT = 425.0     energy cutoff in eV
   PREC = accurate      normal | accurate
   ADDGRID = .FALSE.  (use fine grid)
   NELM = 100     number of ELM steps
   EDIFF = 1E-06    energy stopping-criterion for ELM
   LREAL = .FALSE.      real-space projection (.FALSE., .TRUE., On, Auto)
   ALGO = Normal     Normal, Fast, Very_Fast
   LWAVE = .TRUE.
   LCHARG = .TRUE.
   NSW = 100       max number of geometry steps
   IBRION = 2     ionic relax: 0-MD, 1-quasi-Newton, 2-CG, 3-Damped MD
   EDIFFG = -0.02  force (eV/A) stopping-criterion for geometry steps
   ISIF = 2     (1:force\=y stress\=trace only ions\=y shape\=n volume\=n)
   ISYM = 1     (1-use symmetry, 0-no symmetry)
   ISMEAR = 0     (-1-Fermi, 1-Methfessel/Paxton)
   SIGMA = 0.05   broadening in eV
   LORBIT = 11

 POTCAR:    PAW_PBE Pt_pv 12Dec2005               
 POTCAR:    PAW_PBE Pt_pv 12Dec2005               
   SHA256 =  e5abf7e8cd8db70d0153315afc5ad66b6e3eeee29cc2d5b91b16730957c1d208 Pt_pv/POTCAR          
   COPYR  = (c) Copyright 12Dec2005 Georg Kresse                                                    
   COPYR  = This file is part of the software VASP. Any use, copying, and all other rights are regul
   COPYR  = If you do not have a valid VASP license, you may not use, copy or distribute this file. 
   VRHFIN =Pt: 5ps1d9                                                                               
   LEXCH  = PE                                                                                      
   EATOM  =  2428.2504 eV,  178.4714 Ry                                                             
                                                                                                    
   TITEL  = PAW_PBE Pt_pv 12Dec2005                                                                 
   LULTRA =        F    use ultrasoft PP ?                                                          
   IUNSCR =        1    unscreen: 0-lin 1-nonlin 2-no                                               
   RPACOR =    2.000    partial core radius                                                         
   POMASS =  195.080; ZVAL   =   16.000    mass and valenz                                          
   RCORE  =    2.200    outmost cutoff radius                                                       
   RWIGS  =    2.200; RWIGS  =    1.164    wigner-seitz radius (au A)                               
   ENMAX  =  294.607; ENMIN  =  220.955 eV                                                          
   ICORE  =        3    local potential                                                             
   LCOR   =        T    correct aug charges                                                         
   LPAW   =        T    paw PP                                                                      
   EAUG   =  527.014                                                                                
   DEXC   =    0.000                                                                                
   RMAX   =    2.247    core radius for proj-oper                                                   
   RAUG   =    1.300    factor for augmentation sphere                                              
   RDEP   =    2.279    radius for radial grids                                                     
   RDEPT  =    1.878    core radius for aug-charge                                                  
                                                                                                    
   Atomic configuration                                                                             
   16 entries                                                                                       
     n  l   j            E        occ.                                                              
     1  0  0.50    -78401.1885   2.0000                                                             
     2  0  0.50    -13770.7750   2.0000                                                             
     2  1  1.50    -11931.0468   6.0000                                                             
     3  0  0.50     -3234.7234   2.0000                                                             
     3  1  1.50     -2699.2216   6.0000                                                             
     3  2  2.50     -2119.5714  10.0000                                                             
     4  0  0.50      -695.1528   2.0000                                                             
     4  1  1.50      -519.6034   6.0000                                                             
     4  2  2.50      -306.6786  10.0000                                                             
     4  3  3.50       -70.1041  14.0000                                                             
     5  0  0.50      -101.7747   2.0000                                                             
     5  1  1.50       -55.9873   6.0000                                                             
     6  1  1.50        -6.8029   0.0000                                                             
     5  2  2.50        -6.1423   9.0000                                                             
     6  0  0.50        -5.6573   1.0000                                                             
     5  3  2.50        -1.3606   0.0000                                                             
   Description                                                                                      
     l       E           TYP  RCUT    TYP  RCUT                                                     
     1    -55.9873477     23  2.000                                                                 
     1     27.2116520     23  2.000                                                                 
     2     -6.1423404     23  2.200                                                                 
     2     -4.6754623     23  2.200                                                                 
     0     -5.6573207     23  2.200                                                                 
     0     47.6203910     23  2.200                                                                 
     3      6.8029130     23  2.200                                                                 
  local pseudopotential read in
  partial core-charges read in
  partial kinetic energy density read in
  atomic valenz-charges read in
  non local Contribution for L=           1  read in
    real space projection operators read in
  non local Contribution for L=           1  read in
    real space projection operators read in
  non local Contribution for L=           2  read in
    real space projection operators read in
  non local Contribution for L=           2  read in
    real space projection operators read in
  non local Contribution for L=           0  read in
    real space projection operators read in
  non local Contribution for L=           0  read in
    real space projection operators read in
    PAW grid and wavefunctions read in
 
   number of l-projection  operators is LMAX  =           6
   number of lm-projection operators is LMMAX =          18
 
  PAW_PBE Pt_pv 12Dec2005               :
 energy of atom  1       EATOM=-2428.2504
 kinetic energy error for atom=    0.0554 (will be added to EATOM!!)
 
 
 POSCAR: Pt
  positions in cartesian coordinates
  No initial velocities read in
 exchange correlation table for  LEXCH =        8
   RHO(1)=    0.500       N(1)  =     2000
   RHO(2)=  100.500       N(2)  =     4000
 


--------------------------------------------------------------------------------------------------------


 ion  position               nearest neighbor table
   1  0.000  0.000  0.000-
 
  LATTYP: Found a face centered cubic cell.
 ALAT       =     4.0011919202
  
  Lattice vectors:
  
 A1 = (   0.0000000000,   2.0005959601,   2.0005959601)
 A2 = (   2.0005959601,   0.0000000000,   2.0005959601)
 A3 = (   2.0005959601,   2.0005959601,   0.0000000000)


Analysis of symmetry for initial positions (statically):
=====================================================================
 Subroutine PRICEL returns:
 Original cell was already a primitive cell.
 

 Routine SETGRP: Setting up the symmetry group for a 
 face centered cubic supercell.


 Subroutine GETGRP returns: Found 48 space group operations
 (whereof 48 operations were pure point group operations)
 out of a pool of 48 trial point group operations.


The static configuration has the point symmetry O_h .


Analysis of symmetry for dynamics (positions and initial velocities):
=====================================================================
 Subroutine PRICEL returns:
 Original cell was already a primitive cell.
 

 Routine SETGRP: Setting up the symmetry group for a 
 face centered cubic supercell.


 Subroutine GETGRP returns: Found 48 space group operations
 (whereof 48 operations were pure point group operations)
 out of a pool of 48 trial point group operations.


The dynamic configuration has the point symmetry O_h .


 Subroutine INISYM returns: Found 48 space group operations
 (whereof 48 operations are pure point group operations),
 and found     1 'primitive' translations


----------------------------------------------------------------------------------------

                                     Primitive cell                                     

  volume of cell :      16.0143

  direct lattice vectors                    reciprocal lattice vectors
     0.000000000  2.000595960  2.000595960    -0.249925527  0.249925527  0.249925527
     2.000595960  0.000000000  2.000595960     0.249925527 -0.249925527  0.249925527
     2.000595960  2.000595960  0.000000000     0.249925527  0.249925527 -0.249925527

  length of vectors
     2.829269940  2.829269940  2.829269940     0.432883711  0.432883711  0.432883711

  position of ions in fractional coordinates (direct lattice)
     0.000000000  0.000000000  0.000000000

  ion indices of the primitive-cell ions
   primitive index   ion index
                 1           1

----------------------------------------------------------------------------------------

 
 
 KPOINTS: Automatic mesh                          

Automatic generation of k-mesh.
 Grid dimensions read from file:
 generate k-points for:   10   10   10

 Generating k-lattice:

  Cartesian coordinates                     Fractional coordinates (reciprocal lattice)
    -0.024992553  0.024992553  0.024992553     0.100000000 -0.000000000 -0.000000000
     0.024992553 -0.024992553  0.024992553     0.000000000  0.100000000  0.000000000
     0.024992553  0.024992553 -0.024992553     0.000000000  0.000000000  0.100000000

  Length of vectors
     0.043288371  0.043288371  0.043288371

  Shift w.r.t. Gamma in fractional coordinates (k-lattice)
     0.500000000  0.500000000  0.500000000

 
 Subroutine IBZKPT returns following result:
 ===========================================
 
 Found    110 irreducible k-points:
 
 Following reciprocal coordinates:
            Coordinates               Weight
  0.050000  0.050000  0.050000      8.000000
  0.150000  0.050000  0.050000     24.000000
  0.250000  0.050000  0.050000     24.000000
  0.350000  0.050000  0.050000     24.000000
  0.450000  0.050000  0.050000     24.000000
 -0.450000  0.050000  0.050000     24.000000
 -0.350000  0.050000  0.050000     24.000000
 -0.250000  0.050000  0.050000     24.000000
 -0.150000  0.050000  0.050000     24.000000
 -0.050000  0.050000  0.050000     24.000000
  0.150000  0.150000  0.050000     24.000000
  0.250000  0.150000  0.050000     48.000000
  0.350000  0.150000  0.050000     48.000000
  0.450000  0.150000  0.050000     48.000000
 -0.450000  0.150000  0.050000     48.000000
 -0.350000  0.150000  0.050000     48.000000
 -0.250000  0.150000  0.050000     48.000000
 -0.150000  0.150000  0.050000     48.000000
 -0.050000  0.150000  0.050000     48.000000
  0.250000  0.250000  0.050000     24.000000
  0.350000  0.250000  0.050000     48.000000
  0.450000  0.250000  0.050000     48.000000
 -0.450000  0.250000  0.050000     48.000000
 -0.350000  0.250000  0.050000     48.000000
 -0.250000  0.250000  0.050000     48.000000
 -0.150000  0.250000  0.050000     48.000000
 -0.050000  0.250000  0.050000     48.000000
  0.350000  0.350000  0.050000     24.000000
  0.450000  0.350000  0.050000     48.000000
 -0.450000  0.350000  0.050000     48.000000
 -0.350000  0.350000  0.050000     48.000000
 -0.250000  0.350000  0.050000     48.000000
 -0.150000  0.350000  0.050000     48.000000
 -0.050000  0.350000  0.050000     48.000000
  0.450000  0.450000  0.050000     24.000000
 -0.450000  0.450000  0.050000     48.000000
 -0.350000  0.450000  0.050000     48.000000
 -0.250000  0.450000  0.050000     48.000000
 -0.150000  0.450000  0.050000     48.000000
 -0.050000  0.450000  0.050000     48.000000
 -0.450000 -0.450000  0.050000     24.000000
 -0.350000 -0.450000  0.050000     48.000000
 -0.250000 -0.450000  0.050000     48.000000
 -0.150000 -0.450000  0.050000     48.000000
 -0.350000 -0.350000  0.050000     24.000000
 -0.250000 -0.350000  0.050000     48.000000
 -0.150000 -0.350000  0.050000     48.000000
 -0.250000 -0.250000  0.050000     24.000000
 -0.150000 -0.250000  0.050000     48.000000
 -0.150000 -0.150000  0.050000     24.000000
  0.150000  0.150000  0.150000      8.000000
  0.250000  0.150000  0.150000     24.000000
  0.350000  0.150000  0.150000     24.000000
  0.450000  0.150000  0.150000     24.000000
 -0.450000  0.150000  0.150000     24.000000
 -0.350000  0.150000  0.150000     24.000000
 -0.250000  0.150000  0.150000     24.000000
 -0.150000  0.150000  0.150000     24.000000
  0.250000  0.250000  0.150000     24.000000
  0.350000  0.250000  0.150000     48.000000
  0.450000  0.250000  0.150000     48.000000
 -0.450000  0.250000  0.150000     48.000000
 -0.350000  0.250000  0.150000     48.000000
 -0.250000  0.250000  0.150000     48.000000
 -0.150000  0.250000  0.150000     48.000000
  0.350000  0.350000  0.150000     24.000000
  0.450000  0.350000  0.150000     48.000000
 -0.450000  0.350000  0.150000     48.000000
 -0.350000  0.350000  0.150000     48.000000
 -0.250000  0.350000  0.150000     48.000000
 -0.150000  0.350000  0.150000     48.000000
  0.450000  0.450000  0.150000     24.000000
 -0.450000  0.450000  0.150000     48.000000
 -0.350000  0.450000  0.150000     48.000000
 -0.250000  0.450000  0.150000     48.000000
 -0.150000  0.450000  0.150000     48.000000
 -0.450000 -0.450000  0.150000     24.000000
 -0.350000 -0.450000  0.150000     48.000000
 -0.250000 -0.450000  0.150000     48.000000
 -0.350000 -0.350000  0.150000     24.000000
 -0.250000 -0.350000  0.150000     48.000000
 -0.250000 -0.250000  0.150000     24.000000
  0.250000  0.250000  0.250000      8.000000
  0.350000  0.250000  0.250000     24.000000
  0.450000  0.250000  0.250000     24.000000
 -0.450000  0.250000  0.250000     24.000000
 -0.350000  0.250000  0.250000     24.000000
 -0.250000  0.250000  0.250000     24.000000
  0.350000  0.350000  0.250000     24.000000
  0.450000  0.350000  0.250000     48.000000
 -0.450000  0.350000  0.250000     48.000000
 -0.350000  0.350000  0.250000     48.000000
 -0.250000  0.350000  0.250000     48.000000
  0.450000  0.450000  0.250000     24.000000
 -0.450000  0.450000  0.250000     48.000000
 -0.350000  0.450000  0.250000     48.000000
 -0.250000  0.450000  0.250000     48.000000
 -0.450000 -0.450000  0.250000     24.000000
 -0.350000 -0.450000  0.250000     48.000000
 -0.350000 -0.350000  0.250000     24.000000
  0.350000  0.350000  0.350000      8.000000
  0.450000  0.350000  0.350000     24.000000
 -0.450000  0.350000  0.350000     24.000000
 -0.350000  0.350000  0.350000     24.000000
  0.450000  0.450000  0.350000     24.000000
 -0.450000  0.450000  0.350000     48.000000
 -0.350000  0.450000  0.350000     48.000000
 -0.450000 -0.450000  0.350000     24.000000
  0.450000  0.450000  0.450000      8.000000
 -0.450000  0.450000  0.450000     24.000000
 
 Following cartesian coordinates:
            Coordinates               Weight
  0.012496  0.012496  0.012496      8.000000
 -0.012496  0.037489  0.037489     24.000000
 -0.037489  0.062481  0.062481     24.000000
 -0.062481  0.087474  0.087474     24.000000
 -0.087474  0.112466  0.112466     24.000000
  0.137459 -0.112466 -0.112466     24.000000
  0.112466 -0.087474 -0.087474     24.000000
  0.087474 -0.062481 -0.062481     24.000000
  0.062481 -0.037489 -0.037489     24.000000
  0.037489 -0.012496 -0.012496     24.000000
  0.012496  0.012496  0.062481     24.000000
 -0.012496  0.037489  0.087474     48.000000
 -0.037489  0.062481  0.112466     48.000000
 -0.062481  0.087474  0.137459     48.000000
  0.162452 -0.137459 -0.087474     48.000000
  0.137459 -0.112466 -0.062481     48.000000
  0.112466 -0.087474 -0.037489     48.000000
  0.087474 -0.062481 -0.012496     48.000000
  0.062481 -0.037489  0.012496     48.000000
  0.012496  0.012496  0.112466     24.000000
 -0.012496  0.037489  0.137459     48.000000
 -0.037489  0.062481  0.162452     48.000000
  0.187444 -0.162452 -0.062481     48.000000
  0.162452 -0.137459 -0.037489     48.000000
  0.137459 -0.112466 -0.012496     48.000000
  0.112466 -0.087474  0.012496     48.000000
  0.087474 -0.062481  0.037489     48.000000
  0.012496  0.012496  0.162452     24.000000
 -0.012496  0.037489  0.187444     48.000000
  0.212437 -0.187444 -0.037489     48.000000
  0.187444 -0.162452 -0.012496     48.000000
  0.162452 -0.137459  0.012496     48.000000
  0.137459 -0.112466  0.037489     48.000000
  0.112466 -0.087474  0.062481     48.000000
  0.012496  0.012496  0.212437     24.000000
  0.237429 -0.212437 -0.012496     48.000000
  0.212437 -0.187444  0.012496     48.000000
  0.187444 -0.162452  0.037489     48.000000
  0.162452 -0.137459  0.062481     48.000000
  0.137459 -0.112466  0.087474     48.000000
  0.012496  0.012496 -0.237429     24.000000
 -0.012496  0.037489 -0.212437     48.000000
 -0.037489  0.062481 -0.187444     48.000000
 -0.062481  0.087474 -0.162452     48.000000
  0.012496  0.012496 -0.187444     24.000000
 -0.012496  0.037489 -0.162452     48.000000
 -0.037489  0.062481 -0.137459     48.000000
  0.012496  0.012496 -0.137459     24.000000
 -0.012496  0.037489 -0.112466     48.000000
  0.012496  0.012496 -0.087474     24.000000
  0.037489  0.037489  0.037489      8.000000
  0.012496  0.062481  0.062481     24.000000
 -0.012496  0.087474  0.087474     24.000000
 -0.037489  0.112466  0.112466     24.000000
  0.187444 -0.112466 -0.112466     24.000000
  0.162452 -0.087474 -0.087474     24.000000
  0.137459 -0.062481 -0.062481     24.000000
  0.112466 -0.037489 -0.037489     24.000000
  0.037489  0.037489  0.087474     24.000000
  0.012496  0.062481  0.112466     48.000000
 -0.012496  0.087474  0.137459     48.000000
  0.212437 -0.137459 -0.087474     48.000000
  0.187444 -0.112466 -0.062481     48.000000
  0.162452 -0.087474 -0.037489     48.000000
  0.137459 -0.062481 -0.012496     48.000000
  0.037489  0.037489  0.137459     24.000000
  0.012496  0.062481  0.162452     48.000000
  0.237429 -0.162452 -0.062481     48.000000
  0.212437 -0.137459 -0.037489     48.000000
  0.187444 -0.112466 -0.012496     48.000000
  0.162452 -0.087474  0.012496     48.000000
  0.037489  0.037489  0.187444     24.000000
  0.262422 -0.187444 -0.037489     48.000000
  0.237429 -0.162452 -0.012496     48.000000
  0.212437 -0.137459  0.012496     48.000000
  0.187444 -0.112466  0.037489     48.000000
  0.037489  0.037489 -0.262422     24.000000
  0.012496  0.062481 -0.237429     48.000000
 -0.012496  0.087474 -0.212437     48.000000
  0.037489  0.037489 -0.212437     24.000000
  0.012496  0.062481 -0.187444     48.000000
  0.037489  0.037489 -0.162452     24.000000
  0.062481  0.062481  0.062481      8.000000
  0.037489  0.087474  0.087474     24.000000
  0.012496  0.112466  0.112466     24.000000
  0.237429 -0.112466 -0.112466     24.000000
  0.212437 -0.087474 -0.087474     24.000000
  0.187444 -0.062481 -0.062481     24.000000
  0.062481  0.062481  0.112466     24.000000
  0.037489  0.087474  0.137459     48.000000
  0.262422 -0.137459 -0.087474     48.000000
  0.237429 -0.112466 -0.062481     48.000000
  0.212437 -0.087474 -0.037489     48.000000
  0.062481  0.062481  0.162452     24.000000
  0.287414 -0.162452 -0.062481     48.000000
  0.262422 -0.137459 -0.037489     48.000000
  0.237429 -0.112466 -0.012496     48.000000
  0.062481  0.062481 -0.287414     24.000000
  0.037489  0.087474 -0.262422     48.000000
  0.062481  0.062481 -0.237429     24.000000
  0.087474  0.087474  0.087474      8.000000
  0.062481  0.112466  0.112466     24.000000
  0.287414 -0.112466 -0.112466     24.000000
  0.262422 -0.087474 -0.087474     24.000000
  0.087474  0.087474  0.137459     24.000000
  0.312407 -0.137459 -0.087474     48.000000
  0.287414 -0.112466 -0.062481     48.000000
  0.087474  0.087474 -0.312407     24.000000
  0.112466  0.112466  0.112466      8.000000
  0.337399 -0.112466 -0.112466     24.000000
 


--------------------------------------------------------------------------------------------------------




 Dimension of arrays:
   k-points           NKPTS =    110   k-points in BZ     NKDIM =    110   number of bands    NBANDS=     24
   number of dos      NEDOS =    301   number of ions     NIONS =      1
   non local maximal  LDIM  =      6   non local SUM 2l+1 LMDIM =     18
   total plane-waves  NPLWV =   8000
   max r-space proj   IRMAX =      1   max aug-charges    IRDMAX=  17206
   dimension x,y,z NGX =    20 NGY =   20 NGZ =   20
   dimension x,y,z NGXF=    40 NGYF=   40 NGZF=   40
   support grid    NGXF=    40 NGYF=   40 NGZF=   40
   ions per type =               1
   NGX,Y,Z   is equivalent  to a cutoff of  11.75, 11.75, 11.75 a.u.
   NGXF,Y,Z  is equivalent  to a cutoff of  23.50, 23.50, 23.50 a.u.

 SYSTEM =  Pt-fcc                                  
 POSCAR =  Pt                                      

 Startparameter for this run:
   NWRITE =      2    write-flag & timer
   PREC   = accura    normal or accurate (medium, high low for compatibility)
   ISTART =      0    job   : 0-new  1-cont  2-samecut
   ICHARG =      2    charge: 1-file 2-atom 10-const
   ISPIN  =      1    spin polarized calculation?
   LNONCOLLINEAR =      F non collinear calculations
   LSORBIT =      F    spin-orbit coupling
   INIWAV =      1    electr: 0-lowe 1-rand  2-diag
   LASPH  =      F    aspherical Exc in radial PAW
 Electronic Relaxation 1
   ENCUT  =  425.0 eV  31.24 Ry    5.59 a.u.   4.76  4.76  4.76*2*pi/ulx,y,z
   ENINI  =  425.0     initial cutoff
   ENAUG  =  527.0 eV  augmentation charge cutoff
   NELM   =    100;   NELMIN=  2; NELMDL= -5     # of ELM steps 
   EDIFF  = 0.1E-05   stopping-criterion for ELM
   LREAL  =      F    real-space projection
   NLSPLINE    = F    spline interpolate recip. space projectors
   LCOMPAT=      F    compatible to vasp.4.4
   GGA_COMPAT  = T    GGA compatible to vasp.4.4-vasp.4.6
   LMAXPAW     = -100 max onsite density
   LMAXMIX     =    2 max onsite mixed and CHGCAR
   VOSKOWN=      0    Vosko Wilk Nusair interpolation
   ROPT   =    0.00000
 Ionic relaxation
   EDIFFG = -.2E-01   stopping-criterion for IOM
   NSW    =    100    number of steps for IOM
   NBLOCK =      1;   KBLOCK =    100    inner block; outer block 
   IBRION =      2    ionic relax: 0-MD 1-quasi-New 2-CG
   NFREE  =      1    steps in history (QN), initial steepest desc. (CG)
   ISIF   =      2    stress and relaxation
   IWAVPR =     11    prediction:  0-non 1-charg 2-wave 3-comb
   ISYM   =      1    0-nonsym 1-usesym 2-fastsym
   LCORR  =      T    Harris-Foulkes like correction to forces

   POTIM  = 0.5000    time-step for ionic-motion
   TEIN   =    0.0    initial temperature
   TEBEG  =    0.0;   TEEND  =   0.0 temperature during run
   SMASS  =  -3.00    Nose mass-parameter (am)
   estimated Nose-frequenzy (Omega)   =  0.10E-29 period in steps = 0.13E+47 mass=  -0.183E-27a.u.
   SCALEE = 1.0000    scale energy and forces
   NPACO  =    256;   APACO  = 10.0  distance and # of slots for P.C.
   PSTRESS=    0.0 pullay stress

  Mass of Ions in am
   POMASS = 195.08
  Ionic Valenz
   ZVAL   =  16.00
  Atomic Wigner-Seitz radii
   RWIGS  =  -1.00
  virtual crystal weights 
   VCA    =   1.00
   NELECT =      16.0000    total number of electrons
   NUPDOWN=      -1.0000    fix difference up-down

 DOS related values:
   EMIN   =  10.00;   EMAX   =-10.00  energy-range for DOS
   EFERMI =   0.00
   ISMEAR =     0;   SIGMA  =   0.05  broadening in eV -4-tet -1-fermi 0-gaus

 Electronic relaxation 2 (details)
   IALGO  =     38    algorithm
   LDIAG  =      T    sub-space diagonalisation (order eigenvalues)
   LSUBROT=      F    optimize rotation matrix (better conditioning)
   TURBO    =      0    0=normal 1=particle mesh
   IRESTART =      0    0=no restart 2=restart with 2 vectors
   NREBOOT  =      0    no. of reboots
   NMIN     =      0    reboot dimension
   EREF     =   0.00    reference energy to select bands
   IMIX   =      4    mixing-type and parameters
     AMIX     =   0.40;   BMIX     =  1.00
     AMIX_MAG =   1.60;   BMIX_MAG =  1.00
     AMIN     =   0.10
     WC   =   100.;   INIMIX=   1;  MIXPRE=   1;  MAXMIX= -45

 Intra band minimization:
   WEIMIN = 0.0010     energy-eigenvalue tresh-hold
   EBREAK =  0.10E-07  absolut break condition
   DEPER  =   0.30     relativ break condition  

   TIME   =   0.40     timestep for ELM

  volume/ion in A,a.u.               =      16.01       108.07
  Fermi-wavevector in a.u.,A,eV,Ry     =   1.636611  3.092746 36.443140  2.678495
  Thomas-Fermi vector in A             =   2.727888
 
 Write flags
   LWAVE        =      T    write WAVECAR
   LDOWNSAMPLE  =      F    k-point downsampling of WAVECAR
   LCHARG       =      T    write CHGCAR
   LVTOT        =      F    write LOCPOT, total local potential
   LVHAR        =      F    write LOCPOT, Hartree potential only
   LELF         =      F    write electronic localiz. function (ELF)
   LORBIT       =     11    0 simple, 1 ext, 2 COOP (PROOUT), +10 PAW based schemes


 Dipole corrections
   LMONO  =      F    monopole corrections only (constant potential shift)
   LDIPOL =      F    correct potential (dipole corrections)
   IDIPOL =      0    1-x, 2-y, 3-z, 4-all directions 
   EPSILON=  1.0000000 bulk dielectric constant

 Exchange correlation treatment:
   GGA     =    --    GGA type
   LEXCH   =     8    internal setting for exchange type
   LIBXC   =     F    Libxc                    
   VOSKOWN =     0    Vosko Wilk Nusair interpolation
   LHFCALC =     F    Hartree Fock is set to
   LHFONE  =     F    Hartree Fock one center treatment
   AEXX    =    0.0000 exact exchange contribution

 Linear response parameters
   LEPSILON=     F    determine dielectric tensor
   LRPA    =     F    only Hartree local field effects (RPA)
   LNABLA  =     F    use nabla operator in PAW spheres
   LVEL    =     F    velocity operator in full k-point grid
   CSHIFT  =0.1000    complex shift for real part using Kramers Kronig
   OMEGAMAX=  -1.0    maximum frequency
   DEG_THRESHOLD= 0.2000000E-02 threshold for treating states as degnerate
   RTIME   =   -0.100 relaxation time in fs
  (WPLASMAI=    0.000 imaginary part of plasma frequency in eV, 0.658/RTIME)
   DFIELD  = 0.0000000 0.0000000 0.0000000 field for delta impulse in time
 
  Optional k-point grid parameters
   LKPOINTS_OPT  =     F    use optional k-point grid
   KPOINTS_OPT_MODE=     1    mode for optional k-point grid
 
 Orbital magnetization related:
   ORBITALMAG=     F  switch on orbital magnetization
   LCHIMAG   =     F  perturbation theory with respect to B field
   DQ        =  0.001000  dq finite difference perturbation B field
   LLRAUG    =     F  two centre corrections for induced B field



--------------------------------------------------------------------------------------------------------


 conjugate gradient relaxation of ions
 charge density and potential will be updated during run
 non-spin polarized calculation
 Variant of blocked Davidson
 Davidson routine will perform the subspace rotation
 perform sub-space diagonalisation
    after iterative eigenvector-optimisation
 modified Broyden-mixing scheme, WC =      100.0
 initial mixing is a Kerker type mixing with AMIX =  0.4000 and BMIX =      1.0000
 Hartree-type preconditioning will be used
 using additional bands           16
 reciprocal scheme for non local part
 use partial core corrections
 calculate Harris-corrections to forces 
   (improved forces if not selfconsistent)
 use gradient corrections 
 use of overlap-Matrix (Vanderbilt PP)
 Gauss-broadening in eV      SIGMA  =   0.05


--------------------------------------------------------------------------------------------------------


  energy-cutoff  :      425.00
  volume of cell :       16.01
      direct lattice vectors                 reciprocal lattice vectors
     0.000000000  2.000595960  2.000595960    -0.249925527  0.249925527  0.249925527
     2.000595960  0.000000000  2.000595960     0.249925527 -0.249925527  0.249925527
     2.000595960  2.000595960  0.000000000     0.249925527  0.249925527 -0.249925527

  length of vectors
     2.829269940  2.829269940  2.829269940     0.432883711  0.432883711  0.432883711


 
 k-points in units of 2pi/SCALE and weight: Automatic mesh                          
   0.01249628  0.01249628  0.01249628       0.002
  -0.01249628  0.03748883  0.03748883       0.006
  -0.03748883  0.06248138  0.06248138       0.006
  -0.06248138  0.08747393  0.08747393       0.006
  -0.08747393  0.11246649  0.11246649       0.006
   0.13745904 -0.11246649 -0.11246649       0.006
   0.11246649 -0.08747393 -0.08747393       0.006
   0.08747393 -0.06248138 -0.06248138       0.006
   0.06248138 -0.03748883 -0.03748883       0.006
   0.03748883 -0.01249628 -0.01249628       0.006
   0.01249628  0.01249628  0.06248138       0.006
  -0.01249628  0.03748883  0.08747393       0.012
  -0.03748883  0.06248138  0.11246649       0.012
  -0.06248138  0.08747393  0.13745904       0.012
   0.16245159 -0.13745904 -0.08747393       0.012
   0.13745904 -0.11246649 -0.06248138       0.012
   0.11246649 -0.08747393 -0.03748883       0.012
   0.08747393 -0.06248138 -0.01249628       0.012
   0.06248138 -0.03748883  0.01249628       0.012
   0.01249628  0.01249628  0.11246649       0.006
  -0.01249628  0.03748883  0.13745904       0.012
  -0.03748883  0.06248138  0.16245159       0.012
   0.18744415 -0.16245159 -0.06248138       0.012
   0.16245159 -0.13745904 -0.03748883       0.012
   0.13745904 -0.11246649 -0.01249628       0.012
   0.11246649 -0.08747393  0.01249628       0.012
   0.08747393 -0.06248138  0.03748883       0.012
   0.01249628  0.01249628  0.16245159       0.006
  -0.01249628  0.03748883  0.18744415       0.012
   0.21243670 -0.18744415 -0.03748883       0.012
   0.18744415 -0.16245159 -0.01249628       0.012
   0.16245159 -0.13745904  0.01249628       0.012
   0.13745904 -0.11246649  0.03748883       0.012
   0.11246649 -0.08747393  0.06248138       0.012
   0.01249628  0.01249628  0.21243670       0.006
   0.23742925 -0.21243670 -0.01249628       0.012
   0.21243670 -0.18744415  0.01249628       0.012
   0.18744415 -0.16245159  0.03748883       0.012
   0.16245159 -0.13745904  0.06248138       0.012
   0.13745904 -0.11246649  0.08747393       0.012
   0.01249628  0.01249628 -0.23742925       0.006
  -0.01249628  0.03748883 -0.21243670       0.012
  -0.03748883  0.06248138 -0.18744415       0.012
  -0.06248138  0.08747393 -0.16245159       0.012
   0.01249628  0.01249628 -0.18744415       0.006
  -0.01249628  0.03748883 -0.16245159       0.012
  -0.03748883  0.06248138 -0.13745904       0.012
   0.01249628  0.01249628 -0.13745904       0.006
  -0.01249628  0.03748883 -0.11246649       0.012
   0.01249628  0.01249628 -0.08747393       0.006
   0.03748883  0.03748883  0.03748883       0.002
   0.01249628  0.06248138  0.06248138       0.006
  -0.01249628  0.08747393  0.08747393       0.006
  -0.03748883  0.11246649  0.11246649       0.006
   0.18744415 -0.11246649 -0.11246649       0.006
   0.16245159 -0.08747393 -0.08747393       0.006
   0.13745904 -0.06248138 -0.06248138       0.006
   0.11246649 -0.03748883 -0.03748883       0.006
   0.03748883  0.03748883  0.08747393       0.006
   0.01249628  0.06248138  0.11246649       0.012
  -0.01249628  0.08747393  0.13745904       0.012
   0.21243670 -0.13745904 -0.08747393       0.012
   0.18744415 -0.11246649 -0.06248138       0.012
   0.16245159 -0.08747393 -0.03748883       0.012
   0.13745904 -0.06248138 -0.01249628       0.012
   0.03748883  0.03748883  0.13745904       0.006
   0.01249628  0.06248138  0.16245159       0.012
   0.23742925 -0.16245159 -0.06248138       0.012
   0.21243670 -0.13745904 -0.03748883       0.012
   0.18744415 -0.11246649 -0.01249628       0.012
   0.16245159 -0.08747393  0.01249628       0.012
   0.03748883  0.03748883  0.18744415       0.006
   0.26242180 -0.18744415 -0.03748883       0.012
   0.23742925 -0.16245159 -0.01249628       0.012
   0.21243670 -0.13745904  0.01249628       0.012
   0.18744415 -0.11246649  0.03748883       0.012
   0.03748883  0.03748883 -0.26242180       0.006
   0.01249628  0.06248138 -0.23742925       0.012
  -0.01249628  0.08747393 -0.21243670       0.012
   0.03748883  0.03748883 -0.21243670       0.006
   0.01249628  0.06248138 -0.18744415       0.012
   0.03748883  0.03748883 -0.16245159       0.006
   0.06248138  0.06248138  0.06248138       0.002
   0.03748883  0.08747393  0.08747393       0.006
   0.01249628  0.11246649  0.11246649       0.006
   0.23742925 -0.11246649 -0.11246649       0.006
   0.21243670 -0.08747393 -0.08747393       0.006
   0.18744415 -0.06248138 -0.06248138       0.006
   0.06248138  0.06248138  0.11246649       0.006
   0.03748883  0.08747393  0.13745904       0.012
   0.26242180 -0.13745904 -0.08747393       0.012
   0.23742925 -0.11246649 -0.06248138       0.012
   0.21243670 -0.08747393 -0.03748883       0.012
   0.06248138  0.06248138  0.16245159       0.006
   0.28741436 -0.16245159 -0.06248138       0.012
   0.26242180 -0.13745904 -0.03748883       0.012
   0.23742925 -0.11246649 -0.01249628       0.012
   0.06248138  0.06248138 -0.28741436       0.006
   0.03748883  0.08747393 -0.26242180       0.012
   0.06248138  0.06248138 -0.23742925       0.006
   0.08747393  0.08747393  0.08747393       0.002
   0.06248138  0.11246649  0.11246649       0.006
   0.28741436 -0.11246649 -0.11246649       0.006
   0.26242180 -0.08747393 -0.08747393       0.006
   0.08747393  0.08747393  0.13745904       0.006
   0.31240691 -0.13745904 -0.08747393       0.012
   0.28741436 -0.11246649 -0.06248138       0.012
   0.08747393  0.08747393 -0.31240691       0.006
   0.11246649  0.11246649  0.11246649       0.002
   0.33739946 -0.11246649 -0.11246649       0.006
 
 k-points in reciprocal lattice and weights: Automatic mesh                          
   0.05000000  0.05000000  0.05000000       0.002
   0.15000000  0.05000000  0.05000000       0.006
   0.25000000  0.05000000  0.05000000       0.006
   0.35000000  0.05000000  0.05000000       0.006
   0.45000000  0.05000000  0.05000000       0.006
  -0.45000000  0.05000000  0.05000000       0.006
  -0.35000000  0.05000000  0.05000000       0.006
  -0.25000000  0.05000000  0.05000000       0.006
  -0.15000000  0.05000000  0.05000000       0.006
  -0.05000000  0.05000000  0.05000000       0.006
   0.15000000  0.15000000  0.05000000       0.006
   0.25000000  0.15000000  0.05000000       0.012
   0.35000000  0.15000000  0.05000000       0.012
   0.45000000  0.15000000  0.05000000       0.012
  -0.45000000  0.15000000  0.05000000       0.012
  -0.35000000  0.15000000  0.05000000       0.012
  -0.25000000  0.15000000  0.05000000       0.012
  -0.15000000  0.15000000  0.05000000       0.012
  -0.05000000  0.15000000  0.05000000       0.012
   0.25000000  0.25000000  0.05000000       0.006
   0.35000000  0.25000000  0.05000000       0.012
   0.45000000  0.25000000  0.05000000       0.012
  -0.45000000  0.25000000  0.05000000       0.012
  -0.35000000  0.25000000  0.05000000       0.012
  -0.25000000  0.25000000  0.05000000       0.012
  -0.15000000  0.25000000  0.05000000       0.012
  -0.05000000  0.25000000  0.05000000       0.012
   0.35000000  0.35000000  0.05000000       0.006
   0.45000000  0.35000000  0.05000000       0.012
  -0.45000000  0.35000000  0.05000000       0.012
  -0.35000000  0.35000000  0.05000000       0.012
  -0.25000000  0.35000000  0.05000000       0.012
  -0.15000000  0.35000000  0.05000000       0.012
  -0.05000000  0.35000000  0.05000000       0.012
   0.45000000  0.45000000  0.05000000       0.006
  -0.45000000  0.45000000  0.05000000       0.012
  -0.35000000  0.45000000  0.05000000       0.012
  -0.25000000  0.45000000  0.05000000       0.012
  -0.15000000  0.45000000  0.05000000       0.012
  -0.05000000  0.45000000  0.05000000       0.012
  -0.45000000 -0.45000000  0.05000000       0.006
  -0.35000000 -0.45000000  0.05000000       0.012
  -0.25000000 -0.45000000  0.05000000       0.012
  -0.15000000 -0.45000000  0.05000000       0.012
  -0.35000000 -0.35000000  0.05000000       0.006
  -0.25000000 -0.35000000  0.05000000       0.012
  -0.15000000 -0.35000000  0.05000000       0.012
  -0.25000000 -0.25000000  0.05000000       0.006
  -0.15000000 -0.25000000  0.05000000       0.012
  -0.15000000 -0.15000000  0.05000000       0.006
   0.15000000  0.15000000  0.15000000       0.002
   0.25000000  0.15000000  0.15000000       0.006
   0.35000000  0.15000000  0.15000000       0.006
   0.45000000  0.15000000  0.15000000       0.006
  -0.45000000  0.15000000  0.15000000       0.006
  -0.35000000  0.15000000  0.15000000       0.006
  -0.25000000  0.15000000  0.15000000       0.006
  -0.15000000  0.15000000  0.15000000       0.006
   0.25000000  0.25000000  0.15000000       0.006
   0.35000000  0.25000000  0.15000000       0.012
   0.45000000  0.25000000  0.15000000       0.012
  -0.45000000  0.25000000  0.15000000       0.012
  -0.35000000  0.25000000  0.15000000       0.012
  -0.25000000  0.25000000  0.15000000       0.012
  -0.15000000  0.25000000  0.15000000       0.012
   0.35000000  0.35000000  0.15000000       0.006
   0.45000000  0.35000000  0.15000000       0.012
  -0.45000000  0.35000000  0.15000000       0.012
  -0.35000000  0.35000000  0.15000000       0.012
  -0.25000000  0.35000000  0.15000000       0.012
  -0.15000000  0.35000000  0.15000000       0.012
   0.45000000  0.45000000  0.15000000       0.006
  -0.45000000  0.45000000  0.15000000       0.012
  -0.35000000  0.45000000  0.15000000       0.012
  -0.25000000  0.45000000  0.15000000       0.012
  -0.15000000  0.45000000  0.15000000       0.012
  -0.45000000 -0.45000000  0.15000000       0.006
  -0.35000000 -0.45000000  0.15000000       0.012
  -0.25000000 -0.45000000  0.15000000       0.012
  -0.35000000 -0.35000000  0.15000000       0.006
  -0.25000000 -0.35000000  0.15000000       0.012
  -0.25000000 -0.25000000  0.15000000       0.006
   0.25000000  0.25000000  0.25000000       0.002
   0.35000000  0.25000000  0.25000000       0.006
   0.45000000  0.25000000  0.25000000       0.006
  -0.45000000  0.25000000  0.25000000       0.006
  -0.35000000  0.25000000  0.25000000       0.006
  -0.25000000  0.25000000  0.25000000       0.006
   0.35000000  0.35000000  0.25000000       0.006
   0.45000000  0.35000000  0.25000000       0.012
  -0.45000000  0.35000000  0.25000000       0.012
  -0.35000000  0.35000000  0.25000000       0.012
  -0.25000000  0.35000000  0.25000000       0.012
   0.45000000  0.45000000  0.25000000       0.006
  -0.45000000  0.45000000  0.25000000       0.012
  -0.35000000  0.45000000  0.25000000       0.012
  -0.25000000  0.45000000  0.25000000       0.012
  -0.45000000 -0.45000000  0.25000000       0.006
  -0.35000000 -0.45000000  0.25000000       0.012
  -0.35000000 -0.35000000  0.25000000       0.006
   0.35000000  0.35000000  0.35000000       0.002
   0.45000000  0.35000000  0.35000000       0.006
  -0.45000000  0.35000000  0.35000000       0.006
  -0.35000000  0.35000000  0.35000000       0.006
   0.45000000  0.45000000  0.35000000       0.006
  -0.45000000  0.45000000  0.35000000       0.012
  -0.35000000  0.45000000  0.35000000       0.012
  -0.45000000 -0.45000000  0.35000000       0.006
   0.45000000  0.45000000  0.45000000       0.002
  -0.45000000  0.45000000  0.45000000       0.006
 
 position of ions in fractional coordinates (direct lattice) 
   0.00000000  0.00000000  0.00000000
 
 position of ions in cartesian coordinates  (Angst):
   0.00000000  0.00000000  0.00000000
 


--------------------------------------------------------------------------------------------------------


 k-point   1 :   0.0500 0.0500 0.0500  plane waves:     331
 k-point   2 :   0.1500 0.0500 0.0500  plane waves:     321
 k-point   3 :   0.2500 0.0500 0.0500  plane waves:     316
 k-point   4 :   0.3500 0.0500 0.0500  plane waves:     315
 k-point   5 :   0.4500 0.0500 0.0500  plane waves:     323
 k-point   6 :  -0.4500 0.0500 0.0500  plane waves:     325
 k-point   7 :  -0.3500 0.0500 0.0500  plane waves:     321
 k-point   8 :  -0.2500 0.0500 0.0500  plane waves:     315
 k-point   9 :  -0.1500 0.0500 0.0500  plane waves:     317
 k-point  10 :  -0.0500 0.0500 0.0500  plane waves:     325
 k-point  11 :   0.1500 0.1500 0.0500  plane waves:     318
 k-point  12 :   0.2500 0.1500 0.0500  plane waves:     316
 k-point  13 :   0.3500 0.1500 0.0500  plane waves:     318
 k-point  14 :   0.4500 0.1500 0.0500  plane waves:     321
 k-point  15 :  -0.4500 0.1500 0.0500  plane waves:     320
 k-point  16 :  -0.3500 0.1500 0.0500  plane waves:     317
 k-point  17 :  -0.2500 0.1500 0.0500  plane waves:     317
 k-point  18 :  -0.1500 0.1500 0.0500  plane waves:     316
 k-point  19 :  -0.0500 0.1500 0.0500  plane waves:     320
 k-point  20 :   0.2500 0.2500 0.0500  plane waves:     314
 k-point  21 :   0.3500 0.2500 0.0500  plane waves:     318
 k-point  22 :   0.4500 0.2500 0.0500  plane waves:     320
 k-point  23 :  -0.4500 0.2500 0.0500  plane waves:     317
 k-point  24 :  -0.3500 0.2500 0.0500  plane waves:     317
 k-point  25 :  -0.2500 0.2500 0.0500  plane waves:     318
 k-point  26 :  -0.1500 0.2500 0.0500  plane waves:     316
 k-point  27 :  -0.0500 0.2500 0.0500  plane waves:     315
 k-point  28 :   0.3500 0.3500 0.0500  plane waves:     319
 k-point  29 :   0.4500 0.3500 0.0500  plane waves:     320
 k-point  30 :  -0.4500 0.3500 0.0500  plane waves:     318
 k-point  31 :  -0.3500 0.3500 0.0500  plane waves:     319
 k-point  32 :  -0.2500 0.3500 0.0500  plane waves:     321
 k-point  33 :  -0.1500 0.3500 0.0500  plane waves:     317
 k-point  34 :  -0.0500 0.3500 0.0500  plane waves:     319
 k-point  35 :   0.4500 0.4500 0.0500  plane waves:     322
 k-point  36 :  -0.4500 0.4500 0.0500  plane waves:     317
 k-point  37 :  -0.3500 0.4500 0.0500  plane waves:     319
 k-point  38 :  -0.2500 0.4500 0.0500  plane waves:     318
 k-point  39 :  -0.1500 0.4500 0.0500  plane waves:     316
 k-point  40 :  -0.0500 0.4500 0.0500  plane waves:     322
 k-point  41 :  -0.4500-0.4500 0.0500  plane waves:     320
 k-point  42 :  -0.3500-0.4500 0.0500  plane waves:     322
 k-point  43 :  -0.2500-0.4500 0.0500  plane waves:     320
 k-point  44 :  -0.1500-0.4500 0.0500  plane waves:     320
 k-point  45 :  -0.3500-0.3500 0.0500  plane waves:     322
 k-point  46 :  -0.2500-0.3500 0.0500  plane waves:     320
 k-point  47 :  -0.1500-0.3500 0.0500  plane waves:     321
 k-point  48 :  -0.2500-0.2500 0.0500  plane waves:     313
 k-point  49 :  -0.1500-0.2500 0.0500  plane waves:     316
 k-point  50 :  -0.1500-0.1500 0.0500  plane waves:     316
 k-point  51 :   0.1500 0.1500 0.1500  plane waves:     320
 k-point  52 :   0.2500 0.1500 0.1500  plane waves:     317
 k-point  53 :   0.3500 0.1500 0.1500  plane waves:     317
 k-point  54 :   0.4500 0.1500 0.1500  plane waves:     319
 k-point  55 :  -0.4500 0.1500 0.1500  plane waves:     318
 k-point  56 :  -0.3500 0.1500 0.1500  plane waves:     319
 k-point  57 :  -0.2500 0.1500 0.1500  plane waves:     320
 k-point  58 :  -0.1500 0.1500 0.1500  plane waves:     319
 k-point  59 :   0.2500 0.2500 0.1500  plane waves:     317
 k-point  60 :   0.3500 0.2500 0.1500  plane waves:     316
 k-point  61 :   0.4500 0.2500 0.1500  plane waves:     318
 k-point  62 :  -0.4500 0.2500 0.1500  plane waves:     319
 k-point  63 :  -0.3500 0.2500 0.1500  plane waves:     313
 k-point  64 :  -0.2500 0.2500 0.1500  plane waves:     320
 k-point  65 :  -0.1500 0.2500 0.1500  plane waves:     318
 k-point  66 :   0.3500 0.3500 0.1500  plane waves:     320
 k-point  67 :   0.4500 0.3500 0.1500  plane waves:     322
 k-point  68 :  -0.4500 0.3500 0.1500  plane waves:     319
 k-point  69 :  -0.3500 0.3500 0.1500  plane waves:     318
 k-point  70 :  -0.2500 0.3500 0.1500  plane waves:     318
 k-point  71 :  -0.1500 0.3500 0.1500  plane waves:     320
 k-point  72 :   0.4500 0.4500 0.1500  plane waves:     320
 k-point  73 :  -0.4500 0.4500 0.1500  plane waves:     320
 k-point  74 :  -0.3500 0.4500 0.1500  plane waves:     319
 k-point  75 :  -0.2500 0.4500 0.1500  plane waves:     318
 k-point  76 :  -0.1500 0.4500 0.1500  plane waves:     320
 k-point  77 :  -0.4500-0.4500 0.1500  plane waves:     320
 k-point  78 :  -0.3500-0.4500 0.1500  plane waves:     319
 k-point  79 :  -0.2500-0.4500 0.1500  plane waves:     316
 k-point  80 :  -0.3500-0.3500 0.1500  plane waves:     320
 k-point  81 :  -0.2500-0.3500 0.1500  plane waves:     321
 k-point  82 :  -0.2500-0.2500 0.1500  plane waves:     320
 k-point  83 :   0.2500 0.2500 0.2500  plane waves:     314
 k-point  84 :   0.3500 0.2500 0.2500  plane waves:     313
 k-point  85 :   0.4500 0.2500 0.2500  plane waves:     317
 k-point  86 :  -0.4500 0.2500 0.2500  plane waves:     320
 k-point  87 :  -0.3500 0.2500 0.2500  plane waves:     313
 k-point  88 :  -0.2500 0.2500 0.2500  plane waves:     318
 k-point  89 :   0.3500 0.3500 0.2500  plane waves:     324
 k-point  90 :   0.4500 0.3500 0.2500  plane waves:     318
 k-point  91 :  -0.4500 0.3500 0.2500  plane waves:     320
 k-point  92 :  -0.3500 0.3500 0.2500  plane waves:     318
 k-point  93 :  -0.2500 0.3500 0.2500  plane waves:     318
 k-point  94 :   0.4500 0.4500 0.2500  plane waves:     320
 k-point  95 :  -0.4500 0.4500 0.2500  plane waves:     320
 k-point  96 :  -0.3500 0.4500 0.2500  plane waves:     318
 k-point  97 :  -0.2500 0.4500 0.2500  plane waves:     318
 k-point  98 :  -0.4500-0.4500 0.2500  plane waves:     316
 k-point  99 :  -0.3500-0.4500 0.2500  plane waves:     318
 k-point 100 :  -0.3500-0.3500 0.2500  plane waves:     320
 k-point 101 :   0.3500 0.3500 0.3500  plane waves:     314
 k-point 102 :   0.4500 0.3500 0.3500  plane waves:     318
 k-point 103 :  -0.4500 0.3500 0.3500  plane waves:     322
 k-point 104 :  -0.3500 0.3500 0.3500  plane waves:     319
 k-point 105 :   0.4500 0.4500 0.3500  plane waves:     319
 k-point 106 :  -0.4500 0.4500 0.3500  plane waves:     319
 k-point 107 :  -0.3500 0.4500 0.3500  plane waves:     316
 k-point 108 :  -0.4500-0.4500 0.3500  plane waves:     319
 k-point 109 :   0.4500 0.4500 0.4500  plane waves:     320
 k-point 110 :  -0.4500 0.4500 0.4500  plane waves:     324

 maximum and minimum number of plane-waves per node :       331      313

 maximum number of plane-waves:       331
 maximum index in each direction: 
   IXMAX=    5   IYMAX=    5   IZMAX=    4
   IXMIN=   -5   IYMIN=   -5   IZMIN=   -5


 serial   3D FFT for wavefunctions
 parallel 3D FFT for charge:
    minimum data exchange during FFTs selected (reduces bandwidth)


 total amount of memory used by VASP MPI-rank0    36607. kBytes
=======================================================================

   base      :      30000. kBytes
   nonl-proj :       5327. kBytes
   fftplans  :        147. kBytes
   grid      :        485. kBytes
   one-center:         15. kBytes
   wavefun   :        633. kBytes
 
     INWAV:  cpu time      0.0000: real time      0.0001
 Broyden mixing: mesh for mixing (old mesh)
   NGX =  9   NGY =  9   NGZ =  9
  (NGX  = 40   NGY  = 40   NGZ  = 40)
  gives a total of    729 points

 initial charge density was supplied:
 charge density of overlapping atoms calculated
 number of electron      16.0000000 magnetization 
 keeping initial charge density in first step


--------------------------------------------------------------------------------------------------------


 Maximum index for augmentation-charges          823 (set IRDMAX)


--------------------------------------------------------------------------------------------------------


 First call to EWALD:  gamma=   0.703
 Maximum number of real-space cells 3x 3x 3
 Maximum number of reciprocal cells 3x 3x 3

    FEWALD:  cpu time      0.0014: real time      0.0014


--------------------------------------- Iteration      1(   1)  ---------------------------------------


    POTLOK:  cpu time      0.0034: real time      0.0034
    SETDIJ:  cpu time      0.0021: real time      0.0021
     EDDAV:  cpu time      0.5168: real time      0.5194
       DOS:  cpu time      0.0009: real time      0.0010
    --------------------------------------------
      LOOP:  cpu time      0.5232: real time      0.5259

 eigenvalue-minimisations  :  6024
 total energy-change (2. order) : 0.1755878E+02  (-0.1169339E+04)
 number of electron      16.0000000 magnetization 
 augmentation part       16.0000000 magnetization 

 Free energy of the ion-electron system (eV)
  ---------------------------------------------------
  alpha Z        PSCENC =       149.82343690
  Ewald energy   TEWEN  =     -2112.04387056
  -Hartree energ DENC   =      -413.16948797
  -exchange      EXHF   =         0.00000000
  -V(xc)+E(xc)   XCENC  =        63.58917319
  PAW double counting   =      2065.75261637    -2030.83594803
  entropy T*S    EENTRO =        -0.00109018
  eigenvalues    EBANDS =      -133.75106105
  atomic energy  EATOM  =      2428.19501064
  Solvation  Ediel_sol  =         0.00000000
  ---------------------------------------------------
  free energy    TOTEN  =        17.55877931 eV

  energy without entropy =       17.55986950  energy(sigma->0) =       17.55932441


--------------------------------------------------------------------------------------------------------




--------------------------------------- Iteration      1(   2)  ---------------------------------------


     EDDAV:  cpu time      0.6259: real time      0.6294
       DOS:  cpu time      0.0005: real time      0.0005
    --------------------------------------------
      LOOP:  cpu time      0.6264: real time      0.6299

 eigenvalue-minimisations  :  6792
 total energy-change (2. order) :-0.2395683E+02  (-0.2365230E+02)
 number of electron      16.0000000 magnetization 
 augmentation part       16.0000000 magnetization 

 Free energy of the ion-electron system (eV)
  ---------------------------------------------------
  alpha Z        PSCENC =       149.82343690
  Ewald energy   TEWEN  =     -2112.04387056
  -Hartree energ DENC   =      -413.16948797
  -exchange      EXHF   =         0.00000000
  -V(xc)+E(xc)   XCENC  =        63.58917319
  PAW double counting   =      2065.75261637    -2030.83594803
  entropy T*S    EENTRO =        -0.00189639
  eigenvalues    EBANDS =      -157.70708585
  atomic energy  EATOM  =      2428.19501064
  Solvation  Ediel_sol  =         0.00000000
  ---------------------------------------------------
  free energy    TOTEN  =        -6.39805169 eV

  energy without entropy =       -6.39615530  energy(sigma->0) =       -6.39710350


--------------------------------------------------------------------------------------------------------




--------------------------------------- Iteration      1(   3)  ---------------------------------------


     EDDAV:  cpu time      0.7361: real time      0.7398
       DOS:  cpu time      0.0005: real time      0.0005
    --------------------------------------------
      LOOP:  cpu time      0.7366: real time      0.7403

 eigenvalue-minimisations  :  7152
 total energy-change (2. order) :-0.3899364E-01  (-0.3899258E-01)
 number of electron      16.0000000 magnetization 
 augmentation part       16.0000000 magnetization 

 Free energy of the ion-electron system (eV)
  ---------------------------------------------------
  alpha Z        PSCENC =       149.82343690
  Ewald energy   TEWEN  =     -2112.04387056
  -Hartree energ DENC   =      -413.16948797
  -exchange      EXHF   =         0.00000000
  -V(xc)+E(xc)   XCENC  =        63.58917319
  PAW double counting   =      2065.75261637    -2030.83594803
  entropy T*S    EENTRO =        -0.00191101
  eigenvalues    EBANDS =      -157.74606486
  atomic energy  EATOM  =      2428.19501064
  Solvation  Ediel_sol  =         0.00000000
  ---------------------------------------------------
  free energy    TOTEN  =        -6.43704533 eV

  energy without entropy =       -6.43513432  energy(sigma->0) =       -6.43608982


--------------------------------------------------------------------------------------------------------




--------------------------------------- Iteration      1(   4)  ---------------------------------------


     EDDAV:  cpu time      0.9168: real time      0.9213
       DOS:  cpu time      0.0005: real time      0.0005
    --------------------------------------------
      LOOP:  cpu time      0.9173: real time      0.9218

 eigenvalue-minimisations  :  8256
 total energy-change (2. order) :-0.2875229E-04  (-0.2875372E-04)
 number of electron      16.0000000 magnetization 
 augmentation part       16.0000000 magnetization 

 Free energy of the ion-electron system (eV)
  ---------------------------------------------------
  alpha Z        PSCENC =       149.82343690
  Ewald energy   TEWEN  =     -2112.04387056
  -Hartree energ DENC   =      -413.16948797
  -exchange      EXHF   =         0.00000000
  -V(xc)+E(xc)   XCENC  =        63.58917319
  PAW double counting   =      2065.75261637    -2030.83594803
  entropy T*S    EENTRO =        -0.00191103
  eigenvalues    EBANDS =      -157.74609360
  atomic energy  EATOM  =      2428.19501064
  Solvation  Ediel_sol  =         0.00000000
  ---------------------------------------------------
  free energy    TOTEN  =        -6.43707408 eV

  energy without entropy =       -6.43516305  energy(sigma->0) =       -6.43611857


--------------------------------------------------------------------------------------------------------




--------------------------------------- Iteration      1(   5)  ---------------------------------------


     EDDAV:  cpu time      0.7037: real time      0.7070
       DOS:  cpu time      0.0005: real time      0.0005
    CHARGE:  cpu time      0.0184: real time      0.0185
    MIXING:  cpu time      0.0003: real time      0.0003
    --------------------------------------------
      LOOP:  cpu time      0.7229: real time      0.7263

 eigenvalue-minimisations  :  6984
 total energy-change (2. order) :-0.2941306E-08  (-0.1238539E-08)
 number of electron      16.0000006 magnetization 
 augmentation part        3.9734242 magnetization 

 Broyden mixing:
  rms(total) = 0.13357E+01    rms(broyden)= 0.13355E+01
  rms(prec ) = 0.19426E+01
  weight for this iteration     100.00

 Free energy of the ion-electron system (eV)
  ---------------------------------------------------
  alpha Z        PSCENC =       149.82343690
  Ewald energy   TEWEN  =     -2112.04387056
  -Hartree energ DENC   =      -413.16948797
  -exchange      EXHF   =         0.00000000
  -V(xc)+E(xc)   XCENC  =        63.58917319
  PAW double counting   =      2065.75261637    -2030.83594803
  entropy T*S    EENTRO =        -0.00191103
  eigenvalues    EBANDS =      -157.74609360
  atomic energy  EATOM  =      2428.19501064
  Solvation  Ediel_sol  =         0.00000000
  ---------------------------------------------------
  free energy    TOTEN  =        -6.43707408 eV

  energy without entropy =       -6.43516306  energy(sigma->0) =       -6.43611857


--------------------------------------------------------------------------------------------------------




--------------------------------------- Iteration      1(   6)  ---------------------------------------


    POTLOK:  cpu time      0.0025: real time      0.0026
    SETDIJ:  cpu time      0.0020: real time      0.0020
     EDDAV:  cpu time      0.5260: real time      0.5290
       DOS:  cpu time      0.0005: real time      0.0005
    CHARGE:  cpu time      0.0177: real time      0.0178
    MIXING:  cpu time      0.0002: real time      0.0002
    --------------------------------------------
      LOOP:  cpu time      0.5489: real time      0.5521

 eigenvalue-minimisations  :  6000
 total energy-change (2. order) : 0.3434776E+00  (-0.1350022E+00)
 number of electron      16.0000007 magnetization 
 augmentation part        4.0923605 magnetization 

 Broyden mixing:
  rms(total) = 0.39088E+00    rms(broyden)= 0.39087E+00
  rms(prec ) = 0.50576E+00
  weight for this iteration     100.00

 eigenvalues of (default mixing * dielectric matrix)
  average eigenvalue GAMMA=   1.3835
  1.3835

 Free energy of the ion-electron system (eV)
  ---------------------------------------------------
  alpha Z        PSCENC =       149.82343690
  Ewald energy   TEWEN  =     -2112.04387056
  -Hartree energ DENC   =      -397.33044793
  -exchange      EXHF   =         0.00000000
  -V(xc)+E(xc)   XCENC  =        62.91003213
  PAW double counting   =      2208.41882887    -2175.51810876
  entropy T*S    EENTRO =        -0.00258418
  eigenvalues    EBANDS =      -170.54589356
  atomic energy  EATOM  =      2428.19501064
  Solvation  Ediel_sol  =         0.00000000
  ---------------------------------------------------
  free energy    TOTEN  =        -6.09359645 eV

  energy without entropy =       -6.09101226  energy(sigma->0) =       -6.09230436


--------------------------------------------------------------------------------------------------------




--------------------------------------- Iteration      1(   7)  ---------------------------------------


    POTLOK:  cpu time      0.0022: real time      0.0024
    SETDIJ:  cpu time      0.0018: real time      0.0018
     EDDAV:  cpu time      0.8108: real time      0.8146
       DOS:  cpu time      0.0005: real time      0.0005
    CHARGE:  cpu time      0.0176: real time      0.0176
    MIXING:  cpu time      0.0004: real time      0.0004
    --------------------------------------------
      LOOP:  cpu time      0.8333: real time      0.8373

 eigenvalue-minimisations  :  7920
 total energy-change (2. order) : 0.1574745E-01  (-0.6207963E-02)
 number of electron      16.0000007 magnetization 
 augmentation part        4.1160588 magnetization 

 Broyden mixing:
  rms(total) = 0.13146E+00    rms(broyden)= 0.13146E+00
  rms(prec ) = 0.16820E+00
  weight for this iteration     100.00

 eigenvalues of (default mixing * dielectric matrix)
  average eigenvalue GAMMA=   1.9337
  1.1666  2.7009

 Free energy of the ion-electron system (eV)
  ---------------------------------------------------
  alpha Z        PSCENC =       149.82343690
  Ewald energy   TEWEN  =     -2112.04387056
  -Hartree energ DENC   =      -393.77610804
  -exchange      EXHF   =         0.00000000
  -V(xc)+E(xc)   XCENC  =        62.74734768
  PAW double counting   =      2258.34204203    -2225.89905139
  entropy T*S    EENTRO =        -0.00263997
  eigenvalues    EBANDS =      -173.46401629
  atomic energy  EATOM  =      2428.19501064
  Solvation  Ediel_sol  =         0.00000000
  ---------------------------------------------------
  free energy    TOTEN  =        -6.07784900 eV

  energy without entropy =       -6.07520903  energy(sigma->0) =       -6.07652901


--------------------------------------------------------------------------------------------------------




--------------------------------------- Iteration      1(   8)  ---------------------------------------


    POTLOK:  cpu time      0.0022: real time      0.0023
    SETDIJ:  cpu time      0.0020: real time      0.0020
     EDDAV:  cpu time      0.5350: real time      0.5375
       DOS:  cpu time      0.0005: real time      0.0005
    CHARGE:  cpu time      0.0176: real time      0.0176
    MIXING:  cpu time      0.0002: real time      0.0002
    --------------------------------------------
      LOOP:  cpu time      0.5574: real time      0.5601

 eigenvalue-minimisations  :  6072
 total energy-change (2. order) : 0.1414762E-02  (-0.3854952E-03)
 number of electron      16.0000007 magnetization 
 augmentation part        4.1126647 magnetization 

 Broyden mixing:
  rms(total) = 0.10346E-01    rms(broyden)= 0.10332E-01
  rms(prec ) = 0.14308E-01
  weight for this iteration     100.00

 eigenvalues of (default mixing * dielectric matrix)
  average eigenvalue GAMMA=   1.5663
  1.0804  1.1863  2.4322

 Free energy of the ion-electron system (eV)
  ---------------------------------------------------
  alpha Z        PSCENC =       149.82343690
  Ewald energy   TEWEN  =     -2112.04387056
  -Hartree energ DENC   =      -393.59670008
  -exchange      EXHF   =         0.00000000
  -V(xc)+E(xc)   XCENC  =        62.72614135
  PAW double counting   =      2289.01677552    -2256.57765987
  entropy T*S    EENTRO =        -0.00266692
  eigenvalues    EBANDS =      -173.61690122
  atomic energy  EATOM  =      2428.19501064
  Solvation  Ediel_sol  =         0.00000000
  ---------------------------------------------------
  free energy    TOTEN  =        -6.07643424 eV

  energy without entropy =       -6.07376732  energy(sigma->0) =       -6.07510078


--------------------------------------------------------------------------------------------------------




--------------------------------------- Iteration      1(   9)  ---------------------------------------


    POTLOK:  cpu time      0.0022: real time      0.0024
    SETDIJ:  cpu time      0.0018: real time      0.0018
     EDDAV:  cpu time      0.7603: real time      0.7639
       DOS:  cpu time      0.0005: real time      0.0005
    CHARGE:  cpu time      0.0175: real time      0.0175
    MIXING:  cpu time      0.0003: real time      0.0003
    --------------------------------------------
      LOOP:  cpu time      0.7826: real time      0.7864

 eigenvalue-minimisations  :  7392
 total energy-change (2. order) : 0.5029433E-04  (-0.3769585E-05)
 number of electron      16.0000007 magnetization 
 augmentation part        4.1129494 magnetization 

 Broyden mixing:
  rms(total) = 0.16107E-02    rms(broyden)= 0.16087E-02
  rms(prec ) = 0.32176E-02
  weight for this iteration     100.00

 eigenvalues of (default mixing * dielectric matrix)
  average eigenvalue GAMMA=   1.8259
  1.0157  1.1706  2.7562  2.3613

 Free energy of the ion-electron system (eV)
  ---------------------------------------------------
  alpha Z        PSCENC =       149.82343690
  Ewald energy   TEWEN  =     -2112.04387056
  -Hartree energ DENC   =      -393.63482842
  -exchange      EXHF   =         0.00000000
  -V(xc)+E(xc)   XCENC  =        62.72874454
  PAW double counting   =      2287.71401656    -2255.25497318
  entropy T*S    EENTRO =        -0.00266318
  eigenvalues    EBANDS =      -173.60125724
  atomic energy  EATOM  =      2428.19501064
  Solvation  Ediel_sol  =         0.00000000
  ---------------------------------------------------
  free energy    TOTEN  =        -6.07638394 eV

  energy without entropy =       -6.07372077  energy(sigma->0) =       -6.07505235


--------------------------------------------------------------------------------------------------------




--------------------------------------- Iteration      1(  10)  ---------------------------------------


    POTLOK:  cpu time      0.0022: real time      0.0023
    SETDIJ:  cpu time      0.0018: real time      0.0018
     EDDAV:  cpu time      0.7126: real time      0.7159
       DOS:  cpu time      0.0005: real time      0.0005
    CHARGE:  cpu time      0.0181: real time      0.0182
    MIXING:  cpu time      0.0003: real time      0.0003
    --------------------------------------------
      LOOP:  cpu time      0.7355: real time      0.7390

 eigenvalue-minimisations  :  7176
 total energy-change (2. order) :-0.6317063E-05  (-0.5753493E-06)
 number of electron      16.0000007 magnetization 
 augmentation part        4.1129930 magnetization 

 Broyden mixing:
  rms(total) = 0.56682E-03    rms(broyden)= 0.56653E-03
  rms(prec ) = 0.57782E-03
  weight for this iteration     100.00

 eigenvalues of (default mixing * dielectric matrix)
  average eigenvalue GAMMA=   1.7514
  2.6793  2.3470  0.9910  1.5638  1.1761

 Free energy of the ion-electron system (eV)
  ---------------------------------------------------
  alpha Z        PSCENC =       149.82343690
  Ewald energy   TEWEN  =     -2112.04387056
  -Hartree energ DENC   =      -393.66333064
  -exchange      EXHF   =         0.00000000
  -V(xc)+E(xc)   XCENC  =        62.72982311
  PAW double counting   =      2289.33412929    -2256.84760811
  entropy T*S    EENTRO =        -0.00266188
  eigenvalues    EBANDS =      -173.60131901
  atomic energy  EATOM  =      2428.19501064
  Solvation  Ediel_sol  =         0.00000000
  ---------------------------------------------------
  free energy    TOTEN  =        -6.07639026 eV

  energy without entropy =       -6.07372838  energy(sigma->0) =       -6.07505932


--------------------------------------------------------------------------------------------------------




--------------------------------------- Iteration      1(  11)  ---------------------------------------


    POTLOK:  cpu time      0.0023: real time      0.0024
    SETDIJ:  cpu time      0.0019: real time      0.0019
     EDDAV:  cpu time      0.3078: real time      0.3093
       DOS:  cpu time      0.0005: real time      0.0005
    --------------------------------------------
      LOOP:  cpu time      0.3124: real time      0.3141

 eigenvalue-minimisations  :  3720
 total energy-change (2. order) : 0.7534754E-07  (-0.5029203E-09)
 number of electron      16.0000007 magnetization 
 augmentation part        4.1129930 magnetization 

 Free energy of the ion-electron system (eV)
  ---------------------------------------------------
  alpha Z        PSCENC =       149.82343690
  Ewald energy   TEWEN  =     -2112.04387056
  -Hartree energ DENC   =      -393.66260687
  -exchange      EXHF   =         0.00000000
  -V(xc)+E(xc)   XCENC  =        62.72979278
  PAW double counting   =      2289.15568387    -2256.66980723
  entropy T*S    EENTRO =        -0.00266188
  eigenvalues    EBANDS =      -173.60136783
  atomic energy  EATOM  =      2428.19501064
  Solvation  Ediel_sol  =         0.00000000
  ---------------------------------------------------
  free energy    TOTEN  =        -6.07639019 eV

  energy without entropy =       -6.07372831  energy(sigma->0) =       -6.07505925


--------------------------------------------------------------------------------------------------------




 average (electrostatic) potential at core
  the test charge radii are     0.9952
  (the norm of the test charge is              1.0000)
       1 -89.6946
 
 
 
 E-fermi :  10.9276     XC(G=0): -13.6174     alpha+bet :-16.3809

 Fermi energy:        10.9276479112

 k-point     1 :       0.0500    0.0500    0.0500
  band No.  band energies     occupation 
      1     -41.4515      2.00000
      2     -41.4435      2.00000
      3     -41.4435      2.00000
      4       1.4130      2.00000
      5       7.4254      2.00000
      6       7.5036      2.00000
      7       7.5036      2.00000
      8       9.4101      2.00000
      9       9.4101      2.00000
     10      25.8038      0.00000
     11      29.7436      0.00000
     12      30.4324      0.00000
     13      30.4324      0.00000
     14      36.0179      0.00000
     15      40.2575      0.00000
     16      40.9782      0.00000
     17      40.9782      0.00000
     18      43.9254      0.00000
     19      43.9254      0.00000
     20      44.8196      0.00000
     21      50.7687      0.00000
     22      50.7687      0.00000
     23      51.7831      0.00000
     24      57.2016      0.00000

 k-point     2 :       0.1500    0.0500    0.0500
  band No.  band energies     occupation 
      1     -41.4943      2.00000
      2     -41.4563      2.00000
      3     -41.4469      2.00000
      4       1.9074      2.00000
      5       7.2171      2.00000
      6       7.6708      2.00000
      7       7.7069      2.00000
      8       9.2091      2.00000
      9       9.4647      2.00000
     10      26.4733      0.00000
     11      28.0336      0.00000
     12      30.4721      0.00000
     13      31.4874      0.00000
     14      36.2191      0.00000
     15      38.5702      0.00000
     16      39.2289      0.00000
     17      40.0849      0.00000
     18      42.3892      0.00000
     19      45.3300      0.00000
     20      47.4935      0.00000
     21      49.7190      0.00000
     22      51.7979      0.00000
     23      51.9369      0.00000
     24      58.9223      0.00000

 k-point     3 :       0.2500    0.0500    0.0500
  band No.  band energies     occupation 
      1     -41.5930      2.00000
      2     -41.4734      2.00000
      3     -41.4596      2.00000
      4       2.9746      2.00000
      5       7.0144      2.00000
      6       7.8469      2.00000
      7       7.8827      2.00000
      8       9.1993      2.00000
      9       9.7106      2.00000
     10      25.0258      0.00000
     11      27.3125      0.00000
     12      31.3579      0.00000
     13      33.2500      0.00000
     14      33.4084      0.00000
     15      36.3631      0.00000
     16      36.5623      0.00000
     17      42.8759      0.00000
     18      43.0287      0.00000
     19      46.0200      0.00000
     20      48.1326      0.00000
     21      50.7245      0.00000
     22      51.8053      0.00000
     23      52.6502      0.00000
     24      59.2141      0.00000

 k-point     4 :       0.3500    0.0500    0.0500
  band No.  band energies     occupation 
      1     -41.7056      2.00000
      2     -41.4909      2.00000
      3     -41.4764      2.00000
      4       3.9571      2.00000
      5       7.5373      2.00000
      6       7.7127      2.00000
      7       7.7396      2.00000
      8       9.8040      2.00000
      9      10.3936      2.00000
     10      21.4469      0.00000
     11      26.5765      0.00000
     12      30.6295      0.00000
     13      32.8085      0.00000
     14      34.2411      0.00000
     15      35.8953      0.00000
     16      36.5891      0.00000
     17      43.3708      0.00000
     18      45.4317      0.00000
     19      47.6483      0.00000
     20      49.1387      0.00000
     21      51.5898      0.00000
     22      51.8133      0.00000
     23      53.3836      0.00000
     24      58.1395      0.00000

 k-point     5 :       0.4500    0.0500    0.0500
  band No.  band energies     occupation 
      1     -41.7896      2.00000
      2     -41.5021      2.00000
      3     -41.4919      2.00000
      4       4.2342      2.00000
      5       7.4410      2.00000
      6       7.5317      2.00000
      7       9.2193      2.00000
      8      10.5720      2.00000
      9      11.2193      0.00000
     10      17.8453      0.00000
     11      25.6135      0.00000
     12      29.3145      0.00000
     13      30.3366      0.00000
     14      36.9007      0.00000
     15      37.7857      0.00000
     16      38.5027      0.00000
     17      44.1335      0.00000
     18      45.3729      0.00000
     19      46.8330      0.00000
     20      51.2984      0.00000
     21      51.8054      0.00000
     22      54.0366      0.00000
     23      54.2802      0.00000
     24      55.2735      0.00000

 k-point     6 :      -0.4500    0.0500    0.0500
  band No.  band energies     occupation 
      1     -41.8129      2.00000
      2     -41.5022      2.00000
      3     -41.4992      2.00000
      4       4.2463      2.00000
      5       7.3584      2.00000
      6       7.4831      2.00000
      7       9.8973      2.00000
      8      10.9472      0.57935
      9      11.6890      0.00000
     10      16.3436      0.00000
     11      25.3525      0.00000
     12      29.2429      0.00000
     13      29.3051      0.00000
     14      37.9997      0.00000
     15      38.1917      0.00000
     16      39.6565      0.00000
     17      44.4438      0.00000
     18      45.4389      0.00000
     19      45.5591      0.00000
     20      51.8039      0.00000
     21      52.4116      0.00000
     22      53.0466      0.00000
     23      54.6542      0.00000
     24      55.6480      0.00000

 k-point     7 :      -0.3500    0.0500    0.0500
  band No.  band energies     occupation 
      1     -41.7673      2.00000
      2     -41.4950      2.00000
      3     -41.4919      2.00000
      4       4.1969      2.00000
      5       7.4787      2.00000
      6       7.6190      2.00000
      7       8.5931      2.00000
      8      10.6430      2.00000
      9      10.6821      2.00000
     10      18.9629      0.00000
     11      25.8747      0.00000
     12      29.8896      0.00000
     13      30.7056      0.00000
     14      36.6886      0.00000
     15      36.8444      0.00000
     16      37.6849      0.00000
     17      43.3368      0.00000
     18      46.3413      0.00000
     19      47.0636      0.00000
     20      51.1381      0.00000
     21      51.8071      0.00000
     22      52.5106      0.00000
     23      54.1554      0.00000
     24      55.8813      0.00000

 k-point     8 :      -0.2500    0.0500    0.0500
  band No.  band energies     occupation 
      1     -41.6693      2.00000
      2     -41.4816      2.00000
      3     -41.4748      2.00000
      4       3.7005      2.00000
      5       7.2217      2.00000
      6       7.7419      2.00000
      7       7.8325      2.00000
      8       9.6667      2.00000
      9      10.0387      2.00000
     10      22.6931      0.00000
     11      26.9706      0.00000
     12      31.2996      0.00000
     13      32.7994      0.00000
     14      34.3414      0.00000
     15      35.3751      0.00000
     16      35.9520      0.00000
     17      42.8670      0.00000
     18      46.1534      0.00000
     19      46.4414      0.00000
     20      48.8724      0.00000
     21      50.3912      0.00000
     22      51.8109      0.00000
     23      53.6379      0.00000
     24      58.9907      0.00000

 k-point     9 :      -0.1500    0.0500    0.0500
  band No.  band energies     occupation 
      1     -41.5560      2.00000
      2     -41.4645      2.00000
      3     -41.4579      2.00000
      4       2.5821      2.00000
      5       7.0283      2.00000
      6       7.8403      2.00000
      7       7.8597      2.00000
      8       9.1464      2.00000
      9       9.5679      2.00000
     10      26.1017      0.00000
     11      27.1971      0.00000
     12      31.2104      0.00000
     13      32.2200      0.00000
     14      34.5123      0.00000
     15      36.5655      0.00000
     16      37.8225      0.00000
     17      41.6403      0.00000
     18      42.6966      0.00000
     19      46.3182      0.00000
     20      47.9162      0.00000
     21      49.7494      0.00000
     22      51.8029      0.00000
     23      52.7144      0.00000
     24      59.1604      0.00000

 k-point    10 :      -0.0500    0.0500    0.0500
  band No.  band energies     occupation 
      1     -41.4707      2.00000
      2     -41.4502      2.00000
      3     -41.4477      2.00000
      4       1.6647      2.00000
      5       7.2835      2.00000
      6       7.6172      2.00000
      7       7.6242      2.00000
      8       9.2431      2.00000
      9       9.4809      2.00000
     10      26.1670      0.00000
     11      28.9793      0.00000
     12      30.4260      0.00000
     13      30.6898      0.00000
     14      37.0824      0.00000
     15      38.9233      0.00000
     16      39.1313      0.00000
     17      41.0004      0.00000
     18      42.0705      0.00000
     19      45.8542      0.00000
     20      46.2972      0.00000
     21      49.6199      0.00000
     22      51.7293      0.00000
     23      51.7990      0.00000
     24      58.3748      0.00000

 k-point    11 :       0.1500    0.1500    0.0500
  band No.  band energies     occupation 
      1     -41.5037      2.00000
      2     -41.4627      2.00000
      3     -41.4602      2.00000
      4       2.1524      2.00000
      5       7.0051      2.00000
      6       7.8568      2.00000
      7       7.8627      2.00000
      8       8.9487      2.00000
      9       9.6175      2.00000
     10      26.8467      0.00000
     11      28.2540      0.00000
     12      30.2392      0.00000
     13      30.6379      0.00000
     14      36.6570      0.00000
     15      37.5735      0.00000
     16      39.0385      0.00000
     17      39.8892      0.00000
     18      41.6902      0.00000
     19      47.3474      0.00000
     20      47.9096      0.00000
     21      48.3261      0.00000
     22      51.8003      0.00000
     23      52.4567      0.00000
     24      59.6864      0.00000

 k-point    12 :       0.2500    0.1500    0.0500
  band No.  band energies     occupation 
      1     -41.5729      2.00000
      2     -41.4873      2.00000
      3     -41.4701      2.00000
      4       3.0379      2.00000
      5       6.6813      2.00000
      6       7.9660      2.00000
      7       8.1989      2.00000
      8       8.8508      2.00000
      9       9.8798      2.00000
     10      26.3835      0.00000
     11      27.6819      0.00000
     12      29.7772      0.00000
     13      31.0412      0.00000
     14      34.4999      0.00000
     15      36.7901      0.00000
     16      37.6352      0.00000
     17      41.1907      0.00000
     18      43.1951      0.00000
     19      46.5792      0.00000
     20      47.5005      0.00000
     21      50.7119      0.00000
     22      51.8050      0.00000
     23      53.7999      0.00000
     24      59.4658      0.00000

 k-point    13 :       0.3500    0.1500    0.0500
  band No.  band energies     occupation 
      1     -41.6721      2.00000
      2     -41.5098      2.00000
      3     -41.4865      2.00000
      4       4.1454      2.00000
      5       6.7128      2.00000
      6       7.5805      2.00000
      7       8.2100      2.00000
      8       9.6310      2.00000
      9      10.5511      2.00000
     10      22.9305      0.00000
     11      27.3084      0.00000
     12      28.9955      0.00000
     13      31.2112      0.00000
     14      35.0263      0.00000
     15      36.0414      0.00000
     16      37.9740      0.00000
     17      40.5772      0.00000
     18      46.2526      0.00000
     19      47.4034      0.00000
     20      48.2939      0.00000
     21      51.0749      0.00000
     22      51.8073      0.00000
     23      55.4498      0.00000
     24      57.4356      0.00000

[...]
     13      31.6582      0.00000
     14      36.3973      0.00000
     15      37.1469      0.00000
     16      40.8119      0.00000
     17      44.0527      0.00000
     18      45.7343      0.00000
     19      48.6853      0.00000
     20      50.3276      0.00000
     21      51.8154      0.00000
     22      52.0123      0.00000
     23      55.4011      0.00000
     24      56.1627      0.00000

 k-point   100 :      -0.3500   -0.3500    0.2500
  band No.  band energies     occupation 
      1     -41.7389      2.00000
      2     -41.6580      2.00000
      3     -41.5545      2.00000
      4       5.2124      2.00000
      5       5.9483      2.00000
      6       8.2950      2.00000
      7       9.6765      2.00000
      8      10.7857      1.99994
      9      16.4182      0.00000
     10      17.0998      0.00000
     11      20.8327      0.00000
     12      25.1811      0.00000
     13      30.2479      0.00000
     14      36.6725      0.00000
     15      37.9239      0.00000
     16      39.2268      0.00000
     17      46.2482      0.00000
     18      47.3190      0.00000
     19      47.5824      0.00000
     20      50.1451      0.00000
     21      51.1482      0.00000
     22      51.8128      0.00000
     23      54.3790      0.00000
     24      55.8536      0.00000

 k-point   101 :       0.3500    0.3500    0.3500
  band No.  band energies     occupation 
      1     -41.7399      2.00000
      2     -41.4847      2.00000
      3     -41.4847      2.00000
      4       4.0344      2.00000
      5       7.6159      2.00000
      6       7.6159      2.00000
      7       8.2202      2.00000
      8      10.2883      2.00000
      9      10.2883      2.00000
     10      20.1584      0.00000
     11      26.0999      0.00000
     12      31.2384      0.00000
     13      31.2384      0.00000
     14      35.8785      0.00000
     15      36.2369      0.00000
     16      36.2369      0.00000
     17      45.0402      0.00000
     18      45.0402      0.00000
     19      46.7561      0.00000
     20      51.2077      0.00000
     21      51.8163      0.00000
     22      52.3856      0.00000
     23      52.3856      0.00000
     24      58.1358      0.00000

 k-point   102 :       0.4500    0.3500    0.3500
  band No.  band energies     occupation 
      1     -41.7607      2.00000
      2     -41.5206      2.00000
      3     -41.4888      2.00000
      4       4.4370      2.00000
      5       7.3714      2.00000
      6       7.7473      2.00000
      7       8.2106      2.00000
      8      10.1420      2.00000
      9      11.5882      0.00000
     10      19.0671      0.00000
     11      26.0981      0.00000
     12      28.3919      0.00000
     13      31.2154      0.00000
     14      35.2912      0.00000
     15      37.7473      0.00000
     16      39.0780      0.00000
     17      42.8459      0.00000
     18      45.2668      0.00000
     19      48.3938      0.00000
     20      49.1832      0.00000
     21      51.8107      0.00000
     22      53.7056      0.00000
     23      54.2517      0.00000
     24      55.5852      0.00000

 k-point   103 :      -0.4500    0.3500    0.3500
  band No.  band energies     occupation 
      1     -41.7528      2.00000
      2     -41.5911      2.00000
      3     -41.5071      2.00000
      4       5.2640      2.00000
      5       6.8592      2.00000
      6       7.6760      2.00000
      7       8.2988      2.00000
      8      10.1078      2.00000
      9      13.3390      0.00000
     10      18.4862      0.00000
     11      24.2878      0.00000
     12      27.8197      0.00000
     13      29.8021      0.00000
     14      35.3363      0.00000
     15      37.8942      0.00000
     16      41.3910      0.00000
     17      44.1161      0.00000
     18      45.5426      0.00000
     19      47.0040      0.00000
     20      48.4484      0.00000
     21      51.8076      0.00000
     22      51.9732      0.00000
     23      55.6942      0.00000
     24      56.4425      0.00000

 k-point   104 :      -0.3500    0.3500    0.3500
  band No.  band energies     occupation 
      1     -41.7162      2.00000
      2     -41.6714      2.00000
      3     -41.5318      2.00000
      4       5.6172      2.00000
      5       6.5511      2.00000
      6       7.4620      2.00000
      7       9.0657      2.00000
      8      10.2947      2.00000
      9      14.8229      0.00000
     10      18.8545      0.00000
     11      20.9784      0.00000
     12      27.4751      0.00000
     13      29.1239      0.00000
     14      36.6952      0.00000
     15      37.6667      0.00000
     16      39.6389      0.00000
     17      46.1852      0.00000
     18      47.1417      0.00000
     19      47.3560      0.00000
     20      50.2520      0.00000
     21      50.5532      0.00000
     22      51.8129      0.00000
     23      52.3755      0.00000
     24      57.5919      0.00000

 k-point   105 :       0.4500    0.4500    0.3500
  band No.  band energies     occupation 
      1     -41.7828      2.00000
      2     -41.5112      2.00000
      3     -41.5051      2.00000
      4       4.4483      2.00000
      5       7.2545      2.00000
      6       7.7485      2.00000
      7       8.5058      2.00000
      8      10.9290      0.96857
      9      11.6811      0.00000
     10      17.8507      0.00000
     11      25.9218      0.00000
     12      28.8453      0.00000
     13      29.4824      0.00000
     14      37.1420      0.00000
     15      38.1917      0.00000
     16      39.0231      0.00000
     17      41.8704      0.00000
     18      47.0994      0.00000
     19      47.2639      0.00000
     20      49.8901      0.00000
     21      51.8101      0.00000
     22      53.5671      0.00000
     23      54.3238      0.00000
     24      55.2464      0.00000

 k-point   106 :      -0.4500    0.4500    0.3500
  band No.  band energies     occupation 
      1     -41.7766      2.00000
      2     -41.5626      2.00000
      3     -41.5153      2.00000
      4       4.9937      2.00000
      5       6.8476      2.00000
      6       7.9905      2.00000
      7       8.2174      2.00000
      8      10.7190      2.00000
      9      13.5698      0.00000
     10      17.0096      0.00000
     11      25.8921      0.00000
     12      26.5541      0.00000
     13      29.4401      0.00000
     14      36.5462      0.00000
     15      38.6056      0.00000
     16      41.2682      0.00000
     17      42.0835      0.00000
     18      45.9107      0.00000
     19      47.7076      0.00000
     20      48.8070      0.00000
     21      51.8105      0.00000
     22      52.0552      0.00000
     23      55.5021      0.00000
     24      56.8581      0.00000

 k-point   107 :      -0.3500    0.4500    0.3500
  band No.  band energies     occupation 
      1     -41.7435      2.00000
      2     -41.6319      2.00000
      3     -41.5384      2.00000
      4       5.7064      2.00000
      5       6.3782      2.00000
      6       7.4429      2.00000
      7       8.8616      2.00000
      8      10.6551      2.00000
      9      15.4547      0.00000
     10      16.9325      0.00000
     11      23.0074      0.00000
     12      25.6768      0.00000
     13      30.3477      0.00000
     14      35.9758      0.00000
     15      39.2934      0.00000
     16      40.4545      0.00000
     17      42.9631      0.00000
     18      45.0632      0.00000
     19      49.5410      0.00000
     20      50.2983      0.00000
     21      50.8931      0.00000
     22      51.8159      0.00000
     23      53.9815      0.00000
     24      56.4763      0.00000

 k-point   108 :      -0.4500   -0.4500    0.3500
  band No.  band energies     occupation 
      1     -41.7738      2.00000
      2     -41.5821      2.00000
      3     -41.5231      2.00000
      4       5.1340      2.00000
      5       6.7121      2.00000
      6       7.9603      2.00000
      7       8.3370      2.00000
      8      10.8543      1.96199
      9      14.6955      0.00000
     10      16.0965      0.00000
     11      24.9030      0.00000
     12      27.7194      0.00000
     13      28.0693      0.00000
     14      37.6769      0.00000
     15      37.9188      0.00000
     16      40.4812      0.00000
     17      43.0688      0.00000
     18      46.3767      0.00000
     19      47.7163      0.00000
     20      49.0140      0.00000
     21      51.5649      0.00000
     22      51.8108      0.00000
     23      54.8139      0.00000
     24      57.4751      0.00000

 k-point   109 :       0.4500    0.4500    0.4500
  band No.  band energies     occupation 
      1     -41.8070      2.00000
      2     -41.4953      2.00000
      3     -41.4953      2.00000
      4       4.1682      2.00000
      5       7.4420      2.00000
      6       7.4420      2.00000
      7      10.1977      2.00000
      8      10.8578      1.95172
      9      10.8578      1.95172
     10      16.9150      0.00000
     11      25.3174      0.00000
     12      29.6658      0.00000
     13      29.6658      0.00000
     14      37.8952      0.00000
     15      37.8952      0.00000
     16      38.8561      0.00000
     17      45.0451      0.00000
     18      45.0451      0.00000
     19      45.7815      0.00000
     20      51.8101      0.00000
     21      53.3837      0.00000
     22      53.3837      0.00000
     23      54.5231      0.00000
     24      55.2903      0.00000

 k-point   110 :      -0.4500    0.4500    0.4500
  band No.  band energies     occupation 
      1     -41.8042      2.00000
      2     -41.5226      2.00000
      3     -41.5023      2.00000
      4       4.4673      2.00000
      5       7.2023      2.00000
      6       7.6519      2.00000
      7       9.1804      2.00000
      8      10.8257      1.99608
      9      12.6871      0.00000
     10      16.3030      0.00000
     11      25.6546      0.00000
     12      28.2561      0.00000
     13      29.2686      0.00000
     14      37.7184      0.00000
     15      38.0444      0.00000
     16      40.3868      0.00000
     17      44.5301      0.00000
     18      45.2838      0.00000
     19      45.6035      0.00000
     20      51.1499      0.00000
     21      51.7625      0.00000
     22      51.8049      0.00000
     23      55.4575      0.00000
     24      56.0642      0.00000


--------------------------------------------------------------------------------------------------------


 soft charge-density along one line, spin component           1
         0         1         2         3         4         5         6         7         8         9
 total charge-density along one line
 
 pseudopotential strength for first ion, spin component:           1
-31.738  -0.000  -0.000  10.792   0.000   0.000  -0.000   0.000
 -0.000 -31.738  -0.000   0.000  10.792   0.000  -0.000  -0.000
 -0.000  -0.000 -31.738   0.000   0.000  10.792  -0.000  -0.000
 10.792   0.000   0.000  16.225  -0.000  -0.000   0.000  -0.000
  0.000  10.792   0.000  -0.000  16.225  -0.000   0.000   0.000
  0.000   0.000  10.792  -0.000  -0.000  16.225   0.000   0.000
 -0.000  -0.000  -0.000   0.000   0.000   0.000  -3.755   0.000
  0.000  -0.000  -0.000  -0.000   0.000   0.000   0.000  -3.755
  0.000  -0.000   0.000  -0.000   0.000  -0.000   0.000  -0.000
 -0.000   0.000   0.000   0.000   0.000  -0.000   0.000   0.000
  0.000   0.000   0.000  -0.000  -0.000   0.000  -0.000   0.000
 -0.000  -0.000  -0.000   0.000   0.000   0.000  -3.989   0.000
 -0.000  -0.000  -0.000   0.000   0.000   0.000   0.000  -3.989
  0.000  -0.000   0.000  -0.000   0.000  -0.000   0.000  -0.000
 -0.000   0.000  -0.000   0.000   0.000   0.000   0.000   0.000
  0.000   0.000   0.000  -0.000  -0.000   0.000  -0.000   0.000
  0.000   0.000   0.000   0.000   0.000   0.000   0.000   0.000
 -0.000   0.000   0.000  -0.000   0.000  -0.000  -0.000  -0.000
 total augmentation occupancy for first ion, spin component:           1
  2.002   0.000   0.000  -0.020   0.000   0.000   0.000   0.000   0.000   0.000   0.000   0.000   0.000   0.000   0.000   0.000
  0.000   2.002  -0.000   0.000  -0.020  -0.000   0.000   0.000   0.000   0.000   0.000   0.000   0.000   0.000   0.000   0.000
  0.000  -0.000   2.002   0.000  -0.000  -0.020   0.000   0.000   0.000   0.000   0.000   0.000   0.000   0.000   0.000   0.000
 -0.020  -0.000   0.000   0.045   0.000  -0.000   0.000   0.000   0.000   0.000   0.000   0.000   0.000   0.000   0.000   0.000
  0.000  -0.020  -0.000   0.000   0.045   0.000   0.000   0.000   0.000   0.000   0.000   0.000   0.000   0.000   0.000   0.000
  0.000   0.000  -0.020  -0.000   0.000   0.045   0.000   0.000   0.000   0.000   0.000   0.000   0.000   0.000   0.000   0.000
  0.000   0.000   0.000   0.000   0.000   0.000   4.837  -0.000  -0.000  -0.000  -0.000  -2.617  -0.000   0.000   0.000  -0.000
  0.000   0.000   0.000   0.000   0.000   0.000   0.000   4.837   0.000  -0.000  -0.000  -0.000  -2.617  -0.000   0.000   0.000
  0.000   0.000   0.000   0.000   0.000   0.000  -0.000   0.000   3.984  -0.000   0.000   0.000  -0.000  -2.059  -0.000  -0.000
  0.000   0.000   0.000   0.000   0.000   0.000  -0.000  -0.000   0.000   4.837  -0.000   0.000   0.000   0.000  -2.617   0.000
  0.000   0.000   0.000   0.000   0.000   0.000  -0.000  -0.000   0.000  -0.000   3.984  -0.000   0.000  -0.000   0.000  -2.059
  0.000   0.000   0.000   0.000   0.000   0.000  -2.617  -0.000   0.000   0.000  -0.000   2.120   0.000   0.000  -0.000  -0.000
  0.000   0.000   0.000   0.000   0.000   0.000  -0.000  -2.617  -0.000   0.000   0.000   0.000   2.120  -0.000   0.000  -0.000
  0.000   0.000   0.000   0.000   0.000   0.000   0.000  -0.000  -2.059   0.000  -0.000  -0.000  -0.000   1.976  -0.000   0.000
  0.000   0.000   0.000   0.000   0.000   0.000   0.000   0.000   0.000  -2.617   0.000  -0.000   0.000  -0.000   2.120   0.000
  0.000   0.000   0.000   0.000   0.000   0.000   0.000   0.000  -0.000   0.000  -2.059  -0.000   0.000   0.000   0.000   1.976
  0.000   0.000   0.000   0.000   0.000   0.000   0.000   0.000  -0.000   0.000   0.000  -0.000   0.000   0.000   0.000   0.000
  0.000   0.000   0.000   0.000   0.000   0.000   0.000   0.000  -0.000   0.000   0.000  -0.000  -0.000   0.000   0.000  -0.000


------------------------ aborting loop because EDIFF is reached ----------------------------------------





 total charge

# of ion       s       p       d       tot
------------------------------------------
    1        0.331   6.071   7.057  13.460
 
    CHARGE:  cpu time      0.0174: real time      0.0174
    FORLOC:  cpu time      0.0001: real time      0.0001
    FORNL :  cpu time      0.0063: real time      0.0063
    STRESS:  cpu time      0.1211: real time      0.1216
    FORCOR:  cpu time      0.0020: real time      0.0020
    FORHAR:  cpu time      0.0004: real time      0.0004
    MIXING:  cpu time      0.0002: real time      0.0002
    OFIELD:  cpu time      0.0000: real time      0.0000

  FORCE on cell =-STRESS in cart. coord.  units (eV):
  Direction    XX          YY          ZZ          XY          YZ          ZX
  --------------------------------------------------------------------------------------
  Alpha Z   149.82344   149.82344   149.82344
  Ewald    -704.01465  -704.01465  -704.01465    -0.00000     0.00000     0.00000
  Hartree   131.22016   131.22016   131.22016     0.00000     0.00000     0.00000
  E(xc)     -85.34621   -85.34621   -85.34621     0.00000     0.00000     0.00000
  Local     116.34729   116.34729   116.34729    -0.00000    -0.00000    -0.00000
  n-local   -30.86309   -28.33912   -33.60750     3.23477    -3.01616     0.17507
  augment    73.33846    73.33846    73.33846     0.00001     0.00001     0.00001
  Kinetic   348.02942   352.98475   345.35140     4.32283    -3.61081    -0.52646
  Fock        0.00000     0.00000     0.00000     0.00000     0.00000     0.00000
  -------------------------------------------------------------------------------------
  Total      -0.77957    -0.77957    -0.77957     0.00000    -0.00000     0.00000
  in kB     -77.99310   -77.99310   -77.99310     0.00000    -0.00000     0.00000
  external pressure =      -77.99 kB  Pullay stress =        0.00 kB


 VOLUME and BASIS-vectors are now :
 -----------------------------------------------------------------------------
  energy-cutoff  :      425.00
  volume of cell :       16.01
      direct lattice vectors                 reciprocal lattice vectors
     0.000000000  2.000595960  2.000595960    -0.249925527  0.249925527  0.249925527
     2.000595960  0.000000000  2.000595960     0.249925527 -0.249925527  0.249925527
     2.000595960  2.000595960  0.000000000     0.249925527  0.249925527 -0.249925527

  length of vectors
     2.829269940  2.829269940  2.829269940     0.432883711  0.432883711  0.432883711


 FORCES acting on ions
    electron-ion (+dipol)            ewald-force                    non-local-force                 convergence-correction
 -----------------------------------------------------------------------------------------------
   -.590E-14 -.618E-14 0.319E-15   0.236E-14 0.202E-14 0.634E-15   -.258E-25 -.388E-25 0.258E-25   -.427E-13 -.109E-12 -.328E-13
 -----------------------------------------------------------------------------------------------
   -.590E-14 -.618E-14 0.319E-15   0.236E-14 0.202E-14 0.634E-15   -.258E-25 -.388E-25 0.258E-25   -.427E-13 -.109E-12 -.328E-13
 
 
 POSITION                                       TOTAL-FORCE (eV/Angst)
 -----------------------------------------------------------------------------------
      0.00000      0.00000      0.00000         0.000000     -0.000000      0.000000
 -----------------------------------------------------------------------------------
    total drift:                               -0.000000     -0.000000     -0.000000


--------------------------------------------------------------------------------------------------------



  FREE ENERGIE OF THE ION-ELECTRON SYSTEM (eV)
  ---------------------------------------------------
  free  energy   TOTEN  =        -6.07639019 eV

  energy  without entropy=       -6.07372831  energy(sigma->0) =       -6.07505925
 


--------------------------------------------------------------------------------------------------------


    POTLOK:  cpu time      0.0043: real time      0.0043


--------------------------------------------------------------------------------------------------------




--------------------------------------------------------------------------------------------------------


  
 reached required accuracy - stopping structural energy minimisation
 writing wavefunctions
     LOOP+:  cpu time      7.5440: real time      7.6778
    4ORBIT:  cpu time      0.0000: real time      0.0000



 total charge

# of ion       s       p       d       tot
------------------------------------------
    1        0.331   6.071   7.057  13.460
 

 total amount of memory used by VASP MPI-rank0    36607. kBytes
=======================================================================

   base      :      30000. kBytes
   nonl-proj :       5327. kBytes
   fftplans  :        147. kBytes
   grid      :        485. kBytes
   one-center:         15. kBytes
   wavefun   :        633. kBytes
 
  
  
 General timing and accounting informations for this job:
 ========================================================
  
                  Total CPU time used (sec):        8.687
                            User time (sec):        8.197
                          System time (sec):        0.491
                         Elapsed time (sec):       10.415
  
                   Maximum memory used (kb):      221212.
                   Average memory used (kb):          N/A
  
                          Minor page faults:        26832
                          Major page faults:           82
                 Voluntary context switches:         2212
