Co-fcc                                  
   1.00000000000000     
     0.000000    1.744467    1.744467
     1.744467    0.000000    1.744467
     1.744467    1.744467    0.000000
   Co
     1
Direct
  0.000000  0.000000  0.000000
 
   32   32   32
  100.61      98.406      92.099      82.508      70.772      58.104      45.600      34.131      24.314      16.518    
  10.864      7.2223      5.2251      4.3265      3.9170      3.6767      3.5966      3.6767      3.9170      4.3265    
  5.2251      7.2223      10.864      16.518      24.314      34.131      45.600      58.104      70.772      82.508    
  92.099      98.406      98.406      94.153      86.214      75.579      63.430      50.922      39.032      28.498    
  19.806      13.201      8.6772      5.9806      4.6454      4.0777      3.7626      3.6041      3.6041      3.7626    
  4.0777      4.6454      5.9806      8.6772      13.201      19.806      28.498      39.032      50.922      63.430    
  75.579      86.214      94.153      98.406      92.099      86.214      77.254      66.271      54.397      42.663    
  31.900      22.701      15.426      10.186      6.8479      5.0451      4.2415      3.8550      3.6251      3.5486    
  3.6251      3.8550      4.2415      5.0451      6.8479      10.186      15.426      22.701      31.900      42.663    
  54.397      66.271      77.254      86.214      92.099      94.153      82.508      75.579      66.271      55.606    
  44.597      34.123      24.859      17.263      11.555      7.7180      5.4920      4.4221      3.9457      3.6557    
  3.5112      3.5112      3.6557      3.9457      4.4221      5.4920      7.7180      11.555      17.263      24.859    
  34.123      44.597      55.606      66.271      75.579      82.508      86.214      86.214      70.772      63.430    
  54.397      44.597      34.896      26.012      18.474      12.596      8.4630      5.9224      4.6116      4.0269    
  3.6905      3.4898      3.4237      3.4898      3.6905      4.0269      4.6116      5.9224      8.4630      12.596    
  18.474      26.012      34.896      44.597      54.397      63.430      70.772      75.579      77.254      75.579    
  58.104      50.922      42.663      34.123      26.012      18.897      13.158      8.9651      6.2630      4.7829    
  4.0954      3.7238      3.4804      3.3613      3.3613      3.4804      3.7238      4.0954      4.7829      6.2630    
  8.9651      13.158      18.897      26.012      34.123      42.663      50.922      58.104      63.430      66.271    
  66.271      63.430      45.600      39.032      31.900      24.859      18.474      13.158      9.1423      6.4512    
  4.9032      4.1482      3.7508      3.4785      3.3203      3.2688      3.3203      3.4785      3.7508      4.1482    
  4.9032      6.4512      9.1423      13.158      18.474      24.859      31.900      39.032      45.600      50.922    
  54.397      55.606      54.397      50.922      34.131      28.498      22.701      17.263      12.596      8.9651    
  6.4512      4.9465      4.1775      3.7683      3.4797      3.2958      3.2076      3.2076      3.2958      3.4797    
  3.7683      4.1775      4.9465      6.4512      8.9651      12.596      17.263      22.701      28.498      34.131    
  39.032      42.663      44.597      44.597      42.663      39.032      24.314      19.806      15.426      11.555    
  8.4630      6.2630      4.9032      4.1775      3.7743      3.4812      3.2832      3.1714      3.1355      3.1714    
  3.2832      3.4812      3.7743      4.1775      4.9032      6.2630      8.4630      11.555      15.426      19.806    
  24.314      28.498      31.900      34.123      34.896      34.123      31.900      28.498      16.518      13.201    
  10.186      7.7180      5.9224      4.7829      4.1482      3.7683      3.4812      3.2794      3.1548      3.0962    
  3.0962      3.1548      3.2794      3.4812      3.7683      4.1482      4.7829      5.9224      7.7180      10.186    
  13.201      16.518      19.806      22.701      24.859      26.012      26.012      24.859      22.701      19.806    
  10.864      8.6772      6.8479      5.4920      4.6116      4.0954      3.7508      3.4797      3.2832      3.1548    
  3.0839      3.0614      3.0839      3.1548      3.2832      3.4797      3.7508      4.0954      4.6116      5.4920    
  6.8479      8.6772      10.864      13.201      15.426      17.263      18.474      18.897      18.474      17.263    
  15.426      13.201      7.2223      5.9806      5.0451      4.4221      4.0269      3.7238      3.4785      3.2958    
  3.1714      3.0962      3.0614      3.0614      3.0962      3.1714      3.2958      3.4785      3.7238      4.0269    
  4.4221      5.0451      5.9806      7.2223      8.6772      10.186      11.555      12.596      13.158      13.158    
  12.596      11.555      10.186      8.6772      5.2251      4.6454      4.2415      3.9457      3.6905      3.4804    
  3.3203      3.2076      3.1355      3.0962      3.0839      3.0962      3.1355      3.2076      3.3203      3.4804    
  3.6905      3.9457      4.2415      4.6454      5.2251      5.9806      6.8479      7.7180      8.4630      8.9651    
  9.1423      8.9651      8.4630      7.7180      6.8479      5.9806      4.3265      4.0777      3.8550      3.6557    
  3.4898      3.3613      3.2688      3.2076      3.1714      3.1548      3.1548      3.1714      3.2076      3.2688    
  3.3613      3.4898      3.6557      3.8550      4.0777      4.3265      4.6454      5.0451      5.4920      5.9224    
  6.2630      6.4512      6.4512      6.2630      5.9224      5.4920      5.0451      4.6454      3.9170      3.7626    
  3.6251      3.5112      3.4237      3.3613      3.3203      3.2958      3.2832      3.2794      3.2832      3.2958    
  3.3203      3.3613      3.4237      3.5112      3.6251      3.7626      3.9170      4.0777      4.2415      4.4221    
  4.6116      4.7829      4.9032      4.9465      4.9032      4.7829      4.6116      4.4221      4.2415      4.0777    
  3.6767      3.6041      3.5486      3.5112      3.4898      3.4804      3.4785      3.4797      3.4812      3.4812    
  3.4797      3.4785      3.4804      3.4898      3.5112      3.5486      3.6041      3.6767      3.7626      3.8550    
  3.9457      4.0269      4.0954      4.1482      4.1775      4.1775      4.1482      4.0954      4.0269      3.9457    
  3.8550      3.7626      3.5966      3.6041      3.6251      3.6557      3.6905      3.7238      3.7508      3.7683    
  3.7743      3.7683      3.7508      3.7238      3.6905      3.6557      3.6251      3.6041      3.5966      3.6041    
  3.6251      3.6557      3.6905      3.7238      3.7508      3.7683      3.7743      3.7683      3.7508      3.7238    
  3.6905      3.6557      3.6251      3.6041      3.6767      3.7626      3.8550      3.9457      4.0269      4.0954    
  4.1482      4.1775      4.1775      4.1482      4.0954      4.0269      3.9457      3.8550      3.7626      3.6767    
  3.6041      3.5486      3.5112      3.4898      3.4804      3.4785      3.4797      3.4812      3.4812      3.4797    
  3.4785      3.4804      3.4898      3.5112      3.5486      3.6041      3.9170      4.0777      4.2415      4.4221    
  4.6116      4.7829      4.9032      4.9465      4.9032      4.7829      4.6116      4.4221      4.2415      4.0777    
  3.9170      3.7626      3.6251      3.5112      3.4237      3.3613      3.3203      3.2958      3.2832      3.2794    
  3.2832      3.2958      3.3203      3.3613      3.4237      3.5112      3.6251      3.7626      4.3265      4.6454    
  5.0451      5.4920      5.9224      6.2630      6.4512      6.4512      6.2630      5.9224      5.4920      5.0451    
  4.6454      4.3265      4.0777      3.8550      3.6557      3.4898      3.3613      3.2688      3.2076      3.1714    
  3.1548      3.1548      3.1714      3.2076      3.2688      3.3613      3.4898      3.6557      3.8550      4.0777    
  5.2251      5.9806      6.8479      7.7180      8.4630      8.9651      9.1423      8.9651      8.4630      7.7180    
  6.8479      5.9806      5.2251      4.6454      4.2415      3.9457      3.6905      3.4804      3.3203      3.2076    
  3.1355      3.0962      3.0839      3.0962      3.1355      3.2076      3.3203      3.4804      3.6905      3.9457    
  4.2415      4.6454      7.2223      8.6772      10.186      11.555      12.596      13.158      13.158      12.596    
  11.555      10.186      8.6772      7.2223      5.9806      5.0451      4.4221      4.0269      3.7238      3.4785    
  3.2958      3.1714      3.0962      3.0614      3.0614      3.0962      3.1714      3.2958      3.4785      3.7238    
  4.0269      4.4221      5.0451      5.9806      10.864      13.201      15.426      17.263      18.474      18.897    
  18.474      17.263      15.426      13.201      10.864      8.6772      6.8479      5.4920      4.6116      4.0954    
  3.7508      3.4797      3.2832      3.1548      3.0839      3.0614      3.0839      3.1548      3.2832      3.4797    
  3.7508      4.0954      4.6116      5.4920      6.8479      8.6772      16.518      19.806      22.701      24.859    
  26.012      26.012      24.859      22.701      19.806      16.518      13.201      10.186      7.7180      5.9224    
  4.7829      4.1482      3.7683      3.4812      3.2794      3.1548      3.0962      3.0962      3.1548      3.2794    
  3.4812      3.7683      4.1482      4.7829      5.9224      7.7180      10.186      13.201      24.314      28.498    
  31.900      34.123      34.896      34.123      31.900      28.498      24.314      19.806      15.426      11.555    
  8.4630      6.2630      4.9032      4.1775      3.7743      3.4812      3.2832      3.1714      3.1355      3.1714    
  3.2832      3.4812      3.7743      4.1775      4.9032      6.2630      8.4630      11.555      15.426      19.806    
  34.131      39.032      42.663      44.597      44.597      42.663      39.032      34.131      28.498      22.701    
  17.263      12.596      8.9651      6.4512      4.9465      4.1775      3.7683      3.4797      3.2958      3.2076    
  3.2076      3.2958      3.4797      3.7683      4.1775      4.9465      6.4512      8.9651      12.596      17.263    
  22.701      28.498      45.600      50.922      54.397      55.606      54.397      50.922      45.600      39.032    
  31.900      24.859      18.474      13.158      9.1423      6.4512      4.9032      4.1482      3.7508      3.4785    
  3.3203      3.2688      3.3203      3.4785      3.7508      4.1482      4.9032      6.4512      9.1423      13.158    
  18.474      24.859      31.900      39.032      58.104      63.430      66.271      66.271      63.430      58.104    
  50.922      42.663      34.123      26.012      18.897      13.158      8.9651      6.2630      4.7829      4.0954    
  3.7238      3.4804      3.3613      3.3613      3.4804      3.7238      4.0954      4.7829      6.2630      8.9651    
  13.158      18.897      26.012      34.123      42.663      50.922      70.772      75.579      77.254      75.579    
  70.772      63.430      54.397      44.597      34.896      26.012      18.474      12.596      8.4630      5.9224    
  4.6116      4.0269      3.6905      3.4898      3.4237      3.4898      3.6905      4.0269      4.6116      5.9224    
  8.4630      12.596      18.474      26.012      34.896      44.597      54.397      63.430      82.508      86.214    
  86.214      82.508      75.579      66.271      55.606      44.597      34.123      24.859      17.263      11.555    
  7.7180      5.4920      4.4221      3.9457      3.6557      3.5112      3.5112      3.6557      3.9457      4.4221    
  5.4920      7.7180      11.555      17.263      24.859      34.123      44.597      55.606      66.271      75.579    
  92.099      94.153      92.099      86.214      77.254      66.271      54.397      42.663      31.900      22.701    
  15.426      10.186      6.8479      5.0451      4.2415      3.8550      3.6251      3.5486      3.6251      3.8550    
  4.2415      5.0451      6.8479      10.186      15.426      22.701      31.900      42.663      54.397      66.271    
  77.254      86.214      98.406      98.406      94.153      86.214      75.579      63.430      50.922      39.032    
  28.498      19.806      13.201      8.6772      5.9806      4.6454      4.0777      3.7626      3.6041      3.6041    
  3.7626      4.0777      4.6454      5.9806      8.6772      13.201      19.806      28.498      39.032      50.922    
  63.430      75.579      86.214      94.153      98.406      94.153      86.214      75.579      63.430      50.922    
  39.032      28.498      19.806      13.201      8.6772      5.9806      4.6454      4.0777      3.7626      3.6041    
  3.6041      3.7626      4.0777      4.6454      5.9806      8.6772      13.201      19.806      28.498      39.032    
  50.922      63.430      75.579      86.214      94.153      98.406      94.153      88.139      78.983      67.765    
  55.639      43.655      32.659      23.253      15.800      10.419      6.9783      5.1103      4.2753      3.8811    
  3.6475      3.5697      3.6474      3.8811      4.2753      5.1103      6.9783      10.419      15.800      23.253    
  32.659      43.655      55.639      67.765      78.983      88.139      94.153      96.252      86.214      78.983    
  69.275      58.154      46.676      35.749      26.070      18.111      12.105      8.0394      5.6589      4.5039    
  3.9996      3.7007      3.5513      3.5513      3.7007      3.9996      4.5039      5.6589      8.0394      12.105    
  18.111      26.070      35.749      46.676      58.154      69.275      78.983      86.214      90.082      90.082    
  75.579      67.765      58.154      47.727      37.397      27.918      19.845      13.513      9.0205      6.2239    
  4.7591      4.1098      3.7578      3.5470      3.4773      3.5470      3.7578      4.1098      4.7591      6.2239    
  9.0205      13.513      19.845      27.918      37.397      47.727      58.154      67.765      75.579      80.697    
  82.481      80.697      63.430      55.639      46.676      37.397      28.561      20.775      14.448      9.7754    
  6.7174      5.0095      4.2118      3.8121      3.5529      3.4253      3.4253      3.5529      3.8121      4.2118    
  5.0095      6.7174      9.7754      14.448      20.775      28.561      37.397      46.676      55.639      63.430    
  69.209      72.292      72.292      69.209      50.922      43.655      35.749      27.918      20.775      14.776    
  10.186      7.0544      5.2112      4.3005      3.8578      3.5640      3.3920      3.3358      3.3920      3.5640    
  3.8578      4.3005      5.2112      7.0544      10.186      14.776      20.775      27.918      35.749      43.655    
  50.922      56.807      60.648      61.984      60.648      56.807      39.032      32.659      26.070      19.845    
  14.448      10.186      7.1740      5.3239      4.3623      3.8905      3.5757      3.3728      3.2749      3.2749    
  3.3728      3.5757      3.8905      4.3623      5.3239      7.1740      10.186      14.448      19.845      26.070    
  32.659      39.032      44.564      48.656      50.834      50.834      48.656      44.564      28.498      23.253    
  18.111      13.513      9.7754      7.0544      5.3239      4.3846      3.9074      3.5842      3.3632      3.2373    
  3.1968      3.2373      3.3632      3.5842      3.9074      4.3846      5.3239      7.0544      9.7754      13.513    
  18.111      23.253      28.498      33.338      37.260      39.817      40.706      39.817      37.260      33.338    
  19.806      15.800      12.105      9.0205      6.7174      5.2112      4.3623      3.9074      3.5873      3.3593    
  3.2174      3.1503      3.1503      3.2174      3.3593      3.5873      3.9074      4.3623      5.2112      6.7174    
  9.0205      12.105      15.800      19.806      23.738      27.174      29.725      31.084      31.084      29.725    
  27.174      23.738      13.201      10.419      8.0394      6.2239      5.0095      4.3005      3.8905      3.5842    
  3.3593      3.2112      3.1290      3.1028      3.1290      3.2112      3.3593      3.5842      3.8905      4.3005    
  5.0095      6.2239      8.0394      10.419      13.201      16.125      18.874      21.126      22.603      23.117    
  22.603      21.126      18.874      16.125      8.6772      6.9783      5.6589      4.7591      4.2118      3.8578    
  3.5757      3.3632      3.2174      3.1290      3.0879      3.0879      3.1290      3.2174      3.3632      3.5757    
  3.8578      4.2118      4.7591      5.6589      6.9783      8.6772      10.618      12.592      14.359      15.690    
  16.404      16.404      15.690      14.359      12.592      10.618      5.9806      5.1103      4.5039      4.1098    
  3.8121      3.5640      3.3728      3.2373      3.1503      3.1028      3.0879      3.1028      3.1503      3.2373    
  3.3728      3.5640      3.8121      4.1098      4.5039      5.1103      5.9806      7.0836      8.3156      9.5250    
  10.545      11.225      11.464      11.225      10.545      9.5250      8.3156      7.0836      4.6454      4.2753    
  3.9996      3.7578      3.5529      3.3920      3.2749      3.1968      3.1503      3.1290      3.1290      3.1503    
  3.1968      3.2749      3.3920      3.5529      3.7578      3.9996      4.2753      4.6454      5.1553      5.7896    
  6.4813      7.1326      7.6397      7.9171      7.9171      7.6397      7.1326      6.4813      5.7896      5.1553    
  4.0777      3.8811      3.7007      3.5470      3.4253      3.3358      3.2749      3.2373      3.2174      3.2112    
  3.2174      3.2373      3.2749      3.3358      3.4253      3.5470      3.7007      3.8811      4.0777      4.2907    
  4.5518      4.8628      5.1908      5.4834      5.6859      5.7583      5.6859      5.4834      5.1908      4.8628    
  4.5518      4.2907      3.7626      3.6475      3.5513      3.4773      3.4253      3.3920      3.3728      3.3632    
  3.3593      3.3593      3.3632      3.3728      3.3920      3.4253      3.4773      3.5513      3.6475      3.7626    
  3.8899      4.0197      4.1453      4.2730      4.3969      4.4977      4.5547      4.5547      4.4977      4.3969    
  4.2730      4.1453      4.0197      3.8899      3.6041      3.5697      3.5513      3.5470      3.5529      3.5640    
  3.5757      3.5842      3.5873      3.5842      3.5757      3.5640      3.5529      3.5470      3.5513      3.5697    
  3.6041      3.6534      3.7139      3.7792      3.8426      3.8976      3.9396      3.9665      3.9759      3.9665    
  3.9396      3.8976      3.8426      3.7792      3.7139      3.6534      3.6041      3.6474      3.7007      3.7578    
  3.8121      3.8578      3.8905      3.9074      3.9074      3.8905      3.8578      3.8121      3.7578      3.7007    
  3.6475      3.6041      3.5746      3.5604      3.5601      3.5698      3.5849      3.6006      3.6131      3.6200    
  3.6200      3.6131      3.6006      3.5849      3.5698      3.5601      3.5604      3.5746      3.7626      3.8811    
  3.9996      4.1098      4.2118      4.3005      4.3623      4.3846      4.3623      4.3005      4.2118      4.1098    
  3.9996      3.8811      3.7626      3.6534      3.5604      3.4874      3.4348      3.4001      3.3795      3.3686    
  3.3636      3.3623      3.3636      3.3686      3.3795      3.4001      3.4348      3.4874      3.5604      3.6534    
  4.0777      4.2753      4.5039      4.7591      5.0095      5.2112      5.3239      5.3239      5.2112      5.0095    
  4.7591      4.5039      4.2753      4.0777      3.8899      3.7139      3.5601      3.4348      3.3395      3.2721    
  3.2280      3.2022      3.1905      3.1905      3.2022      3.2280      3.2721      3.3395      3.4348      3.5601    
  3.7139      3.8899      4.6454      5.1103      5.6589      6.2239      6.7174      7.0544      7.1740      7.0544    
  6.7174      6.2239      5.6589      5.1103      4.6454      4.2907      4.0197      3.7792      3.5698      3.4001    
  3.2721      3.1826      3.1254      3.0944      3.0846      3.0944      3.1255      3.1826      3.2721      3.4001    
  3.5698      3.7792      4.0197      4.2907      5.9806      6.9783      8.0394      9.0205      9.7754      10.186    
  10.186      9.7754      9.0205      8.0394      6.9783      5.9806      5.1553      4.5518      4.1453      3.8426    
  3.5849      3.3795      3.2280      3.1254      3.0637      3.0351      3.0351      3.0637      3.1254      3.2280    
  3.3795      3.5849      3.8426      4.1453      4.5518      5.1553      8.6772      10.419      12.105      13.513    
  14.448      14.776      14.448      13.513      12.105      10.419      8.6772      7.0836      5.7896      4.8628    
  4.2730      3.8976      3.6006      3.3686      3.2022      3.0944      3.0351      3.0163      3.0351      3.0944    
  3.2022      3.3686      3.6006      3.8976      4.2730      4.8628      5.7896      7.0836      13.201      15.800    
  18.111      19.845      20.775      20.775      19.845      18.111      15.800      13.201      10.618      8.3156    
  6.4813      5.1908      4.3969      3.9396      3.6131      3.3636      3.1905      3.0846      3.0351      3.0351    
  3.0846      3.1905      3.3636      3.6131      3.9396      4.3969      5.1908      6.4813      8.3156      10.618    
  19.806      23.253      26.070      27.918      28.561      27.918      26.070      23.253      19.806      16.125    
  12.592      9.5250      7.1326      5.4834      4.4977      3.9665      3.6200      3.3623      3.1905      3.0944    
  3.0637      3.0944      3.1905      3.3623      3.6200      3.9665      4.4977      5.4834      7.1326      9.5250    
  12.592      16.125      28.498      32.659      35.749      37.397      37.397      35.749      32.659      28.498    
  23.738      18.874      14.359      10.545      7.6397      5.6859      4.5547      3.9759      3.6200      3.3636    
  3.2022      3.1255      3.1254      3.2022      3.3636      3.6200      3.9759      4.5547      5.6859      7.6397    
  10.545      14.359      18.874      23.738      39.032      43.655      46.676      47.727      46.676      43.655    
  39.032      33.338      27.174      21.126      15.690      11.225      7.9171      5.7583      4.5547      3.9665    
  3.6131      3.3686      3.2280      3.1826      3.2280      3.3686      3.6131      3.9665      4.5547      5.7583    
  7.9171      11.225      15.690      21.126      27.174      33.338      50.922      55.639      58.154      58.154    
  55.639      50.922      44.564      37.260      29.725      22.603      16.404      11.464      7.9171      5.6859    
  4.4977      3.9396      3.6006      3.3795      3.2721      3.2721      3.3795      3.6006      3.9396      4.4977    
  5.6859      7.9171      11.464      16.404      22.603      29.725      37.260      44.564      63.430      67.765    
  69.275      67.765      63.430      56.807      48.656      39.817      31.084      23.117      16.404      11.225    
  7.6397      5.4834      4.3969      3.8976      3.5849      3.4001      3.3395      3.4001      3.5849      3.8976    
  4.3969      5.4834      7.6397      11.225      16.404      23.117      31.084      39.817      48.656      56.807    
  75.579      78.983      78.983      75.579      69.209      60.648      50.834      40.706      31.084      22.603    
  15.690      10.545      7.1326      5.1908      4.2730      3.8426      3.5698      3.4348      3.4348      3.5698    
  3.8426      4.2730      5.1908      7.1326      10.545      15.690      22.603      31.084      40.706      50.834    
  60.648      69.209      86.214      88.139      86.214      80.697      72.292      61.984      50.834      39.817    
  29.725      21.126      14.359      9.5250      6.4813      4.8628      4.1453      3.7792      3.5601      3.4874    
  3.5601      3.7792      4.1453      4.8628      6.4813      9.5250      14.359      21.126      29.725      39.817    
  50.834      61.984      72.292      80.697      94.153      94.153      90.082      82.481      72.292      60.648    
  48.656      37.260      27.174      18.874      12.592      8.3156      5.7896      4.5518      4.0197      3.7139    
  3.5604      3.5604      3.7139      4.0197      4.5518      5.7896      8.3156      12.592      18.874      27.174    
  37.260      48.656      60.648      72.292      82.481      90.082      98.406      96.252      90.082      80.697    
  69.209      56.807      44.564      33.338      23.738      16.125      10.618      7.0836      5.1553      4.2907    
  3.8899      3.6534      3.5746      3.6534      3.8899      4.2907      5.1553      7.0836      10.618      16.125    
  23.738      33.338      44.564      56.807      69.209      80.697      90.082      96.252      92.099      86.214    
  77.254      66.271      54.397      42.663      31.900      22.701      15.426      10.186      6.8479      5.0451    
  4.2415      3.8550      3.6251      3.5486      3.6251      3.8550      4.2415      5.0451      6.8479      10.186    
  15.426      22.701      31.900      42.663      54.397      66.271      77.254      86.214      92.099      94.153    
  86.214      78.983      69.275      58.154      46.676      35.749      26.070      18.111      12.105      8.0394    
  5.6589      4.5039      3.9996      3.7007      3.5513      3.5513      3.7007      3.9996      4.5039      5.6589    
  8.0394      12.105      18.111      26.070      35.749      46.676      58.154      69.275      78.983      86.214    
  90.082      90.082      77.254      69.275      59.462      48.817      38.268      28.583      20.325      13.835    
  9.2178      6.3314      4.8118      4.1386      3.7809      3.5666      3.4958      3.5666      3.7809      4.1386    
  4.8118      6.3314      9.2178      13.835      20.325      28.583      38.268      48.817      59.462      69.275    
  77.254      82.481      84.303      82.481      66.271      58.154      48.817      39.146      29.927      21.784    
  15.146      10.217      6.9680      5.1353      4.2748      3.8583      3.5908      3.4587      3.4587      3.5908    
  3.8583      4.2748      5.1353      6.9680      10.217      15.146      21.784      29.927      39.146      48.817    
  58.154      66.271      72.292      75.505      75.505      72.292      54.397      46.676      38.268      29.927    
  22.294      15.852      10.888      7.4658      5.4240      4.4037      3.9257      3.6184      3.4375      3.3782    
  3.4375      3.6184      3.9257      4.4037      5.4240      7.4658      10.888      15.852      22.294      29.927    
  38.268      46.676      54.397      60.648      64.728      66.147      64.728      60.648      42.663      35.749    
  28.583      21.784      15.852      11.124      7.7391      5.6241      4.5073      3.9775      3.6442      3.4277    
  3.3228      3.3228      3.4277      3.6442      3.9775      4.5073      5.6241      7.7391      11.124      15.852    
  21.784      28.583      35.749      42.663      48.656      53.086      55.443      55.443      53.086      48.656    
  31.900      26.070      20.325      15.146      10.888      7.7391      5.6957      4.5655      4.0101      3.6639    
  3.4249      3.2879      3.2437      3.2879      3.4249      3.6639      4.0101      4.5655      5.6957      7.7391    
  10.888      15.146      20.325      26.070      31.900      37.260      41.593      44.416      45.396      44.416    
  41.593      37.260      22.701      18.111      13.835      10.217      7.4658      5.6241      4.5655      4.0214    
  3.6745      3.4249      3.2683      3.1939      3.1939      3.2683      3.4249      3.6745      4.0214      4.5655    
  5.6241      7.4658      10.217      13.835      18.111      22.701      27.174      31.067      33.947      35.479    
  35.479      33.947      31.067      27.174      15.426      12.105      9.2178      6.9680      5.4240      4.5073    
  4.0101      3.6745      3.4252      3.2597      3.1673      3.1378      3.1673      3.2597      3.4252      3.6745    
  4.0101      4.5073      5.4240      6.9680      9.2178      12.105      15.426      18.874      22.089      24.708    
  26.419      27.014      26.419      24.708      22.089      18.874      10.186      8.0394      6.3314      5.1353    
  4.4037      3.9775      3.6639      3.4249      3.2597      3.1590      3.1120      3.1120      3.1590      3.2597    
  3.4249      3.6639      3.9775      4.4037      5.1353      6.3314      8.0394      10.186      12.592      15.005    
  17.144      18.743      19.599      19.599      18.743      17.144      15.005      12.592      6.8479      5.6589    
  4.8118      4.2748      3.9257      3.6442      3.4249      3.2683      3.1673      3.1120      3.0946      3.1120    
  3.1673      3.2683      3.4249      3.6442      3.9257      4.2748      4.8118      5.6589      6.8479      8.3156    
  9.9195      11.468      12.759      13.615      13.914      13.615      12.759      11.468      9.9195      8.3156    
  5.0451      4.5039      4.1386      3.8583      3.6184      3.4277      3.2879      3.1939      3.1378      3.1120    
  3.1120      3.1378      3.1939      3.2879      3.4277      3.6184      3.8583      4.1386      4.5039      5.0451    
  5.7896      6.6932      7.6555      8.5450      9.2287      9.6000      9.6000      9.2287      8.5450      7.6555    
  6.6932      5.7896      4.2415      3.9996      3.7809      3.5908      3.4375      3.3228      3.2437      3.1939    
  3.1673      3.1590      3.1673      3.1939      3.2437      3.3228      3.4375      3.5908      3.7809      3.9996    