   1   1   1   0
  0.1061740E+02  0.2467049E-09  0.2467049E-09  0.2467049E-09  0.5000000E-15
  1.000000000000000E-004
  CAR 
 Co-fcc                                  
     53.77153494     -0.79543309  301     10.63693612      1.00000000
     -0.795  0.0000E+00  0.0000E+00  0.0000E+00  0.0000E+00
     -0.614  0.0000E+00  0.0000E+00  0.0000E+00  0.0000E+00
     -0.432  0.0000E+00  0.0000E+00  0.0000E+00  0.0000E+00
     -0.250  0.0000E+00  0.0000E+00  0.0000E+00  0.0000E+00
     -0.068  0.0000E+00  0.0000E+00  0.0000E+00  0.0000E+00
      0.114  0.0000E+00  0.0000E+00  0.0000E+00  0.0000E+00
      0.296  0.0000E+00  0.0000E+00  0.0000E+00  0.0000E+00
      0.478  0.0000E+00  0.0000E+00  0.0000E+00  0.0000E+00
      0.660  0.0000E+00  0.0000E+00  0.0000E+00  0.0000E+00
      0.842  0.0000E+00  0.0000E+00  0.0000E+00  0.0000E+00
      1.023  0.0000E+00  0.0000E+00  0.0000E+00  0.0000E+00
      1.205  0.0000E+00  0.0000E+00  0.0000E+00  0.0000E+00
      1.387  0.0000E+00  0.0000E+00  0.0000E+00  0.0000E+00
      1.569  0.1139E-06  0.6943E-07  0.2072E-07  0.1263E-07
      1.751  0.2081E-03  0.2058E-03  0.3786E-04  0.3744E-04
      1.933  0.6592E-05  0.8917E-05  0.3906E-04  0.3906E-04
      2.115  0.4378E-03  0.3876E-03  0.1187E-03  0.1096E-03
      2.297  0.2065E-03  0.2567E-03  0.1562E-03  0.1562E-03
      2.479  0.1892E-03  0.1206E-03  0.1907E-03  0.1782E-03
      2.660  0.4550E-03  0.5237E-03  0.2734E-03  0.2734E-03
      2.842  0.1078E-03  0.3703E-04  0.2931E-03  0.2802E-03
      3.024  0.7512E-03  0.8217E-03  0.4297E-03  0.4296E-03
      3.206  0.1045E-03  0.1653E-04  0.4487E-03  0.4326E-03
      3.388  0.1184E-02  0.1270E-02  0.6640E-03  0.6636E-03
      3.570  0.1942E-03  0.1685E-04  0.6994E-03  0.6667E-03
      3.752  0.4502E-03  0.6292E-03  0.7812E-03  0.7812E-03
      3.934  0.5559E-03  0.2777E-04  0.8824E-03  0.7862E-03
      4.116  0.7397E-03  0.1260E-02  0.1017E-02  0.1015E-02
      4.297  0.1763E-02  0.3284E-03  0.1338E-02  0.1075E-02
      4.479  0.2710E-03  0.1606E-02  0.1387E-02  0.1367E-02
      4.661  0.7215E-03  0.3976E-03  0.1518E-02  0.1439E-02
      4.843  0.6533E-03  0.3072E-03  0.1637E-02  0.1495E-02
      5.025  0.2580E-02  0.1221E-02  0.2106E-02  0.1717E-02
      5.207  0.1249E-02  0.1316E-02  0.2333E-02  0.1957E-02
      5.389  0.2819E-02  0.8399E-03  0.2846E-02  0.2110E-02
      5.571  0.4246E-02  0.1613E-02  0.3618E-02  0.2403E-02
      5.753  0.8130E-02  0.7064E-03  0.5097E-02  0.2531E-02
      5.934  0.4534E-02  0.1495E-02  0.5922E-02  0.2803E-02
      6.116  0.8384E-02  0.2769E-02  0.7447E-02  0.3307E-02
      6.298  0.9367E-02  0.1883E-02  0.9151E-02  0.3650E-02
      6.480  0.8148E-02  0.4276E-02  0.1063E-01  0.4427E-02
      6.662  0.8935E-02  0.3603E-02  0.1226E-01  0.5083E-02
      6.844  0.8244E-02  0.3909E-02  0.1376E-01  0.5794E-02
      7.026  0.9044E-02  0.5689E-02  0.1540E-01  0.6828E-02
      7.208  0.5650E-02  0.4031E-02  0.1643E-01  0.7562E-02
      7.390  0.8965E-02  0.7827E-02  0.1806E-01  0.8985E-02
      7.572  0.1151E-01  0.5292E-02  0.2015E-01  0.9948E-02
      7.753  0.1144E-01  0.9858E-02  0.2223E-01  0.1174E-01
      7.935  0.1299E-01  0.5320E-02  0.2460E-01  0.1271E-01
      8.117  0.1595E-01  0.7646E-02  0.2750E-01  0.1410E-01
      8.299  0.1387E-01  0.7729E-02  0.3002E-01  0.1551E-01
      8.481  0.9916E-02  0.4953E-02  0.3183E-01  0.1641E-01
      8.663  0.1131E-01  0.9716E-02  0.3388E-01  0.1817E-01
      8.845  0.1045E-01  0.9240E-02  0.3578E-01  0.1985E-01
      9.027  0.1454E-01  0.8297E-02  0.3843E-01  0.2136E-01
      9.209  0.8363E-02  0.1024E-01  0.3995E-01  0.2323E-01
      9.390  0.1408E-01  0.9559E-02  0.4251E-01  0.2496E-01
      9.572  0.6587E-02  0.1159E-01  0.4371E-01  0.2707E-01
      9.754  0.1390E-01  0.1256E-01  0.4623E-01  0.2936E-01
      9.936  0.1517E-01  0.1016E-01  0.4899E-01  0.3120E-01
     10.118  0.1441E-01  0.7622E-02  0.5161E-01  0.3259E-01
     10.300  0.6207E-02  0.8553E-02  0.5274E-01  0.3415E-01
     10.482  0.5922E-03  0.5654E-02  0.5285E-01  0.3517E-01
     10.664  0.2885E-03  0.1207E-01  0.5290E-01  0.3737E-01
     10.846  0.1732E-02  0.1018E-01  0.5322E-01  0.3922E-01
     11.027  0.2498E-02  0.9821E-02  0.5367E-01  0.4101E-01
     11.209  0.1917E-02  0.1059E-01  0.5402E-01  0.4293E-01
     11.391  0.4184E-04  0.7072E-02  0.5403E-01  0.4422E-01
     11.573  0.1757E-02  0.1313E-01  0.5435E-01  0.4661E-01
     11.755  0.1728E-02  0.1694E-01  0.5466E-01  0.4969E-01
     11.937  0.1635E-02  0.1432E-01  0.5496E-01  0.5229E-01
     12.119  0.4524E-03  0.3064E-02  0.5504E-01  0.5285E-01
     12.301  0.1625E-02  0.1819E-02  0.5534E-01  0.5318E-01
     12.483  0.1144E-02  0.4294E-02  0.5555E-01  0.5396E-01
     12.664  0.2888E-03  0.1633E-02  0.5560E-01  0.5426E-01
     12.846  0.1887E-02  0.1269E-02  0.5594E-01  0.5449E-01
     13.028  0.1550E-02  0.5315E-03  0.5622E-01  0.5459E-01
     13.210  0.8323E-03  0.1581E-02  0.5638E-01  0.5488E-01
     13.392  0.3726E-02  0.2154E-02  0.5705E-01  0.5527E-01
     13.574  0.9199E-04  0.2049E-02  0.5707E-01  0.5564E-01
     13.756  0.7813E-09  0.2038E-02  0.5707E-01  0.5601E-01
     13.938  0.7918E-03  0.1396E-02  0.5721E-01  0.5626E-01
     14.120  0.4967E-03  0.6188E-03  0.5730E-01  0.5638E-01
     14.301  0.1620E-02  0.2122E-02  0.5760E-01  0.5676E-01
     14.483  0.2246E-02  0.1687E-02  0.5801E-01  0.5707E-01
     14.665  0.1068E-02  0.5309E-06  0.5820E-01  0.5707E-01
     14.847  0.8651E-03  0.1843E-02  0.5836E-01  0.5741E-01
     15.029  0.8455E-06  0.7516E-03  0.5836E-01  0.5754E-01
     15.211  0.9301E-03  0.2467E-02  0.5853E-01  0.5799E-01
     15.393  0.2290E-02  0.9431E-04  0.5895E-01  0.5801E-01
     15.575  0.1029E-06  0.1840E-02  0.5895E-01  0.5834E-01
     15.757  0.3704E-03  0.6328E-03  0.5901E-01  0.5846E-01
     15.938  0.9182E-03  0.1309E-03  0.5918E-01  0.5848E-01
     16.120  0.2679E-05  0.2511E-02  0.5918E-01  0.5894E-01
     16.302  0.6709E-03  0.1069E-03  0.5930E-01  0.5896E-01
     16.484  0.1258E-02  0.1219E-02  0.5953E-01  0.5918E-01
     16.666  0.1061E-02  0.2606E-06  0.5972E-01  0.5918E-01
     16.848  0.2280E-03  0.3515E-04  0.5977E-01  0.5919E-01
     17.030  0.1753E-05  0.1764E-02  0.5977E-01  0.5951E-01
     17.212  0.9158E-03  0.1366E-03  0.5993E-01  0.5953E-01
     17.394  0.2444E-02  0.1273E-02  0.6038E-01  0.5976E-01
     17.575  0.1380E-02  0.1280E-04  0.6063E-01  0.5977E-01
     17.757  0.1074E-02  0.4152E-11  0.6082E-01  0.5977E-01
     17.939  0.2021E-02  0.3280E-03  0.6119E-01  0.5983E-01
     18.121  0.1414E-02  0.1750E-02  0.6145E-01  0.6014E-01
     18.303  0.1278E-02  0.1890E-02  0.6168E-01  0.6049E-01
     18.485  0.1243E-02  0.2364E-02  0.6191E-01  0.6092E-01
     18.667  0.2428E-02  0.1386E-02  0.6235E-01  0.6117E-01
     18.849  0.1901E-03  0.1795E-02  0.6238E-01  0.6150E-01
     19.031  0.1140E-04  0.1018E-02  0.6238E-01  0.6168E-01
     19.212  0.2431E-02  0.2420E-02  0.6283E-01  0.6212E-01
     19.394  0.2066E-02  0.1418E-02  0.6320E-01  0.6238E-01
     19.576  0.6333E-03  0.2016E-04  0.6332E-01  0.6238E-01
     19.758  0.1312E-02  0.2340E-02  0.6356E-01  0.6281E-01
     19.940  0.1277E-02  0.1535E-02  0.6379E-01  0.6309E-01
     20.122  0.1039E-04  0.6642E-03  0.6379E-01  0.6321E-01
     20.304  0.1320E-02  0.1413E-02  0.6403E-01  0.6347E-01
     20.486  0.1226E-02  0.1751E-02  0.6425E-01  0.6378E-01
     20.668  0.2293E-03  0.2985E-04  0.6430E-01  0.6379E-01
     20.849  0.2575E-02  0.1403E-02  0.6476E-01  0.6404E-01
     21.031  0.2359E-02  0.1025E-02  0.6519E-01  0.6423E-01
     21.213  0.9616E-03  0.3614E-03  0.6537E-01  0.6430E-01
     21.395  0.4986E-03  0.2363E-02  0.6546E-01  0.6473E-01
     21.577  0.3051E-02  0.6159E-03  0.6601E-01  0.6484E-01
     21.759  0.3445E-02  0.2669E-02  0.6664E-01  0.6532E-01
     21.941  0.6913E-03  0.8958E-03  0.6677E-01  0.6549E-01
     22.123  0.1310E-02  0.2364E-02  0.6700E-01  0.6592E-01
     22.305  0.2039E-02  0.2495E-02  0.6738E-01  0.6637E-01
     22.486  0.9693E-03  0.2341E-02  0.6755E-01  0.6680E-01
     22.668  0.7140E-03  0.1492E-02  0.6768E-01  0.6707E-01
     22.850  0.4488E-03  0.1682E-02  0.6776E-01  0.6737E-01
     23.032  0.2729E-02  0.1542E-02  0.6826E-01  0.6765E-01
     23.214  0.4082E-02  0.1856E-03  0.6900E-01  0.6769E-01
     23.396  0.1257E-02  0.1974E-02  0.6923E-01  0.6805E-01
     23.578  0.1219E-02  0.3337E-02  0.6945E-01  0.6865E-01
     23.760  0.3014E-02  0.3016E-02  0.7000E-01  0.6920E-01
     23.942  0.2729E-02  0.7522E-03  0.7050E-01  0.6934E-01
     24.123  0.7365E-03  0.6776E-03  0.7063E-01  0.6946E-01
     24.305  0.2173E-02  0.5082E-02  0.7103E-01  0.7039E-01
     24.487  0.1636E-02  0.1308E-02  0.7132E-01  0.7062E-01
     24.669  0.2042E-03  0.1781E-02  0.7136E-01  0.7095E-01
     24.851  0.1339E-02  0.2025E-02  0.7160E-01  0.7132E-01
     25.033  0.5908E-02  0.6961E-04  0.7268E-01  0.7133E-01
     25.215  0.4589E-03  0.1719E-02  0.7276E-01  0.7164E-01
     25.397  0.2418E-02  0.4495E-02  0.7320E-01  0.7246E-01
     25.579  0.1874E-02  0.1524E-02  0.7354E-01  0.7274E-01
     25.760  0.2343E-02  0.3357E-02  0.7397E-01  0.7335E-01
     25.942  0.7170E-03  0.1167E-02  0.7410E-01  0.7356E-01
     26.124  0.3000E-02  0.2053E-02  0.7465E-01  0.7393E-01
     26.306  0.5156E-03  0.1481E-02  0.7474E-01  0.7420E-01
     26.488  0.2961E-02  0.2877E-02  0.7528E-01  0.7473E-01
     26.670  0.2481E-02  0.1337E-03  0.7573E-01  0.7475E-01
     26.852  0.3146E-02  0.3132E-02  0.7630E-01  0.7532E-01
     27.034  0.9449E-03  0.3070E-02  0.7647E-01  0.7588E-01
     27.216  0.1788E-02  0.2332E-02  0.7680E-01  0.7630E-01
     27.398  0.3440E-02  0.1560E-02  0.7742E-01  0.7659E-01
     27.579  0.2613E-02  0.2563E-02  0.7790E-01  0.7705E-01
     27.761  0.6056E-03  0.2381E-02  0.7801E-01  0.7749E-01
     27.943  0.3504E-02  0.2802E-02  0.7865E-01  0.7800E-01
     28.125  0.1640E-02  0.1308E-02  0.7895E-01  0.7823E-01
     28.307  0.2414E-02  0.3244E-02  0.7938E-01  0.7882E-01
     28.489  0.1633E-03  0.8103E-03  0.7941E-01  0.7897E-01
     28.671  0.2216E-02  0.2414E-02  0.7982E-01  0.7941E-01
     28.853  0.1865E-02  0.5388E-03  0.8016E-01  0.7951E-01
     29.035  0.1827E-02  0.2814E-02  0.8049E-01  0.8002E-01
     29.216  0.7183E-03  0.9304E-03  0.8062E-01  0.8019E-01
     29.398  0.2594E-02  0.1930E-02  0.8109E-01  0.8054E-01
     29.580  0.1744E-02  0.1829E-02  0.8141E-01  0.8087E-01
     29.762  0.3344E-02  0.1614E-02  0.8202E-01  0.8117E-01
     29.944  0.1296E-02  0.3159E-02  0.8225E-01  0.8174E-01
     30.126  0.1341E-02  0.2101E-02  0.8250E-01  0.8212E-01
     30.308  0.1181E-03  0.1612E-02  0.8252E-01  0.8242E-01
     30.490  0.1203E-02  0.4615E-03  0.8274E-01  0.8250E-01
     30.672  0.3125E-02  0.1859E-02  0.8330E-01  0.8284E-01
     30.853  0.2072E-02  0.1012E-02  0.8368E-01  0.8302E-01
     31.035  0.2194E-02  0.4129E-02  0.8408E-01  0.8377E-01
     31.217  0.9819E-03  0.1858E-03  0.8426E-01  0.8381E-01
     31.399  0.1290E-02  0.2472E-02  0.8449E-01  0.8426E-01
     31.581  0.1182E-02  0.8389E-03  0.8471E-01  0.8441E-01
     31.763  0.2069E-02  0.1696E-02  0.8509E-01  0.8472E-01
     31.945  0.2825E-02  0.2785E-02  0.8560E-01  0.8522E-01
     32.127  0.7791E-03  0.7639E-03  0.8574E-01  0.8536E-01
     32.309  0.1654E-02  0.2715E-02  0.8604E-01  0.8586E-01
     32.490  0.3051E-02  0.2990E-02  0.8660E-01  0.8640E-01
     32.672  0.3411E-02  0.9611E-03  0.8722E-01  0.8658E-01
     32.854  0.6966E-03  0.2465E-02  0.8734E-01  0.8702E-01
     33.036  0.3095E-02  0.1121E-02  0.8791E-01  0.8723E-01
     33.218  0.1442E-02  0.3166E-02  0.8817E-01  0.8780E-01
     33.400  0.1929E-02  0.2129E-02  0.8852E-01  0.8819E-01
     33.582  0.1297E-02  0.3262E-02  0.8876E-01  0.8878E-01
     33.764  0.5309E-02  0.1085E-02  0.8972E-01  0.8898E-01
     33.946  0.2844E-02  0.3941E-02  0.9024E-01  0.8970E-01
     34.127  0.1372E-02  0.2527E-02  0.9049E-01  0.9016E-01
     34.309  0.2666E-02  0.1709E-02  0.9097E-01  0.9047E-01
     34.491  0.1941E-02  0.2898E-02  0.9133E-01  0.9100E-01
     34.673  0.2340E-02  0.1938E-02  0.9175E-01  0.9135E-01
     34.855  0.2887E-02  0.3114E-02  0.9228E-01  0.9192E-01
     35.037  0.2267E-02  0.1982E-02  0.9269E-01  0.9228E-01
     35.219  0.3447E-02  0.3961E-02  0.9332E-01  0.9300E-01
     35.401  0.1551E-02  0.2249E-02  0.9360E-01  0.9341E-01
     35.583  0.2031E-02  0.1077E-02  0.9397E-01  0.9360E-01
     35.764  0.1943E-02  0.1682E-02  0.9432E-01  0.9391E-01
     35.946  0.2457E-02  0.1382E-02  0.9477E-01  0.9416E-01
     36.128  0.4871E-02  0.3620E-02  0.9565E-01  0.9482E-01
     36.310  0.2737E-02  0.3601E-02  0.9615E-01  0.9547E-01
     36.492  0.8856E-03  0.2766E-02  0.9631E-01  0.9598E-01
     36.674  0.2431E-02  0.1425E-02  0.9676E-01  0.9623E-01
     36.856  0.2541E-02  0.2709E-02  0.9722E-01  0.9673E-01
     37.038  0.3120E-02  0.3144E-02  0.9778E-01  0.9730E-01
     37.220  0.2429E-02  0.2842E-02  0.9823E-01  0.9782E-01
     37.401  0.2195E-02  0.3043E-02  0.9863E-01  0.9837E-01
     37.583  0.5046E-04  0.8031E-03  0.9863E-01  0.9852E-01
     37.765  0.1277E-02  0.4810E-03  0.9887E-01  0.9860E-01
     37.947  0.2666E-02  0.1115E-02  0.9935E-01  0.9881E-01
     38.129  0.8590E-03  0.2239E-02  0.9951E-01  0.9921E-01
     38.311  0.2915E-02  0.3100E-02  0.1000E+00  0.9978E-01
     38.493  0.1076E-02  0.1226E-02  0.1002E+00  0.1000E+00
     38.675  0.5531E-06  0.3907E-04  0.1002E+00  0.1000E+00
     38.857  0.9366E-03  0.1249E-02  0.1004E+00  0.1002E+00
     39.038  0.1279E-02  0.4754E-04  0.1006E+00  0.1002E+00
     39.220  0.3686E-02  0.3478E-02  0.1013E+00  0.1009E+00
     39.402  0.2255E-02  0.2250E-02  0.1017E+00  0.1013E+00
     39.584  0.1048E-02  0.4597E-03  0.1019E+00  0.1014E+00
     39.766  0.6297E-03  0.2602E-02  0.1020E+00  0.1018E+00
     39.948  0.1232E-02  0.1017E-02  0.1022E+00  0.1020E+00
     40.130  0.2674E-02  0.3997E-03  0.1027E+00  0.1021E+00
     40.312  0.1751E-02  0.3060E-02  0.1031E+00  0.1027E+00
     40.494  0.1733E-02  0.1747E-02  0.1034E+00  0.1030E+00
     40.675  0.6075E-02  0.2412E-02  0.1045E+00  0.1034E+00
     40.857  0.5763E-02  0.3129E-02  0.1055E+00  0.1040E+00
     41.039  0.3545E-02  0.7671E-02  0.1062E+00  0.1054E+00
     41.221  0.1248E-02  0.4935E-02  0.1064E+00  0.1063E+00
     41.403  0.2435E-02  0.1607E-02  0.1068E+00  0.1066E+00
     41.585  0.2312E-02  0.1477E-02  0.1073E+00  0.1068E+00
     41.767  0.1568E-02  0.9089E-03  0.1075E+00  0.1070E+00
     41.949  0.1941E-02  0.2167E-02  0.1079E+00  0.1074E+00
     42.131  0.2330E-02  0.2325E-02  0.1083E+00  0.1078E+00
     42.312  0.3590E-02  0.2293E-02  0.1090E+00  0.1082E+00
     42.494  0.1874E-02  0.4359E-02  0.1093E+00  0.1090E+00
     42.676  0.2465E-02  0.2656E-02  0.1098E+00  0.1095E+00
     42.858  0.4245E-04  0.1397E-02  0.1098E+00  0.1098E+00
     43.040  0.3033E-02  0.1137E-04  0.1103E+00  0.1098E+00
     43.222  0.4107E-02  0.3194E-02  0.1111E+00  0.1103E+00
     43.404  0.2805E-02  0.1997E-02  0.1116E+00  0.1107E+00
     43.586  0.1210E-02  0.4438E-02  0.1118E+00  0.1115E+00
     43.768  0.1002E-04  0.1529E-02  0.1118E+00  0.1118E+00
     43.949  0.2964E-02  0.1327E-02  0.1123E+00  0.1120E+00
     44.131  0.1394E-02  0.1303E-02  0.1126E+00  0.1123E+00
     44.313  0.1624E-02  0.1455E-02  0.1129E+00  0.1125E+00
     44.495  0.3694E-02  0.3688E-02  0.1136E+00  0.1132E+00
     44.677  0.2745E-02  0.1593E-02  0.1141E+00  0.1135E+00
     44.859  0.4665E-03  0.9750E-03  0.1141E+00  0.1137E+00
     45.041  0.1314E-02  0.2354E-02  0.1144E+00  0.1141E+00
     45.223  0.1905E-02  0.1540E-02  0.1147E+00  0.1144E+00
     45.405  0.1275E-02  0.5839E-03  0.1150E+00  0.1145E+00
     45.586  0.8098E-04  0.2891E-03  0.1150E+00  0.1145E+00
     45.768  0.2077E-02  0.1631E-02  0.1154E+00  0.1148E+00
     45.950  0.3160E-02  0.2175E-02  0.1159E+00  0.1152E+00
     46.132  0.2320E-02  0.2316E-02  0.1163E+00  0.1157E+00
     46.314  0.1384E-02  0.1240E-02  0.1166E+00  0.1159E+00
     46.496  0.1282E-02  0.2012E-02  0.1168E+00  0.1162E+00
     46.678  0.3463E-03  0.2824E-03  0.1169E+00  0.1163E+00
     46.860  0.2053E-02  0.2130E-02  0.1173E+00  0.1167E+00
     47.042  0.3421E-02  0.2334E-02  0.1179E+00  0.1171E+00
     47.223  0.2672E-02  0.1421E-02  0.1184E+00  0.1174E+00
     47.405  0.1825E-02  0.1552E-02  0.1187E+00  0.1177E+00
     47.587  0.2545E-02  0.1350E-04  0.1192E+00  0.1177E+00
     47.769  0.4440E-02  0.1046E-02  0.1200E+00  0.1178E+00
     47.951  0.1026E-03  0.2143E-02  0.1200E+00  0.1182E+00
     48.133  0.2457E-12  0.4586E-03  0.1200E+00  0.1183E+00
     48.315  0.0000E+00  0.1506E-02  0.1200E+00  0.1186E+00
     48.497  0.0000E+00  0.2598E-06  0.1200E+00  0.1186E+00
     48.679  0.0000E+00  0.2583E-04  0.1200E+00  0.1186E+00
     48.861  0.0000E+00  0.1261E-02  0.1200E+00  0.1188E+00
     49.042  0.0000E+00  0.1281E-05  0.1200E+00  0.1188E+00
     49.224  0.0000E+00  0.0000E+00  0.1200E+00  0.1188E+00
     49.406  0.0000E+00  0.3401E-10  0.1200E+00  0.1188E+00
     49.588  0.0000E+00  0.2783E-03  0.1200E+00  0.1189E+00
     49.770  0.0000E+00  0.1201E-02  0.1200E+00  0.1191E+00
     49.952  0.0000E+00  0.1098E-02  0.1200E+00  0.1193E+00
     50.134  0.0000E+00  0.1879E-07  0.1200E+00  0.1193E+00
     50.316  0.0000E+00  0.0000E+00  0.1200E+00  0.1193E+00
     50.498  0.0000E+00  0.7868E-18  0.1200E+00  0.1193E+00
     50.679  0.0000E+00  0.1785E-05  0.1200E+00  0.1193E+00
     50.861  0.0000E+00  0.6402E-03  0.1200E+00  0.1194E+00
     51.043  0.0000E+00  0.1351E-02  0.1200E+00  0.1197E+00
     51.225  0.0000E+00  0.1037E-02  0.1200E+00  0.1198E+00
     51.407  0.0000E+00  0.8353E-03  0.1200E+00  0.1200E+00
     51.589  0.0000E+00  0.3418E-06  0.1200E+00  0.1200E+00
     51.771  0.0000E+00  0.0000E+00  0.1200E+00  0.1200E+00
     51.953  0.0000E+00  0.0000E+00  0.1200E+00  0.1200E+00
     52.135  0.0000E+00  0.0000E+00  0.1200E+00  0.1200E+00
     52.316  0.0000E+00  0.0000E+00  0.1200E+00  0.1200E+00
     52.498  0.0000E+00  0.0000E+00  0.1200E+00  0.1200E+00
     52.680  0.0000E+00  0.0000E+00  0.1200E+00  0.1200E+00
     52.862  0.0000E+00  0.0000E+00  0.1200E+00  0.1200E+00
     53.044  0.0000E+00  0.0000E+00  0.1200E+00  0.1200E+00
     53.226  0.0000E+00  0.0000E+00  0.1200E+00  0.1200E+00
     53.408  0.0000E+00  0.0000E+00  0.1200E+00  0.1200E+00
     53.590  0.0000E+00  0.0000E+00  0.1200E+00  0.1200E+00
     53.772  0.0000E+00  0.0000E+00  0.1200E+00  0.1200E+00
     53.77153494     -0.79543309  301     10.63693612      1.00000000
     -0.795  0.0000E+00  0.0000E+00  0.0000E+00  0.0000E+00  0.0000E+00  0.0000E+00  0.0000E+00  0.0000E+00  0.0000E+00  0.0000E+00  0.0000E+00  0.0000E+00  0.0000E+00  0.0000E+00  0.0000E+00  0.0000E+00  0.0000E+00  0.0000E+00
     -0.614  0.0000E+00  0.0000E+00  0.0000E+00  0.0000E+00  0.0000E+00  0.0000E+00  0.0000E+00  0.0000E+00  0.0000E+00  0.0000E+00  0.0000E+00  0.0000E+00  0.0000E+00  0.0000E+00  0.0000E+00  0.0000E+00  0.0000E+00  0.0000E+00
     -0.432  0.0000E+00  0.0000E+00  0.0000E+00  0.0000E+00  0.0000E+00  0.0000E+00  0.0000E+00  0.0000E+00  0.0000E+00  0.0000E+00  0.0000E+00  0.0000E+00  0.0000E+00  0.0000E+00  0.0000E+00  0.0000E+00  0.0000E+00  0.0000E+00
     -0.250  0.0000E+00  0.0000E+00  0.0000E+00  0.0000E+00  0.0000E+00  0.0000E+00  0.0000E+00  0.0000E+00  0.0000E+00  0.0000E+00  0.0000E+00  0.0000E+00  0.0000E+00  0.0000E+00  0.0000E+00  0.0000E+00  0.0000E+00  0.0000E+00
     -0.068  0.0000E+00  0.0000E+00  0.0000E+00  0.0000E+00  0.0000E+00  0.0000E+00  0.0000E+00  0.0000E+00  0.0000E+00  0.0000E+00  0.0000E+00  0.0000E+00  0.0000E+00  0.0000E+00  0.0000E+00  0.0000E+00  0.0000E+00  0.0000E+00
      0.114  0.0000E+00  0.0000E+00  0.0000E+00  0.0000E+00  0.0000E+00  0.0000E+00  0.0000E+00  0.0000E+00  0.0000E+00  0.0000E+00  0.0000E+00  0.0000E+00  0.0000E+00  0.0000E+00  0.0000E+00  0.0000E+00  0.0000E+00  0.0000E+00
      0.296  0.0000E+00  0.0000E+00  0.0000E+00  0.0000E+00  0.0000E+00  0.0000E+00  0.0000E+00  0.0000E+00  0.0000E+00  0.0000E+00  0.0000E+00  0.0000E+00  0.0000E+00  0.0000E+00  0.0000E+00  0.0000E+00  0.0000E+00  0.0000E+00
      0.478  0.0000E+00  0.0000E+00  0.0000E+00  0.0000E+00  0.0000E+00  0.0000E+00  0.0000E+00  0.0000E+00  0.0000E+00  0.0000E+00  0.0000E+00  0.0000E+00  0.0000E+00  0.0000E+00  0.0000E+00  0.0000E+00  0.0000E+00  0.0000E+00
      0.660  0.0000E+00  0.0000E+00  0.0000E+00  0.0000E+00  0.0000E+00  0.0000E+00  0.0000E+00  0.0000E+00  0.0000E+00  0.0000E+00  0.0000E+00  0.0000E+00  0.0000E+00  0.0000E+00  0.0000E+00  0.0000E+00  0.0000E+00  0.0000E+00
      0.842  0.0000E+00  0.0000E+00  0.0000E+00  0.0000E+00  0.0000E+00  0.0000E+00  0.0000E+00  0.0000E+00  0.0000E+00  0.0000E+00  0.0000E+00  0.0000E+00  0.0000E+00  0.0000E+00  0.0000E+00  0.0000E+00  0.0000E+00  0.0000E+00
      1.023  0.0000E+00  0.0000E+00  0.0000E+00  0.0000E+00  0.0000E+00  0.0000E+00  0.0000E+00  0.0000E+00  0.0000E+00  0.0000E+00  0.0000E+00  0.0000E+00  0.0000E+00  0.0000E+00  0.0000E+00  0.0000E+00  0.0000E+00  0.0000E+00
      1.205  0.0000E+00  0.0000E+00  0.0000E+00  0.0000E+00  0.0000E+00  0.0000E+00  0.0000E+00  0.0000E+00  0.0000E+00  0.0000E+00  0.0000E+00  0.0000E+00  0.0000E+00  0.0000E+00  0.0000E+00  0.0000E+00  0.0000E+00  0.0000E+00
      1.387  0.0000E+00  0.0000E+00  0.0000E+00  0.0000E+00  0.0000E+00  0.0000E+00  0.0000E+00  0.0000E+00  0.0000E+00  0.0000E+00  0.0000E+00  0.0000E+00  0.0000E+00  0.0000E+00  0.0000E+00  0.0000E+00  0.0000E+00  0.0000E+00
      1.569  0.8338E-05  0.5083E-05  0.4175E-07  0.2557E-07  0.4175E-07  0.2557E-07  0.4175E-07  0.2557E-07  0.6520E-09  0.2991E-09  0.6520E-09  0.2991E-09  0.2426E-22  0.1440E-22  0.6520E-09  0.2991E-09  0.2426E-22  0.1440E-22
      1.751  0.1523E-01  0.1506E-01  0.7625E-04  0.7579E-04  0.7625E-04  0.7579E-04  0.7625E-04  0.7579E-04  0.1191E-05  0.8866E-06  0.1191E-05  0.8866E-06  0.4431E-19  0.4268E-19  0.1191E-05  0.8866E-06  0.4431E-19  0.4268E-19
      1.933  0.4824E-03  0.6528E-03  0.2417E-05  0.3285E-05  0.2417E-05  0.3285E-05  0.2417E-05  0.3285E-05  0.3776E-07  0.3843E-07  0.3776E-07  0.3843E-07  0.4711E-10  0.1251E-10  0.3776E-07  0.3843E-07  0.4711E-10  0.1251E-10
      2.115  0.3076E-01  0.2724E-01  0.5726E-03  0.5102E-03  0.5726E-03  0.5102E-03  0.5726E-03  0.5102E-03  0.1655E-04  0.1081E-04  0.1655E-04  0.1081E-04  0.2212E-04  0.1472E-04  0.1655E-04  0.1081E-04  0.2212E-04  0.1472E-04
      2.297  0.1450E-01  0.1804E-01  0.2700E-03  0.3379E-03  0.2700E-03  0.3379E-03  0.2700E-03  0.3379E-03  0.7807E-05  0.7157E-05  0.7807E-05  0.7157E-05  0.1043E-04  0.9751E-05  0.7807E-05  0.7157E-05  0.1043E-04  0.9751E-05
      2.479  0.1274E-01  0.8122E-02  0.4098E-03  0.2642E-03  0.4098E-03  0.2642E-03  0.4098E-03  0.2642E-03  0.3982E-04  0.1824E-04  0.3982E-04  0.1824E-04  0.8955E-05  0.4308E-05  0.3982E-04  0.1824E-04  0.8955E-05  0.4308E-05
      2.660  0.3063E-01  0.3529E-01  0.9854E-03  0.1148E-02  0.9854E-03  0.1148E-02  0.9854E-03  0.1148E-02  0.9576E-04  0.7925E-04  0.9576E-04  0.7925E-04  0.2153E-04  0.1872E-04  0.9576E-04  0.7925E-04  0.2153E-04  0.1872E-04
      2.842  0.6921E-02  0.2383E-02  0.3210E-03  0.1121E-03  0.3210E-03  0.1121E-03  0.3210E-03  0.1121E-03  0.3062E-04  0.7128E-05  0.3062E-04  0.7128E-05  0.4011E-04  0.9852E-05  0.3062E-04  0.7128E-05  0.4011E-04  0.9852E-05
      3.024  0.4819E-01  0.5288E-01  0.2246E-02  0.2494E-02  0.2246E-02  0.2494E-02  0.2246E-02  0.2494E-02  0.1749E-03  0.1352E-03  0.1749E-03  0.1352E-03  0.3200E-03  0.2442E-03  0.1749E-03  0.1352E-03  0.3200E-03  0.2442E-03
      3.206  0.6391E-02  0.1017E-02  0.3881E-03  0.6257E-04  0.3881E-03  0.6257E-04  0.3881E-03  0.6257E-04  0.6221E-04  0.6731E-05  0.6221E-04  0.6731E-05  0.4352E-04  0.4873E-05  0.6221E-04  0.6731E-05  0.4352E-04  0.4873E-05
      3.388  0.7242E-01  0.7809E-01  0.4399E-02  0.4823E-02  0.4399E-02  0.4823E-02  0.4399E-02  0.4823E-02  0.7052E-03  0.5232E-03  0.7052E-03  0.5232E-03  0.4932E-03  0.3736E-03  0.7052E-03  0.5232E-03  0.4932E-03  0.3736E-03
      3.570  0.1125E-01  0.9950E-03  0.7970E-03  0.7157E-04  0.7970E-03  0.7157E-04  0.7970E-03  0.7157E-04  0.3152E-03  0.1614E-04  0.3152E-03  0.1614E-04  0.4779E-04  0.3192E-05  0.3152E-03  0.1614E-04  0.4779E-04  0.3192E-05
      3.752  0.2606E-01  0.3690E-01  0.1847E-02  0.2718E-02  0.1847E-02  0.2718E-02  0.1847E-02  0.2718E-02  0.7309E-03  0.6585E-03  0.7309E-03  0.6585E-03  0.1107E-03  0.1085E-03  0.7309E-03  0.6585E-03  0.1107E-03  0.1085E-03
      3.934  0.3009E-01  0.1535E-02  0.2745E-02  0.1427E-03  0.2745E-02  0.1427E-03  0.2745E-02  0.1427E-03  0.4445E-03  0.1450E-04  0.4445E-03  0.1450E-04  0.1168E-02  0.3806E-04  0.4445E-03  0.1450E-04  0.1168E-02  0.3806E-04
      4.116  0.4020E-01  0.6970E-01  0.3643E-02  0.6486E-02  0.3643E-02  0.6486E-02  0.3643E-02  0.6486E-02  0.8345E-03  0.8182E-03  0.8345E-03  0.8182E-03  0.1147E-02  0.1464E-02  0.8345E-03  0.8182E-03  0.1147E-02  0.1464E-02
      4.297  0.8949E-01  0.1728E-01  0.9048E-02  0.1757E-02  0.9048E-02  0.1757E-02  0.9048E-02  0.1757E-02  0.3927E-02  0.6355E-03  0.3927E-02  0.6355E-03  0.3115E-02  0.2083E-03  0.3927E-02  0.6355E-03  0.3115E-02  0.2083E-03
      4.479  0.1336E-01  0.8409E-01  0.1453E-02  0.8971E-02  0.1453E-02  0.8971E-02  0.1453E-02  0.8971E-02  0.5715E-03  0.2001E-02  0.5715E-03  0.2001E-02  0.6498E-03  0.2059E-02  0.5715E-03  0.2001E-02  0.6498E-03  0.2059E-02
      4.661  0.3312E-01  0.1965E-01  0.3548E-02  0.2342E-02  0.3548E-02  0.2342E-02  0.3548E-02  0.2342E-02  0.3437E-02  0.8245E-03  0.3437E-02  0.8245E-03  0.1094E-02  0.5282E-03  0.3437E-02  0.8245E-03  0.1094E-02  0.5282E-03
      4.843  0.2893E-01  0.1501E-01  0.3895E-02  0.1760E-02  0.3895E-02  0.1760E-02  0.3895E-02  0.1760E-02  0.2544E-02  0.8321E-03  0.2544E-02  0.8321E-03  0.1194E-02  0.3279E-03  0.2544E-02  0.8321E-03  0.1194E-02  0.3279E-03
      5.025  0.1028E+00  0.5693E-01  0.1345E-01  0.7877E-02  0.1345E-01  0.7877E-02  0.1345E-01  0.7877E-02  0.1304E-01  0.3322E-02  0.1304E-01  0.3322E-02  0.1074E-01  0.1318E-02  0.1304E-01  0.3322E-02  0.1074E-01  0.1318E-02
      5.207  0.4061E-01  0.5693E-01  0.5262E-02  0.8173E-02  0.5262E-02  0.8173E-02  0.5262E-02  0.8173E-02  0.1042E-01  0.4006E-02  0.1042E-01  0.4006E-02  0.7126E-02  0.3899E-02  0.1042E-01  0.4006E-02  0.7126E-02  0.3899E-02
      5.389  0.6290E-01  0.3592E-01  0.7934E-02  0.5114E-02  0.7934E-02  0.5114E-02  0.7934E-02  0.5114E-02  0.2210E-01  0.2950E-02  0.2210E-01  0.2950E-02  0.4226E-01  0.2384E-02  0.2210E-01  0.2950E-02  0.4226E-01  0.2384E-02
      5.571  0.7746E-01  0.6182E-01  0.9714E-02  0.1027E-01  0.9714E-02  0.1027E-01  0.9714E-02  0.1027E-01  0.4138E-01  0.5030E-02  0.4138E-01  0.5030E-02  0.6687E-01  0.8738E-02  0.4138E-01  0.5030E-02  0.6687E-01  0.8738E-02
      5.753  0.1379E+00  0.2597E-01  0.2215E-01  0.4120E-02  0.2215E-01  0.4120E-02  0.2215E-01  0.4120E-02  0.7195E-01  0.4135E-02  0.7195E-01  0.4135E-02  0.1383E+00  0.2518E-02  0.7195E-01  0.4135E-02  0.1383E+00  0.2518E-02
      5.934  0.4925E-01  0.5388E-01  0.8122E-02  0.9705E-02  0.8122E-02  0.9705E-02  0.8122E-02  0.9705E-02  0.5385E-01  0.9921E-02  0.5385E-01  0.9921E-02  0.8243E-01  0.2677E-02  0.5385E-01  0.9921E-02  0.8243E-01  0.2677E-02
      6.116  0.5984E-01  0.8386E-01  0.1404E-01  0.1551E-01  0.1404E-01  0.1551E-01  0.1404E-01  0.1551E-01  0.1128E+00  0.1844E-01  0.1128E+00  0.1844E-01  0.1542E+00  0.1832E-01  0.1128E+00  0.1844E-01  0.1542E+00  0.1832E-01
      6.298  0.5759E-01  0.5333E-01  0.1758E-01  0.8872E-02  0.1758E-01  0.8872E-02  0.1758E-01  0.8872E-02  0.1663E+00  0.1965E-01  0.1663E+00  0.1965E-01  0.1178E+00  0.7927E-02  0.1663E+00  0.1965E-01  0.1178E+00  0.7927E-02
      6.480  0.1898E-01  0.7890E-01  0.1214E-01  0.1085E-01  0.1214E-01  0.1085E-01  0.1214E-01  0.1085E-01  0.1445E+00  0.4060E-01  0.1445E+00  0.4060E-01  0.1279E+00  0.6448E-01  0.1445E+00  0.4060E-01  0.1279E+00  0.6448E-01
      6.662  0.2459E-01  0.6755E-01  0.1952E-01  0.1274E-01  0.1952E-01  0.1274E-01  0.1952E-01  0.1274E-01  0.1925E+00  0.3815E-01  0.1925E+00  0.3815E-01  0.7858E-01  0.4209E-01  0.1925E+00  0.3815E-01  0.7858E-01  0.4209E-01
      6.844  0.7954E-02  0.5621E-01  0.1835E-01  0.1457E-01  0.1835E-01  0.1457E-01  0.1835E-01  0.1457E-01  0.1596E+00  0.1781E-01  0.1596E+00  0.1781E-01  0.1071E+00  0.8662E-01  0.1596E+00  0.1781E-01  0.1071E+00  0.8662E-01
      7.026  0.4456E-02  0.8108E-01  0.1944E-01  0.1740E-01  0.1944E-01  0.1740E-01  0.1944E-01  0.1740E-01  0.1737E+00  0.6931E-01  0.1737E+00  0.6931E-01  0.1249E+00  0.7409E-01  0.1737E+00  0.6931E-01  0.1249E+00  0.7409E-01
      7.208  0.1198E-02  0.2846E-01  0.8874E-02  0.1014E-01  0.8874E-02  0.1014E-01  0.8874E-02  0.1014E-01  0.1034E+00  0.3275E-01  0.1034E+00  0.3275E-01  0.9290E-01  0.9587E-01  0.1034E+00  0.3275E-01  0.9290E-01  0.9587E-01
      7.390  0.8728E-02  0.5547E-01  0.1799E-01  0.2032E-01  0.1799E-01  0.2032E-01  0.1799E-01  0.2032E-01  0.1715E+00  0.1284E+00  0.1715E+00  0.1284E+00  0.1272E+00  0.9560E-01  0.1715E+00  0.1284E+00  0.1272E+00  0.9560E-01
      7.572  0.9514E-02  0.1051E-01  0.2427E-01  0.1126E-01  0.2427E-01  0.1126E-01  0.2427E-01  0.1126E-01  0.2579E+00  0.8707E-01  0.2579E+00  0.8707E-01  0.1095E+00  0.8414E-01  0.2579E+00  0.8707E-01  0.1095E+00  0.8414E-01
      7.753  0.1513E-01  0.2426E-01  0.2075E-01  0.2609E-01  0.2075E-01  0.2609E-01  0.2075E-01  0.2609E-01  0.2334E+00  0.1931E+00  0.2334E+00  0.1931E+00  0.1491E+00  0.1033E+00  0.2334E+00  0.1931E+00  0.1491E+00  0.1033E+00
      7.935  0.1630E-01  0.2135E-02  0.2556E-01  0.1459E-01  0.2556E-01  0.1459E-01  0.2556E-01  0.1459E-01  0.2484E+00  0.1133E+00  0.2484E+00  0.1133E+00  0.1931E+00  0.4846E-01  0.2484E+00  0.1133E+00  0.1931E+00  0.4846E-01
      8.117  0.2308E-01  0.5518E-02  0.2568E-01  0.1916E-01  0.2568E-01  0.1916E-01  0.2568E-01  0.1916E-01  0.3152E+00  0.1540E+00  0.3152E+00  0.1540E+00  0.2342E+00  0.8505E-01  0.3152E+00  0.1540E+00  0.2342E+00  0.8505E-01
      8.299  0.6960E-02  0.1978E-02  0.1787E-01  0.2367E-01  0.1787E-01  0.2367E-01  0.1787E-01  0.2367E-01  0.2811E+00  0.1455E+00  0.2811E+00  0.1455E+00  0.2121E+00  0.9491E-01  0.2811E+00  0.1455E+00  0.2121E+00  0.9491E-01