PROCAR lm decomposed
# of k-points:   60         # of bands:   12         # of ions:    1

 k-point     1 :    0.06250000 0.06250000 0.06250000     weight = 0.00390625

band     1 # energy    1.68488364 # occ.  1.00000000
 
ion      s     py     pz     px    dxy    dyz    dz2    dxz  x2-y2    tot
    1  0.732  0.004  0.004  0.004  0.000  0.000  0.000  0.000  0.000  0.743
 
band     2 # energy    7.87940316 # occ.  1.00000000
 
ion      s     py     pz     px    dxy    dyz    dz2    dxz  x2-y2    tot
    1  0.000  0.000  0.000  0.000  0.324  0.324  0.000  0.324  0.000  0.972
 
band     3 # energy    7.96343592 # occ.  1.00000000
 
ion      s     py     pz     px    dxy    dyz    dz2    dxz  x2-y2    tot
    1  0.000  0.000  0.000  0.000  0.019  0.494  0.000  0.460  0.001  0.974
 
band     4 # energy    7.96343592 # occ.  1.00000000
 
ion      s     py     pz     px    dxy    dyz    dz2    dxz  x2-y2    tot
    1  0.000  0.000  0.000  0.000  0.629  0.155  0.001  0.189  0.000  0.974
 
band     5 # energy    9.02974791 # occ.  1.00000000
 
ion      s     py     pz     px    dxy    dyz    dz2    dxz  x2-y2    tot
    1  0.000  0.000  0.000  0.000  0.001  0.000  0.736  0.001  0.248  0.986
 
band     6 # energy    9.02974791 # occ.  1.00000000
 
ion      s     py     pz     px    dxy    dyz    dz2    dxz  x2-y2    tot
    1  0.000  0.000  0.000  0.000  0.000  0.001  0.248  0.000  0.736  0.986
 
band     7 # energy   33.55847110 # occ.  0.00000000
 
ion      s     py     pz     px    dxy    dyz    dz2    dxz  x2-y2    tot
    1  0.001  0.006  0.006  0.006  0.048  0.048  0.000  0.048  0.000  0.160
 
band     8 # energy   36.62906643 # occ.  0.00000000
 
ion      s     py     pz     px    dxy    dyz    dz2    dxz  x2-y2    tot
    1  0.021  0.084  0.084  0.084  0.042  0.042  0.000  0.042  0.000  0.399
 
band     9 # energy   38.14666911 # occ.  0.00000000
 
ion      s     py     pz     px    dxy    dyz    dz2    dxz  x2-y2    tot
    1  0.000  0.122  0.162  0.004  0.082  0.002  0.015  0.062  0.003  0.452
 
band    10 # energy   38.14666911 # occ.  0.00000000
 
ion      s     py     pz     px    dxy    dyz    dz2    dxz  x2-y2    tot
    1  0.000  0.070  0.031  0.188  0.015  0.095  0.003  0.035  0.015  0.452
 
band    11 # energy   42.12257148 # occ.  0.00000000
 
ion      s     py     pz     px    dxy    dyz    dz2    dxz  x2-y2    tot
    1  0.000  0.002  0.003  0.000  0.722  0.073  0.006  0.395  0.001  1.203
 
band    12 # energy   42.12260210 # occ.  0.00000000
 
ion      s     py     pz     px    dxy    dyz    dz2    dxz  x2-y2    tot
    1  0.000  0.002  0.000  0.004  0.070  0.728  0.001  0.394  0.006  1.203
 

 k-point     2 :    0.18750000 0.06250000 0.06250000     weight = 0.01171875

band     1 # energy    2.49776763 # occ.  1.00000000
 
ion      s     py     pz     px    dxy    dyz    dz2    dxz  x2-y2    tot
    1  0.673  0.031  0.031  0.003  0.001  0.005  0.000  0.001  0.001  0.745
 
band     2 # energy    7.65856685 # occ.  1.00000000
 
ion      s     py     pz     px    dxy    dyz    dz2    dxz  x2-y2    tot
    1  0.001  0.001  0.001  0.007  0.460  0.034  0.000  0.460  0.000  0.963
 
band     3 # energy    8.12716957 # occ.  1.00000000
 
ion      s     py     pz     px    dxy    dyz    dz2    dxz  x2-y2    tot
    1  0.000  0.003  0.003  0.000  0.017  0.846  0.022  0.017  0.066  0.972
 
band     4 # energy    8.13225404 # occ.  1.00000000
 
ion      s     py     pz     px    dxy    dyz    dz2    dxz  x2-y2    tot
    1  0.000  0.000  0.000  0.000  0.476  0.000  0.016  0.476  0.005  0.974
 
band     5 # energy    8.86861172 # occ.  1.00000000
 
ion      s     py     pz     px    dxy    dyz    dz2    dxz  x2-y2    tot
    1  0.000  0.000  0.000  0.000  0.011  0.000  0.718  0.011  0.239  0.980
 
band     6 # energy    9.12185032 # occ.  1.00000000
 
ion      s     py     pz     px    dxy    dyz    dz2    dxz  x2-y2    tot
    1  0.001  0.000  0.000  0.000  0.002  0.084  0.224  0.002  0.671  0.984
 
band     7 # energy   30.80850248 # occ.  0.00000000
 
ion      s     py     pz     px    dxy    dyz    dz2    dxz  x2-y2    tot
    1  0.025  0.044  0.044  0.114  0.181  0.085  0.001  0.181  0.002  0.676
 
band     8 # energy   33.46075343 # occ.  0.00000000
 
ion      s     py     pz     px    dxy    dyz    dz2    dxz  x2-y2    tot
    1  0.040  0.077  0.077  0.027  0.057  0.136  0.007  0.057  0.020  0.497
 
band     9 # energy   37.00551092 # occ.  0.00000000
 
ion      s     py     pz     px    dxy    dyz    dz2    dxz  x2-y2    tot
    1  0.001  0.007  0.007  0.223  0.014  0.072  0.001  0.014  0.004  0.343
 
band    10 # energy   39.17668961 # occ.  0.00000000
 
ion      s     py     pz     px    dxy    dyz    dz2    dxz  x2-y2    tot
    1  0.000  0.101  0.101  0.000  0.092  0.000  0.134  0.092  0.045  0.565
 
band    11 # energy   40.93997760 # occ.  0.00000000
 
ion      s     py     pz     px    dxy    dyz    dz2    dxz  x2-y2    tot
    1  0.000  0.062  0.062  0.011  0.000  0.297  0.012  0.000  0.037  0.481
 
band    12 # energy   42.23880347 # occ.  0.00000000
 
ion      s     py     pz     px    dxy    dyz    dz2    dxz  x2-y2    tot
    1  0.000  0.003  0.003  0.000  0.486  0.000  0.084  0.486  0.028  1.090
 

 k-point     3 :    0.31250000 0.06250000 0.06250000     weight = 0.01171875

band     1 # energy    4.19660617 # occ.  1.00000000
 
ion      s     py     pz     px    dxy    dyz    dz2    dxz  x2-y2    tot
    1  0.508  0.061  0.061  0.017  0.032  0.057  0.001  0.032  0.003  0.771
 
band     2 # energy    7.54261856 # occ.  1.00000000
 
ion      s     py     pz     px    dxy    dyz    dz2    dxz  x2-y2    tot
    1  0.023  0.023  0.023  0.034  0.381  0.058  0.001  0.381  0.002  0.925
 
band     3 # energy    8.07117368 # occ.  1.00000000
 
ion      s     py     pz     px    dxy    dyz    dz2    dxz  x2-y2    tot
    1  0.000  0.003  0.003  0.000  0.034  0.476  0.104  0.034  0.312  0.967
 
band     4 # energy    8.14844497 # occ.  1.00000000
 
ion      s     py     pz     px    dxy    dyz    dz2    dxz  x2-y2    tot
    1  0.000  0.000  0.000  0.000  0.270  0.000  0.323  0.270  0.108  0.971
 
band     5 # energy    9.08690341 # occ.  1.00000000
 
ion      s     py     pz     px    dxy    dyz    dz2    dxz  x2-y2    tot
    1  0.000  0.001  0.001  0.000  0.217  0.000  0.407  0.217  0.136  0.979
 
band     6 # energy    9.53625055 # occ.  1.00000000
 
ion      s     py     pz     px    dxy    dyz    dz2    dxz  x2-y2    tot
    1  0.009  0.005  0.005  0.000  0.017  0.370  0.139  0.017  0.417  0.981
 
band     7 # energy   24.69009369 # occ.  0.00000000
 
ion      s     py     pz     px    dxy    dyz    dz2    dxz  x2-y2    tot
    1  0.122  0.078  0.078  0.134  0.141  0.112  0.001  0.141  0.003  0.811
 
band     8 # energy   32.34774787 # occ.  0.00000000
 
ion      s     py     pz     px    dxy    dyz    dz2    dxz  x2-y2    tot
    1  0.027  0.027  0.027  0.109  0.104  0.061  0.017  0.104  0.050  0.523
 
band     9 # energy   35.95236404 # occ.  0.00000000
 
ion      s     py     pz     px    dxy    dyz    dz2    dxz  x2-y2    tot
    1  0.000  0.067  0.067  0.134  0.005  0.141  0.001  0.005  0.003  0.424
 
band    10 # energy   38.78587769 # occ.  0.00000000
 
ion      s     py     pz     px    dxy    dyz    dz2    dxz  x2-y2    tot
    1  0.000  0.136  0.136  0.000  0.246  0.000  0.101  0.246  0.034  0.900
 
band    11 # energy   39.95839341 # occ.  0.00000000
 
ion      s     py     pz     px    dxy    dyz    dz2    dxz  x2-y2    tot
    1  0.000  0.100  0.100  0.000  0.001  0.000  0.468  0.001  0.156  0.825
 
band    12 # energy   40.93073533 # occ.  0.00000000
 
ion      s     py     pz     px    dxy    dyz    dz2    dxz  x2-y2    tot
    1  0.068  0.056  0.056  0.011  0.010  0.016  0.067  0.010  0.200  0.494
 

 k-point     4 :    0.43750000 0.06250000 0.06250000     weight = 0.01171875

band     1 # energy    5.32732258 # occ.  1.00000000
 
ion      s     py     pz     px    dxy    dyz    dz2    dxz  x2-y2    tot
    1  0.233  0.021  0.021  0.002  0.192  0.211  0.000  0.192  0.001  0.874
 
band     2 # energy    7.83338440 # occ.  1.00000000
 
ion      s     py     pz     px    dxy    dyz    dz2    dxz  x2-y2    tot
    1  0.000  0.003  0.003  0.000  0.046  0.287  0.145  0.046  0.434  0.962
 
band     3 # energy    7.93568089 # occ.  1.00000000
 
ion      s     py     pz     px    dxy    dyz    dz2    dxz  x2-y2    tot
    1  0.000  0.000  0.000  0.000  0.186  0.000  0.446  0.186  0.149  0.967
 
band     4 # energy    8.63292867 # occ.  1.00000000
 
ion      s     py     pz     px    dxy    dyz    dz2    dxz  x2-y2    tot
    1  0.060  0.102  0.102  0.102  0.187  0.023  0.019  0.187  0.058  0.841
 
band     5 # energy    9.66023215 # occ.  1.00000000
 
ion      s     py     pz     px    dxy    dyz    dz2    dxz  x2-y2    tot
    1  0.000  0.001  0.001  0.000  0.305  0.000  0.282  0.305  0.094  0.986
 
band     6 # energy   10.34265755 # occ.  1.00000000
 
ion      s     py     pz     px    dxy    dyz    dz2    dxz  x2-y2    tot
    1  0.042  0.050  0.050  0.030  0.010  0.426  0.079  0.010  0.237  0.933
 
band     7 # energy   19.29453994 # occ.  0.00000000
 
ion      s     py     pz     px    dxy    dyz    dz2    dxz  x2-y2    tot
    1  0.291  0.046  0.046  0.097  0.138  0.111  0.001  0.138  0.002  0.870
 
band     8 # energy   31.81754082 # occ.  0.00000000
 
ion      s     py     pz     px    dxy    dyz    dz2    dxz  x2-y2    tot
    1  0.012  0.004  0.004  0.110  0.054  0.035  0.026  0.054  0.078  0.377
 
band     9 # energy   34.72638430 # occ.  0.00000000
 
ion      s     py     pz     px    dxy    dyz    dz2    dxz  x2-y2    tot
    1  0.015  0.104  0.104  0.190  0.016  0.031  0.004  0.016  0.011  0.490
 
band    10 # energy   36.62009338 # occ.  0.00000000
 
ion      s     py     pz     px    dxy    dyz    dz2    dxz  x2-y2    tot
    1  0.000  0.256  0.256  0.000  0.001  0.000  0.143  0.001  0.048  0.705
 
band    11 # energy   39.09559024 # occ.  0.00000000
 
ion      s     py     pz     px    dxy    dyz    dz2    dxz  x2-y2    tot
    1  0.000  0.029  0.029  0.000  0.212  0.000  0.434  0.212  0.145  1.062
 
band    12 # energy   40.67675672 # occ.  0.00000000
 
ion      s     py     pz     px    dxy    dyz    dz2    dxz  x2-y2    tot
    1  0.058  0.016  0.016  0.013  0.000  0.220  0.139  0.000  0.416  0.878
 

 k-point     5 :   -0.43750000 0.06250000 0.06250000     weight = 0.01171875

band     1 # energy    5.44829854 # occ.  1.00000000
 
ion      s     py     pz     px    dxy    dyz    dz2    dxz  x2-y2    tot
    1  0.166  0.000  0.000  0.007  0.236  0.257  0.000  0.236  0.000  0.903
 
band     2 # energy    7.73421071 # occ.  1.00000000
 
ion      s     py     pz     px    dxy    dyz    dz2    dxz  x2-y2    tot
    1  0.000  0.002  0.002  0.000  0.063  0.199  0.157  0.063  0.472  0.960
 
band     3 # energy    7.88065312 # occ.  1.00000000
 
ion      s     py     pz     px    dxy    dyz    dz2    dxz  x2-y2    tot
    1  0.000  0.000  0.000  0.000  0.183  0.000  0.449  0.183  0.150  0.967
 
band     4 # energy    9.22531736 # occ.  1.00000000
 
ion      s     py     pz     px    dxy    dyz    dz2    dxz  x2-y2    tot
    1  0.003  0.078  0.078  0.077  0.061  0.352  0.045  0.061  0.134  0.889
 
band     5 # energy    9.95250108 # occ.  1.00000000
 
ion      s     py     pz     px    dxy    dyz    dz2    dxz  x2-y2    tot
    1  0.000  0.000  0.000  0.000  0.309  0.000  0.281  0.309  0.094  0.991
 
band     6 # energy   11.12613121 # occ.  0.00000000
 
ion      s     py     pz     px    dxy    dyz    dz2    dxz  x2-y2    tot
    1  0.007  0.143  0.143  0.160  0.054  0.089  0.041  0.054  0.124  0.816
 
band     7 # energy   17.12805517 # occ.  0.00000000
 
ion      s     py     pz     px    dxy    dyz    dz2    dxz  x2-y2    tot
    1  0.438  0.011  0.011  0.000  0.147  0.161  0.000  0.147  0.000  0.915
 
band     8 # energy   31.89086147 # occ.  0.00000000
 
ion      s     py     pz     px    dxy    dyz    dz2    dxz  x2-y2    tot
    1  0.000  0.001  0.001  0.047  0.009  0.041  0.027  0.009  0.081  0.218
 
band     9 # energy   34.73223100 # occ.  0.00000000
 
ion      s     py     pz     px    dxy    dyz    dz2    dxz  x2-y2    tot
    1  0.000  0.250  0.250  0.000  0.037  0.000  0.119  0.037  0.040  0.732
 
band    10 # energy   34.90279588 # occ.  0.00000000
 
ion      s     py     pz     px    dxy    dyz    dz2    dxz  x2-y2    tot
    1  0.037  0.090  0.090  0.309  0.014  0.004  0.015  0.014  0.046  0.620
 
band    11 # energy   39.93179805 # occ.  0.00000000
 
ion      s     py     pz     px    dxy    dyz    dz2    dxz  x2-y2    tot
    1  0.000  0.051  0.051  0.000  0.148  0.000  0.447  0.148  0.149  0.994
 
band    12 # energy   39.95226462 # occ.  0.00000000
 
ion      s     py     pz     px    dxy    dyz    dz2    dxz  x2-y2    tot
    1  0.013  0.003  0.003  0.028  0.028  0.279  0.148  0.028  0.444  0.975
 

 k-point     6 :   -0.31250000 0.06250000 0.06250000     weight = 0.01171875

band     1 # energy    5.11529724 # occ.  1.00000000
 
ion      s     py     pz     px    dxy    dyz    dz2    dxz  x2-y2    tot
    1  0.312  0.016  0.016  0.053  0.146  0.146  0.002  0.146  0.005  0.841
 
band     2 # energy    7.87158056 # occ.  1.00000000
 
ion      s     py     pz     px    dxy    dyz    dz2    dxz  x2-y2    tot
    1  0.002  0.007  0.007  0.005  0.117  0.083  0.154  0.117  0.463  0.954
 
band     3 # energy    8.02790214 # occ.  1.00000000
 
ion      s     py     pz     px    dxy    dyz    dz2    dxz  x2-y2    tot
    1  0.000  0.001  0.001  0.000  0.226  0.000  0.386  0.226  0.129  0.969
 
band     4 # energy    8.09368433 # occ.  1.00000000
 
ion      s     py     pz     px    dxy    dyz    dz2    dxz  x2-y2    tot
    1  0.067  0.072  0.072  0.074  0.011  0.560  0.001  0.011  0.002  0.869
 
band     5 # energy    9.73921541 # occ.  1.00000000
 
ion      s     py     pz     px    dxy    dyz    dz2    dxz  x2-y2    tot
    1  0.000  0.001  0.001  0.000  0.263  0.000  0.346  0.263  0.115  0.988
 
band     6 # energy    9.79634504 # occ.  1.00000000
 
ion      s     py     pz     px    dxy    dyz    dz2    dxz  x2-y2    tot
    1  0.031  0.015  0.015  0.035  0.186  0.143  0.086  0.186  0.258  0.955
 
band     7 # energy   20.92819874 # occ.  0.00000000
 
ion      s     py     pz     px    dxy    dyz    dz2    dxz  x2-y2    tot
    1  0.224  0.099  0.099  0.050  0.115  0.145  0.001  0.115  0.002  0.849
 
band     8 # energy   32.62101890 # occ.  0.00000000
 
ion      s     py     pz     px    dxy    dyz    dz2    dxz  x2-y2    tot
    1  0.006  0.007  0.007  0.004  0.000  0.101  0.022  0.000  0.066  0.213
 
band     9 # energy   34.19014468 # occ.  0.00000000
 
ion      s     py     pz     px    dxy    dyz    dz2    dxz  x2-y2    tot
    1  0.000  0.226  0.226  0.000  0.125  0.000  0.079  0.125  0.026  0.808
 
band    10 # energy   36.65410721 # occ.  0.00000000
 
ion      s     py     pz     px    dxy    dyz    dz2    dxz  x2-y2    tot
    1  0.048  0.044  0.044  0.383  0.000  0.088  0.029  0.000  0.086  0.721
 
band    11 # energy   39.75730038 # occ.  0.00000000
 
ion      s     py     pz     px    dxy    dyz    dz2    dxz  x2-y2    tot
    1  0.000  0.003  0.003  0.017  0.069  0.186  0.139  0.069  0.416  0.902
 
band    12 # energy   41.65819063 # occ.  0.00000000
 
ion      s     py     pz     px    dxy    dyz    dz2    dxz  x2-y2    tot
    1  0.000  0.061  0.061  0.000  0.044  0.000  0.461  0.044  0.154  0.825
 

 k-point     7 :   -0.18750000 0.06250000 0.06250000     weight = 0.01171875

band     1 # energy    3.58833504 # occ.  1.00000000
 
ion      s     py     pz     px    dxy    dyz    dz2    dxz  x2-y2    tot
    1  0.579  0.025  0.025  0.074  0.019  0.011  0.001  0.019  0.004  0.756
 
band     2 # energy    7.49347878 # occ.  1.00000000
 
ion      s     py     pz     px    dxy    dyz    dz2    dxz  x2-y2    tot
    1  0.009  0.014  0.014  0.009  0.136  0.625  0.000  0.136  0.001  0.945
 
band     3 # energy    8.13718694 # occ.  1.00000000
 
ion      s     py     pz     px    dxy    dyz    dz2    dxz  x2-y2    tot
    1  0.000  0.001  0.001  0.001  0.197  0.215  0.090  0.197  0.269  0.970
 
band     4 # energy    8.19767622 # occ.  1.00000000
 
ion      s     py     pz     px    dxy    dyz    dz2    dxz  x2-y2    tot
    1  0.000  0.002  0.002  0.000  0.357  0.000  0.192  0.357  0.064  0.973
 
band     5 # energy    9.01419074 # occ.  1.00000000
 
ion      s     py     pz     px    dxy    dyz    dz2    dxz  x2-y2    tot
    1  0.006  0.001  0.001  0.006  0.124  0.105  0.152  0.124  0.457  0.976
 
band     6 # energy    9.28472988 # occ.  1.00000000
 
ion      s     py     pz     px    dxy    dyz    dz2    dxz  x2-y2    tot
    1  0.000  0.001  0.001  0.000  0.128  0.000  0.544  0.128  0.181  0.984
 
band     7 # energy   26.71384304 # occ.  0.00000000
 
ion      s     py     pz     px    dxy    dyz    dz2    dxz  x2-y2    tot
    1  0.084  0.112  0.112  0.061  0.126  0.161  0.001  0.126  0.003  0.785
 
band     8 # energy   33.72221428 # occ.  0.00000000
 
ion      s     py     pz     px    dxy    dyz    dz2    dxz  x2-y2    tot
    1  0.026  0.001  0.001  0.012  0.001  0.175  0.014  0.001  0.042  0.272
 
band     9 # energy   34.74223997 # occ.  0.00000000
 
ion      s     py     pz     px    dxy    dyz    dz2    dxz  x2-y2    tot
    1  0.000  0.193  0.193  0.000  0.195  0.000  0.041  0.195  0.014  0.831
 
band    10 # energy   39.28616616 # occ.  0.00000000
 
ion      s     py     pz     px    dxy    dyz    dz2    dxz  x2-y2    tot
    1  0.031  0.003  0.003  0.198  0.012  0.091  0.076  0.012  0.229  0.654
 
band    11 # energy   39.57157285 # occ.  0.00000000
 
ion      s     py     pz     px    dxy    dyz    dz2    dxz  x2-y2    tot
    1  0.002  0.042  0.042  0.141  0.064  0.169  0.033  0.064  0.100  0.657
 
band    12 # energy   43.90411285 # occ.  0.00000000
 
ion      s     py     pz     px    dxy    dyz    dz2    dxz  x2-y2    tot
    1  0.000  0.036  0.037  0.000  0.015  0.000  0.356  0.015  0.117  0.575
 

 k-point     8 :   -0.06250000 0.06250000 0.06250000     weight = 0.01171875

band     1 # energy    2.09831506 # occ.  1.00000000
 
ion      s     py     pz     px    dxy    dyz    dz2    dxz  x2-y2    tot
    1  0.703  0.004  0.004  0.032  0.001  0.000  0.000  0.001  0.001  0.744
 
band     2 # energy    7.73096145 # occ.  1.00000000
 
ion      s     py     pz     px    dxy    dyz    dz2    dxz  x2-y2    tot
    1  0.000  0.001  0.001  0.000  0.058  0.849  0.000  0.058  0.000  0.968
 
band     3 # energy    8.07702641 # occ.  1.00000000
 
ion      s     py     pz     px    dxy    dyz    dz2    dxz  x2-y2    tot
    1  0.000  0.001  0.001  0.001  0.422  0.118  0.002  0.422  0.007  0.974
 
band     4 # energy    8.08148803 # occ.  1.00000000
 
ion      s     py     pz     px    dxy    dyz    dz2    dxz  x2-y2    tot
    1  0.000  0.001  0.001  0.000  0.480  0.000  0.009  0.480  0.003  0.974
 
band     5 # energy    8.88925073 # occ.  1.00000000
 
ion      s     py     pz     px    dxy    dyz    dz2    dxz  x2-y2    tot
    1  0.001  0.000  0.000  0.000  0.004  0.001  0.243  0.004  0.728  0.981
 
band     6 # energy    9.09865647 # occ.  1.00000000
 
ion      s     py     pz     px    dxy    dyz    dz2    dxz  x2-y2    tot
    1  0.000  0.000  0.000  0.000  0.006  0.000  0.730  0.006  0.243  0.986
 
band     7 # energy   32.57339401 # occ.  0.00000000
 
ion      s     py     pz     px    dxy    dyz    dz2    dxz  x2-y2    tot
    1  0.006  0.042  0.042  0.012  0.074  0.230  0.000  0.074  0.001  0.482
 
band     8 # energy   35.03433276 # occ.  0.00000000
 
ion      s     py     pz     px    dxy    dyz    dz2    dxz  x2-y2    tot
    1  0.034  0.047  0.047  0.070  0.047  0.031  0.006  0.047  0.018  0.347
 
band     9 # energy   36.13486418 # occ.  0.00000000
 
ion      s     py     pz     px    dxy    dyz    dz2    dxz  x2-y2    tot
    1  0.000  0.165  0.165  0.000  0.192  0.000  0.007  0.192  0.002  0.725
 
band    10 # energy   37.97199124 # occ.  0.00000000
 
ion      s     py     pz     px    dxy    dyz    dz2    dxz  x2-y2    tot
    1  0.009  0.079  0.079  0.051  0.032  0.004  0.025  0.032  0.075  0.385
 
band    11 # energy   42.05253599 # occ.  0.00000000
 
ion      s     py     pz     px    dxy    dyz    dz2    dxz  x2-y2    tot
    1  0.000  0.000  0.000  0.066  0.244  0.435  0.001  0.244  0.002  0.993
 
band    12 # energy   43.86627361 # occ.  0.00000000
 
ion      s     py     pz     px    dxy    dyz    dz2    dxz  x2-y2    tot
    1  0.000  0.001  0.001  0.000  0.347  0.003  0.024  0.329  0.008  0.714
 

 k-point     9 :    0.18750000 0.18750000 0.06250000     weight = 0.01171875

band     1 # energy    2.88547307 # occ.  1.00000000
 
ion      s     py     pz     px    dxy    dyz    dz2    dxz  x2-y2    tot
    1  0.641  0.003  0.084  0.003  0.000  0.002  0.011  0.002  0.000  0.746
 
band     2 # energy    7.44438199 # occ.  1.00000000
 
ion      s     py     pz     px    dxy    dyz    dz2    dxz  x2-y2    tot
    1  0.000  0.001  0.000  0.001  0.920  0.019  0.000  0.019  0.000  0.961
 
band     3 # energy    8.27966709 # occ.  1.00000000
 
ion      s     py     pz     px    dxy    dyz    dz2    dxz  x2-y2    tot
    1  0.000  0.003  0.000  0.003  0.035  0.398  0.136  0.398  0.000  0.972
 
band     4 # energy    8.31080560 # occ.  1.00000000
 
ion      s     py     pz     px    dxy    dyz    dz2    dxz  x2-y2    tot
    1  0.000  0.003  0.000  0.003  0.000  0.466  0.000  0.466  0.035  0.974
 
band     5 # energy    8.69730453 # occ.  1.00000000
 
ion      s     py     pz     px    dxy    dyz    dz2    dxz  x2-y2    tot
    1  0.008  0.001  0.004  0.001  0.005  0.065  0.826  0.065  0.000  0.973
 
band     6 # energy    9.22695307 # occ.  1.00000000
 
ion      s     py     pz     px    dxy    dyz    dz2    dxz  x2-y2    tot
    1  0.000  0.000  0.000  0.000  0.000  0.017  0.000  0.017  0.951  0.986
 
band     7 # energy   31.12108930 # occ.  0.00000000
 
ion      s     py     pz     px    dxy    dyz    dz2    dxz  x2-y2    tot
    1  0.018  0.096  0.014  0.096  0.259  0.100  0.010  0.100  0.000  0.696
 
band     8 # energy   33.58638819 # occ.  0.00000000
 
ion      s     py     pz     px    dxy    dyz    dz2    dxz  x2-y2    tot
    1  0.032  0.019  0.020  0.019  0.209  0.019  0.089  0.019  0.000  0.426
 
band     9 # energy   33.82403336 # occ.  0.00000000
 
ion      s     py     pz     px    dxy    dyz    dz2    dxz  x2-y2    tot
    1  0.000  0.199  0.000  0.199  0.000  0.193  0.000  0.193  0.007  0.792
 
band    10 # energy   36.01346997 # occ.  0.00000000
 
ion      s     py     pz     px    dxy    dyz    dz2    dxz  x2-y2    tot
    1  0.003  0.074  0.000  0.074  0.042  0.058  0.202  0.058  0.000  0.512
 
band    11 # energy   41.84350045 # occ.  0.00000000
 
ion      s     py     pz     px    dxy    dyz    dz2    dxz  x2-y2    tot
    1  0.233  0.016  0.563  0.016  0.007  0.000  0.140  0.000  0.000  0.976
 
band    12 # energy   44.38975306 # occ.  0.00000000
 
ion      s     py     pz     px    dxy    dyz    dz2    dxz  x2-y2    tot
    1  0.050  0.000  0.004  0.000  0.380  0.153  0.079  0.153  0.000  0.819
 

 k-point    10 :    0.31250000 0.18750000 0.06250000     weight = 0.02343750

band     1 # energy    4.25689957 # occ.  1.00000000
 
ion      s     py     pz     px    dxy    dyz    dz2    dxz  x2-y2    tot
    1  0.507  0.024  0.137  0.002  0.003  0.030  0.053  0.004  0.001  0.760
 
band     2 # energy    7.13226462 # occ.  1.00000000
 
ion      s     py     pz     px    dxy    dyz    dz2    dxz  x2-y2    tot
    1  0.001  0.002  0.001  0.012  0.848  0.006  0.003  0.076  0.000  0.949
 
band     3 # energy    8.05673021 # occ.  1.00000000
 
ion      s     py     pz     px    dxy    dyz    dz2    dxz  x2-y2    tot
    1  0.007  0.004  0.002  0.000  0.017  0.347  0.532  0.016  0.036  0.961
 
band     4 # energy    8.57899007 # occ.  1.00000000
 
ion      s     py     pz     px    dxy    dyz    dz2    dxz  x2-y2    tot
    1  0.002  0.002  0.002  0.004  0.044  0.122  0.049  0.566  0.183  0.973
 
band     5 # energy    8.97417726 # occ.  1.00000000
 
ion      s     py     pz     px    dxy    dyz    dz2    dxz  x2-y2    tot
    1  0.016  0.004  0.014  0.003  0.036  0.118  0.259  0.294  0.225  0.969
 
band     6 # energy    9.61825478 # occ.  1.00000000
 
ion      s     py     pz     px    dxy    dyz    dz2    dxz  x2-y2    tot
    1  0.014  0.005  0.008  0.000  0.001  0.343  0.068  0.003  0.539  0.981
 
band     7 # energy   27.26746933 # occ.  0.00000000
 
ion      s     py     pz     px    dxy    dyz    dz2    dxz  x2-y2    tot
    1  0.056  0.103  0.020  0.191  0.192  0.082  0.019  0.125  0.003  0.791
 
band     8 # energy   29.88936266 # occ.  0.00000000
 
ion      s     py     pz     px    dxy    dyz    dz2    dxz  x2-y2    tot
    1  0.039  0.141  0.010  0.132  0.114  0.116  0.058  0.077  0.019  0.707
 
band     9 # energy   33.68181152 # occ.  0.00000000
 
ion      s     py     pz     px    dxy    dyz    dz2    dxz  x2-y2    tot
    1  0.011  0.071  0.093  0.028  0.028  0.034  0.330  0.019  0.006  0.620
 
band    10 # energy   35.71259422 # occ.  0.00000000
 
ion      s     py     pz     px    dxy    dyz    dz2    dxz  x2-y2    tot
    1  0.027  0.001  0.072  0.104  0.318  0.001  0.061  0.065  0.000  0.650
 
band    11 # energy   40.67914049 # occ.  0.00000000
 
ion      s     py     pz     px    dxy    dyz    dz2    dxz  x2-y2    tot
    1  0.207  0.182  0.325  0.024  0.013  0.053  0.006  0.005  0.000  0.814
 
band    12 # energy   44.14127640 # occ.  0.00000000
 
ion      s     py     pz     px    dxy    dyz    dz2    dxz  x2-y2    tot
    1  0.050  0.022  0.021  0.001  0.062  0.010  0.189  0.029  0.157  0.541
 

 k-point    11 :    0.43750000 0.18750000 0.06250000     weight = 0.02343750

band     1 # energy    5.63366231 # occ.  1.00000000
 
ion      s     py     pz     px    dxy    dyz    dz2    dxz  x2-y2    tot
    1  0.246  0.019  0.095  0.001  0.162  0.143  0.091  0.086  0.001  0.844
 
band     2 # energy    7.25736217 # occ.  1.00000000
 
ion      s     py     pz     px    dxy    dyz    dz2    dxz  x2-y2    tot
    1  0.015  0.040  0.025  0.041  0.356  0.024  0.330  0.062  0.011  0.904
 
band     3 # energy    7.73891935 # occ.  1.00000000
 
ion      s     py     pz     px    dxy    dyz    dz2    dxz  x2-y2    tot
    1  0.026  0.001  0.022  0.007  0.313  0.277  0.255  0.006  0.042  0.949
 
band     4 # energy    8.41714505 # occ.  1.00000000
 
ion      s     py     pz     px    dxy    dyz    dz2    dxz  x2-y2    tot
    1  0.002  0.004  0.006  0.001  0.038  0.076  0.051  0.298  0.492  0.968
 
band     5 # energy    9.70485914 # occ.  1.00000000
 
ion      s     py     pz     px    dxy    dyz    dz2    dxz  x2-y2    tot
    1  0.003  0.001  0.008  0.004  0.037  0.060  0.055  0.468  0.347  0.982
 
band     6 # energy   10.84205872 # occ.  0.00000000
 
ion      s     py     pz     px    dxy    dyz    dz2    dxz  x2-y2    tot
    1  0.087  0.034  0.088  0.017  0.016  0.389  0.180  0.032  0.084  0.927
 
band     7 # energy   21.43605142 # occ.  0.00000000
 
ion      s     py     pz     px    dxy    dyz    dz2    dxz  x2-y2    tot
    1  0.185  0.103  0.020  0.174  0.165  0.075  0.015  0.096  0.004  0.836
 
band     8 # energy   29.25989159 # occ.  0.00000000
 
ion      s     py     pz     px    dxy    dyz    dz2    dxz  x2-y2    tot
    1  0.015  0.099  0.002  0.163  0.105  0.069  0.129  0.041  0.058  0.682
 
band     9 # energy   31.30116616 # occ.  0.00000000
 
ion      s     py     pz     px    dxy    dyz    dz2    dxz  x2-y2    tot
    1  0.072  0.026  0.219  0.082  0.000  0.001  0.247  0.040  0.025  0.711
 
band    10 # energy   35.37396460 # occ.  0.00000000
 
ion      s     py     pz     px    dxy    dyz    dz2    dxz  x2-y2    tot
    1  0.064  0.139  0.108  0.026  0.239  0.020  0.006  0.015  0.007  0.624
 
band    11 # energy   42.12833311 # occ.  0.00000000
 
ion      s     py     pz     px    dxy    dyz    dz2    dxz  x2-y2    tot
    1  0.020  0.106  0.002  0.002  0.199  0.019  0.109  0.044  0.216  0.718
 
band    12 # energy   44.65177519 # occ.  0.00000000
 
ion      s     py     pz     px    dxy    dyz    dz2    dxz  x2-y2    tot
    1  0.247  0.109  0.100  0.049  0.001  0.000  0.234  0.007  0.001  0.747
 

 k-point    12 :   -0.43750000 0.18750000 0.06250000     weight = 0.02343750

band     1 # energy    5.93354358 # occ.  1.00000000
 
ion      s     py     pz     px    dxy    dyz    dz2    dxz  x2-y2    tot
    1  0.121  0.000  0.025  0.009  0.337  0.238  0.010  0.168  0.000  0.909
 
band     2 # energy    7.29370937 # occ.  1.00000000
 
ion      s     py     pz     px    dxy    dyz    dz2    dxz  x2-y2    tot
    1  0.000  0.030  0.003  0.013  0.030  0.075  0.683  0.011  0.075  0.921
 
band     3 # energy    8.19024889 # occ.  1.00000000
 
ion      s     py     pz     px    dxy    dyz    dz2    dxz  x2-y2    tot
    1  0.002  0.030  0.042  0.053  0.264  0.331  0.073  0.015  0.114  0.925
 
band     4 # energy    8.26092463 # occ.  1.00000000
 
ion      s     py     pz     px    dxy    dyz    dz2    dxz  x2-y2    tot
    1  0.001  0.016  0.028  0.004  0.165  0.002  0.019  0.244  0.473  0.952
 
band     5 # energy    9.91398148 # occ.  1.00000000
 
ion      s     py     pz     px    dxy    dyz    dz2    dxz  x2-y2    tot
    1  0.000  0.000  0.000  0.000  0.037  0.171  0.030  0.464  0.287  0.990
 
band     6 # energy   13.02119400 # occ.  0.00000000
 
ion      s     py     pz     px    dxy    dyz    dz2    dxz  x2-y2    tot
    1  0.012  0.130  0.186  0.131  0.060  0.111  0.161  0.015  0.021  0.828
 
band     7 # energy   17.31340167 # occ.  0.00000000
 
ion      s     py     pz     px    dxy    dyz    dz2    dxz  x2-y2    tot
    1  0.406  0.015  0.010  0.056  0.167  0.121  0.001  0.120  0.001  0.897
 
band     8 # energy   28.65465469 # occ.  0.00000000
 
ion      s     py     pz     px    dxy    dyz    dz2    dxz  x2-y2    tot