<?xml version="1.0" encoding="ISO-8859-1"?>
<modeling>
 <generator>
  <i name="program" type="string">vasp </i>
  <i name="version" type="string">6.3.2  </i>
  <i name="subversion" type="string">27Jun22 (build Aug 12 2022 00:53:59) complex                          parallel </i>
  <i name="platform" type="string">tv2STD </i>
  <i name="date" type="string">2024 11 30 </i>
  <i name="time" type="string">17:12:15 </i>
 </generator>
 <incar>
  <i type="string" name="SYSTEM">Co-fcc</i>
  <i type="int" name="ISTART">     0</i>
  <i type="string" name="PREC">Accurate      normal | accurate</i>
  <i type="string" name="ALGO">Normal     Normal, Fast, Very_Fast</i>
  <i type="logical" name="ADDGRID"> F  </i>
  <i type="int" name="ISPIN">     2</i>
  <i type="int" name="ICHARG">     2</i>
  <i type="int" name="INIWAV">     1</i>
  <i type="int" name="NELM">   100</i>
  <i type="int" name="IBRION">     2</i>
  <i name="EDIFF">      0.00000100</i>
  <i name="EDIFFG">     -0.02000000</i>
  <i type="int" name="NSW">   100</i>
  <i type="int" name="ISIF">     2</i>
  <i type="int" name="ISYM">     1</i>
  <i name="ENCUT">    400.00000000</i>
  <v name="MAGMOM">      3.00000000</v>
  <i type="logical" name="LREAL"> F  </i>
  <i type="int" name="ISMEAR">     0</i>
  <i name="SIGMA">      0.05000000</i>
  <i type="int" name="NWRITE">     2</i>
  <i type="logical" name="LWAVE"> T  </i>
  <i type="logical" name="LCHARG"> T  </i>
  <i type="int" name="LORBIT">    11</i>
 </incar>
 <primitive_cell>
  <structure name="primitive_cell" >
   <crystal>
    <varray name="basis" >
     <v>       0.00000000       1.74446697       1.74446697 </v>
     <v>       1.74446697       0.00000000       1.74446697 </v>
     <v>       1.74446697       1.74446697       0.00000000 </v>
    </varray>
    <i name="volume">     10.61740177 </i>
    <varray name="rec_basis" >
     <v>      -0.28662050       0.28662050       0.28662050 </v>
     <v>       0.28662050      -0.28662050       0.28662050 </v>
     <v>       0.28662050       0.28662050      -0.28662050 </v>
    </varray>
   </crystal>
   <varray name="positions" >
    <v>       0.00000000       0.00000000       0.00000000 </v>
   </varray>
  </structure>
  <varray name="primitive_index" >
   <v type="int" >        1 </v>
  </varray>
 </primitive_cell>
 <kpoints>
  <generation param="Monkhorst-Pack">
   <v type="int" name="divisions">       8        8        8 </v>
   <v name="usershift">      0.00000000       0.00000000       0.00000000 </v>
   <v name="genvec1">      0.12500000       0.00000000       0.00000000 </v>
   <v name="genvec2">      0.00000000       0.12500000       0.00000000 </v>
   <v name="genvec3">      0.00000000       0.00000000       0.12500000 </v>
   <v name="shift">      0.50000000       0.50000000       0.50000000 </v>
  </generation>
  <varray name="kpointlist" >
   <v>       0.06250000       0.06250000       0.06250000 </v>
   <v>       0.18750000       0.06250000       0.06250000 </v>
   <v>       0.31250000       0.06250000       0.06250000 </v>
   <v>       0.43750000       0.06250000       0.06250000 </v>
   <v>      -0.43750000       0.06250000       0.06250000 </v>
   <v>      -0.31250000       0.06250000       0.06250000 </v>
   <v>      -0.18750000       0.06250000       0.06250000 </v>
   <v>      -0.06250000       0.06250000       0.06250000 </v>
   <v>       0.18750000       0.18750000       0.06250000 </v>
   <v>       0.31250000       0.18750000       0.06250000 </v>
   <v>       0.43750000       0.18750000       0.06250000 </v>
   <v>      -0.43750000       0.18750000       0.06250000 </v>
   <v>      -0.31250000       0.18750000       0.06250000 </v>
   <v>      -0.18750000       0.18750000       0.06250000 </v>
   <v>      -0.06250000       0.18750000       0.06250000 </v>
   <v>       0.31250000       0.31250000       0.06250000 </v>
   <v>       0.43750000       0.31250000       0.06250000 </v>
   <v>      -0.43750000       0.31250000       0.06250000 </v>
   <v>      -0.31250000       0.31250000       0.06250000 </v>
   <v>      -0.18750000       0.31250000       0.06250000 </v>
   <v>      -0.06250000       0.31250000       0.06250000 </v>
   <v>       0.43750000       0.43750000       0.06250000 </v>
   <v>      -0.43750000       0.43750000       0.06250000 </v>
   <v>      -0.31250000       0.43750000       0.06250000 </v>
   <v>      -0.18750000       0.43750000       0.06250000 </v>
   <v>      -0.06250000       0.43750000       0.06250000 </v>
   <v>      -0.43750000      -0.43750000       0.06250000 </v>
   <v>      -0.31250000      -0.43750000       0.06250000 </v>
   <v>      -0.18750000      -0.43750000       0.06250000 </v>
   <v>      -0.31250000      -0.31250000       0.06250000 </v>
   <v>      -0.18750000      -0.31250000       0.06250000 </v>
   <v>      -0.18750000      -0.18750000       0.06250000 </v>
   <v>       0.18750000       0.18750000       0.18750000 </v>
   <v>       0.31250000       0.18750000       0.18750000 </v>
   <v>       0.43750000       0.18750000       0.18750000 </v>
   <v>      -0.43750000       0.18750000       0.18750000 </v>
   <v>      -0.31250000       0.18750000       0.18750000 </v>
   <v>      -0.18750000       0.18750000       0.18750000 </v>
   <v>       0.31250000       0.31250000       0.18750000 </v>
   <v>       0.43750000       0.31250000       0.18750000 </v>
   <v>      -0.43750000       0.31250000       0.18750000 </v>
   <v>      -0.31250000       0.31250000       0.18750000 </v>
   <v>      -0.18750000       0.31250000       0.18750000 </v>
   <v>       0.43750000       0.43750000       0.18750000 </v>
   <v>      -0.43750000       0.43750000       0.18750000 </v>
   <v>      -0.31250000       0.43750000       0.18750000 </v>
   <v>      -0.18750000       0.43750000       0.18750000 </v>
   <v>      -0.43750000      -0.43750000       0.18750000 </v>
   <v>      -0.31250000      -0.43750000       0.18750000 </v>
   <v>      -0.31250000      -0.31250000       0.18750000 </v>
   <v>       0.31250000       0.31250000       0.31250000 </v>
   <v>       0.43750000       0.31250000       0.31250000 </v>
   <v>      -0.43750000       0.31250000       0.31250000 </v>
   <v>      -0.31250000       0.31250000       0.31250000 </v>
   <v>       0.43750000       0.43750000       0.31250000 </v>
   <v>      -0.43750000       0.43750000       0.31250000 </v>
   <v>      -0.31250000       0.43750000       0.31250000 </v>
   <v>      -0.43750000      -0.43750000       0.31250000 </v>
   <v>       0.43750000       0.43750000       0.43750000 </v>
   <v>      -0.43750000       0.43750000       0.43750000 </v>
  </varray>
  <varray name="weights" >
   <v>       0.00390625 </v>
   <v>       0.01171875 </v>
   <v>       0.01171875 </v>
   <v>       0.01171875 </v>
   <v>       0.01171875 </v>
   <v>       0.01171875 </v>
   <v>       0.01171875 </v>
   <v>       0.01171875 </v>
   <v>       0.01171875 </v>
   <v>       0.02343750 </v>
   <v>       0.02343750 </v>
   <v>       0.02343750 </v>
   <v>       0.02343750 </v>
   <v>       0.02343750 </v>
   <v>       0.02343750 </v>
   <v>       0.01171875 </v>
   <v>       0.02343750 </v>
   <v>       0.02343750 </v>
   <v>       0.02343750 </v>
   <v>       0.02343750 </v>
   <v>       0.02343750 </v>
   <v>       0.01171875 </v>
   <v>       0.02343750 </v>
   <v>       0.02343750 </v>
   <v>       0.02343750 </v>
   <v>       0.02343750 </v>
   <v>       0.01171875 </v>
   <v>       0.02343750 </v>
   <v>       0.02343750 </v>
   <v>       0.01171875 </v>
   <v>       0.02343750 </v>
   <v>       0.01171875 </v>
   <v>       0.00390625 </v>
   <v>       0.01171875 </v>
   <v>       0.01171875 </v>
   <v>       0.01171875 </v>
   <v>       0.01171875 </v>
   <v>       0.01171875 </v>
   <v>       0.01171875 </v>
   <v>       0.02343750 </v>
   <v>       0.02343750 </v>
   <v>       0.02343750 </v>
   <v>       0.02343750 </v>
   <v>       0.01171875 </v>
   <v>       0.02343750 </v>
   <v>       0.02343750 </v>
   <v>       0.02343750 </v>
   <v>       0.01171875 </v>
   <v>       0.02343750 </v>
   <v>       0.01171875 </v>
   <v>       0.00390625 </v>
   <v>       0.01171875 </v>
   <v>       0.01171875 </v>
   <v>       0.01171875 </v>
   <v>       0.01171875 </v>
   <v>       0.02343750 </v>
   <v>       0.02343750 </v>
   <v>       0.01171875 </v>
   <v>       0.00390625 </v>
   <v>       0.01171875 </v>
  </varray>
 </kpoints>
 <parameters>
  <separator name="general" >
   <i type="string" name="SYSTEM">Co-fcc</i>
   <i type="logical" name="LCOMPAT"> F  </i>
  </separator>
  <separator name="electronic" >
   <i type="string" name="PREC">accura</i>
   <i name="ENMAX">    400.00000000</i>
   <i name="ENAUG">    477.81800000</i>
   <i name="EDIFF">      0.00000100</i>
   <i type="int" name="IALGO">    38</i>
   <i type="int" name="IWAVPR">    11</i>
   <i type="int" name="NBANDS">    12</i>
   <i type="int" name="NBANDSLOW">    -1</i>
   <i type="int" name="NBANDSHIGH">    -1</i>
   <i name="NELECT">      9.00000000</i>
   <i type="int" name="TURBO">     0</i>
   <i type="int" name="IRESTART">     0</i>
   <i type="int" name="NREBOOT">     0</i>
   <i type="int" name="NMIN">     0</i>
   <i name="EREF">      0.00000000</i>
   <separator name="electronic smearing" >
    <i type="int" name="ISMEAR">     0</i>
    <i name="SIGMA">      0.05000000</i>
    <i name="KSPACING">      0.50000000</i>
    <i type="logical" name="KGAMMA"> T  </i>
    <i type="logical" name="KBLOWUP"> T  </i>
   </separator>
   <separator name="electronic projectors" >
    <i type="logical" name="LREAL"> F  </i>
    <v name="ROPT">      0.00000000</v>
    <i type="int" name="LMAXPAW">  -100</i>
    <i type="int" name="LMAXMIX">     2</i>
    <i type="logical" name="NLSPLINE"> F  </i>
   </separator>
   <separator name="electronic startup" >
    <i type="int" name="ISTART">     0</i>
    <i type="int" name="ICHARG">     2</i>
    <i type="int" name="INIWAV">     1</i>
   </separator>
   <separator name="electronic spin" >
    <i type="int" name="ISPIN">     2</i>
    <i type="logical" name="LNONCOLLINEAR"> F  </i>
    <v name="MAGMOM">      3.00000000</v>
    <i name="NUPDOWN">     -1.00000000</i>
    <i type="logical" name="LSORBIT"> F  </i>
    <v name="SAXIS">      0.00000000      0.00000000      1.00000000</v>
    <i type="logical" name="LSPIRAL"> F  </i>
    <v name="QSPIRAL">      0.00000000      0.00000000      0.00000000</v>
    <i type="logical" name="LZEROZ"> F  </i>
   </separator>
   <separator name="electronic exchange-correlation" >
    <i type="logical" name="LASPH"> F  </i>
    <i type="logical" name="LMETAGGA"> F  </i>
   </separator>
   <separator name="electronic convergence" >
    <i type="int" name="NELM">   100</i>
    <i type="int" name="NELMDL">    -5</i>
    <i type="int" name="NELMIN">     2</i>
    <i name="ENINI">    400.00000000</i>
    <separator name="electronic convergence detail" >
     <i type="logical" name="LDIAG"> T  </i>
     <i type="logical" name="LSUBROT"> F  </i>
     <i name="WEIMIN">      0.00100000</i>
     <i name="EBREAK">      0.00000002</i>
     <i name="DEPER">      0.30000000</i>
     <i type="int" name="NRMM">     4</i>
     <i name="TIME">      0.40000000</i>
    </separator>
   </separator>
   <separator name="electronic mixer" >
    <i name="AMIX">      0.40000000</i>
    <i name="BMIX">      1.00000000</i>
    <i name="AMIN">      0.10000000</i>
    <i name="AMIX_MAG">      1.60000000</i>
    <i name="BMIX_MAG">      1.00000000</i>
    <separator name="electronic mixer details" >
     <i type="int" name="IMIX">     4</i>
     <i type="logical" name="MIXFIRST"> F  </i>
     <i type="int" name="MAXMIX">   -45</i>
     <i name="WC">    100.00000000</i>
     <i type="int" name="INIMIX">     1</i>
     <i type="int" name="MIXPRE">     1</i>
     <i type="int" name="MREMOVE">     5</i>
    </separator>
   </separator>
   <separator name="electronic dipolcorrection" >
    <i type="logical" name="LDIPOL"> F  </i>
    <i type="logical" name="LMONO"> F  </i>
    <i type="int" name="IDIPOL">     0</i>
    <i name="EPSILON">      1.00000000</i>
    <v name="DIPOL">   -100.00000000   -100.00000000   -100.00000000</v>
    <i name="EFIELD">      0.00000000</i>
   </separator>
  </separator>
  <separator name="grids" >
   <i type="int" name="NGX">    16</i>
   <i type="int" name="NGY">    16</i>
   <i type="int" name="NGZ">    16</i>
   <i type="int" name="NGXF">    32</i>
   <i type="int" name="NGYF">    32</i>
   <i type="int" name="NGZF">    32</i>
   <i type="logical" name="ADDGRID"> F  </i>
  </separator>
  <separator name="ionic" >
   <i type="int" name="NSW">   100</i>
   <i type="int" name="IBRION">     2</i>
   <i type="int" name="MDALGO">     0</i>
   <i type="int" name="ISIF">     2</i>
   <i name="PSTRESS">      0.00000000</i>
   <i name="EDIFFG">     -0.02000000</i>
   <i type="int" name="NFREE">     1</i>
   <i name="POTIM">      0.50000000</i>
   <i name="SMASS">     -3.00000000</i>
   <i name="SCALEE">      1.00000000</i>
  </separator>
  <separator name="ionic md" >
   <i name="TEBEG">      0.00010000</i>
   <i name="TEEND">      0.00010000</i>
   <i type="int" name="NBLOCK">     1</i>
   <i type="int" name="KBLOCK">   100</i>
   <i type="int" name="NPACO">   256</i>
   <i name="APACO">     10.00000000</i>
  </separator>
  <separator name="symmetry" >
   <i type="int" name="ISYM">     1</i>
   <i name="SYMPREC">      0.00001000</i>
  </separator>
  <separator name="dos" >
   <i type="int" name="LORBIT">    11</i>
   <v name="RWIGS">     -1.00000000</v>
   <i type="int" name="NEDOS">   301</i>
   <i name="EMIN">     10.00000000</i>
   <i name="EMAX">    -10.00000000</i>
   <i name="EFERMI">      0.00000000</i>
  </separator>
  <separator name="writing" >
   <i type="int" name="NWRITE">     2</i>
   <i type="logical" name="LWAVE"> T  </i>
   <i type="logical" name="LDOWNSAMPLE"> F  </i>
   <i type="logical" name="LCHARG"> T  </i>
   <i type="logical" name="LPARD"> F  </i>
   <i type="logical" name="LVTOT"> F  </i>
   <i type="logical" name="LVHAR"> F  </i>
   <i type="logical" name="LELF"> F  </i>
   <i type="logical" name="LOPTICS"> F  </i>
   <v name="STM">      0.00000000      0.00000000      0.00000000      0.00000000      0.00000000      0.00000000      0.00000000</v>
  </separator>
  <separator name="performance" >
   <i type="int" name="NPAR">     4</i>
   <i type="int" name="NSIM">     4</i>
   <i type="int" name="NBLK">    -1</i>
   <i type="logical" name="LPLANE"> T  </i>
   <i type="logical" name="LSCALAPACK"> T  </i>
   <i type="logical" name="LSCAAWARE"> T  </i>
   <i type="logical" name="LSCALU"> F  </i>
   <i type="logical" name="LASYNC"> F  </i>
   <i type="logical" name="LORBITALREAL"> F  </i>
  </separator>
  <separator name="miscellaneous" >
   <i type="int" name="IDIOT">     3</i>
   <i type="int" name="PHON_NSTRUCT">    -1</i>
   <i type="logical" name="LMUSIC"> F  </i>
   <v name="POMASS">     58.93300000</v>
   <v name="DARWINR">      0.00000000</v>
   <v name="DARWINV">      1.00000000</v>
   <i type="logical" name="LCORR"> T  </i>
  </separator>
  <i type="logical" name="GGA_COMPAT"> T  </i>
  <i type="logical" name="LBERRY"> F  </i>
  <i type="int" name="ICORELEVEL">     0</i>
  <i type="logical" name="LDAU"> F  </i>
  <i type="int" name="I_CONSTRAINED_M">     0</i>
  <separator name="electronic exchange-correlation" >
   <i type="string" name="GGA">--</i>
   <i type="int" name="VOSKOWN">     0</i>
   <i type="logical" name="LHFCALC"> F  </i>
   <i type="string" name="PRECFOCK"></i>
   <i type="logical" name="LSYMGRAD"> F  </i>
   <i type="logical" name="LHFONE"> F  </i>
   <i type="logical" name="LRHFCALC"> F  </i>
   <i type="logical" name="LTHOMAS"> F  </i>
   <i type="logical" name="LMODELHF"> F  </i>
   <i type="logical" name="LFOCKACE"> F  </i>
   <i name="ENCUT4O">     -1.00000000</i>
   <i type="int" name="EXXOEP">     0</i>
   <i type="int" name="FOURORBIT">     0</i>
   <i name="AEXX">      0.00000000</i>
   <i name="HFALPHA">      0.00000000</i>
   <i name="MCALPHA">      0.00000000</i>
   <i name="ALDAX">      1.00000000</i>
   <i name="AGGAX">      1.00000000</i>
   <i name="ALDAC">      1.00000000</i>
   <i name="AGGAC">      1.00000000</i>
   <i type="int" name="NKREDX">     1</i>
   <i type="int" name="NKREDY">     1</i>
   <i type="int" name="NKREDZ">     1</i>
   <i type="logical" name="SHIFTRED"> F  </i>
   <i type="logical" name="ODDONLY"> F  </i>
   <i type="logical" name="EVENONLY"> F  </i>
   <i type="int" name="LMAXFOCK">     0</i>
   <i type="int" name="NMAXFOCKAE">     0</i>
   <i type="logical" name="LFOCKAEDFT"> F  </i>
   <i name="HFSCREEN">      0.00000000</i>
   <i name="HFSCREENC">      0.00000000</i>
   <i type="int" name="NBANDSGWLOW">     0</i>
  </separator>
  <separator name="vdW DFT" >
   <i type="logical" name="LUSE_VDW"> F  </i>
   <i name="Zab_VDW">     -0.84910000</i>
   <i name="PARAM1">      0.12340000</i>
   <i name="PARAM2">      1.00000000</i>
   <i name="PARAM3">      0.00000000</i>
  </separator>
  <separator name="model GW" >
   <i type="int" name="MODEL_GW">     0</i>
   <i name="MODEL_EPS0">      6.37044106</i>
   <i name="MODEL_ALPHA">      1.00000000</i>
  </separator>
  <separator name="linear response parameters" >
   <i type="logical" name="LEPSILON"> F  </i>
   <i type="logical" name="LRPA"> F  </i>
   <i type="logical" name="LNABLA"> F  </i>
   <i type="logical" name="LVEL"> F  </i>
   <i name="CSHIFT">      0.10000000</i>
   <i name="OMEGAMAX">     -1.00000000</i>
   <i name="DEG_THRESHOLD">      0.00200000</i>
   <i name="RTIME">     -0.10000000</i>
   <i name="WPLASMAI">      0.00000000</i>
   <v name="DFIELD">      0.00000000      0.00000000      0.00000000</v>
   <v name="WPLASMA">      0.00000000      0.00000000      0.00000000      0.00000000      0.00000000      0.00000000      0.00000000      0.00000000      0.00000000</v>
  </separator>
  <separator name="orbital magnetization" >
   <i type="logical" name="NUCIND"> F  </i>
   <v name="MAGPOS">      0.00000000      0.00000000      0.00000000</v>
   <i type="logical" name="LNICSALL"> T  </i>
   <i type="logical" name="ORBITALMAG"> F  </i>
   <i type="logical" name="LMAGBLOCH"> F  </i>
   <i type="logical" name="LCHIMAG"> F  </i>
   <i type="logical" name="LGAUGE"> T  </i>
   <i type="int" name="MAGATOM">     0</i>
   <v name="MAGDIPOL">      0.00000000      0.00000000      0.00000000</v>
   <v name="AVECCONST">      0.00000000      0.00000000      0.00000000</v>
  </separator>
  <separator name="response functions" >
   <i type="logical" name="LFINITE_TEMPERATURE"> F  </i>
   <i type="logical" name="LADDER"> F  </i>
   <i type="logical" name="LRPAFORCE"> F  </i>
   <i type="logical" name="LFXC"> F  </i>
   <i type="logical" name="LHARTREE"> T  </i>
   <i type="int" name="IBSE">     0</i>
   <v type="int" name="KPOINT">    -1     0     0     0</v>
   <i type="logical" name="LTCTC"> F  </i>
   <i type="logical" name="LTCTE"> F  </i>
   <i type="logical" name="LTETE"> F  </i>
   <i type="logical" name="LTRIPLET"> F  </i>
   <i type="logical" name="LFXCEPS"> F  </i>
   <i type="logical" name="LFXHEG"> F  </i>
   <i type="int" name="NATURALO">     2</i>
   <i type="logical" name="LHOLEGF"> F  </i>
   <i type="logical" name="L2ORDER"> F  </i>
   <i type="logical" name="LDMP1"> F  </i>
   <i type="logical" name="LMP2LT"> F  </i>
   <i type="logical" name="LSMP2LT"> F  </i>
   <i type="logical" name="LGWLF"> F  </i>
   <i name="ENCUTGW">     -2.00000000</i>
   <i name="ENCUTGWSOFT">     -2.00000000</i>
   <i name="ENCUTLF">     -1.00000000</i>
   <i type="logical" name="LESF_SPLINES"> F  </i>
   <i type="int" name="LMAXMP2">    -1</i>
   <i name="SCISSOR">      0.00000000</i>
   <i type="int" name="NOMEGA">     0</i>
   <i type="int" name="NOMEGAR">     0</i>
   <i type="int" name="NBANDSGW">    -1</i>
   <i type="int" name="NBANDSO">    -1</i>
   <i type="int" name="NBANDSV">    -1</i>
   <i type="int" name="NELMGW">     1</i>
   <i type="int" name="NELMHF">     1</i>
   <i type="int" name="DIM">     3</i>
   <i type="int" name="IESPILON">     4</i>
   <i type="int" name="ANTIRES">     0</i>
   <i name="OMEGAMAX">    -30.00000000</i>
   <i name="OMEGAMIN">    -30.00000000</i>
   <i name="OMEGATL">   -200.00000000</i>
   <i type="int" name="OMEGAGRID">     0</i>
   <i name="CSHIFT">     -0.10000000</i>
   <i type="logical" name="LSELFENERGY"> F  </i>
   <i type="logical" name="LSPECTRAL"> F  </i>
   <i type="logical" name="LSPECTRALGW"> F  </i>
   <i type="logical" name="LSINGLES"> F  </i>
   <i type="logical" name="LFERMIGW"> F  </i>
   <i type="logical" name="ODDONLYGW"> F  </i>
   <i type="logical" name="EVENONLYGW"> F  </i>
   <i type="int" name="NKREDLFX">     1</i>
   <i type="int" name="NKREDLFY">     1</i>
   <i type="int" name="NKREDLFZ">     1</i>
   <i type="int" name="MAXMEM">  2800</i>
   <i type="int" name="TELESCOPE">     0</i>
   <i type="int" name="NTAUPAR">    -1</i>
   <i type="int" name="NOMEGAPAR">    -1</i>
   <i name="DAMP_NEWTON">      0.80000001</i>
   <i name="LAMBDA">      1.00000000</i>
  </separator>
  <separator name="External order field" >
   <i name="OFIELD_KAPPA">      0.00000000</i>
   <v name="OFIELD_K">      0.00000000      0.00000000      0.00000000</v>
   <i name="OFIELD_Q6_NEAR">      0.00000000</i>
   <i name="OFIELD_Q6_FAR">      0.00000000</i>
   <i name="OFIELD_A">      0.00000000</i>
  </separator>
  <separator name="optional k-points parameters" >
   <i type="int" name="KPOINTS_OPT_MODE">     1</i>
   <i type="logical" name="LKPOINTS_OPT"> F  </i>
  </separator>
 </parameters>
 <atominfo>
  <atoms>       1 </atoms>
  <types>       1 </types>
  <array name="atoms" >
   <dimension dim="1">ion</dimension>
   <field type="string">element</field>
   <field type="int">atomtype</field>
   <set>
    <rc><c>Co</c><c>   1</c></rc>
   </set>
  </array>
  <array name="atomtypes" >
   <dimension dim="1">type</dimension>
   <field type="int">atomspertype</field>
   <field type="string">element</field>
   <field>mass</field>
   <field>valence</field>
   <field type="string">pseudopotential</field>
   <set>
    <rc><c>   1</c><c>Co</c><c>     58.93300000</c><c>      9.00000000</c><c>  PAW_PBE Co 02Aug2007                  </c></rc>
   </set>
  </array>
 </atominfo>
 <structure name="initialpos" >
  <crystal>
   <varray name="basis" >
    <v>       0.00000000       1.74446697       1.74446697 </v>
    <v>       1.74446697       0.00000000       1.74446697 </v>
    <v>       1.74446697       1.74446697       0.00000000 </v>
   </varray>
   <i name="volume">     10.61740177 </i>
   <varray name="rec_basis" >
    <v>      -0.28662050       0.28662050       0.28662050 </v>
    <v>       0.28662050      -0.28662050       0.28662050 </v>
    <v>       0.28662050       0.28662050      -0.28662050 </v>
   </varray>
  </crystal>
  <varray name="positions" >
   <v>       0.00000000       0.00000000       0.00000000 </v>
  </varray>
 </structure>
 <calculation>
  <scstep>
   <time name="dav">    0.27    0.27</time>
   <time name="total">    0.28    0.28</time>
   <energy>
    <i name="alphaZ">     39.89459173 </i>
    <i name="ewald">   -766.38081418 </i>
    <i name="hartreedc">   -147.67538347 </i>
    <i name="XCdc">     17.88527836 </i>
    <i name="pawpsdc">    719.99081943 </i>
    <i name="pawaedc">   -772.94345096 </i>
    <i name="eentropy">     -0.00090562 </i>
    <i name="bandstr">    117.75818526 </i>
    <i name="atom">    813.35773410 </i>
    <i name="e_fr_energy">     21.88605465 </i>
    <i name="e_wo_entrp">     21.88696028 </i>
    <i name="e_0_energy">     21.88650746 </i>
   </energy>
  </scstep>
  <scstep>
   <time name="dav">    0.26    0.26</time>
   <time name="total">    0.26    0.26</time>
   <energy>
    <i name="e_fr_energy">     -6.98952354 </i>
    <i name="e_wo_entrp">     -6.98871105 </i>
    <i name="e_0_energy">     -6.98911729 </i>
   </energy>
  </scstep>
  <scstep>
   <time name="dav">    0.27    0.27</time>
   <time name="total">    0.27    0.27</time>
   <energy>
    <i name="e_fr_energy">     -7.77945916 </i>
    <i name="e_wo_entrp">     -7.77843199 </i>
    <i name="e_0_energy">     -7.77894558 </i>
   </energy>
  </scstep>
  <scstep>
   <time name="dav">    0.28    0.29</time>
   <time name="total">    0.29    0.29</time>
   <energy>
    <i name="e_fr_energy">     -7.78739156 </i>
    <i name="e_wo_entrp">     -7.78636356 </i>
    <i name="e_0_energy">     -7.78687756 </i>
   </energy>
  </scstep>
  <scstep>
   <time name="dav">    0.30    0.30</time>
   <time name="total">    0.31    0.32</time>
   <energy>
    <i name="e_fr_energy">     -7.78758554 </i>
    <i name="e_wo_entrp">     -7.78655751 </i>
    <i name="e_0_energy">     -7.78707153 </i>
   </energy>
  </scstep>
  <scstep>
   <time name="dav">    0.30    0.30</time>
   <time name="total">    0.32    0.32</time>
   <energy>
    <i name="e_fr_energy">     -7.18588058 </i>
    <i name="e_wo_entrp">     -7.18420257 </i>
    <i name="e_0_energy">     -7.18504157 </i>
   </energy>
  </scstep>
  <scstep>
   <time name="dav">    0.29    0.29</time>
   <time name="total">    0.30    0.31</time>
   <energy>
    <i name="e_fr_energy">     -7.03431464 </i>
    <i name="e_wo_entrp">     -7.03292688 </i>
    <i name="e_0_energy">     -7.03362076 </i>
   </energy>
  </scstep>
  <scstep>
   <time name="dav">    0.30    0.30</time>
   <time name="total">    0.32    0.32</time>
   <energy>
    <i name="e_fr_energy">     -7.02265563 </i>
    <i name="e_wo_entrp">     -7.02127913 </i>
    <i name="e_0_energy">     -7.02196738 </i>
   </energy>
  </scstep>
  <scstep>
   <time name="dav">    0.36    0.36</time>
   <time name="total">    0.37    0.38</time>
   <energy>
    <i name="e_fr_energy">     -7.01683529 </i>
    <i name="e_wo_entrp">     -7.01548901 </i>
    <i name="e_0_energy">     -7.01616215 </i>
   </energy>
  </scstep>
  <scstep>
   <time name="dav">    0.34    0.34</time>
   <time name="total">    0.35    0.36</time>
   <energy>
    <i name="e_fr_energy">     -7.01627409 </i>
    <i name="e_wo_entrp">     -7.01493179 </i>
    <i name="e_0_energy">     -7.01560294 </i>
   </energy>
  </scstep>
  <scstep>
   <time name="dav">    0.29    0.29</time>
   <time name="total">    0.30    0.31</time>
   <energy>
    <i name="e_fr_energy">     -7.01627659 </i>
    <i name="e_wo_entrp">     -7.01493168 </i>
    <i name="e_0_energy">     -7.01560413 </i>
   </energy>
  </scstep>
  <scstep>
   <time name="dav">    0.29    0.29</time>
   <time name="total">    0.30    0.30</time>
   <energy>
    <i name="alphaZ">     39.89459173 </i>
    <i name="ewald">   -766.38081418 </i>
    <i name="hartreedc">   -130.06190698 </i>
    <i name="XCdc">     16.45852923 </i>
    <i name="pawpsdc">    914.68569165 </i>
    <i name="pawaedc">   -967.78277174 </i>
    <i name="eentropy">     -0.00134452 </i>
    <i name="bandstr">     72.81401410 </i>
    <i name="atom">    813.35773410 </i>
    <i name="e_fr_energy">     -7.01627660 </i>
    <i name="e_wo_entrp">     -7.01493208 </i>
    <i name="e_0_energy">     -7.01560434 </i>
   </energy>
  </scstep>
  <structure>
   <crystal>
    <varray name="basis" >
     <v>       0.00000000       1.74446697       1.74446697 </v>
     <v>       1.74446697       0.00000000       1.74446697 </v>
     <v>       1.74446697       1.74446697       0.00000000 </v>
    </varray>
    <i name="volume">     10.61740177 </i>
    <varray name="rec_basis" >
     <v>      -0.28662050       0.28662050       0.28662050 </v>
     <v>       0.28662050      -0.28662050       0.28662050 </v>
     <v>       0.28662050       0.28662050      -0.28662050 </v>
    </varray>
   </crystal>
   <varray name="positions" >
    <v>       0.00000000       0.00000000       0.00000000 </v>
   </varray>
  </structure>
  <varray name="forces" >
   <v>      -0.00000000       0.00000000      -0.00000000 </v>
  </varray>
  <varray name="stress" >
   <v>      37.89031808      -0.00000000       0.00000000 </v>
   <v>      -0.00000000      37.89031808       0.00000000 </v>
   <v>       0.00000000       0.00000000      37.89031808 </v>
  </varray>
  <energy>
   <i name="e_fr_energy">     -7.01627660 </i>
   <i name="e_wo_entrp">     -7.01493208 </i>
   <i name="e_0_energy">     -7.01560434 </i>
  </energy>
  <time name="totalsc">    3.81    3.87</time>
  <eigenvalues>
   <array>
    <dimension dim="1">band</dimension>
    <dimension dim="2">kpoint</dimension>
    <dimension dim="3">spin</dimension>
    <field>eigene</field>
    <field>occ</field>
    <set>
     <set comment="spin 1">
      <set comment="kpoint 1">
       <r>    1.6849    1.0000 </r>
       <r>    7.8794    1.0000 </r>
       <r>    7.9634    1.0000 </r>
       <r>    7.9634    1.0000 </r>
       <r>    9.0297    1.0000 </r>
       <r>    9.0297    1.0000 </r>
       <r>   33.5585    0.0000 </r>
       <r>   36.6291    0.0000 </r>
       <r>   38.1467    0.0000 </r>
       <r>   38.1467    0.0000 </r>
       <r>   42.1226    0.0000 </r>
       <r>   42.1226    0.0000 </r>
      </set>
      <set comment="kpoint 2">
       <r>    2.4978    1.0000 </r>
       <r>    7.6586    1.0000 </r>
       <r>    8.1272    1.0000 </r>
       <r>    8.1323    1.0000 </r>
       <r>    8.8686    1.0000 </r>
       <r>    9.1219    1.0000 </r>
       <r>   30.8085    0.0000 </r>
       <r>   33.4608    0.0000 </r>
       <r>   37.0055    0.0000 </r>
       <r>   39.1767    0.0000 </r>
       <r>   40.9400    0.0000 </r>
       <r>   42.2388    0.0000 </r>
      </set>
      <set comment="kpoint 3">
       <r>    4.1966    1.0000 </r>
       <r>    7.5426    1.0000 </r>
       <r>    8.0712    1.0000 </r>
       <r>    8.1484    1.0000 </r>
       <r>    9.0869    1.0000 </r>
       <r>    9.5363    1.0000 </r>
       <r>   24.6901    0.0000 </r>
       <r>   32.3477    0.0000 </r>
       <r>   35.9524    0.0000 </r>
       <r>   38.7859    0.0000 </r>
       <r>   39.9584    0.0000 </r>
       <r>   40.9307    0.0000 </r>
      </set>
      <set comment="kpoint 4">
       <r>    5.3273    1.0000 </r>
       <r>    7.8334    1.0000 </r>
       <r>    7.9357    1.0000 </r>
       <r>    8.6329    1.0000 </r>
       <r>    9.6602    1.0000 </r>
       <r>   10.3427    1.0000 </r>
       <r>   19.2945    0.0000 </r>
       <r>   31.8175    0.0000 </r>
       <r>   34.7264    0.0000 </r>
       <r>   36.6201    0.0000 </r>
       <r>   39.0956    0.0000 </r>
       <r>   40.6768    0.0000 </r>
      </set>
      <set comment="kpoint 5">
       <r>    5.4483    1.0000 </r>
       <r>    7.7342    1.0000 </r>
       <r>    7.8807    1.0000 </r>
       <r>    9.2253    1.0000 </r>
       <r>    9.9525    1.0000 </r>
       <r>   11.1261    0.0000 </r>
       <r>   17.1281    0.0000 </r>
       <r>   31.8909    0.0000 </r>
       <r>   34.7322    0.0000 </r>
       <r>   34.9028    0.0000 </r>
       <r>   39.9318    0.0000 </r>
       <r>   39.9523    0.0000 </r>
      </set>
      <set comment="kpoint 6">
       <r>    5.1153    1.0000 </r>
       <r>    7.8716    1.0000 </r>
       <r>    8.0279    1.0000 </r>
       <r>    8.0937    1.0000 </r>
       <r>    9.7392    1.0000 </r>
       <r>    9.7963    1.0000 </r>
       <r>   20.9282    0.0000 </r>
       <r>   32.6210    0.0000 </r>
       <r>   34.1901    0.0000 </r>
       <r>   36.6541    0.0000 </r>
       <r>   39.7573    0.0000 </r>
       <r>   41.6582    0.0000 </r>
      </set>
      <set comment="kpoint 7">
       <r>    3.5883    1.0000 </r>
       <r>    7.4935    1.0000 </r>
       <r>    8.1372    1.0000 </r>
       <r>    8.1977    1.0000 </r>
       <r>    9.0142    1.0000 </r>
       <r>    9.2847    1.0000 </r>
       <r>   26.7138    0.0000 </r>
       <r>   33.7222    0.0000 </r>
       <r>   34.7422    0.0000 </r>
       <r>   39.2862    0.0000 </r>
       <r>   39.5716    0.0000 </r>
       <r>   43.9041    0.0000 </r>
      </set>
      <set comment="kpoint 8">
       <r>    2.0983    1.0000 </r>
       <r>    7.7310    1.0000 </r>
       <r>    8.0770    1.0000 </r>
       <r>    8.0815    1.0000 </r>
       <r>    8.8893    1.0000 </r>
       <r>    9.0987    1.0000 </r>
       <r>   32.5734    0.0000 </r>
       <r>   35.0343    0.0000 </r>
       <r>   36.1349    0.0000 </r>
       <r>   37.9720    0.0000 </r>
       <r>   42.0525    0.0000 </r>
       <r>   43.8663    0.0000 </r>
      </set>
      <set comment="kpoint 9">
       <r>    2.8855    1.0000 </r>
       <r>    7.4444    1.0000 </r>
       <r>    8.2797    1.0000 </r>
       <r>    8.3108    1.0000 </r>
       <r>    8.6973    1.0000 </r>
       <r>    9.2270    1.0000 </r>
       <r>   31.1211    0.0000 </r>
       <r>   33.5864    0.0000 </r>
       <r>   33.8240    0.0000 </r>
       <r>   36.0135    0.0000 </r>
       <r>   41.8435    0.0000 </r>
       <r>   44.3898    0.0000 </r>
      </set>
      <set comment="kpoint 10">
       <r>    4.2569    1.0000 </r>
       <r>    7.1323    1.0000 </r>
       <r>    8.0567    1.0000 </r>
       <r>    8.5790    1.0000 </r>
       <r>    8.9742    1.0000 </r>
       <r>    9.6183    1.0000 </r>
       <r>   27.2675    0.0000 </r>
       <r>   29.8894    0.0000 </r>
       <r>   33.6818    0.0000 </r>
       <r>   35.7126    0.0000 </r>
       <r>   40.6791    0.0000 </r>
       <r>   44.1413    0.0000 </r>
      </set>
      <set comment="kpoint 11">
       <r>    5.6337    1.0000 </r>
       <r>    7.2574    1.0000 </r>
       <r>    7.7389    1.0000 </r>
       <r>    8.4171    1.0000 </r>
       <r>    9.7049    1.0000 </r>
       <r>   10.8421    0.0000 </r>
       <r>   21.4361    0.0000 </r>
       <r>   29.2599    0.0000 </r>
       <r>   31.3012    0.0000 </r>
       <r>   35.3740    0.0000 </r>
       <r>   42.1283    0.0000 </r>
       <r>   44.6518    0.0000 </r>
      </set>
      <set comment="kpoint 12">
       <r>    5.9335    1.0000 </r>
       <r>    7.2937    1.0000 </r>
       <r>    8.1902    1.0000 </r>
       <r>    8.2609    1.0000 </r>
       <r>    9.9140    1.0000 </r>
       <r>   13.0212    0.0000 </r>
       <r>   17.3134    0.0000 </r>
       <r>   28.6547    0.0000 </r>
       <r>   30.5972    0.0000 </r>
       <r>   35.1448    0.0000 </r>
       <r>   41.2697    0.0000 </r>
       <r>   44.9420    0.0000 </r>
      </set>
      <set comment="kpoint 13">
       <r>    5.8696    1.0000 </r>
       <r>    7.4469    1.0000 </r>
       <r>    7.8090    1.0000 </r>
       <r>    8.3018    1.0000 </r>
       <r>    9.5818    1.0000 </r>
       <r>   11.7062    0.0000 </r>
       <r>   19.7611    0.0000 </r>
       <r>   27.8539    0.0000 </r>
       <r>   32.1519    0.0000 </r>
       <r>   36.2619    0.0000 </r>
       <r>   40.6273    0.0000 </r>
       <r>   44.3277    0.0000 </r>
      </set>
      <set comment="kpoint 14">
       <r>    4.8451    1.0000 </r>
       <r>    7.2094    1.0000 </r>
       <r>    7.8758    1.0000 </r>
       <r>    8.5108    1.0000 </r>
       <r>    8.9035    1.0000 </r>
       <r>   10.1333    1.0000 </r>
       <r>   25.2574    0.0000 </r>
       <r>   28.0114    0.0000 </r>
       <r>   34.6867    0.0000 </r>
       <r>   38.2223    0.0000 </r>
       <r>   40.0819    0.0000 </r>
       <r>   43.1879    0.0000 </r>
      </set>
      <set comment="kpoint 15">
       <r>    3.2556    1.0000 </r>
       <r>    7.4422    1.0000 </r>
       <r>    8.1739    1.0000 </r>
       <r>    8.3139    1.0000 </r>
       <r>    8.7780    1.0000 </r>
       <r>    9.3173    1.0000 </r>
       <r>   28.9733    0.0000 </r>
       <r>   31.6277    0.0000 </r>
       <r>   36.0761    0.0000 </r>
       <r>   37.8857    0.0000 </r>
       <r>   41.5222    0.0000 </r>
       <r>   42.9418    0.0000 </r>
      </set>
      <set comment="kpoint 16">
       <r>    4.9283    1.0000 </r>
       <r>    6.7001    1.0000 </r>
       <r>    8.3906    1.0000 </r>
       <r>    9.0202    1.0000 </r>
       <r>    9.3654    1.0000 </r>
       <r>    9.5910    1.0000 </r>
       <r>   27.8546    0.0000 </r>
       <r>   29.5720    0.0000 </r>
       <r>   29.6090    0.0000 </r>
       <r>   32.4672    0.0000 </r>
       <r>   37.2266    0.0000 </r>
       <r>   47.5963    0.0000 </r>
      </set>
      <set comment="kpoint 17">
       <r>    5.6599    1.0000 </r>
       <r>    6.4873    1.0000 </r>
       <r>    8.3287    1.0000 </r>
       <r>    9.2739    1.0000 </r>
       <r>    9.7545    1.0000 </r>
       <r>   11.1039    0.0000 </r>
       <r>   24.4139    0.0000 </r>
       <r>   26.3744    0.0000 </r>
       <r>   27.4000    0.0000 </r>
       <r>   33.7293    0.0000 </r>
       <r>   38.3445    0.0000 </r>
       <r>   47.2917    0.0000 </r>
      </set>
      <set comment="kpoint 18">
       <r>    6.1519    1.0000 </r>
       <r>    6.6266    1.0000 </r>
       <r>    8.0161    1.0000 </r>
       <r>    8.9835    1.0000 </r>
       <r>    9.9798    1.0000 </r>
       <r>   14.3139    0.0000 </r>
       <r>   19.2739    0.0000 </r>
       <r>   24.1929    0.0000 </r>
       <r>   27.5760    0.0000 </r>
       <r>   34.1811    0.0000 </r>
       <r>   43.2429    0.0000 </r>
       <r>   45.9806    0.0000 </r>
      </set>
      <set comment="kpoint 19">
       <r>    6.6467    1.0000 </r>
       <r>    6.8025    1.0000 </r>
       <r>    7.5469    1.0000 </r>
       <r>    8.7783    1.0000 </r>
       <r>    9.6523    1.0000 </r>
       <r>   14.6368    0.0000 </r>
       <r>   19.1145    0.0000 </r>
       <r>   22.8710    0.0000 </r>
       <r>   29.3203    0.0000 </r>
       <r>   35.0543    0.0000 </r>
       <r>   43.8556    0.0000 </r>
       <r>   47.1083    0.0000 </r>
      </set>
      <set comment="kpoint 20">
       <r>    6.1727    1.0000 </r>
       <r>    7.2260    1.0000 </r>
       <r>    7.3867    1.0000 </r>
       <r>    8.5952    1.0000 </r>
       <r>    9.2645    1.0000 </r>
       <r>   11.8097    0.0000 </r>
       <r>   21.9703    0.0000 </r>
       <r>   25.0012    0.0000 </r>
       <r>   31.9114    0.0000 </r>
       <r>   36.8267    0.0000 </r>
       <r>   41.0772    0.0000 </r>
       <r>   45.7922    0.0000 </r>
      </set>
      <set comment="kpoint 21">
       <r>    4.9483    1.0000 </r>
       <r>    7.4977    1.0000 </r>
       <r>    7.8924    1.0000 </r>
       <r>    8.2166    1.0000 </r>
       <r>    9.3259    1.0000 </r>
       <r>    9.9969    1.0000 </r>
       <r>   22.9327    0.0000 </r>
       <r>   30.7625    0.0000 </r>
       <r>   34.3355    0.0000 </r>
       <r>   37.0502    0.0000 </r>
       <r>   40.7177    0.0000 </r>
       <r>   42.2837    0.0000 </r>
      </set>
      <set comment="kpoint 22">
       <r>    5.4262    1.0000 </r>
       <r>    6.1090    1.0000 </r>
       <r>    9.6232    1.0000 </r>
       <r>    9.6741    1.0000 </r>
       <r>   10.0041    1.0000 </r>
       <r>   11.7542    0.0000 </r>
       <r>   23.1031    0.0000 </r>
       <r>   25.4998    0.0000 </r>
       <r>   26.6806    0.0000 </r>
       <r>   31.6072    0.0000 </r>
       <r>   35.7614    0.0000 </r>
       <r>   47.6679    0.0000 </r>
      </set>
      <set comment="kpoint 23">
       <r>    5.5745    1.0000 </r>
       <r>    6.1346    1.0000 </r>
       <r>    9.1914    1.0000 </r>
       <r>    9.6206    1.0000 </r>
       <r>   10.1477    1.0000 </r>
       <r>   14.3273    0.0000 </r>
       <r>   20.9472    0.0000 </r>
       <r>   23.0559    0.0000 </r>
       <r>   25.5317    0.0000 </r>
       <r>   33.0906    0.0000 </r>
       <r>   37.6668    0.0000 </r>
       <r>   47.6334    0.0000 </r>
      </set>
      <set comment="kpoint 24">
       <r>    6.0985    1.0000 </r>
       <r>    6.5301    1.0000 </r>
       <r>    8.1944    1.0000 </r>
       <r>    9.1690    1.0000 </r>
       <r>    9.9674    1.0000 </r>
       <r>   16.3710    0.0000 </r>
       <r>   18.6019    0.0000 </r>
       <r>   21.7060    0.0000 </r>
       <r>   27.0925    0.0000 </r>
       <r>   34.0179    0.0000 </r>
       <r>   43.2228    0.0000 </r>
       <r>   47.1013    0.0000 </r>
      </set>
      <set comment="kpoint 25">
       <r>    6.3152    1.0000 </r>
       <r>    6.9814    1.0000 </r>
       <r>    7.8566    1.0000 </r>
       <r>    8.5278    1.0000 </r>
       <r>    9.8110    1.0000 </r>
       <r>   14.2866    0.0000 </r>
       <r>   17.5591    0.0000 </r>
       <r>   25.6369    0.0000 </r>
       <r>   29.6942    0.0000 </r>
       <r>   35.0628    0.0000 </r>
       <r>   42.6063    0.0000 </r>
       <r>   46.9874    0.0000 </r>
      </set>
      <set comment="kpoint 26">
       <r>    5.5972    1.0000 </r>
       <r>    7.6169    1.0000 </r>
       <r>    8.0254    1.0000 </r>
       <r>    8.5407    1.0000 </r>
       <r>    9.8557    1.0000 </r>
       <r>   11.4597    0.0000 </r>
       <r>   18.0545    0.0000 </r>
       <r>   30.6141    0.0000 </r>
       <r>   32.8584    0.0000 </r>
       <r>   35.4566    0.0000 </r>
       <r>   40.1949    0.0000 </r>
       <r>   42.3597    0.0000 </r>
      </set>
      <set comment="kpoint 27">
       <r>    5.3580    1.0000 </r>
       <r>    5.9751    1.0000 </r>
       <r>    9.7971    1.0000 </r>
       <r>    9.9210    1.0000 </r>
       <r>   10.1606    1.0000 </r>
       <r>   13.2970    0.0000 </r>
       <r>   20.8677    0.0000 </r>
       <r>   24.8940    0.0000 </r>
       <r>   26.0349    0.0000 </r>
       <r>   31.4707    0.0000 </r>
       <r>   35.5805    0.0000 </r>
       <r>   47.7335    0.0000 </r>
      </set>
      <set comment="kpoint 28">
       <r>    5.6564    1.0000 </r>
       <r>    6.2566    1.0000 </r>
       <r>    8.8436    1.0000 </r>
       <r>    9.5401    1.0000 </r>
       <r>    9.9930    1.0000 </r>
       <r>   12.7098    0.0000 </r>
       <r>   23.0695    0.0000 </r>
       <r>   23.8056    0.0000 </r>
       <r>   26.1099    0.0000 </r>
       <r>   33.2921    0.0000 </r>
       <r>   37.8648    0.0000 </r>
       <r>   47.5396    0.0000 </r>
      </set>
      <set comment="kpoint 29">
       <r>    6.0502    1.0000 </r>
       <r>    6.8925    1.0000 </r>
       <r>    7.8063    1.0000 </r>
       <r>    8.6993    1.0000 </r>
       <r>    9.9186    1.0000 </r>
       <r>   12.3301    0.0000 </r>
       <r>   20.2070    0.0000 </r>
       <r>   27.2388    0.0000 </r>
       <r>   28.6593    0.0000 </r>
       <r>   34.5759    0.0000 </r>
       <r>   43.0161    0.0000 </r>
       <r>   45.1126    0.0000 </r>
      </set>
      <set comment="kpoint 30">
       <r>    5.4047    1.0000 </r>
       <r>    6.3610    1.0000 </r>
       <r>    9.0151    1.0000 </r>
       <r>    9.3996    1.0000 </r>
       <r>    9.7938    1.0000 </r>
       <r>   10.2326    1.0000 </r>
       <r>   26.0093    0.0000 </r>
       <r>   26.7765    0.0000 </r>
       <r>   27.8973    0.0000 </r>
       <r>   31.9073    0.0000 </r>
       <r>   36.2351    0.0000 </r>
       <r>   47.6036    0.0000 </r>
      </set>
      <set comment="kpoint 31">
       <r>    5.2107    1.0000 </r>
       <r>    6.7953    1.0000 </r>
       <r>    7.9920    1.0000 </r>
       <r>    8.9133    1.0000 </r>
       <r>    9.4004    1.0000 </r>
       <r>   10.1027    1.0000 </r>
       <r>   25.7344    0.0000 </r>
       <r>   28.2501    0.0000 </r>
       <r>   30.3585    0.0000 </r>
       <r>   34.4776    0.0000 </r>
       <r>   39.2406    0.0000 </r>
       <r>   46.0904    0.0000 </r>
      </set>
      <set comment="kpoint 32">
       <r>    3.9312    1.0000 </r>
       <r>    7.0803    1.0000 </r>
       <r>    8.2869    1.0000 </r>
       <r>    8.6354    1.0000 </r>
       <r>    8.8525    1.0000 </r>
       <r>    9.3976    1.0000 </r>
       <r>   29.4905    0.0000 </r>
       <r>   31.5867    0.0000 </r>
       <r>   32.1591    0.0000 </r>
       <r>   33.7560    0.0000 </r>
       <r>   39.0651    0.0000 </r>
       <r>   46.8716    0.0000 </r>
      </set>
      <set comment="kpoint 33">
       <r>    2.8764    1.0000 </r>
       <r>    7.6293    1.0000 </r>
       <r>    8.1355    1.0000 </r>
       <r>    8.1355    1.0000 </r>
       <r>    9.0316    1.0000 </r>
       <r>    9.0316    1.0000 </r>
       <r>   28.6860    0.0000 </r>
       <r>   34.6877    0.0000 </r>
       <r>   37.0964    0.0000 </r>
       <r>   37.0964    0.0000 </r>
       <r>   42.5159    0.0000 </r>
       <r>   42.9921    0.0000 </r>
      </set>
      <set comment="kpoint 34">
       <r>    3.9489    1.0000 </r>
       <r>    7.3747    1.0000 </r>
       <r>    8.0798    1.0000 </r>
       <r>    8.3771    1.0000 </r>
       <r>    8.7330    1.0000 </r>
       <r>    9.6431    1.0000 </r>
       <r>   27.0028    0.0000 </r>
       <r>   29.7099    0.0000 </r>
       <r>   37.3464    0.0000 </r>
       <r>   39.3166    0.0000 </r>
       <r>   39.5105    0.0000 </r>
       <r>   41.5783    0.0000 </r>
      </set>
      <set comment="kpoint 35">
       <r>    5.5510    1.0000 </r>
       <r>    7.2605    1.0000 </r>
       <r>    7.6961    1.0000 </r>
       <r>    8.4396    1.0000 </r>
       <r>    8.9871    1.0000 </r>
       <r>   10.8246    0.0000 </r>
       <r>   23.4922    0.0000 </r>
       <r>   26.3626    0.0000 </r>
       <r>   35.3814    0.0000 </r>
       <r>   36.0386    0.0000 </r>
       <r>   41.2828    0.0000 </r>
       <r>   43.1515    0.0000 </r>
      </set>
      <set comment="kpoint 36">
       <r>    6.0859    1.0000 </r>
       <r>    7.2862    1.0000 </r>
       <r>    7.9554    1.0000 </r>
       <r>    8.3190    1.0000 </r>
       <r>    9.6463    1.0000 </r>
       <r>   12.8574    0.0000 </r>
       <r>   18.4305    0.0000 </r>
       <r>   26.6021    0.0000 </r>
       <r>   32.9109    0.0000 </r>
       <r>   33.7455    0.0000 </r>
       <r>   43.3832    0.0000 </r>
       <r>   43.4422    0.0000 </r>
      </set>
      <set comment="kpoint 37">
       <r>    5.9818    1.0000 </r>
       <r>    7.1385    1.0000 </r>
       <r>    7.9970    1.0000 </r>
       <r>    8.3979    1.0000 </r>
       <r>    9.9871    1.0000 </r>
       <r>   12.6884    0.0000 </r>
       <r>   18.3891    0.0000 </r>
       <r>   27.9406    0.0000 </r>
       <r>   30.9826    0.0000 </r>
       <r>   33.3090    0.0000 </r>
       <r>   44.3991    0.0000 </r>
       <r>   44.5577    0.0000 </r>
      </set>
      <set comment="kpoint 38">
       <r>    5.3831    1.0000 </r>
       <r>    6.9492    1.0000 </r>
       <r>    7.8814    1.0000 </r>
       <r>    8.5930    1.0000 </r>
       <r>    9.8050    1.0000 </r>
       <r>   10.2051    1.0000 </r>
       <r>   23.4417    0.0000 </r>
       <r>   30.0592    0.0000 </r>
       <r>   30.5652    0.0000 </r>
       <r>   33.7530    0.0000 </r>
       <r>   41.6282    0.0000 </r>
       <r>   45.6280    0.0000 </r>
      </set>
      <set comment="kpoint 39">
       <r>    4.5135    1.0000 </r>
       <r>    7.2533    1.0000 </r>
       <r>    7.9880    1.0000 </r>
       <r>    8.3505    1.0000 </r>
       <r>    9.3769    1.0000 </r>
       <r>    9.5602    1.0000 </r>
       <r>   24.9638    0.0000 </r>
       <r>   32.3603    0.0000 </r>
       <r>   32.5174    0.0000 </r>
       <r>   35.9081    0.0000 </r>
       <r>   42.1584    0.0000 </r>
       <r>   43.4262    0.0000 </r>
      </set>
      <set comment="kpoint 40">
       <r>    5.6891    1.0000 </r>
       <r>    6.9807    1.0000 </r>
       <r>    7.6300    1.0000 </r>
       <r>    8.7802    1.0000 </r>
       <r>    9.2784    1.0000 </r>
       <r>   10.8797    0.0000 </r>
       <r>   23.7429    0.0000 </r>
       <r>   26.5450    0.0000 </r>
       <r>   31.0085    0.0000 </r>
       <r>   37.2758    0.0000 </r>
       <r>   40.5089    0.0000 </r>
       <r>   43.9616    0.0000 </r>
      </set>
      <set comment="kpoint 41">
       <r>    6.5306    1.0000 </r>
       <r>    6.9734    1.0000 </r>
       <r>    7.2904    1.0000 </r>
       <r>    8.8477    1.0000 </r>
       <r>    9.6158    1.0000 </r>
       <r>   13.2829    0.0000 </r>
       <r>   20.7058    0.0000 </r>
       <r>   23.9457    0.0000 </r>
       <r>   28.2555    0.0000 </r>
       <r>   38.1690    0.0000 </r>
       <r>   40.4749    0.0000 </r>
       <r>   45.8756    0.0000 </r>
      </set>
      <set comment="kpoint 42">
       <r>    6.5049    1.0000 </r>
       <r>    6.7512    1.0000 </r>
       <r>    7.6463    1.0000 </r>
       <r>    8.7956    1.0000 </r>
       <r>    9.9121    1.0000 </r>
       <r>   15.2522    0.0000 </r>
       <r>   17.8853    0.0000 </r>
       <r>   24.8954    0.0000 </r>
       <r>   26.4584    0.0000 </r>
       <r>   36.9828    0.0000 </r>
       <r>   41.8708    0.0000 </r>
       <r>   46.7004    0.0000 </r>
      </set>
      <set comment="kpoint 43">
       <r>    6.0921    1.0000 </r>
       <r>    6.7340    1.0000 </r>
       <r>    7.6890    1.0000 </r>
       <r>    9.0898    1.0000 </r>
       <r>    9.6539    1.0000 </r>
       <r>   12.1323    0.0000 </r>
       <r>   22.4818    0.0000 </r>
       <r>   25.3049    0.0000 </r>
       <r>   27.4603    0.0000 </r>
       <r>   36.5370    0.0000 </r>
       <r>   40.6565    0.0000 </r>
       <r>   44.6346    0.0000 </r>
      </set>
      <set comment="kpoint 44">
       <r>    5.8199    1.0000 </r>
       <r>    6.6311    1.0000 </r>
       <r>    8.1153    1.0000 </r>
       <r>    8.8967    1.0000 </r>
       <r>    9.9762    1.0000 </r>
       <r>   11.5456    0.0000 </r>
       <r>   22.1679    0.0000 </r>
       <r>   26.8558    0.0000 </r>
       <r>   28.9850    0.0000 </r>
       <r>   32.9210    0.0000 </r>
       <r>   40.8129    0.0000 </r>
       <r>   47.2661    0.0000 </r>
      </set>
      <set comment="kpoint 45">
       <r>    6.0446    1.0000 </r>
       <r>    6.5463    1.0000 </r>
       <r>    8.0408    1.0000 </r>
       <r>    9.2750    1.0000 </r>
       <r>    9.9549    1.0000 </r>
       <r>   13.9274    0.0000 </r>
       <r>   21.5212    0.0000 </r>
       <r>   23.7124    0.0000 </r>
       <r>   24.9223    0.0000 </r>
       <r>   36.0528    0.0000 </r>
       <r>   40.6748    0.0000 </r>
       <r>   45.7186    0.0000 </r>
      </set>
      <set comment="kpoint 46">
       <r>    6.2507    1.0000 </r>
       <r>    6.9183    1.0000 </r>
       <r>    7.5574    1.0000 </r>
       <r>    9.0182    1.0000 </r>
       <r>   10.1421    1.0000 </r>
       <r>   17.3827    0.0000 </r>
       <r>   19.1755    0.0000 </r>
       <r>   21.7370    0.0000 </r>
       <r>   23.2610    0.0000 </r>
       <r>   39.0526    0.0000 </r>
       <r>   42.5262    0.0000 </r>
       <r>   44.3345    0.0000 </r>
      </set>
      <set comment="kpoint 47">
       <r>    6.4179    1.0000 </r>
       <r>    6.9229    1.0000 </r>
       <r>    7.4024    1.0000 </r>
       <r>    8.9927    1.0000 </r>
       <r>    9.9376    1.0000 </r>
       <r>   15.2543    0.0000 </r>
       <r>   19.7543    0.0000 </r>
       <r>   23.1391    0.0000 </r>
       <r>   24.9702    0.0000 </r>
       <r>   39.0472    0.0000 </r>
       <r>   40.8653    0.0000 </r>
       <r>   45.3063    0.0000 </r>
      </set>
      <set comment="kpoint 48">
       <r>    5.7677    1.0000 </r>
       <r>    6.2739    1.0000 </r>
       <r>    8.8217    1.0000 </r>
       <r>    9.4303    1.0000 </r>
       <r>   10.0393    1.0000 </r>
       <r>   15.1362    0.0000 </r>
       <r>   20.3560    0.0000 </r>
       <r>   21.5610    0.0000 </r>
       <r>   27.2839    0.0000 </r>
       <r>   32.4460    0.0000 </r>
       <r>   40.1035    0.0000 </r>
       <r>   47.6469    0.0000 </r>
      </set>
      <set comment="kpoint 49">
       <r>    5.9331    1.0000 </r>
       <r>    6.4520    1.0000 </r>
       <r>    8.3298    1.0000 </r>
       <r>    9.3034    1.0000 </r>
       <r>   10.1434    1.0000 </r>
       <r>   15.7764    0.0000 </r>
       <r>   20.7390    0.0000 </r>
       <r>   21.6054    0.0000 </r>
       <r>   24.2857    0.0000 </r>
       <r>   35.8156    0.0000 </r>
       <r>   40.6754    0.0000 </r>
       <r>   46.8449    0.0000 </r>
      </set>
      <set comment="kpoint 50">
       <r>    5.8420    1.0000 </r>
       <r>    6.3910    1.0000 </r>
       <r>    8.5395    1.0000 </r>
       <r>    9.2068    1.0000 </r>
       <r>   10.0483    1.0000 </r>
       <r>   13.3528    0.0000 </r>
       <r>   21.1793    0.0000 </r>
       <r>   23.7192    0.0000 </r>
       <r>   27.8660    0.0000 </r>
       <r>   32.5793    0.0000 </r>
       <r>   40.3225    0.0000 </r>
       <r>   47.5588    0.0000 </r>
      </set>
      <set comment="kpoint 51">
       <r>    4.6227    1.0000 </r>
       <r>    7.8620    1.0000 </r>
       <r>    8.0243    1.0000 </r>
       <r>    8.0243    1.0000 </r>
       <r>    9.4421    1.0000 </r>
       <r>    9.4421    1.0000 </r>
       <r>   22.6555    0.0000 </r>
       <r>   33.5198    0.0000 </r>
       <r>   36.3525    0.0000 </r>
       <r>   36.3525    0.0000 </r>
       <r>   40.6271    0.0000 </r>
       <r>   40.6271    0.0000 </r>
      </set>
      <set comment="kpoint 52">
       <r>    5.4316    1.0000 </r>
       <r>    7.7490    1.0000 </r>
       <r>    7.7682    1.0000 </r>
       <r>    8.1548    1.0000 </r>
       <r>    9.3340    1.0000 </r>
       <r>   10.6683    0.1878 </r>
       <r>   21.2004    0.0000 </r>
       <r>   29.1949    0.0000 </r>
       <r>   34.9418    0.0000 </r>
       <r>   36.3005    0.0000 </r>
       <r>   40.9339    0.0000 </r>
       <r>   41.3127    0.0000 </r>
      </set>
      <set comment="kpoint 53">
       <r>    6.4830    1.0000 </r>
       <r>    7.1287    1.0000 </r>
       <r>    7.4492    1.0000 </r>
       <r>    8.5869    1.0000 </r>
       <r>    9.3995    1.0000 </r>
       <r>   13.0169    0.0000 </r>
       <r>   20.4203    0.0000 </r>
       <r>   23.7670    0.0000 </r>
       <r>   32.5405    0.0000 </r>
       <r>   33.8011    0.0000 </r>
       <r>   44.3732    0.0000 </r>
       <r>   45.1122    0.0000 </r>
      </set>
      <set comment="kpoint 54">
       <r>    6.3623    1.0000 </r>
       <r>    6.6866    1.0000 </r>
       <r>    7.9092    1.0000 </r>
       <r>    8.9518    1.0000 </r>
       <r>    9.7735    1.0000 </r>
       <r>   16.2136    0.0000 </r>
       <r>   17.8218    0.0000 </r>
       <r>   22.1376    0.0000 </r>
       <r>   29.5452    0.0000 </r>
       <r>   32.9375    0.0000 </r>
       <r>   46.1809    0.0000 </r>
       <r>   47.5995    0.0000 </r>
      </set>
      <set comment="kpoint 55">
       <r>    5.5834    1.0000 </r>
       <r>    7.5449    1.0000 </r>
       <r>    8.0725    1.0000 </r>
       <r>    8.1593    1.0000 </r>
       <r>    9.9311    1.0000 </r>
       <r>   10.9555    0.0000 </r>
       <r>   19.5028    0.0000 </r>
       <r>   30.8836    0.0000 </r>
       <r>   32.3834    0.0000 </r>
       <r>   34.2735    0.0000 </r>
       <r>   42.2822    0.0000 </r>
       <r>   42.9892    0.0000 </r>
      </set>
      <set comment="kpoint 56">
       <r>    6.2440    1.0000 </r>
       <r>    7.0441    1.0000 </r>
       <r>    7.7411    1.0000 </r>
       <r>    8.5517    1.0000 </r>
       <r>    9.8107    1.0000 </r>
       <r>   13.2877    0.0000 </r>
       <r>   18.6242    0.0000 </r>
       <r>   26.7291    0.0000 </r>
       <r>   28.6832    0.0000 </r>
       <r>   36.7511    0.0000 </r>
       <r>   40.8567    0.0000 </r>
       <r>   46.9434    0.0000 </r>
      </set>
      <set comment="kpoint 57">
       <r>    6.4397    1.0000 </r>
       <r>    6.8234    1.0000 </r>
       <r>    7.5695    1.0000 </r>
       <r>    8.9459    1.0000 </r>
       <r>    9.9393    1.0000 </r>
       <r>   16.6332    0.0000 </r>
       <r>   18.1823    0.0000 </r>
       <r>   22.2747    0.0000 </r>
       <r>   25.9600    0.0000 </r>
       <r>   37.0387    0.0000 </r>
       <r>   43.1926    0.0000 </r>
       <r>   46.4089    0.0000 </r>
      </set>
      <set comment="kpoint 58">
       <r>    6.2646    1.0000 </r>
       <r>    6.8124    1.0000 </r>
       <r>    7.9377    1.0000 </r>
       <r>    8.6965    1.0000 </r>
       <r>    9.9103    1.0000 </r>
       <r>   14.7153    0.0000 </r>
       <r>   17.6734    0.0000 </r>
       <r>   24.7695    0.0000 </r>
       <r>   30.0279    0.0000 </r>
       <r>   33.0193    0.0000 </r>
       <r>   45.9067    0.0000 </r>
       <r>   46.2320    0.0000 </r>
      </set>
      <set comment="kpoint 59">
       <r>    5.3218    1.0000 </r>
       <r>    7.8396    1.0000 </r>
       <r>    7.8396    1.0000 </r>
       <r>    9.7687    1.0000 </r>
       <r>    9.8809    1.0000 </r>
       <r>    9.8809    1.0000 </r>
       <r>   17.9000    0.0000 </r>
       <r>   32.5793    0.0000 </r>
       <r>   36.0092    0.0000 </r>
       <r>   36.0092    0.0000 </r>
       <r>   38.8364    0.0000 </r>
       <r>   38.8364    0.0000 </r>
      </set>
      <set comment="kpoint 60">
       <r>    5.7110    1.0000 </r>
       <r>    7.5251    1.0000 </r>
       <r>    8.0521    1.0000 </r>
       <r>    8.5730    1.0000 </r>
       <r>    9.8644    1.0000 </r>
       <r>   12.2682    0.0000 </r>
       <r>   17.2180    0.0000 </r>
       <r>   29.6380    0.0000 </r>
       <r>   33.6497    0.0000 </r>
       <r>   33.8529    0.0000 </r>
       <r>   41.5246    0.0000 </r>
       <r>   42.0042    0.0000 </r>
      </set>
     </set>
     <set comment="spin 2">
      <set comment="kpoint 1">
       <r>    1.6897    1.0000 </r>
       <r>    9.4163    1.0000 </r>
       <r>    9.5168    1.0000 </r>
       <r>    9.5168    1.0000 </r>
       <r>   10.9000    0.0000 </r>
       <r>   10.9000    0.0000 </r>
       <r>   33.3267    0.0000 </r>
       <r>   36.7268    0.0000 </r>
       <r>   38.3177    0.0000 </r>
       <r>   38.3177    0.0000 </r>
       <r>   42.3715    0.0000 </r>
       <r>   42.3722    0.0000 </r>
      </set>
      <set comment="kpoint 2">
       <r>    2.5100    1.0000 </r>
       <r>    9.1342    1.0000 </r>
       <r>    9.6983    1.0000 </r>
       <r>    9.7068    1.0000 </r>
       <r>   10.7058    0.0257 </r>
       <r>   10.9802    0.0000 </r>
       <r>   30.9957    0.0000 </r>
       <r>   33.5285    0.0000 </r>
       <r>   37.0550    0.0000 </r>
       <r>   39.3497    0.0000 </r>
       <r>   40.9226    0.0000 </r>
       <r>   42.4563    0.0000 </r>
      </set>
      <set comment="kpoint 3">
       <r>    4.3114    1.0000 </r>
       <r>    8.8053    1.0000 </r>
       <r>    9.6806    1.0000 </r>
       <r>    9.7863    1.0000 </r>
       <r>   10.8690    0.0000 </r>
       <r>   11.3445    0.0000 </r>
       <r>   25.1326    0.0000 </r>
       <r>   32.4008    0.0000 </r>
       <r>   36.0213    0.0000 </r>
       <r>   39.0971    0.0000 </r>
       <r>   40.2074    0.0000 </r>
       <r>   40.9901    0.0000 </r>
      </set>
      <set comment="kpoint 4">
       <r>    5.9927    1.0000 </r>
       <r>    9.2640    1.0000 </r>
       <r>    9.4782    1.0000 </r>
       <r>    9.5747    1.0000 </r>
       <r>   11.4747    0.0000 </r>
       <r>   11.9639    0.0000 </r>
       <r>   20.0150    0.0000 </r>
       <r>   31.7510    0.0000 </r>
       <r>   34.8826    0.0000 </r>
       <r>   36.9369    0.0000 </r>
       <r>   39.3664    0.0000 </r>
       <r>   40.8712    0.0000 </r>
      </set>
      <set comment="kpoint 5">
       <r>    6.3393    1.0000 </r>
       <r>    9.3089    1.0000 </r>
       <r>    9.5118    1.0000 </r>
       <r>    9.9638    1.0000 </r>
       <r>   11.8033    0.0000 </r>
       <r>   12.2441    0.0000 </r>
       <r>   18.0873    0.0000 </r>
       <r>   31.7082    0.0000 </r>
       <r>   35.0393    0.0000 </r>
       <r>   35.1717    0.0000 </r>
       <r>   40.1665    0.0000 </r>
       <r>   40.1886    0.0000 </r>
      </set>
      <set comment="kpoint 6">
       <r>    5.5653    1.0000 </r>
       <r>    8.9514    1.0000 </r>
       <r>    9.5141    1.0000 </r>
       <r>    9.6617    1.0000 </r>
       <r>   11.4722    0.0000 </r>
       <r>   11.5820    0.0000 </r>
       <r>   21.5384    0.0000 </r>
       <r>   32.4340    0.0000 </r>
       <r>   34.5215    0.0000 </r>
       <r>   36.9861    0.0000 </r>
       <r>   39.9365    0.0000 </r>
       <r>   41.8585    0.0000 </r>
      </set>
      <set comment="kpoint 7">
       <r>    3.6408    1.0000 </r>
       <r>    8.8602    1.0000 </r>
       <r>    9.7528    1.0000 </r>
       <r>    9.8073    1.0000 </r>
       <r>   10.7824    0.0000 </r>
       <r>   11.1298    0.0000 </r>
       <r>   27.0826    0.0000 </r>
       <r>   33.5829    0.0000 </r>
       <r>   35.0741    0.0000 </r>
       <r>   39.4004    0.0000 </r>
       <r>   39.8132    0.0000 </r>
       <r>   43.9965    0.0000 </r>
      </set>
      <set comment="kpoint 8">
       <r>    2.1057    1.0000 </r>
       <r>    9.2383    1.0000 </r>
       <r>    9.6388    1.0000 </r>
       <r>    9.6441    1.0000 </r>
       <r>   10.7319    0.0036 </r>
       <r>   10.9744    0.0000 </r>
       <r>   32.5657    0.0000 </r>
       <r>   35.0397    0.0000 </r>
       <r>   36.4099    0.0000 </r>
       <r>   38.0494    0.0000 </r>
       <r>   42.2348    0.0000 </r>
       <r>   43.9626    0.0000 </r>
      </set>
      <set comment="kpoint 9">
       <r>    2.9048    1.0000 </r>
       <r>    8.9011    1.0000 </r>
       <r>    9.8700    1.0000 </r>
       <r>    9.8933    1.0000 </r>
       <r>   10.4662    1.0000 </r>
       <r>   11.1122    0.0000 </r>
       <r>   31.3156    0.0000 </r>
       <r>   33.5680    0.0000 </r>
       <r>   34.1411    0.0000 </r>
       <r>   36.0781    0.0000 </r>
       <r>   42.4956    0.0000 </r>
       <r>   44.5010    0.0000 </r>
      </set>
      <set comment="kpoint 10">
       <r>    4.3471    1.0000 </r>
       <r>    8.5055    1.0000 </r>
       <r>    9.6720    1.0000 </r>
       <r>   10.2134    1.0000 </r>
       <r>   10.6555    0.3001 </r>
       <r>   11.4452    0.0000 </r>
       <r>   27.6202    0.0000 </r>
       <r>   30.1358    0.0000 </r>
       <r>   33.8138    0.0000 </r>
       <r>   35.8582    0.0000 </r>
       <r>   41.2133    0.0000 </r>
       <r>   44.1927    0.0000 </r>
      </set>
      <set comment="kpoint 11">
       <r>    6.1479    1.0000 </r>
       <r>    8.4131    1.0000 </r>
       <r>    9.2331    1.0000 </r>
       <r>   10.0819    1.0000 </r>
       <r>   11.4816    0.0000 </r>
       <r>   12.3278    0.0000 </r>
       <r>   21.9885    0.0000 </r>
       <r>   29.4776    0.0000 </r>
       <r>   31.5677    0.0000 </r>
       <r>   35.5715    0.0000 </r>
       <r>   42.2533    0.0000 </r>
       <r>   44.9283    0.0000 </r>
      </set>
      <set comment="kpoint 12">
       <r>    6.8940    1.0000 </r>
       <r>    8.6040    1.0000 </r>
       <r>    9.3486    1.0000 </r>
       <r>    9.9162    1.0000 </r>
       <r>   11.7470    0.0000 </r>
       <r>   13.9128    0.0000 </r>
       <r>   18.1863    0.0000 </r>
       <r>   28.8616    0.0000 </r>
       <r>   30.9250    0.0000 </r>
       <r>   35.2544    0.0000 </r>
       <r>   41.4776    0.0000 </r>
       <r>   45.0452    0.0000 </r>
      </set>
      <set comment="kpoint 13">
       <r>    6.5851    1.0000 </r>
       <r>    8.6583    1.0000 </r>
       <r>    9.1184    1.0000 </r>
       <r>    9.9703    1.0000 </r>
       <r>   11.3563    0.0000 </r>
       <r>   13.0363    0.0000 </r>
       <r>   20.4146    0.0000 </r>
       <r>   28.1337    0.0000 </r>
       <r>   32.3775    0.0000 </r>
       <r>   36.3829    0.0000 </r>
       <r>   40.8230    0.0000 </r>
       <r>   44.4443    0.0000 </r>
      </set>
      <set comment="kpoint 14">
       <r>    4.9916    1.0000 </r>
       <r>    8.5368    1.0000 </r>
       <r>    9.4565    1.0000 </r>
       <r>   10.1914    1.0000 </r>
       <r>   10.6109    0.7692 </r>
       <r>   11.8717    0.0000 </r>
       <r>   25.6799    0.0000 </r>
       <r>   28.3086    0.0000 </r>
       <r>   34.8115    0.0000 </r>
       <r>   38.3180    0.0000 </r>
       <r>   40.2043    0.0000 </r>
       <r>   43.4959    0.0000 </r>
      </set>
      <set comment="kpoint 15">
       <r>    3.2853    1.0000 </r>
       <r>    8.8703    1.0000 </r>
       <r>    9.7711    1.0000 </r>
       <r>    9.9111    1.0000 </r>
       <r>   10.5560    0.9890 </r>
       <r>   11.1669    0.0000 </r>
       <r>   29.2648    0.0000 </r>
       <r>   31.7963    0.0000 </r>
       <r>   36.1410    0.0000 </r>
       <r>   37.9248    0.0000 </r>
       <r>   41.7719    0.0000 </r>
       <r>   43.1815    0.0000 </r>
      </set>
      <set comment="kpoint 16">
       <r>    5.1964    1.0000 </r>
       <r>    8.0375    1.0000 </r>
       <r>    9.8174    1.0000 </r>
       <r>   10.6881    0.0740 </r>
       <r>   10.9496    0.0000 </r>
       <r>   11.4933    0.0000 </r>
       <r>   28.1586    0.0000 </r>
       <r>   29.8436    0.0000 </r>
       <r>   29.8639    0.0000 </r>
       <r>   32.7003    0.0000 </r>
       <r>   37.7418    0.0000 </r>
       <r>   49.5942    0.0000 </r>
      </set>
      <set comment="kpoint 17">
       <r>    6.3693    1.0000 </r>
       <r>    7.7638    1.0000 </r>
       <r>    9.6003    1.0000 </r>
       <r>   11.0100    0.0000 </r>
       <r>   11.5425    0.0000 </r>
       <r>   12.4372    0.0000 </r>
       <r>   24.7918    0.0000 </r>
       <r>   26.7330    0.0000 </r>
       <r>   27.7369    0.0000 </r>
       <r>   33.9572    0.0000 </r>
       <r>   38.7410    0.0000 </r>
       <r>   48.1502    0.0000 </r>
      </set>
      <set comment="kpoint 18">
       <r>    7.2688    1.0000 </r>
       <r>    7.7976    1.0000 </r>
       <r>    9.2512    1.0000 </r>
       <r>   10.7462    0.0010 </r>
       <r>   11.7967    0.0000 </r>
       <r>   15.1587    0.0000 </r>
       <r>   19.8348    0.0000 </r>
       <r>   24.6677    0.0000 </r>
       <r>   27.8858    0.0000 </r>
       <r>   34.3823    0.0000 </r>
       <r>   43.5320    0.0000 </r>
       <r>   46.3771    0.0000 </r>
      </set>
      <set comment="kpoint 19">
       <r>    7.6486    1.0000 </r>
       <r>    8.0654    1.0000 </r>
       <r>    8.7794    1.0000 </r>
       <r>   10.5501    0.9930 </r>
       <r>   11.3981    0.0000 </r>
       <r>   15.5214    0.0000 </r>
       <r>   19.7206    0.0000 </r>
       <r>   23.3708    0.0000 </r>
       <r>   29.6359    0.0000 </r>
       <r>   35.2012    0.0000 </r>
       <r>   43.9189    0.0000 </r>
       <r>   48.7512    0.0000 </r>
      </set>
      <set comment="kpoint 20">
       <r>    6.6931    1.0000 </r>
       <r>    8.4465    1.0000 </r>
       <r>    8.8698    1.0000 </r>
       <r>   10.3247    1.0000 </r>
       <r>   10.9729    0.0000 </r>
       <r>   13.2054    0.0000 </r>
       <r>   22.5019    0.0000 </r>
       <r>   25.3902    0.0000 </r>
       <r>   32.1560    0.0000 </r>
       <r>   36.9611    0.0000 </r>
       <r>   41.1381    0.0000 </r>
       <r>   45.9360    0.0000 </r>
      </set>
      <set comment="kpoint 21">
       <r>    5.2034    1.0000 </r>
       <r>    8.6634    1.0000 </r>
       <r>    9.4969    1.0000 </r>
       <r>    9.8645    1.0000 </r>
       <r>   11.0667    0.0000 </r>
       <r>   11.7399    0.0000 </r>
       <r>   23.4400    0.0000 </r>
       <r>   30.9211    0.0000 </r>
       <r>   34.4329    0.0000 </r>
       <r>   37.3243    0.0000 </r>
       <r>   40.8787    0.0000 </r>
       <r>   42.4342    0.0000 </r>
      </set>
      <set comment="kpoint 22">
       <r>    6.4181    1.0000 </r>
       <r>    7.3623    1.0000 </r>
       <r>   10.9687    0.0000 </r>
       <r>   11.5327    0.0000 </r>
       <r>   11.8460    0.0000 </r>
       <r>   12.5267    0.0000 </r>
       <r>   23.6937    0.0000 </r>
       <r>   25.7562    0.0000 </r>
       <r>   26.8793    0.0000 </r>
       <r>   31.9555    0.0000 </r>
       <r>   36.1881    0.0000 </r>
       <r>   51.2093    0.0000 </r>
      </set>
      <set comment="kpoint 23">
       <r>    6.7023    1.0000 </r>
       <r>    7.3639    1.0000 </r>
       <r>   10.5265    0.9991 </r>
       <r>   11.5192    0.0000 </r>
       <r>   11.9436    0.0000 </r>
       <r>   14.8448    0.0000 </r>
       <r>   21.7018    0.0000 </r>
       <r>   23.3840    0.0000 </r>
       <r>   25.7734    0.0000 </r>
       <r>   33.3730    0.0000 </r>
       <r>   38.0550    0.0000 </r>
       <r>   50.9598    0.0000 </r>
      </set>
      <set comment="kpoint 24">
       <r>    7.3125    1.0000 </r>
       <r>    7.6903    1.0000 </r>
       <r>    9.4300    1.0000 </r>
       <r>   10.9956    0.0000 </r>
       <r>   11.7468    0.0000 </r>
       <r>   16.9852    0.0000 </r>
       <r>   19.1532    0.0000 </r>
       <r>   22.3329    0.0000 </r>
       <r>   27.3945    0.0000 </r>
       <r>   34.2355    0.0000 </r>
       <r>   43.5881    0.0000 </r>
       <r>   47.3235    0.0000 </r>
      </set>
      <set comment="kpoint 25">
       <r>    7.3421    1.0000 </r>
       <r>    8.2161    1.0000 </r>
       <r>    9.0728    1.0000 </r>
       <r>   10.2433    1.0000 </r>
       <r>   11.6110    0.0000 </r>
       <r>   15.1069    0.0000 </r>
       <r>   18.3530    0.0000 </r>
       <r>   26.0128    0.0000 </r>
       <r>   30.0026    0.0000 </r>
       <r>   35.1869    0.0000 </r>
       <r>   42.7538    0.0000 </r>
       <r>   47.1959    0.0000 </r>
      </set>
      <set comment="kpoint 26">
       <r>    6.4375    1.0000 </r>
       <r>    9.0499    1.0000 </r>
       <r>    9.4931    1.0000 </r>
       <r>    9.6779    1.0000 </r>
       <r>   11.6810    0.0000 </r>
       <r>   12.6635    0.0000 </r>
       <r>   18.8736    0.0000 </r>
       <r>   30.6631    0.0000 </r>
       <r>   33.1299    0.0000 </r>
       <r>   35.6332    0.0000 </r>
       <r>   40.4394    0.0000 </r>
       <r>   42.5161    0.0000 </r>
      </set>
      <set comment="kpoint 27">
       <r>    6.4605    1.0000 </r>
       <r>    7.2105    1.0000 </r>
       <r>   11.4625    0.0000 </r>
       <r>   11.7369    0.0000 </r>
       <r>   11.9623    0.0000 </r>
       <r>   13.6052    0.0000 </r>
       <r>   21.6657    0.0000 </r>
       <r>   25.1130    0.0000 </r>
       <r>   26.2002    0.0000 </r>
       <r>   31.8451    0.0000 </r>
       <r>   36.0048    0.0000 </r>
       <r>   51.2912    0.0000 </r>
      </set>
      <set comment="kpoint 28">
       <r>    6.6778    1.0000 </r>
       <r>    7.5020    1.0000 </r>
       <r>   10.1048    1.0000 </r>
       <r>   11.3639    0.0000 </r>
       <r>   11.7999    0.0000 </r>
       <r>   13.5919    0.0000 </r>
       <r>   23.5470    0.0000 </r>
       <r>   24.2390    0.0000 </r>
       <r>   26.3784    0.0000 </r>
       <r>   33.5547    0.0000 </r>
       <r>   38.2513    0.0000 </r>
       <r>   49.8041    0.0000 </r>
      </set>
      <set comment="kpoint 29">
       <r>    6.9029    1.0000 </r>
       <r>    8.0803    1.0000 </r>
       <r>    9.1237    1.0000 </r>
       <r>   10.4018    1.0000 </r>
       <r>   11.7466    0.0000 </r>
       <r>   13.4663    0.0000 </r>
       <r>   20.7766    0.0000 </r>
       <r>   27.5480    0.0000 </r>
       <r>   28.9995    0.0000 </r>
       <r>   34.7586    0.0000 </r>
       <r>   43.1729    0.0000 </r>
       <r>   45.6133    0.0000 </r>
      </set>
      <set comment="kpoint 30">
       <r>    6.0873    1.0000 </r>
       <r>    7.6491    1.0000 </r>
       <r>   10.1784    1.0000 </r>
       <r>   11.1462    0.0000 </r>
       <r>   11.5989    0.0000 </r>
       <r>   11.6840    0.0000 </r>
       <r>   26.3722    0.0000 </r>
       <r>   27.1182    0.0000 </r>
       <r>   28.1447    0.0000 </r>
       <r>   32.2052    0.0000 </r>
       <r>   36.6829    0.0000 </r>
       <r>   51.0862    0.0000 </r>
      </set>
      <set comment="kpoint 31">
       <r>    5.5030    1.0000 </r>
       <r>    8.1153    1.0000 </r>
       <r>    9.4803    1.0000 </r>
       <r>   10.5900    0.9080 </r>
       <r>   11.0897    0.0000 </r>
       <r>   11.8025    0.0000 </r>
       <r>   26.1145    0.0000 </r>
       <r>   28.5328    0.0000 </r>
       <r>   30.6352    0.0000 </r>
       <r>   34.6659    0.0000 </r>
       <r>   39.6809    0.0000 </r>
       <r>   46.2706    0.0000 </r>
      </set>
      <set comment="kpoint 32">
       <r>    4.0019    1.0000 </r>
       <r>    8.4766    1.0000 </r>
       <r>    9.9221    1.0000 </r>
       <r>   10.2514    1.0000 </r>
       <r>   10.4796    1.0000 </r>
       <r>   11.2936    0.0000 </r>
       <r>   29.7767    0.0000 </r>
       <r>   31.9051    0.0000 </r>
       <r>   32.2044    0.0000 </r>
       <r>   33.9143    0.0000 </r>
       <r>   39.6893    0.0000 </r>
       <r>   46.8600    0.0000 </r>
      </set>
      <set comment="kpoint 33">
       <r>    2.8985    1.0000 </r>
       <r>    9.0583    1.0000 </r>
       <r>    9.7248    1.0000 </r>
       <r>    9.7248    1.0000 </r>
       <r>   10.8687    0.0000 </r>
       <r>   10.8687    0.0000 </r>
       <r>   28.9787    0.0000 </r>
       <r>   34.4624    0.0000 </r>
       <r>   37.3917    0.0000 </r>
       <r>   37.3917    0.0000 </r>
       <r>   42.4279    0.0000 </r>
       <r>   43.1009    0.0000 </r>
      </set>
      <set comment="kpoint 34">
       <r>    4.0101    1.0000 </r>
       <r>    8.7544    1.0000 </r>
       <r>    9.6664    1.0000 </r>
       <r>   10.0120    1.0000 </r>
       <r>   10.5044    0.9999 </r>
       <r>   11.4456    0.0000 </r>
       <r>   27.3673    0.0000 </r>
       <r>   29.9494    0.0000 </r>
       <r>   37.3112    0.0000 </r>
       <r>   39.2763    0.0000 </r>
       <r>   39.6861    0.0000 </r>
       <r>   41.9380    0.0000 </r>
      </set>
      <set comment="kpoint 35">
       <r>    5.8311    1.0000 </r>
       <r>    8.5290    1.0000 </r>
       <r>    9.2233    1.0000 </r>
       <r>   10.1698    1.0000 </r>
       <r>   10.6830    0.0962 </r>
       <r>   12.4465    0.0000 </r>
       <r>   23.9783    0.0000 </r>
       <r>   26.7097    0.0000 </r>
       <r>   35.3794    0.0000 </r>
       <r>   36.3671    0.0000 </r>
       <r>   41.2258    0.0000 </r>
       <r>   43.3825    0.0000 </r>
      </set>
      <set comment="kpoint 36">
       <r>    6.9794    1.0000 </r>
       <r>    8.5839    1.0000 </r>
       <r>    9.1184    1.0000 </r>
       <r>   10.0139    1.0000 </r>
       <r>   11.4339    0.0000 </r>
       <r>   13.9278    0.0000 </r>
       <r>   19.1741    0.0000 </r>
       <r>   26.9330    0.0000 </r>
       <r>   33.2400    0.0000 </r>
       <r>   33.7996    0.0000 </r>
       <r>   43.5036    0.0000 </r>
       <r>   43.5976    0.0000 </r>
      </set>
      <set comment="kpoint 37">
       <r>    6.9139    1.0000 </r>
       <r>    8.3408    1.0000 </r>
       <r>    9.2491    1.0000 </r>
       <r>   10.0834    1.0000 </r>
       <r>   11.8378    0.0000 </r>
       <r>   13.6939    0.0000 </r>
       <r>   19.1103    0.0000 </r>
       <r>   28.2159    0.0000 </r>
       <r>   31.2881    0.0000 </r>
       <r>   33.4746    0.0000 </r>
       <r>   44.4615    0.0000 </r>
       <r>   44.7384    0.0000 </r>
      </set>
      <set comment="kpoint 38">
       <r>    5.7447    1.0000 </r>
       <r>    8.2084    1.0000 </r>
       <r>    9.3796    1.0000 </r>
       <r>   10.2690    1.0000 </r>
       <r>   11.6729    0.0000 </r>
       <r>   11.6854    0.0000 </r>
       <r>   23.9001    0.0000 </r>
       <r>   30.2259    0.0000 </r>
       <r>   30.8719    0.0000 </r>
       <r>   34.0200    0.0000 </r>
       <r>   42.0013    0.0000 </r>
       <r>   45.6961    0.0000 </r>
      </set>
      <set comment="kpoint 39">
       <r>    4.6507    1.0000 </r>
       <r>    8.5586    1.0000 </r>
       <r>    9.6055    1.0000 </r>
       <r>    9.9875    1.0000 </r>
       <r>   11.0223    0.0000 </r>
       <r>   11.4182    0.0000 </r>
       <r>   25.3899    0.0000 </r>
       <r>   32.3233    0.0000 </r>
       <r>   32.8465    0.0000 </r>
       <r>   36.1772    0.0000 </r>
       <r>   42.4444    0.0000 </r>
       <r>   43.5890    0.0000 </r>
      </set>
      <set comment="kpoint 40">
       <r>    6.0502    1.0000 </r>
       <r>    8.2622    1.0000 </r>
       <r>    9.1427    1.0000 </r>
       <r>   10.4775    1.0000 </r>
       <r>   10.9856    0.0000 </r>
       <r>   12.4430    0.0000 </r>
       <r>   24.2013    0.0000 </r>
       <r>   26.8797    0.0000 </r>
       <r>   31.2709    0.0000 </r>
       <r>   37.3993    0.0000 </r>
       <r>   40.6772    0.0000 </r>
       <r>   44.4257    0.0000 </r>
      </set>
      <set comment="kpoint 41">
       <r>    7.3605    1.0000 </r>
       <r>    8.2514    1.0000 </r>
       <r>    8.6051    1.0000 </r>
       <r>   10.5975    0.8676 </r>
       <r>   11.3527    0.0000 </r>
       <r>   14.3635    0.0000 </r>
       <r>   21.2543    0.0000 </r>
       <r>   24.3687    0.0000 </r>
       <r>   28.5970    0.0000 </r>
       <r>   38.2715    0.0000 </r>
       <r>   40.5802    0.0000 </r>
       <r>   46.7079    0.0000 </r>
      </set>
      <set comment="kpoint 42">
       <r>    7.6366    1.0000 </r>
       <r>    7.9216    1.0000 </r>
       <r>    8.8877    1.0000 </r>
       <r>   10.5436    0.9959 </r>
       <r>   11.7033    0.0000 </r>
       <r>   16.0097    0.0000 </r>
       <r>   18.5860    0.0000 </r>
       <r>   25.3070    0.0000 </r>
       <r>   26.8330    0.0000 </r>
       <r>   37.1000    0.0000 </r>
       <r>   42.0088    0.0000 </r>
       <r>   47.7850    0.0000 </r>
      </set>
      <set comment="kpoint 43">
       <r>    6.8543    1.0000 </r>
       <r>    7.9883    1.0000 </r>
       <r>    9.0166    1.0000 </r>
       <r>   10.8308    0.0000 </r>
       <r>   11.4032    0.0000 </r>
       <r>   13.3634    0.0000 </r>
       <r>   22.9482    0.0000 </r>
       <r>   25.6606    0.0000 </r>
       <r>   27.8357    0.0000 </r>
       <r>   36.6889    0.0000 </r>
       <r>   40.9006    0.0000 </r>
       <r>   45.0496    0.0000 </r>
      </set>
      <set comment="kpoint 44">
       <r>    6.5813    1.0000 </r>
       <r>    7.8671    1.0000 </r>
       <r>    9.3996    1.0000 </r>
       <r>   10.6254    0.6278 </r>
       <r>   11.8422    0.0000 </r>
       <r>   12.7570    0.0000 </r>
       <r>   22.6288    0.0000 </r>
       <r>   27.2198    0.0000 </r>
       <r>   29.2604    0.0000 </r>
       <r>   33.1778    0.0000 </r>
       <r>   41.1664    0.0000 </r>
       <r>   48.1963    0.0000 </r>
      </set>
      <set comment="kpoint 45">
       <r>    7.1195    1.0000 </r>
       <r>    7.7779    1.0000 </r>
       <r>    9.2720    1.0000 </r>
       <r>   11.0802    0.0000 </r>
       <r>   11.7299    0.0000 </r>
       <r>   14.8008    0.0000 </r>
       <r>   21.9767    0.0000 </r>
       <r>   24.1941    0.0000 </r>
       <r>   25.2982    0.0000 </r>
       <r>   36.2285    0.0000 </r>
       <r>   40.9943    0.0000 </r>
       <r>   46.0627    0.0000 </r>
      </set>
      <set comment="kpoint 46">
       <r>    7.4582    1.0000 </r>
       <r>    8.1302    1.0000 </r>
       <r>    8.7809    1.0000 </r>
       <r>   10.8119    0.0000 </r>
       <r>   11.9332    0.0000 </r>
       <r>   17.9626    0.0000 </r>
       <r>   19.7016    0.0000 </r>
       <r>   22.3227    0.0000 </r>
       <r>   23.7027    0.0000 </r>
       <r>   39.1743    0.0000 </r>
       <r>   42.6310    0.0000 </r>
       <r>   44.6535    0.0000 </r>
      </set>
      <set comment="kpoint 47">
       <r>    7.5585    1.0000 </r>
       <r>    8.1324    1.0000 </r>
       <r>    8.6225    1.0000 </r>
       <r>   10.7748    0.0000 </r>
       <r>   11.7042    0.0000 </r>
       <r>   16.0528    0.0000 </r>
       <r>   20.2932    0.0000 </r>
       <r>   23.5983    0.0000 </r>
       <r>   25.3987    0.0000 </r>
       <r>   39.1537    0.0000 </r>
       <r>   40.9778    0.0000 </r>
       <r>   45.8964    0.0000 </r>
      </set>
      <set comment="kpoint 48">
       <r>    6.9282    1.0000 </r>
       <r>    7.4789    1.0000 </r>
       <r>   10.0886    1.0000 </r>
       <r>   11.2989    0.0000 </r>
       <r>   11.8344    0.0000 </r>
       <r>   15.7211    0.0000 </r>
       <r>   20.8769    0.0000 </r>
[...]
       </set>
       <set comment="band 5">
        <r>  0.0001  0.0000  0.0004  0.0007  0.0025  0.0310  0.0001  0.9519  0.0064 </r>
       </set>
       <set comment="band 6">
        <r>  0.0256  0.0069  0.4767  0.0010  0.0002  0.3000  0.0312  0.0149  0.0019 </r>
       </set>
       <set comment="band 7">
        <r>  0.0016  0.1363  0.0115  0.2765  0.1503  0.0081  0.1989  0.0047  0.0183 </r>
       </set>
       <set comment="band 8">
        <r>  0.3092  0.0130  0.0350  0.1016  0.0798  0.0049  0.2838  0.0004  0.0001 </r>
       </set>
       <set comment="band 9">
        <r>  0.2436  0.1814  0.0034  0.1547  0.0535  0.0013  0.0080  0.0014  0.0907 </r>
       </set>
       <set comment="band 10">
        <r>  0.0238  0.0300  0.0005  0.0690  0.6250  0.0000  0.0158  0.0010  0.0044 </r>
       </set>
       <set comment="band 11">
        <r>  0.2045  0.2526  0.0047  0.0152  0.0720  0.0000  0.1635  0.0002  0.0084 </r>
       </set>
       <set comment="band 12">
        <r>  0.0431  0.0020  0.0299  0.0002  0.0001  0.3705  0.0181  0.0021  0.0287 </r>
       </set>
      </set>
      <set comment="kpoint 50">
       <set comment="band 1">
        <r>  0.0852  0.0094  0.0489  0.0094  0.0557  0.0085  0.6233  0.0085  0.0000 </r>
       </set>
       <set comment="band 2">
        <r>  0.0005  0.0248  0.0002  0.0248  0.8076  0.0079  0.0509  0.0079  0.0000 </r>
       </set>
       <set comment="band 3">
        <r>  0.0360  0.0000  0.1716  0.0000  0.0330  0.2908  0.0888  0.2908  0.0000 </r>
       </set>
       <set comment="band 4">
        <r>  0.0000  0.0051  0.0000  0.0051  0.0000  0.1666  0.0000  0.1666  0.6323 </r>
       </set>
       <set comment="band 5">
        <r>  0.0000  0.0000  0.0000  0.0000  0.0000  0.3253  0.0000  0.3253  0.3428 </r>
       </set>
       <set comment="band 6">
        <r>  0.0745  0.0149  0.2802  0.0149  0.0046  0.1871  0.1284  0.1871  0.0000 </r>
       </set>
       <set comment="band 7">
        <r>  0.1085  0.1942  0.0012  0.1942  0.1666  0.0315  0.0642  0.0315  0.0000 </r>
       </set>
       <set comment="band 8">
        <r>  0.2247  0.0002  0.1712  0.0002  0.0178  0.0051  0.3819  0.0051  0.0000 </r>
       </set>
       <set comment="band 9">
        <r>  0.0000  0.2898  0.0000  0.2898  0.0000  0.0206  0.0000  0.0206  0.0812 </r>
       </set>
       <set comment="band 10">
        <r>  0.1375  0.0013  0.0197  0.0013  0.6010  0.0001  0.0385  0.0001  0.0000 </r>
       </set>
       <set comment="band 11">
        <r>  0.1992  0.0994  0.0296  0.0994  0.1912  0.0052  0.1115  0.0052  0.0000 </r>
       </set>
       <set comment="band 12">
        <r>  0.0000  0.0199  0.0000  0.0200  0.0000  0.1114  0.0000  0.1115  0.2118 </r>
       </set>
      </set>
      <set comment="kpoint 51">
       <set comment="band 1">
        <r>  0.4664  0.0507  0.0507  0.0507  0.0531  0.0531  0.0000  0.0531  0.0000 </r>
       </set>
       <set comment="band 2">
        <r>  0.0198  0.0529  0.0529  0.0529  0.2379  0.2379  0.0000  0.2379  0.0000 </r>
       </set>
       <set comment="band 3">
        <r>  0.0000  0.0006  0.0001  0.0003  0.0302  0.1721  0.0352  0.3430  0.3881 </r>
       </set>
       <set comment="band 4">
        <r>  0.0000  0.0000  0.0006  0.0004  0.3333  0.1914  0.3881  0.0205  0.0352 </r>
       </set>
       <set comment="band 5">
        <r>  0.0000  0.0000  0.0008  0.0010  0.1961  0.2244  0.3769  0.0097  0.1743 </r>
       </set>
       <set comment="band 6">
        <r>  0.0000  0.0012  0.0004  0.0003  0.0907  0.0624  0.1743  0.2771  0.3769 </r>
       </set>
       <set comment="band 7">
        <r>  0.1746  0.0839  0.0839  0.0839  0.1349  0.1349  0.0000  0.1349  0.0000 </r>
       </set>
       <set comment="band 8">
        <r>  0.0099  0.0031  0.0031  0.0031  0.0206  0.0206  0.0000  0.0206  0.0000 </r>
       </set>
       <set comment="band 9">
        <r>  0.0000  0.0828  0.2544  0.0470  0.2443  0.0451  0.0874  0.0796  0.0006 </r>
       </set>
       <set comment="band 10">
        <r>  0.0000  0.1733  0.0018  0.2091  0.0017  0.2009  0.0006  0.1664  0.0874 </r>
       </set>
       <set comment="band 11">
        <r>  0.0000  0.0665  0.0543  0.0120  0.0097  0.0022  0.3892  0.0119  0.2449 </r>
       </set>
       <set comment="band 12">
        <r>  0.0000  0.0221  0.0342  0.0765  0.0061  0.0137  0.2448  0.0040  0.3892 </r>
       </set>
      </set>
      <set comment="kpoint 52">
       <set comment="band 1">
        <r>  0.3446  0.0805  0.0805  0.0039  0.0671  0.1495  0.0032  0.0671  0.0096 </r>
       </set>
       <set comment="band 2">
        <r>  0.0163  0.0552  0.0552  0.0787  0.2965  0.0162  0.0162  0.2965  0.0486 </r>
       </set>
       <set comment="band 3">
        <r>  0.0011  0.0023  0.0023  0.0024  0.0612  0.3432  0.1203  0.0612  0.3608 </r>
       </set>
       <set comment="band 4">
        <r>  0.0000  0.0006  0.0006  0.0000  0.1911  0.0000  0.4378  0.1911  0.1459 </r>
       </set>
       <set comment="band 5">
        <r>  0.0000  0.0010  0.0010  0.0000  0.2982  0.0000  0.2861  0.2982  0.0954 </r>
       </set>
       <set comment="band 6">
        <r>  0.0351  0.0248  0.0248  0.0064  0.0070  0.4519  0.1029  0.0070  0.3086 </r>
       </set>
       <set comment="band 7">
        <r>  0.2019  0.0458  0.0458  0.1562  0.1464  0.0913  0.0040  0.1464  0.0119 </r>
       </set>
       <set comment="band 8">
        <r>  0.0477  0.0292  0.0292  0.1770  0.0875  0.0663  0.0316  0.0875  0.0949 </r>
       </set>
       <set comment="band 9">
        <r>  0.0350  0.0973  0.0973  0.0715  0.0019  0.0002  0.0040  0.0019  0.0119 </r>
       </set>
       <set comment="band 10">
        <r>  0.0000  0.1800  0.1800  0.0000  0.0008  0.0000  0.3501  0.0008  0.1167 </r>
       </set>
       <set comment="band 11">
        <r>  0.0000  0.0755  0.0755  0.0000  0.2630  0.0000  0.1890  0.2630  0.0630 </r>
       </set>
       <set comment="band 12">
        <r>  0.0620  0.0089  0.0089  0.0257  0.0159  0.1403  0.0615  0.0159  0.1845 </r>
       </set>
      </set>
      <set comment="kpoint 53">
       <set comment="band 1">
        <r>  0.1644  0.0984  0.0984  0.0014  0.0266  0.3913  0.0092  0.0266  0.0277 </r>
       </set>
       <set comment="band 2">
        <r>  0.0005  0.0300  0.0300  0.0272  0.0710  0.1018  0.1399  0.0710  0.4197 </r>
       </set>
       <set comment="band 3">
        <r>  0.0034  0.0007  0.0007  0.0762  0.3118  0.1190  0.0269  0.3118  0.0808 </r>
       </set>
       <set comment="band 4">
        <r>  0.0000  0.0040  0.0040  0.0000  0.0457  0.0000  0.6495  0.0457  0.2165 </r>
       </set>
       <set comment="band 5">
        <r>  0.0000  0.0003  0.0003  0.0000  0.4450  0.0000  0.0680  0.4450  0.0227 </r>
       </set>
       <set comment="band 6">
        <r>  0.1188  0.0808  0.0808  0.0051  0.0002  0.3895  0.0597  0.0002  0.1792 </r>
       </set>
       <set comment="band 7">
        <r>  0.1061  0.0103  0.0103  0.3447  0.1719  0.0253  0.0072  0.1719  0.0215 </r>
       </set>
       <set comment="band 8">
        <r>  0.2220  0.0465  0.0465  0.1134  0.0367  0.0611  0.0496  0.0367  0.1487 </r>
       </set>
       <set comment="band 9">
        <r>  0.0000  0.2235  0.2235  0.0000  0.0008  0.0000  0.2767  0.0008  0.0922 </r>
       </set>
       <set comment="band 10">
        <r>  0.1033  0.0632  0.0632  0.0047  0.0000  0.1461  0.0225  0.0000  0.0675 </r>
       </set>
       <set comment="band 11">
        <r>  0.0132  0.0001  0.0001  0.0803  0.0491  0.0320  0.0069  0.0491  0.0207 </r>
       </set>
       <set comment="band 12">
        <r>  0.0000  0.0131  0.0131  0.0000  0.3451  0.0000  0.0442  0.3451  0.0147 </r>
       </set>
      </set>
      <set comment="kpoint 54">
       <set comment="band 1">
        <r>  0.0490  0.0014  0.0014  0.0061  0.0107  0.5275  0.0769  0.0107  0.2308 </r>
       </set>
       <set comment="band 2">
        <r>  0.0045  0.0804  0.0804  0.0003  0.0027  0.2320  0.1146  0.0027  0.3437 </r>
       </set>
       <set comment="band 3">
        <r>  0.0013  0.0012  0.0012  0.1507  0.3639  0.0307  0.0014  0.3639  0.0043 </r>
       </set>
       <set comment="band 4">
        <r>  0.0000  0.0056  0.0056  0.0000  0.0368  0.0000  0.6633  0.0368  0.2211 </r>
       </set>
       <set comment="band 5">
        <r>  0.0000  0.0001  0.0001  0.0000  0.4563  0.0000  0.0554  0.4563  0.0185 </r>
       </set>
       <set comment="band 6">
        <r>  0.0740  0.1507  0.1507  0.0689  0.0145  0.2065  0.0398  0.0145  0.1195 </r>
       </set>
       <set comment="band 7">
        <r>  0.1205  0.0079  0.0079  0.3657  0.1614  0.0475  0.0003  0.1614  0.0008 </r>
       </set>
       <set comment="band 8">
        <r>  0.3275  0.0192  0.0192  0.0654  0.0105  0.0329  0.0785  0.0105  0.2356 </r>
       </set>
       <set comment="band 9">
        <r>  0.0000  0.2665  0.2665  0.0000  0.0016  0.0000  0.1603  0.0016  0.0534 </r>
       </set>
       <set comment="band 10">
        <r>  0.1412  0.0259  0.0259  0.0032  0.0000  0.3723  0.0204  0.0000  0.0612 </r>
       </set>
       <set comment="band 11">
        <r>  0.2032  0.0997  0.0997  0.0103  0.0011  0.3290  0.0184  0.0011  0.0553 </r>
       </set>
       <set comment="band 12">
        <r>  0.0000  0.0061  0.0061  0.0000  0.2556  0.0000  0.0333  0.2559  0.0110 </r>
       </set>
      </set>
      <set comment="kpoint 55">
       <set comment="band 1">
        <r>  0.2623  0.0088  0.0870  0.0088  0.1635  0.1422  0.0296  0.1422  0.0000 </r>
       </set>
       <set comment="band 2">
        <r>  0.0121  0.0828  0.0590  0.0828  0.2056  0.0468  0.3184  0.0468  0.0000 </r>
       </set>
       <set comment="band 3">
        <r>  0.0128  0.0087  0.0273  0.0087  0.4329  0.0756  0.3066  0.0756  0.0000 </r>
       </set>
       <set comment="band 4">
        <r>  0.0000  0.0027  0.0000  0.0027  0.0000  0.2239  0.0000  0.2239  0.5140 </r>
       </set>
       <set comment="band 5">
        <r>  0.0000  0.0002  0.0000  0.0002  0.0000  0.2656  0.0000  0.2656  0.4604 </r>
       </set>
       <set comment="band 6">
        <r>  0.0349  0.0306  0.0730  0.0306  0.0941  0.1833  0.3062  0.1833  0.0000 </r>
       </set>
       <set comment="band 7">
        <r>  0.2676  0.0898  0.0136  0.0898  0.1750  0.1116  0.0087  0.1116  0.0000 </r>
       </set>
       <set comment="band 8">
        <r>  0.0033  0.0001  0.0854  0.0001  0.0800  0.0075  0.2663  0.0075  0.0000 </r>
       </set>
       <set comment="band 9">
        <r>  0.0000  0.2414  0.0000  0.2414  0.0000  0.0775  0.0000  0.0775  0.1344 </r>
       </set>
       <set comment="band 10">
        <r>  0.1074  0.0403  0.2492  0.0403  0.1452  0.0058  0.0461  0.0058  0.0000 </r>
       </set>
       <set comment="band 11">
        <r>  0.0189  0.0003  0.0138  0.0003  0.2796  0.0210  0.4127  0.0210  0.0000 </r>
       </set>
       <set comment="band 12">
        <r>  0.0000  0.0542  0.0000  0.0542  0.0000  0.0769  0.0000  0.0769  0.5138 </r>
       </set>
      </set>
      <set comment="kpoint 56">
       <set comment="band 1">
        <r>  0.1388  0.0176  0.0799  0.0060  0.2308  0.2447  0.0630  0.0947  0.0019 </r>
       </set>
       <set comment="band 2">
        <r>  0.0001  0.0731  0.0243  0.0517  0.1035  0.0276  0.4491  0.0260  0.1102 </r>
       </set>
       <set comment="band 3">
        <r>  0.0103  0.0066  0.0432  0.0382  0.3948  0.3271  0.0686  0.0042  0.0399 </r>
       </set>
       <set comment="band 4">
        <r>  0.0000  0.0014  0.0115  0.0023  0.0324  0.0105  0.1478  0.2430  0.5158 </r>
       </set>
       <set comment="band 5">
        <r>  0.0006  0.0003  0.0024  0.0016  0.0866  0.0627  0.0641  0.5467  0.2211 </r>
       </set>
       <set comment="band 6">
        <r>  0.0662  0.0665  0.1521  0.0442  0.0213  0.2989  0.1613  0.0116  0.0709 </r>
       </set>
       <set comment="band 7">
        <r>  0.2669  0.0371  0.0001  0.1734  0.1946  0.0716  0.0122  0.1039  0.0118 </r>
       </set>
       <set comment="band 8">
        <r>  0.0374  0.0957  0.0032  0.1766  0.0880  0.0525  0.1388  0.0184  0.1101 </r>
       </set>
       <set comment="band 9">
        <r>  0.1573  0.0017  0.2668  0.0648  0.0007  0.0202  0.1856  0.0252  0.0271 </r>
       </set>
       <set comment="band 10">
        <r>  0.0043  0.2500  0.0389  0.0327  0.0989  0.0051  0.0006  0.0028  0.0003 </r>
       </set>
       <set comment="band 11">
        <r>  0.0545  0.0201  0.0006  0.0052  0.2575  0.1528  0.0715  0.0360  0.2245 </r>
       </set>
       <set comment="band 12">
        <r>  0.0057  0.0396  0.0203  0.0011  0.0699  0.0661  0.2449  0.0238  0.0341 </r>
       </set>
      </set>
      <set comment="kpoint 57">
       <set comment="band 1">
        <r>  0.0007  0.0711  0.0203  0.0030  0.0003  0.0002  0.4455  0.0000  0.3185 </r>
       </set>
       <set comment="band 2">
        <r>  0.0373  0.0069  0.0738  0.0063  0.0369  0.7309  0.0003  0.0126  0.0126 </r>
       </set>
       <set comment="band 3">
        <r>  0.0007  0.0010  0.0049  0.1230  0.6727  0.0517  0.0049  0.0618  0.0012 </r>
       </set>
       <set comment="band 4">
        <r>  0.0077  0.0010  0.0071  0.0014  0.0004  0.0035  0.3878  0.0277  0.5291 </r>
       </set>
       <set comment="band 5">
        <r>  0.0007  0.0000  0.0000  0.0025  0.1101  0.0060  0.0112  0.8436  0.0147 </r>
       </set>
       <set comment="band 6">
        <r>  0.0654  0.0980  0.2330  0.0561  0.0228  0.2136  0.1015  0.0006  0.0533 </r>
       </set>
       <set comment="band 7">
        <r>  0.1139  0.0000  0.0201  0.3795  0.2374  0.0418  0.0003  0.0690  0.0048 </r>
       </set>
       <set comment="band 8">
        <r>  0.2646  0.0807  0.0000  0.0740  0.0232  0.0310  0.1077  0.0038  0.2069 </r>
       </set>
       <set comment="band 9">
        <r>  0.1773  0.0765  0.2484  0.0030  0.0004  0.0650  0.1860  0.0019  0.0057 </r>
       </set>
       <set comment="band 10">
        <r>  0.0341  0.1555  0.0347  0.0021  0.0003  0.3070  0.0023  0.0004  0.0713 </r>
       </set>
       <set comment="band 11">
        <r>  0.0049  0.0193  0.0004  0.0467  0.4165  0.0344  0.0126  0.0141  0.0166 </r>
       </set>
       <set comment="band 12">
        <r>  0.0990  0.2561  0.0250  0.0005  0.0428  0.2602  0.0334  0.0001  0.0523 </r>
       </set>
      </set>
      <set comment="kpoint 58">
       <set comment="band 1">
        <r>  0.0881  0.0025  0.0387  0.0025  0.4760  0.0830  0.1312  0.0830  0.0000 </r>
       </set>
       <set comment="band 2">
        <r>  0.0000  0.0725  0.0091  0.0725  0.1125  0.0083  0.5753  0.0083  0.0000 </r>
       </set>
       <set comment="band 3">
        <r>  0.0089  0.0082  0.1146  0.0082  0.2168  0.2597  0.0475  0.2597  0.0000 </r>
       </set>
       <set comment="band 4">
        <r>  0.0000  0.0049  0.0000  0.0049  0.0000  0.1386  0.0000  0.1386  0.6809 </r>
       </set>
       <set comment="band 5">
        <r>  0.0000  0.0002  0.0000  0.0002  0.0000  0.3537  0.0000  0.3537  0.2822 </r>
       </set>
       <set comment="band 6">
        <r>  0.0083  0.0904  0.2196  0.0904  0.0662  0.0923  0.1996  0.0923  0.0000 </r>
       </set>
       <set comment="band 7">
        <r>  0.3160  0.0648  0.0394  0.0648  0.1882  0.0969  0.0070  0.0969  0.0000 </r>
       </set>
       <set comment="band 8">
        <r>  0.1576  0.0147  0.1968  0.0147  0.0228  0.0262  0.3086  0.0262  0.0000 </r>
       </set>
       <set comment="band 9">
        <r>  0.0000  0.2628  0.0000  0.2628  0.0000  0.0145  0.0000  0.0145  0.1966 </r>
       </set>
       <set comment="band 10">
        <r>  0.1361  0.0290  0.0302  0.0290  0.3345  0.0001  0.0496  0.0001  0.0000 </r>
       </set>
       <set comment="band 11">
        <r>  0.0007  0.0570  0.0322  0.0570  0.3566  0.0045  0.0185  0.0045  0.0000 </r>
       </set>
       <set comment="band 12">
        <r>  0.0000  0.0302  0.0000  0.0302  0.0000  0.1867  0.0000  0.1867  0.2402 </r>
       </set>
      </set>
      <set comment="kpoint 59">
       <set comment="band 1">
        <r>  0.2423  0.0093  0.0093  0.0093  0.2018  0.2018  0.0000  0.2018  0.0000 </r>
       </set>
       <set comment="band 2">
        <r>  0.0000  0.0001  0.0000  0.0000  0.0379  0.1064  0.0754  0.2708  0.4755 </r>
       </set>
       <set comment="band 3">
        <r>  0.0000  0.0000  0.0001  0.0000  0.2388  0.1703  0.4755  0.0059  0.0754 </r>
       </set>
       <set comment="band 4">
        <r>  0.0279  0.1927  0.1927  0.1927  0.0434  0.0434  0.0000  0.0434  0.0000 </r>
       </set>
       <set comment="band 5">
        <r>  0.0000  0.0001  0.0002  0.0001  0.2530  0.1973  0.2814  0.1182  0.1401 </r>
       </set>
       <set comment="band 6">
        <r>  0.0000  0.0002  0.0001  0.0001  0.1260  0.1817  0.1401  0.2609  0.2814 </r>
       </set>
       <set comment="band 7">
        <r>  0.3601  0.0251  0.0251  0.0251  0.1578  0.1578  0.0000  0.1578  0.0000 </r>
       </set>
       <set comment="band 8">
        <r>  0.0009  0.0095  0.0095  0.0095  0.0027  0.0027  0.0000  0.0027  0.0000 </r>
       </set>
       <set comment="band 9">
        <r>  0.0000  0.0321  0.2967  0.2253  0.0394  0.0299  0.0144  0.0043  0.0035 </r>
       </set>
       <set comment="band 10">
        <r>  0.0000  0.3373  0.0727  0.1441  0.0097  0.0191  0.0035  0.0448  0.0144 </r>
       </set>
       <set comment="band 11">
        <r>  0.0000  0.0003  0.0150  0.0137  0.1516  0.1379  0.5713  0.0034  0.1645 </r>
       </set>
       <set comment="band 12">
        <r>  0.0000  0.0190  0.0043  0.0057  0.0436  0.0574  0.1645  0.1918  0.5713 </r>
       </set>
      </set>
      <set comment="kpoint 60">
       <set comment="band 1">
        <r>  0.1777  0.0104  0.0104  0.0099  0.2030  0.2790  0.0000  0.2030  0.0000 </r>
       </set>
       <set comment="band 2">
        <r>  0.0002  0.0564  0.0564  0.0272  0.0071  0.0544  0.1679  0.0071  0.5036 </r>
       </set>
       <set comment="band 3">
        <r>  0.0009  0.0758  0.0758  0.1051  0.1485  0.3201  0.0015  0.1485  0.0045 </r>
       </set>
       <set comment="band 4">
        <r>  0.0000  0.0015  0.0015  0.0000  0.1825  0.0000  0.4480  0.1825  0.1493 </r>
       </set>
       <set comment="band 5">
        <r>  0.0000  0.0002  0.0002  0.0000  0.3096  0.0000  0.2774  0.3096  0.0925 </r>
       </set>
       <set comment="band 6">
        <r>  0.0075  0.0909  0.0909  0.0886  0.0329  0.2530  0.0738  0.0329  0.2215 </r>
       </set>
       <set comment="band 7">
        <r>  0.3924  0.0000  0.0000  0.0433  0.1662  0.1481  0.0005  0.1662  0.0016 </r>
       </set>
       <set comment="band 8">
        <r>  0.0279  0.0083  0.0083  0.1695  0.0415  0.0477  0.0544  0.0415  0.1631 </r>
       </set>
       <set comment="band 9">
        <r>  0.0708  0.0827  0.0827  0.1386  0.0063  0.0429  0.0000  0.0063  0.0000 </r>
       </set>
       <set comment="band 10">
        <r>  0.0000  0.2331  0.2331  0.0000  0.0203  0.0000  0.1959  0.0203  0.0653 </r>
       </set>
       <set comment="band 11">
        <r>  0.0000  0.0581  0.0581  0.0000  0.1804  0.0000  0.3182  0.1804  0.1061 </r>
       </set>
       <set comment="band 12">
        <r>  0.0554  0.0003  0.0003  0.0008  0.0000  0.2999  0.1040  0.0000  0.3120 </r>
       </set>
      </set>
     </set>
    </set>
   </array>
  </projected>
 </calculation>
 <structure name="finalpos" >
  <crystal>
   <varray name="basis" >
    <v>       0.00000000       1.74446697       1.74446697 </v>
    <v>       1.74446697       0.00000000       1.74446697 </v>
    <v>       1.74446697       1.74446697       0.00000000 </v>
   </varray>
   <i name="volume">     10.61740177 </i>
   <varray name="rec_basis" >
    <v>      -0.28662050       0.28662050       0.28662050 </v>
    <v>       0.28662050      -0.28662050       0.28662050 </v>
    <v>       0.28662050       0.28662050      -0.28662050 </v>
   </varray>
  </crystal>
  <varray name="positions" >
   <v>       0.00000000       0.00000000       0.00000000 </v>
  </varray>
 </structure>
</modeling>
