Co-hcc                                  
   1.00000000000000     
     2.478540    0.000000    0.000000
    -1.239270    2.146479    0.000000
     0.000000    0.000000    4.010177
   Co
     2
Direct
  0.000000  0.000000  0.000000
  0.333333  0.666667  0.500000
 
   32   32   56
 0.20211138295E+03 0.19764741902E+03 0.18486389113E+03 0.16543021674E+03 0.14166317887E+03
 0.11603704161E+03 0.90786484029E+02 0.67688498694E+02 0.47994755773E+02 0.32441038093E+02
 0.21242474494E+02 0.14101420680E+02 0.10234062664E+02 0.85137657786E+01 0.77161543808E+01
 0.72371751492E+01 0.70841777591E+01 0.72377979332E+01 0.77137529501E+01 0.85166747291E+01
 0.10232996996E+02 0.14101412091E+02 0.21242562241E+02 0.32441141025E+02 0.47994614291E+02
 0.67688741064E+02 0.90786262899E+02 0.11603737632E+03 0.14166294038E+03 0.16543033284E+03
 0.18486387499E+03 0.19764729508E+03 0.19764729508E+03 0.19764729930E+03 0.18902811394E+03
 0.17294384808E+03 0.15140412161E+03 0.12681821108E+03 0.10153688930E+03 0.77555397740E+02
 0.56373028895E+02 0.38977140415E+02 0.25839345381E+02 0.16918028625E+02 0.11658825451E+02
 0.90945230648E+01 0.79966148608E+01 0.73757811500E+01 0.70653133401E+01 0.70629665798E+01
 0.73785143839E+01 0.79952650235E+01 0.90936999794E+01 0.11659800635E+02 0.16917535827E+02
 0.25839530892E+02 0.38976964999E+02 0.56372993963E+02 0.77555342944E+02 0.10153682793E+03
 0.12681792370E+03 0.15140456524E+03 0.17294343675E+03 0.18902848060E+03 0.18486387499E+03
 0.18902396200E+03 0.18486412439E+03 0.17294353044E+03 0.15479934957E+03 0.13257152302E+03
 0.10856402145E+03 0.84877432017E+02 0.63203959455E+02 0.44753079428E+02 0.30236558504E+02
 0.19860725675E+02 0.13315832630E+02 0.98280709156E+01 0.82859892741E+01 0.75314054021E+01
 0.70727165557E+01 0.69268194665E+01 0.70729898997E+01 0.75296281776E+01 0.82887745187E+01
 0.98260863272E+01 0.13317200577E+02 0.19859802634E+02 0.30237214347E+02 0.44752899210E+02
 0.63204177244E+02 0.84877483682E+02 0.10856423785E+03 0.13257134174E+03 0.15479951100E+03
 0.17294343675E+03 0.16543033284E+03 0.17293233602E+03 0.17293222337E+03 0.16543013424E+03
 0.15140448737E+03 0.13257166877E+03 0.11100954933E+03 0.88780960622E+02 0.67675916820E+02
 0.49069143759E+02 0.33882875608E+02 0.22545125613E+02 0.14992463123E+02 0.10659745385E+02
 0.86084051679E+01 0.76803589845E+01 0.71060147766E+01 0.68241372831E+01 0.68222547861E+01
 0.71086392777E+01 0.76778213718E+01 0.86098034510E+01 0.10659005874E+02 0.14992490323E+02
 0.22545380705E+02 0.33882319054E+02 0.49069426665E+02 0.67675444316E+02 0.88781009035E+02
 0.11100964514E+03 0.13257134174E+03 0.15140456524E+03 0.14166294038E+03 0.15138637900E+03
 0.15477444413E+03 0.15138638041E+03 0.14166327981E+03 0.12681755810E+03 0.10856417010E+03
 0.88780837598E+02 0.69231967506E+02 0.51378147140E+02 0.36291445433E+02 0.24593807717E+02
 0.16435086261E+02 0.11470475012E+02 0.89467459475E+01 0.78138455341E+01 0.71520439166E+01
 0.67549471567E+01 0.66264819881E+01 0.67543744517E+01 0.71523675684E+01 0.78143642212E+01
 0.89458038168E+01 0.11471879445E+02 0.16433925829E+02 0.24594954796E+02 0.36290659406E+02
 0.51379121406E+02 0.69231534748E+02 0.88781009035E+02 0.10856423785E+03 0.12681792370E+03
 0.11603737632E+03 0.12679663609E+03 0.13253676141E+03 0.13253666498E+03 0.12679680506E+03
 0.11603721737E+03 0.10153714405E+03 0.84877681118E+02 0.67675444378E+02 0.51378778767E+02
 0.37133296329E+02 0.25702376381E+02 0.17410077765E+02 0.12117934904E+02 0.92546541734E+01
 0.79294389435E+01 0.71974900096E+01 0.67148031043E+01 0.64809472325E+01 0.64816058659E+01
 0.67146189575E+01 0.71969031806E+01 0.79303803362E+01 0.92534184368E+01 0.12118773011E+02
 0.17409028013E+02 0.25703213913E+02 0.37132326937E+02 0.51379121406E+02 0.67675444316E+02
 0.84877483682E+02 0.10153682793E+03 0.90786262899E+02 0.10151906265E+03 0.10852921902E+03
 0.11096789331E+03 0.10852896105E+03 0.10151878450E+03 0.90786378011E+02 0.77555086978E+02
 0.63203793389E+02 0.49069671243E+02 0.36290788435E+02 0.25702503604E+02 0.17755111124E+02
 0.12476241306E+02 0.94729909897E+01 0.80180094372E+01 0.72360784438E+01 0.66921815109E+01
 0.63831334338E+01 0.62793908983E+01 0.63827565641E+01 0.66931307751E+01 0.72349927925E+01
 0.80192316505E+01 0.94721837047E+01 0.12477393030E+02 0.17754352010E+02 0.25703213913E+02
 0.36290659406E+02 0.49069426665E+02 0.63204177244E+02 0.77555342944E+02 0.67688741064E+02
 0.77546965885E+02 0.84855328303E+02 0.88749121662E+02 0.88749443818E+02 0.84855914287E+02
 0.77547114966E+02 0.67688696657E+02 0.56373175979E+02 0.44753452133E+02 0.33881909378E+02
 0.24594769240E+02 0.17409652677E+02 0.12476793496E+02 0.95516268427E+01 0.80679913616E+01
 0.72598996646E+01 0.66829533398E+01 0.63202978660E+01 0.61450299012E+01 0.61458321831E+01
 0.63191308833E+01 0.66840629670E+01 0.72586661259E+01 0.80688193771E+01 0.95504554524E+01
 0.12477393030E+02 0.17409028013E+02 0.24594954796E+02 0.33882319054E+02 0.44752899210E+02
 0.56372993963E+02 0.47994614291E+02 0.56380689053E+02 0.63207637150E+02 0.67672087332E+02
 0.69224503234E+02 0.67671415931E+02 0.63207027775E+02 0.56380546466E+02 0.47994656872E+02
 0.38976869230E+02 0.30236324447E+02 0.22546383633E+02 0.16433866263E+02 0.12118324658E+02
 0.94724225292E+01 0.80680176975E+01 0.72683034864E+01 0.66793318600E+01 0.62868160366E+01
 0.60631098156E+01 0.59929297045E+01 0.60636541979E+01 0.62863094130E+01 0.66801127296E+01
 0.72679196934E+01 0.80688193771E+01 0.94721837047E+01 0.12118773011E+02 0.16433925829E+02
 0.22545380705E+02 0.30237214347E+02 0.38976964999E+02 0.32441141025E+02 0.39002159848E+02
 0.44788740316E+02 0.49107400523E+02 0.51415906234E+02 0.51416341691E+02 0.49107957683E+02
 0.44789643863E+02 0.39002117016E+02 0.32441146592E+02 0.25839637483E+02 0.19860759406E+02
 0.14990999591E+02 0.11472222544E+02 0.92539226198E+01 0.80188306963E+01 0.72597398260E+01
 0.66794987633E+01 0.62762047259E+01 0.60253374292E+01 0.59091612825E+01 0.59079087269E+01
 0.60262380622E+01 0.62750402804E+01 0.66801127296E+01 0.72586661259E+01 0.80192316505E+01
 0.92534184368E+01 0.11471879445E+02 0.14992490323E+02 0.19859802634E+02 0.25839530892E+02
 0.21242562241E+02 0.25881012529E+02 0.30306826835E+02 0.33967696629E+02 0.36383316894E+02
 0.37227008097E+02 0.36383112110E+02 0.33966791575E+02 0.30305956008E+02 0.25881009985E+02
 0.21242672029E+02 0.16917544274E+02 0.13316105597E+02 0.10661084851E+02 0.89447091946E+01
 0.79305562349E+01 0.72347746766E+01 0.66834466366E+01 0.62863159749E+01 0.60256664370E+01
 0.58817760677E+01 0.58364127245E+01 0.58818006981E+01 0.60262380622E+01 0.62863094130E+01
 0.66840629670E+01 0.72349927925E+01 0.79303803362E+01 0.89458038168E+01 0.10659005874E+02
 0.13317200577E+02 0.16917535827E+02 0.14101412091E+02 0.16971864576E+02 0.19956561580E+02
 0.22673052044E+02 0.24741161183E+02 0.25858592983E+02 0.25858336712E+02 0.24741572888E+02
 0.22674031908E+02 0.19957674423E+02 0.16971829171E+02 0.14100788643E+02 0.11659953182E+02
 0.98272867357E+01 0.86073511899E+01 0.78158400347E+01 0.71963980061E+01 0.66936590391E+01
 0.63197604146E+01 0.60636205307E+01 0.59089227896E+01 0.58357907646E+01 0.58364127245E+01
 0.59079087269E+01 0.60636541979E+01 0.63191308833E+01 0.66931307751E+01 0.71969031806E+01
 0.78143642212E+01 0.86098034510E+01 0.98260863272E+01 0.11659800635E+02 0.10232996996E+02
 0.11720536968E+02 0.13432014408E+02 0.15151181114E+02 0.16624455504E+02 0.17618755588E+02
 0.17970388813E+02 0.17618790517E+02 0.16624290050E+02 0.15149562263E+02 0.13430941784E+02
 0.11720685326E+02 0.10234795288E+02 0.90921360839E+01 0.82882564077E+01 0.76804365207E+01
 0.71504719303E+01 0.67156115142E+01 0.63815543207E+01 0.61456648193E+01 0.59921449094E+01
 0.59089227896E+01 0.58817760677E+01 0.59091612825E+01 0.59929297045E+01 0.61458321831E+01
 0.63827565641E+01 0.67146189575E+01 0.71523675684E+01 0.76778213718E+01 0.82887745187E+01
 0.90936999794E+01 0.85166747291E+01 0.91576859423E+01 0.99510841768E+01 0.10836385186E+02
 0.11691014751E+02 0.12366784722E+02 0.12739849455E+02 0.12739962987E+02 0.12366489646E+02
 0.11691551217E+02 0.10838402235E+02 0.99523332546E+01 0.91560908362E+01 0.85149939513E+01
 0.79984862053E+01 0.75281738510E+01 0.71071789920E+01 0.67556154864E+01 0.64810183258E+01
 0.62805835628E+01 0.61456648193E+01 0.60636205307E+01 0.60256664370E+01 0.60253374292E+01
 0.60631098156E+01 0.61450299012E+01 0.62793908983E+01 0.64816058659E+01 0.67543744517E+01
 0.71086392777E+01 0.75296281776E+01 0.79952650235E+01 0.77137529501E+01 0.80604817395E+01
 0.84172511744E+01 0.87942603162E+01 0.91790527701E+01 0.95241602540E+01 0.97664257142E+01
 0.98532160906E+01 0.97666183687E+01 0.95242825983E+01 0.91781078329E+01 0.87916691335E+01
 0.84168201025E+01 0.80636730545E+01 0.77131166862E+01 0.73760125123E+01 0.70750989998E+01
 0.68230659741E+01 0.66258245736E+01 0.64810183258E+01 0.63815543207E+01 0.63197604146E+01
 0.62863159749E+01 0.62762047259E+01 0.62868160366E+01 0.63202978660E+01 0.63831334338E+01
 0.64809472325E+01 0.66264819881E+01 0.68222547861E+01 0.70729898997E+01 0.73785143839E+01
 0.72377979332E+01 0.74443148962E+01 0.76594603841E+01 0.78658492104E+01 0.80556326462E+01
 0.82151268372E+01 0.83336460252E+01 0.83983506858E+01 0.83979142440E+01 0.83335761410E+01
 0.82152318535E+01 0.80572631091E+01 0.78683780302E+01 0.76580317941E+01 0.74417935275E+01
 0.72397283311E+01 0.70642530998E+01 0.69249634550E+01 0.68230659741E+01 0.67556154864E+01
 0.67156115142E+01 0.66936590391E+01 0.66834466366E+01 0.66794987633E+01 0.66793318600E+01
 0.66829533398E+01 0.66921815109E+01 0.67148031043E+01 0.67549471567E+01 0.68241372831E+01
 0.69268194665E+01 0.70629665798E+01 0.70841777591E+01 0.71291772215E+01 0.72036474706E+01
 0.72996089917E+01 0.73983183255E+01 0.74888018718E+01 0.75604924801E+01 0.76055176983E+01
 0.76216366477E+01 0.76059151637E+01 0.75605272295E+01 0.74879487245E+01 0.73965835136E+01
 0.72980912539E+01 0.72058178961E+01 0.71304443342E+01 0.70822852265E+01 0.70642530998E+01
 0.70750989998E+01 0.71071789920E+01 0.71504719303E+01 0.71963980061E+01 0.72347746766E+01
 0.72597398260E+01 0.72683034864E+01 0.72598996646E+01 0.72360784438E+01 0.71974900096E+01
 0.71520439166E+01 0.71060147766E+01 0.70727165557E+01 0.70653133401E+01 0.72371751492E+01
 0.71314949899E+01 0.70578524719E+01 0.70146417690E+01 0.70032212063E+01 0.70113649342E+01
 0.70285859979E+01 0.70467499815E+01 0.70567191949E+01 0.70569058023E+01 0.70460518972E+01
 0.70293819372E+01 0.70123414502E+01 0.70044407761E+01 0.70154217007E+01 0.70559857786E+01
 0.71304443342E+01 0.72397283311E+01 0.73760125123E+01 0.75281738510E+01 0.76804365207E+01
 0.78158400347E+01 0.79305562349E+01 0.80188306963E+01 0.80680176975E+01 0.80679913616E+01
 0.80180094372E+01 0.79294389435E+01 0.78138455341E+01 0.76803589845E+01 0.75314054021E+01
 0.73757811500E+01 0.77161543808E+01 0.74416331496E+01 0.72033506398E+01 0.70165830774E+01
 0.68761587715E+01 0.67817638015E+01 0.67250793691E+01 0.66930763876E+01 0.66794230923E+01
 0.66750513407E+01 0.66795979406E+01 0.66931409804E+01 0.67240752041E+01 0.67809943887E+01
 0.68756876349E+01 0.70154217007E+01 0.72058178961E+01 0.74417935275E+01 0.77131166862E+01
 0.79984862053E+01 0.82882564077E+01 0.86073511899E+01 0.89447091946E+01 0.92539226198E+01
 0.94724225292E+01 0.95516268427E+01 0.94729909897E+01 0.92546541734E+01 0.89467459475E+01
 0.86084051679E+01 0.82859892741E+01 0.79966148608E+01 0.85137657786E+01 0.80617699104E+01
 0.76612595098E+01 0.72969348703E+01 0.70038263240E+01 0.67809178907E+01 0.66239236221E+01
 0.65244890833E+01 0.64664963683E+01 0.64412716273E+01 0.64407568171E+01 0.64669829047E+01
 0.65243691342E+01 0.66251167820E+01 0.67809943887E+01 0.70044407761E+01 0.72980912539E+01
 0.76580317941E+01 0.80636730545E+01 0.85149939513E+01 0.90921360839E+01 0.98272867357E+01
 0.10661084851E+02 0.11472222544E+02 0.12118324658E+02 0.12476793496E+02 0.12476241306E+02
 0.12117934904E+02 0.11470475012E+02 0.10659745385E+02 0.98280709156E+01 0.90945230648E+01
 0.10234062664E+02 0.91585611984E+01 0.84144429957E+01 0.78684815274E+01 0.73978805498E+01
 0.70118085356E+01 0.67253246650E+01 0.65241533332E+01 0.63999694876E+01 0.63322704524E+01
 0.63121410296E+01 0.63322463021E+01 0.63994602817E+01 0.65243691342E+01 0.67240752041E+01
 0.70123414502E+01 0.73965835136E+01 0.78683780302E+01 0.84168201025E+01 0.91560908362E+01
 0.10234795288E+02 0.11659953182E+02 0.13316105597E+02 0.14990999591E+02 0.16433866263E+02
 0.17409652677E+02 0.17755111124E+02 0.17410077765E+02 0.16435086261E+02 0.14992463123E+02
 0.13315832630E+02 0.11658825451E+02 0.14101420680E+02 0.11719475756E+02 0.99531677769E+01
 0.87926915660E+01 0.80552979393E+01 0.74891000809E+01 0.70278158701E+01 0.66937680627E+01
 0.64661668958E+01 0.63326444986E+01 0.62699499457E+01 0.62708375077E+01 0.63322463021E+01
 0.64669829047E+01 0.66931409804E+01 0.70293819372E+01 0.74879487245E+01 0.80572631091E+01
 0.87916691335E+01 0.99523332546E+01 0.11720685326E+02 0.14100788643E+02 0.16917544274E+02
 0.19860759406E+02 0.22546383633E+02 0.24594769240E+02 0.25702503604E+02 0.25702376381E+02
 0.24593807717E+02 0.22545125613E+02 0.19860725675E+02 0.16918028625E+02 0.21242474494E+02
 0.16972490093E+02 0.13430546147E+02 0.10837203641E+02 0.91799228575E+01 0.82143179444E+01
 0.75615540199E+01 0.70459231000E+01 0.66798714657E+01 0.64407745943E+01 0.63125003109E+01
 0.62699499457E+01 0.63121410296E+01 0.64407568171E+01 0.66795979406E+01 0.70460518972E+01
 0.75605272295E+01 0.82152318535E+01 0.91781078329E+01 0.10838402235E+02 0.13430941784E+02
 0.16971829171E+02 0.21242672029E+02 0.25839637483E+02 0.30236324447E+02 0.33881909378E+02
 0.36290788435E+02 0.37133296329E+02 0.36291445433E+02 0.33882875608E+02 0.30236558504E+02
 0.25839345381E+02 0.32441038093E+02 0.25880592828E+02 0.19957640241E+02 0.15150924513E+02
 0.11689978375E+02 0.95249198035E+01 0.83329161338E+01 0.76059133465E+01 0.70566535442E+01
 0.66751570045E+01 0.64407745943E+01 0.63326444986E+01 0.63322704524E+01 0.64412716273E+01
 0.66750513407E+01 0.70569058023E+01 0.76059151637E+01 0.83335761410E+01 0.95242825983E+01
 0.11691551217E+02 0.15149562263E+02 0.19957674423E+02 0.25881009985E+02 0.32441146592E+02
 0.38976869230E+02 0.44753452133E+02 0.49069671243E+02 0.51378778767E+02 0.51378147140E+02
 0.49069143759E+02 0.44753079428E+02 0.38977140415E+02 0.47994755773E+02 0.39002556232E+02
 0.30306080308E+02 0.22673032949E+02 0.16625311747E+02 0.12366184630E+02 0.97669861715E+01
 0.83980006967E+01 0.76217953474E+01 0.70566535442E+01 0.66798714657E+01 0.64661668958E+01
 0.63999694876E+01 0.64664963683E+01 0.66794230923E+01 0.70567191949E+01 0.76216366477E+01
 0.83979142440E+01 0.97666183687E+01 0.12366489646E+02 0.16624290050E+02 0.22674031908E+02
 0.30305956008E+02 0.39002117016E+02 0.47994656872E+02 0.56373175979E+02 0.63203793389E+02
 0.67675444378E+02 0.69231967506E+02 0.67675916820E+02 0.63203959455E+02 0.56373028895E+02
 0.67688498694E+02 0.56380282363E+02 0.44789277373E+02 0.33967698654E+02 0.24740549028E+02
 0.17619227670E+02 0.12739534465E+02 0.98533360472E+01 0.83980006967E+01 0.76059133465E+01
 0.70459231000E+01 0.66937680627E+01 0.65241533332E+01 0.65244890833E+01 0.66930763876E+01
 0.70467499815E+01 0.76055176983E+01 0.83983506858E+01 0.98532160906E+01 0.12739962987E+02
 0.17618790517E+02 0.24741572888E+02 0.33966791575E+02 0.44789643863E+02 0.56380546466E+02
 0.67688696657E+02 0.77555086978E+02 0.84877681118E+02 0.88780837598E+02 0.88780960622E+02
 0.84877432017E+02 0.77555397740E+02 0.90786484029E+02 0.77547300866E+02 0.63207423250E+02
 0.49107260795E+02 0.36384009036E+02 0.25857989302E+02 0.17970805070E+02 0.12739534465E+02
 0.97669861715E+01 0.83329161338E+01 0.75615540199E+01 0.70278158701E+01 0.67253246650E+01
 0.66239236221E+01 0.67250793691E+01 0.70285859979E+01 0.75604924801E+01 0.83336460252E+01
 0.97664257142E+01 0.12739849455E+02 0.17970388813E+02 0.25858336712E+02 0.36383112110E+02
 0.49107957683E+02 0.63207027775E+02 0.77547114966E+02 0.90786378011E+02 0.10153714405E+03
 0.10856417010E+03 0.11100954933E+03 0.10856402145E+03 0.10153688930E+03 0.11603704161E+03
 0.10151880246E+03 0.84855456469E+02 0.67672101405E+02 0.51415358025E+02 0.37227491735E+02
 0.25857989302E+02 0.17619227670E+02 0.12366184630E+02 0.95249198035E+01 0.82143179444E+01
 0.74891000809E+01 0.70118085356E+01 0.67809178907E+01 0.67817638015E+01 0.70113649342E+01
 0.74888018718E+01 0.82151268372E+01 0.95241602540E+01 0.12366784722E+02 0.17618755588E+02
 0.25858592983E+02 0.37227008097E+02 0.51416341691E+02 0.67671415931E+02 0.84855914287E+02
 0.10151878450E+03 0.11603721737E+03 0.12681755810E+03 0.13257166877E+03 0.13257152302E+03
 0.12681821108E+03 0.14166317887E+03 0.12679668023E+03 0.10852947201E+03 0.88748688369E+02
 0.69225542242E+02 0.51415358025E+02 0.36384009036E+02 0.24740549028E+02 0.16625311747E+02
 0.11689978375E+02 0.91799228575E+01 0.80552979393E+01 0.73978805498E+01 0.70038263240E+01
 0.68761587715E+01 0.70032212063E+01 0.73983183255E+01 0.80556326462E+01 0.91790527701E+01
 0.11691014751E+02 0.16624455504E+02 0.24741161183E+02 0.36383316894E+02 0.51415906234E+02
 0.69224503234E+02 0.88749443818E+02 0.10852896105E+03 0.12679680506E+03 0.14166327981E+03
 0.15140448737E+03 0.15479934957E+03 0.15140412161E+03 0.16543021674E+03 0.15138647761E+03
 0.13253654067E+03 0.11096817593E+03 0.88748688369E+02 0.67672101405E+02 0.49107260795E+02
 0.33967698654E+02 0.22673032949E+02 0.15150924513E+02 0.10837203641E+02 0.87926915660E+01
 0.78684815274E+01 0.72969348703E+01 0.70165830774E+01 0.70146417690E+01 0.72996089917E+01
 0.78658492104E+01 0.87942603162E+01 0.10836385186E+02 0.15151181114E+02 0.22673052044E+02
 0.33967696629E+02 0.49107400523E+02 0.67672087332E+02 0.88749121662E+02 0.11096789331E+03
 0.13253666498E+03 0.15138638041E+03 0.16543013424E+03 0.17294353044E+03 0.17294384808E+03
 0.18486389113E+03 0.17293233354E+03 0.15477436765E+03 0.13253654067E+03 0.10852947201E+03
 0.84855456469E+02 0.63207423250E+02 0.44789277373E+02 0.30306080308E+02 0.19957640241E+02
 0.13430546147E+02 0.99531677769E+01 0.84144429957E+01 0.76612595098E+01 0.72033506398E+01
 0.70578524719E+01 0.72036474706E+01 0.76594603841E+01 0.84172511744E+01 0.99510841768E+01
 0.13432014408E+02 0.19956561580E+02 0.30306826835E+02 0.44788740316E+02 0.63207637150E+02
 0.84855328303E+02 0.10852921902E+03 0.13253676141E+03 0.15477444413E+03 0.17293222337E+03
 0.18486412439E+03 0.18902811394E+03 0.19764741902E+03 0.18902388709E+03 0.17293233354E+03
 0.15138647761E+03 0.12679668023E+03 0.10151880246E+03 0.77547300866E+02 0.56380282363E+02
 0.39002556232E+02 0.25880592828E+02 0.16972490093E+02 0.11719475756E+02 0.91585611984E+01
 0.80617699104E+01 0.74416331496E+01 0.71314949899E+01 0.71291772215E+01 0.74443148962E+01
 0.80604817395E+01 0.91576859423E+01 0.11720536968E+02 0.16971864576E+02 0.25881012529E+02
 0.39002159848E+02 0.56380689053E+02 0.77546965885E+02 0.10151906265E+03 0.12679663609E+03
 0.15138637900E+03 0.17293233602E+03 0.18902396200E+03 0.19764729930E+03 0.19828677516E+03
 0.19391195789E+03 0.18138074320E+03 0.16232436661E+03 0.13900745773E+03 0.11385473880E+03
 0.89062149342E+02 0.66381789047E+02 0.47052915371E+02 0.31804545352E+02 0.20848115965E+02
 0.13883343700E+02 0.10128612165E+02 0.84619543411E+01 0.76775843386E+01 0.72045257983E+01
 0.70536530593E+01 0.72050553364E+01 0.76753647116E+01 0.84649089904E+01 0.10127218930E+02
 0.13883574663E+02 0.20848221304E+02 0.31804817151E+02 0.47052774271E+02 0.66382279022E+02
 0.89061898750E+02 0.11385546411E+03 0.13900720937E+03 0.16232440390E+03 0.18138072590E+03
 0.19391165825E+03 0.19391172238E+03 0.19391151776E+03 0.18546298516E+03 0.16969205624E+03
 0.14856391440E+03 0.12443610240E+03 0.99615577384E+02 0.76066765516E+02 0.55270986890E+02
 0.38206290000E+02 0.25339151574E+02 0.16624458094E+02 0.11506575388E+02 0.90224847244E+01
 0.79531605225E+01 0.73392076042E+01 0.70332347240E+01 0.70307720477E+01 0.73421023444E+01
 0.79513705903E+01 0.90221274318E+01 0.11507431861E+02 0.16623949123E+02 0.25339063288E+02
 0.38206198172E+02 0.55270657606E+02 0.76066774995E+02 0.99615192516E+02 0.12443588691E+03
 0.14856414451E+03 0.16969191984E+03 0.18546319796E+03 0.18138091077E+03 0.18545949089E+03
 0.18138104355E+03 0.16969190462E+03 0.15189406944E+03 0.13008150350E+03 0.10651336294E+03
 0.83254071191E+02 0.61973283737E+02 0.43867066540E+02 0.29639774354E+02 0.19492728706E+02
 0.13113534745E+02 0.97294006831E+01 0.82347113574E+01 0.74911920313E+01 0.70387430548E+01
 0.68946619079E+01 0.70389427795E+01 0.74896675320E+01 0.82374040962E+01 0.97272397051E+01
 0.13115008440E+02 0.19491897789E+02 0.29640596657E+02 0.43866975080E+02 0.61973586273E+02
 0.83254321904E+02 0.10651352170E+03 0.13008141333E+03 0.15189429444E+03 0.16969167085E+03
 0.16232434512E+03 0.16968259105E+03 0.16968262827E+03 0.16232412419E+03 0.14856422609E+03
 0.13008197853E+03 0.10891369897E+03 0.87085967880E+02 0.66361720592E+02 0.48098726671E+02
 0.33208758915E+02 0.22112759747E+02 0.14742358475E+02 0.10531616488E+02 0.85453790089E+01
 0.76372512811E+01 0.70697369626E+01 0.67918469917E+01 0.67900786815E+01 0.70721959197E+01
 0.76346493601E+01 0.85470039929E+01 0.10530703433E+02 0.14742492080E+02 0.22112781135E+02
 0.33208089292E+02 0.48098925973E+02 0.66361094490E+02 0.87086011666E+02 0.10891386353E+03
 0.13008153942E+03 0.14856426741E+03 0.13900750318E+03 0.14854949353E+03 0.15187409049E+03
 0.14854948407E+03 0.13900770238E+03 0.12443506478E+03 0.10651361227E+03 0.87085602351E+02
 0.67888893775E+02 0.50362853917E+02 0.35567259067E+02 0.24113444221E+02 0.16146060533E+02
 0.11315177775E+02 0.88703917696E+01 0.77676365720E+01 0.71136061917E+01 0.67221937467E+01
 0.65955251032E+01 0.67216199694E+01 0.71141197341E+01 0.77679079136E+01 0.88696454313E+01
 0.11316529625E+02 0.16144929030E+02 0.24114794220E+02 0.35566551555E+02 0.50363999766E+02
 0.67888408064E+02 0.87085776626E+02 0.10651363066E+03 0.12443552896E+03 0.11385496397E+03
 0.12441946368E+03 0.13005445900E+03 0.13005465329E+03 0.12441938083E+03 0.11385541547E+03
 0.99615602183E+02 0.83254651289E+02 0.66361054500E+02 0.50363845369E+02 0.36391494656E+02
 0.25197228200E+02 0.17094859965E+02 0.11942098386E+02 0.91655838466E+01 0.78796623969E+01
 0.71570468838E+01 0.66815554151E+01 0.64504730167E+01 0.64516977696E+01 0.66807079082E+01
 0.71571178471E+01 0.78799879788E+01 0.91647887921E+01 0.11942453555E+02 0.17094209356E+02
 0.25197489190E+02 0.36390783293E+02 0.50363793446E+02 0.66361535850E+02 0.83254006633E+02
 0.99615756780E+02 0.89061950755E+02 0.99603693064E+02 0.10648855985E+03 0.10888372136E+03
 0.10648826868E+03 0.99603195195E+02 0.89062045444E+02 0.76066348618E+02 0.61973128448E+02
 0.48099187281E+02 0.35566505604E+02 0.25196947864E+02 0.17431276068E+02 0.12289057245E+02
 0.93754849361E+01 0.79644261426E+01 0.71945874586E+01 0.66578487219E+01 0.63532587590E+01
 0.62511259909E+01 0.63529393606E+01 0.66587152345E+01 0.71935756409E+01 0.79657464168E+01
 0.93746695537E+01 0.12290345510E+02 0.17430434140E+02 0.25197937322E+02 0.35566309743E+02
 0.48098932745E+02 0.61973453412E+02 0.76066658862E+02 0.66381914081E+02 0.76064741232E+02
 0.83243495753E+02 0.87068600530E+02 0.87068817018E+02 0.83244445917E+02 0.76064668938E+02
 0.66382253939E+02 0.55270978603E+02 0.43867617165E+02 0.33207648440E+02 0.24114870869E+02
 0.17094466725E+02 0.12289724137E+02 0.94508060483E+01 0.80124265321E+01 0.72174634994E+01
 0.66481178693E+01 0.62902514743E+01 0.61179941156E+01 0.61183861506E+01 0.62895382853E+01
 0.66488144838E+01 0.72164567611E+01 0.80129242280E+01 0.94498098833E+01 0.12290032574E+02
 0.17094074160E+02 0.24114723096E+02 0.33208395456E+02 0.43866795005E+02 0.55271086675E+02
 0.47052754145E+02 0.55284965446E+02 0.61988804694E+02 0.66373912621E+02 0.67898520395E+02
 0.66373016396E+02 0.61988253374E+02 0.55284693107E+02 0.47052767846E+02 0.38206008014E+02
 0.29639551866E+02 0.22113830510E+02 0.16144687387E+02 0.11942424153E+02 0.93748309639E+01
 0.80123568267E+01 0.72257232625E+01 0.66439602664E+01 0.62568836803E+01 0.60365397866E+01
 0.59673774599E+01 0.60370133630E+01 0.62563843976E+01 0.66448767128E+01 0.72253364685E+01
 0.80133092950E+01 0.93745974224E+01 0.11942973818E+02 0.16144615087E+02 0.22112860038E+02
 0.29640391665E+02 0.38206154170E+02 0.31804568233E+02 0.38237142301E+02 0.43914122226E+02
 0.48152892890E+02 0.50419217642E+02 0.50419859423E+02 0.48153387194E+02 0.43915210400E+02
 0.38236982172E+02 0.31804805391E+02 0.25339354094E+02 0.19492986924E+02 0.14740857676E+02
 0.11317047120E+02 0.91649203983E+01 0.79654093996E+01 0.72173124956E+01 0.66442504466E+01
 0.62460934135E+01 0.59990339972E+01 0.58843319887E+01 0.58833959177E+01 0.59996933147E+01
 0.62450730008E+01 0.66446076685E+01 0.72163407384E+01 0.79655495038E+01 0.91645375734E+01
 0.11316574523E+02 0.14742682221E+02 0.19491833737E+02 0.25339376334E+02 0.20848146644E+02
 0.25385943848E+02 0.29720272849E+02 0.33308603905E+02 0.35676928194E+02 0.36504464500E+02
 0.35676797913E+02 0.33307504782E+02 0.29719458082E+02 0.25385863111E+02 0.20848242846E+02
 0.16623797770E+02 0.13113847479E+02 0.10532992525E+02 0.88682383535E+01 0.78806581955E+01
 0.71931699646E+01 0.66485349421E+01 0.62563148890E+01 0.59993829173E+01 0.58573072862E+01
 0.58126819020E+01 0.58573408383E+01 0.60000168928E+01 0.62563298638E+01 0.66492540846E+01
 0.71934489758E+01 0.78805627756E+01 0.88692769545E+01 0.10530836870E+02 0.13114748914E+02
 0.16623959655E+02 0.13883570005E+02 0.16682505997E+02 0.19597741916E+02 0.22253706202E+02
 0.24277806277E+02 0.25371726765E+02 0.25371475336E+02 0.24278131907E+02 0.22254926950E+02
 0.19598731422E+02 0.16682575078E+02 0.13882940424E+02 0.11507808882E+02 0.97283300893E+01
 0.85445369004E+01 0.77695786612E+01 0.71562021659E+01 0.66593579102E+01 0.62898640950E+01
 0.60369910634E+01 0.58841980626E+01 0.58120981311E+01 0.58126025839E+01 0.58831516578E+01
 0.60369885786E+01 0.62891780026E+01 0.66587625814E+01 0.71566223685E+01 0.77681970722E+01
 0.85469498740E+01 0.97274199127E+01 0.11507500647E+02 0.10127264038E+02 0.11572179924E+02
 0.13237348641E+02 0.14912969121E+02 0.16349984577E+02 0.17320752491E+02 0.17664186741E+02
 0.17320784275E+02 0.16349851453E+02 0.14911152819E+02 0.13236372191E+02 0.11572304283E+02
 0.10129095324E+02 0.90202434178E+01 0.82371409946E+01 0.76370720554E+01 0.71121940010E+01
 0.66820048613E+01 0.63517412450E+01 0.61184631558E+01 0.59666438211E+01 0.58841576125E+01
 0.58574270545E+01 0.58845357986E+01 0.59674426944E+01 0.61187059831E+01 0.63529324638E+01
 0.66811629366E+01 0.71138710255E+01 0.76346630289E+01 0.82372643388E+01 0.90220181957E+01
 0.84648088973E+01 0.90892748226E+01 0.98591746375E+01 0.10718373392E+02 0.11549037697E+02
 0.12206392822E+02 0.12569352383E+02 0.12569587776E+02 0.12206033362E+02 0.11549652254E+02
 0.10720493467E+02 0.98603804058E+01 0.90874099101E+01 0.84634594239E+01 0.79546830368E+01
 0.74880853774E+01 0.70709496515E+01 0.67228147125E+01 0.64508197464E+01 0.62522596698E+01
 0.61184081708E+01 0.60370864985E+01 0.59992081641E+01 0.59988851723E+01 0.60364195671E+01
 0.61177292680E+01 0.62510779028E+01 0.64512977261E+01 0.67218136930E+01 0.70722372358E+01
 0.74897523044E+01 0.79515348114E+01 0.76753809356E+01 0.80198890290E+01 0.83720558063E+01
 0.87408753641E+01 0.91144938148E+01 0.94493227764E+01 0.96842327413E+01 0.97683795519E+01
 0.96843820974E+01 0.94493728383E+01 0.91135481676E+01 0.87381063288E+01 0.83720492461E+01
 0.80230259814E+01 0.76744711868E+01 0.73396838615E+01 0.70409501365E+01 0.67908131309E+01
 0.65949026452E+01 0.64509036155E+01 0.63517123608E+01 0.62898525291E+01 0.62564057731E+01
 0.62463261075E+01 0.62569200306E+01 0.62906001911E+01 0.63532229779E+01 0.64509569294E+01
 0.65952475105E+01 0.67901212345E+01 0.70387741379E+01 0.73420219924E+01 0.72050225238E+01
 0.74107027747E+01 0.76255677230E+01 0.78313263756E+01 0.80203893348E+01 0.81782426897E+01
 0.82948209817E+01 0.83582622987E+01 0.83578079729E+01 0.82948614176E+01 0.81784425086E+01
 0.80220534827E+01 0.78337017630E+01 0.76238332791E+01 0.74084263084E+01 0.72070275310E+01
 0.70320918116E+01 0.68929294031E+01 0.67907965422E+01 0.67227474320E+01 0.66820171568E+01
 0.66593860648E+01 0.66484274694E+01 0.66440343413E+01 0.66439073275E+01 0.66477857412E+01
 0.66578679143E+01 0.66810880911E+01 0.67224547507E+01 0.67918210274E+01 0.68948139609E+01
 0.70308689883E+01 0.70537087980E+01 0.71000845414E+01 0.71751921596E+01 0.72716284736E+01
 0.73704549355E+01 0.74613369611E+01 0.75333368597E+01 0.75783722874E+01 0.75945404607E+01
 0.75787267471E+01 0.75332296517E+01 0.74603196426E+01 0.73689862385E+01 0.72702812429E+01
 0.71774321390E+01 0.71012023735E+01 0.70517599800E+01 0.70320688854E+01 0.70409896513E+01
 0.70709940059E+01 0.71122046316E+01 0.71561510851E+01 0.71933003634E+01 0.72175056749E+01
 0.72257991276E+01 0.72177727014E+01 0.71945911924E+01 0.71574912816E+01 0.71133681138E+01
 0.70697400008E+01 0.70386139279E+01 0.70331148573E+01 0.72044560766E+01 0.71021629522E+01
 0.70315013157E+01 0.69906209611E+01 0.69810678271E+01 0.69901187159E+01 0.70077971058E+01
 0.70263167640E+01 0.70363509235E+01 0.70366293244E+01 0.70256602729E+01 0.70088516927E+01
 0.69909853986E+01 0.69819745092E+01 0.69913532324E+01 0.70296270919E+01 0.71011883906E+01
 0.72070644401E+01 0.73396303637E+01 0.74880550060E+01 0.76370474418E+01 0.77696437248E+01
 0.78805138137E+01 0.79652302033E+01 0.80122669786E+01 0.80121313130E+01 0.79644084259E+01
 0.78792319820E+01 0.77678606669E+01 0.76372622259E+01 0.74913071751E+01 0.73393414539E+01
 0.76776407246E+01 0.74082253806E+01 0.71749902647E+01 0.69925491286E+01 0.68552645836E+01
 0.67635865978E+01 0.67087003205E+01 0.66777023383E+01 0.66646294366E+01 0.66603400643E+01
 0.66647216333E+01 0.66775912788E+01 0.67076900377E+01 0.67629486889E+01 0.68550761258E+01
 0.69913665681E+01 0.71774327862E+01 0.74084027350E+01 0.76745113488E+01 0.79547267440E+01
 0.82371522725E+01 0.85444851725E+01 0.88683693996E+01 0.91651129303E+01 0.93749074762E+01
 0.94511146031E+01 0.93754893171E+01 0.91660275973E+01 0.88701543389E+01 0.85453813999E+01