   2   2   1   0
  0.1066734E+02  0.2478540E-09  0.2478540E-09  0.4010177E-09  0.5000000E-15
  1.000000000000000E-004
  CAR 
 Co-hcc                                  
     37.43708171     -0.23264988  301     10.43812698      1.00000000
     -0.233  0.0000E+00  0.0000E+00  0.0000E+00  0.0000E+00
     -0.107  0.0000E+00  0.0000E+00  0.0000E+00  0.0000E+00
      0.018  0.0000E+00  0.0000E+00  0.0000E+00  0.0000E+00
      0.144  0.0000E+00  0.0000E+00  0.0000E+00  0.0000E+00
      0.270  0.0000E+00  0.0000E+00  0.0000E+00  0.0000E+00
      0.395  0.0000E+00  0.0000E+00  0.0000E+00  0.0000E+00
      0.521  0.0000E+00  0.0000E+00  0.0000E+00  0.0000E+00
      0.646  0.0000E+00  0.0000E+00  0.0000E+00  0.0000E+00
      0.772  0.0000E+00  0.0000E+00  0.0000E+00  0.0000E+00
      0.897  0.0000E+00  0.0000E+00  0.0000E+00  0.0000E+00
      1.023  0.0000E+00  0.0000E+00  0.0000E+00  0.0000E+00
      1.149  0.0000E+00  0.0000E+00  0.0000E+00  0.0000E+00
      1.274  0.3080E-12  0.1501E-13  0.3867E-13  0.1884E-14
      1.400  0.1185E-05  0.2999E-06  0.1489E-06  0.3765E-07
      1.525  0.8871E-04  0.7832E-04  0.1129E-04  0.9873E-05
      1.651  0.1349E-03  0.1066E-03  0.2822E-04  0.2326E-04
      1.776  0.1064E-03  0.1231E-03  0.4158E-04  0.3872E-04
      1.902  0.5577E-03  0.5423E-03  0.1116E-03  0.1068E-03
      2.028  0.1039E-02  0.8828E-03  0.2421E-03  0.2177E-03
      2.153  0.3426E-03  0.5082E-03  0.2851E-03  0.2815E-03
      2.279  0.1885E-04  0.4793E-04  0.2875E-03  0.2875E-03
      2.404  0.1458E-03  0.3611E-04  0.3058E-03  0.2920E-03
      2.530  0.1445E-02  0.1337E-02  0.4872E-03  0.4599E-03
      2.655  0.7370E-03  0.6227E-03  0.5798E-03  0.5381E-03
      2.781  0.7071E-03  0.9900E-03  0.6685E-03  0.6624E-03
      2.906  0.7624E-03  0.6722E-03  0.7643E-03  0.7468E-03
      3.032  0.1186E-02  0.9658E-03  0.9132E-03  0.8680E-03
      3.158  0.1697E-02  0.1412E-02  0.1126E-02  0.1045E-02
      3.283  0.6889E-03  0.1315E-02  0.1213E-02  0.1210E-02
      3.409  0.9142E-03  0.2553E-03  0.1328E-02  0.1242E-02
      3.534  0.2779E-03  0.9518E-03  0.1362E-02  0.1362E-02
      3.660  0.1761E-04  0.4038E-05  0.1365E-02  0.1363E-02
      3.785  0.2208E-02  0.4399E-03  0.1642E-02  0.1418E-02
      3.911  0.2581E-02  0.2610E-02  0.1966E-02  0.1745E-02
      4.037  0.1550E-02  0.1941E-02  0.2161E-02  0.1989E-02
      4.162  0.1426E-02  0.1902E-02  0.2340E-02  0.2228E-02
      4.288  0.2780E-02  0.9685E-03  0.2689E-02  0.2350E-02
      4.413  0.9808E-03  0.2482E-02  0.2812E-02  0.2661E-02
      4.539  0.4516E-03  0.1160E-02  0.2869E-02  0.2807E-02
      4.664  0.2419E-02  0.1301E-03  0.3173E-02  0.2823E-02
      4.790  0.2765E-02  0.1556E-02  0.3520E-02  0.3019E-02
      4.916  0.1966E-02  0.2468E-02  0.3766E-02  0.3329E-02
      5.041  0.1991E-02  0.2041E-02  0.4016E-02  0.3585E-02
      5.167  0.5174E-02  0.9165E-03  0.4666E-02  0.3700E-02
      5.292  0.8211E-02  0.2019E-02  0.5697E-02  0.3953E-02
      5.418  0.1102E-01  0.2797E-02  0.7081E-02  0.4305E-02
      5.543  0.9945E-02  0.2390E-02  0.8329E-02  0.4605E-02
      5.669  0.8085E-02  0.4621E-02  0.9345E-02  0.5185E-02
      5.795  0.9097E-02  0.2438E-02  0.1049E-01  0.5491E-02
      5.920  0.2599E-01  0.3689E-02  0.1375E-01  0.5954E-02
      6.046  0.1178E-01  0.6238E-02  0.1523E-01  0.6738E-02
      6.171  0.1576E-01  0.1413E-02  0.1721E-01  0.6915E-02
      6.297  0.2005E-01  0.5656E-03  0.1973E-01  0.6986E-02
      6.422  0.1674E-01  0.8537E-02  0.2183E-01  0.8058E-02
      6.548  0.1218E-01  0.1285E-01  0.2336E-01  0.9672E-02
      6.673  0.1710E-01  0.9505E-02  0.2551E-01  0.1087E-01
      6.799  0.2036E-01  0.5591E-02  0.2806E-01  0.1157E-01
      6.925  0.2077E-01  0.8772E-02  0.3067E-01  0.1267E-01
      7.050  0.2111E-01  0.1132E-01  0.3332E-01  0.1409E-01
      7.176  0.1952E-01  0.1386E-01  0.3577E-01  0.1583E-01
      7.301  0.1487E-01  0.5325E-02  0.3764E-01  0.1650E-01
      7.427  0.1112E-01  0.1788E-01  0.3904E-01  0.1874E-01
      7.552  0.1784E-01  0.1766E-01  0.4128E-01  0.2096E-01
      7.678  0.3003E-01  0.8785E-02  0.4505E-01  0.2206E-01
      7.804  0.2709E-01  0.1274E-01  0.4845E-01  0.2366E-01
      7.929  0.2751E-01  0.1121E-01  0.5190E-01  0.2507E-01
      8.055  0.2927E-01  0.1986E-01  0.5558E-01  0.2757E-01
      8.180  0.3039E-01  0.1434E-01  0.5940E-01  0.2937E-01
      8.306  0.3137E-01  0.1968E-01  0.6333E-01  0.3184E-01
      8.431  0.2676E-01  0.2081E-01  0.6669E-01  0.3445E-01
      8.557  0.2428E-01  0.1634E-01  0.6974E-01  0.3650E-01
      8.683  0.1870E-01  0.8830E-02  0.7209E-01  0.3761E-01
      8.808  0.1644E-01  0.7823E-02  0.7416E-01  0.3859E-01
      8.934  0.1908E-01  0.1027E-01  0.7655E-01  0.3988E-01
      9.059  0.1131E-01  0.1463E-01  0.7797E-01  0.4172E-01
      9.185  0.2416E-01  0.2007E-01  0.8100E-01  0.4424E-01
      9.310  0.2216E-01  0.2703E-01  0.8379E-01  0.4763E-01
      9.436  0.1707E-01  0.2661E-01  0.8593E-01  0.5097E-01
      9.561  0.2430E-01  0.2000E-01  0.8898E-01  0.5348E-01
      9.687  0.3846E-01  0.2664E-01  0.9381E-01  0.5683E-01
      9.813  0.4799E-01  0.2538E-01  0.9984E-01  0.6002E-01
      9.938  0.2871E-01  0.3194E-01  0.1034E+00  0.6403E-01
     10.064  0.5063E-02  0.2140E-01  0.1041E+00  0.6671E-01
     10.189  0.6809E-02  0.2030E-01  0.1049E+00  0.6926E-01
     10.315  0.6948E-02  0.1377E-01  0.1058E+00  0.7099E-01
     10.440  0.6595E-02  0.1928E-01  0.1066E+00  0.7341E-01
     10.566  0.2082E-02  0.1095E-01  0.1069E+00  0.7479E-01
     10.692  0.4386E-03  0.1482E-01  0.1069E+00  0.7665E-01
     10.817  0.1017E-07  0.1203E-01  0.1069E+00  0.7816E-01
     10.943  0.1774E-06  0.1282E-01  0.1070E+00  0.7977E-01
     11.068  0.1084E-02  0.2432E-01  0.1071E+00  0.8282E-01
     11.194  0.5124E-02  0.1151E-01  0.1077E+00  0.8427E-01
     11.319  0.3300E-02  0.1649E-01  0.1081E+00  0.8634E-01
     11.445  0.1780E-02  0.2114E-01  0.1084E+00  0.8899E-01
     11.571  0.3158E-02  0.3183E-01  0.1088E+00  0.9299E-01
     11.696  0.8408E-02  0.4040E-01  0.1098E+00  0.9806E-01
     11.822  0.2611E-02  0.3775E-01  0.1101E+00  0.1028E+00
     11.947  0.3495E-02  0.2046E-01  0.1106E+00  0.1054E+00
     12.073  0.9176E-04  0.9750E-02  0.1106E+00  0.1066E+00
     12.198  0.1505E-02  0.3052E-02  0.1108E+00  0.1070E+00
     12.324  0.4484E-02  0.6496E-03  0.1113E+00  0.1071E+00
     12.449  0.2015E-02  0.4434E-02  0.1116E+00  0.1076E+00
     12.575  0.5567E-02  0.2411E-02  0.1123E+00  0.1079E+00
     12.701  0.8595E-04  0.2543E-02  0.1123E+00  0.1082E+00
     12.826  0.9908E-04  0.4850E-02  0.1123E+00  0.1088E+00
     12.952  0.4650E-02  0.5873E-02  0.1129E+00  0.1096E+00
     13.077  0.6263E-03  0.4655E-02  0.1130E+00  0.1102E+00
     13.203  0.6803E-04  0.2669E-02  0.1130E+00  0.1105E+00
     13.328  0.1460E-02  0.2273E-02  0.1132E+00  0.1108E+00
     13.454  0.3409E-02  0.7427E-02  0.1136E+00  0.1117E+00
     13.580  0.6118E-03  0.1857E-02  0.1137E+00  0.1120E+00
     13.705  0.1484E-02  0.2859E-02  0.1139E+00  0.1123E+00
     13.831  0.3685E-02  0.5739E-03  0.1143E+00  0.1124E+00
     13.956  0.3533E-02  0.2403E-02  0.1148E+00  0.1127E+00
     14.082  0.5360E-02  0.2478E-02  0.1155E+00  0.1130E+00
     14.207  0.2430E-02  0.2766E-02  0.1158E+00  0.1133E+00
     14.333  0.2619E-02  0.1102E-02  0.1161E+00  0.1135E+00
     14.459  0.7251E-03  0.1415E-02  0.1162E+00  0.1137E+00
     14.584  0.9371E-03  0.1098E-02  0.1163E+00  0.1138E+00
     14.710  0.5108E-02  0.1445E-02  0.1169E+00  0.1140E+00
     14.835  0.2710E-02  0.8197E-02  0.1173E+00  0.1150E+00
     14.961  0.1026E-02  0.2300E-02  0.1174E+00  0.1153E+00
     15.086  0.3726E-03  0.5025E-02  0.1174E+00  0.1159E+00
     15.212  0.5270E-04  0.1910E-02  0.1175E+00  0.1162E+00
     15.338  0.2831E-02  0.2593E-03  0.1178E+00  0.1162E+00
     15.463  0.2878E-02  0.1029E-02  0.1182E+00  0.1163E+00
     15.589  0.4227E-03  0.3532E-02  0.1182E+00  0.1168E+00
     15.714  0.3215E-02  0.4013E-02  0.1186E+00  0.1173E+00
     15.840  0.1563E-03  0.7823E-03  0.1187E+00  0.1174E+00
     15.965  0.3086E-03  0.5749E-03  0.1187E+00  0.1175E+00
     16.091  0.1190E-02  0.3918E-02  0.1188E+00  0.1179E+00
     16.216  0.8883E-03  0.2020E-02  0.1189E+00  0.1182E+00
     16.342  0.2722E-05  0.6896E-04  0.1190E+00  0.1182E+00
     16.468  0.1121E-03  0.3157E-02  0.1190E+00  0.1186E+00
     16.593  0.1143E-02  0.4233E-03  0.1191E+00  0.1187E+00
     16.719  0.3756E-02  0.1104E-02  0.1196E+00  0.1188E+00
     16.844  0.1583E-02  0.4995E-03  0.1198E+00  0.1189E+00
     16.970  0.6515E-03  0.7334E-03  0.1199E+00  0.1189E+00
     17.095  0.7210E-03  0.8277E-04  0.1200E+00  0.1190E+00
     17.221  0.1746E-02  0.1112E-02  0.1202E+00  0.1191E+00
     17.347  0.2080E-02  0.2526E-02  0.1204E+00  0.1194E+00
     17.472  0.2628E-03  0.2192E-02  0.1205E+00  0.1197E+00
     17.598  0.2322E-02  0.9753E-03  0.1208E+00  0.1198E+00
     17.723  0.1838E-02  0.2876E-03  0.1210E+00  0.1199E+00
     17.849  0.1083E-03  0.9997E-03  0.1210E+00  0.1200E+00
     17.974  0.1457E-02  0.4122E-03  0.1212E+00  0.1200E+00
     18.100  0.3001E-02  0.2315E-02  0.1216E+00  0.1203E+00
     18.226  0.4836E-02  0.1760E-02  0.1222E+00  0.1205E+00
     18.351  0.3428E-02  0.2511E-02  0.1226E+00  0.1209E+00
     18.477  0.3657E-02  0.1054E-02  0.1231E+00  0.1210E+00
     18.602  0.4368E-02  0.1690E-04  0.1236E+00  0.1210E+00
     18.728  0.6725E-03  0.1073E-02  0.1237E+00  0.1211E+00
     18.853  0.4790E-02  0.1161E-02  0.1243E+00  0.1213E+00
     18.979  0.3203E-02  0.2402E-02  0.1247E+00  0.1216E+00
     19.104  0.4685E-02  0.6882E-02  0.1253E+00  0.1224E+00
     19.230  0.4352E-02  0.3353E-02  0.1258E+00  0.1229E+00
     19.356  0.4340E-02  0.4202E-02  0.1264E+00  0.1234E+00
     19.481  0.2120E-02  0.3565E-02  0.1266E+00  0.1238E+00
     19.607  0.1314E-02  0.4391E-02  0.1268E+00  0.1244E+00
     19.732  0.2465E-02  0.4832E-02  0.1271E+00  0.1250E+00
     19.858  0.3960E-02  0.5521E-02  0.1276E+00  0.1257E+00
     19.983  0.3098E-02  0.2908E-02  0.1280E+00  0.1260E+00
     20.109  0.3140E-02  0.3403E-02  0.1284E+00  0.1265E+00
     20.235  0.3945E-02  0.2023E-02  0.1289E+00  0.1267E+00
     20.360  0.3952E-02  0.4029E-02  0.1294E+00  0.1272E+00
     20.486  0.1267E-03  0.3579E-02  0.1294E+00  0.1277E+00
     20.611  0.3011E-02  0.3360E-02  0.1298E+00  0.1281E+00
     20.737  0.5264E-02  0.2835E-02  0.1304E+00  0.1285E+00
     20.862  0.3926E-02  0.2326E-02  0.1309E+00  0.1288E+00
     20.988  0.4701E-02  0.5002E-02  0.1315E+00  0.1294E+00
     21.114  0.1902E-02  0.2022E-03  0.1318E+00  0.1294E+00
     21.239  0.9409E-02  0.3758E-02  0.1329E+00  0.1299E+00
     21.365  0.2993E-02  0.6094E-02  0.1333E+00  0.1306E+00
     21.490  0.4754E-02  0.6478E-02  0.1339E+00  0.1315E+00
     21.616  0.4203E-02  0.2789E-02  0.1344E+00  0.1318E+00
     21.741  0.1339E-02  0.7600E-02  0.1346E+00  0.1328E+00
     21.867  0.1482E-02  0.2615E-02  0.1348E+00  0.1331E+00
     21.992  0.1410E-02  0.3259E-02  0.1350E+00  0.1335E+00
     22.118  0.3829E-02  0.6688E-02  0.1355E+00  0.1343E+00
     22.244  0.2987E-02  0.2161E-02  0.1358E+00  0.1346E+00
     22.369  0.5114E-02  0.1466E-02  0.1365E+00  0.1348E+00
     22.495  0.4883E-02  0.2159E-02  0.1371E+00  0.1351E+00
     22.620  0.3984E-02  0.3248E-02  0.1376E+00  0.1355E+00
     22.746  0.7429E-03  0.2686E-02  0.1377E+00  0.1358E+00
     22.871  0.2312E-02  0.5237E-02  0.1380E+00  0.1365E+00
     22.997  0.1943E-02  0.5752E-02  0.1382E+00  0.1372E+00
     23.123  0.9970E-03  0.2635E-02  0.1383E+00  0.1375E+00
     23.248  0.4522E-02  0.1117E-02  0.1389E+00  0.1377E+00
     23.374  0.1762E-02  0.3143E-02  0.1391E+00  0.1381E+00
     23.499  0.3834E-02  0.7552E-03  0.1396E+00  0.1382E+00
     23.625  0.5437E-02  0.2037E-02  0.1403E+00  0.1384E+00
     23.750  0.6556E-03  0.4216E-02  0.1404E+00  0.1389E+00
     23.876  0.1160E-02  0.2940E-02  0.1405E+00  0.1393E+00
     24.002  0.3291E-02  0.4814E-02  0.1409E+00  0.1399E+00
     24.127  0.4365E-02  0.3129E-02  0.1415E+00  0.1403E+00
     24.253  0.1660E-02  0.6600E-03  0.1417E+00  0.1404E+00
     24.378  0.5145E-02  0.1281E-02  0.1423E+00  0.1405E+00
     24.504  0.5807E-02  0.4000E-02  0.1431E+00  0.1411E+00
     24.629  0.4662E-02  0.4549E-02  0.1437E+00  0.1416E+00
     24.755  0.2270E-02  0.3334E-02  0.1439E+00  0.1420E+00
     24.881  0.2460E-02  0.4779E-02  0.1442E+00  0.1426E+00
     25.006  0.5594E-03  0.6087E-02  0.1443E+00  0.1434E+00
     25.132  0.1529E-02  0.2749E-02  0.1445E+00  0.1437E+00
     25.257  0.6235E-02  0.2944E-02  0.1453E+00  0.1441E+00
     25.383  0.4158E-02  0.1456E-02  0.1458E+00  0.1443E+00
     25.508  0.1898E-02  0.4713E-03  0.1461E+00  0.1444E+00
     25.634  0.4148E-02  0.4514E-02  0.1466E+00  0.1449E+00
     25.759  0.3696E-02  0.4842E-02  0.1470E+00  0.1455E+00
     25.885  0.1320E-02  0.3906E-02  0.1472E+00  0.1460E+00
     26.011  0.2926E-02  0.3773E-02  0.1476E+00  0.1465E+00
     26.136  0.6024E-02  0.2736E-02  0.1483E+00  0.1468E+00
     26.262  0.4799E-02  0.3050E-02  0.1489E+00  0.1472E+00
     26.387  0.3015E-02  0.2995E-02  0.1493E+00  0.1476E+00
     26.513  0.3301E-02  0.5544E-02  0.1497E+00  0.1483E+00
     26.638  0.4431E-02  0.6079E-02  0.1503E+00  0.1491E+00
     26.764  0.5053E-02  0.2212E-02  0.1509E+00  0.1493E+00
     26.890  0.7979E-03  0.3037E-02  0.1510E+00  0.1497E+00
     27.015  0.1852E-02  0.4853E-02  0.1512E+00  0.1503E+00
     27.141  0.2928E-02  0.5361E-02  0.1516E+00  0.1510E+00
     27.266  0.9997E-03  0.9102E-03  0.1517E+00  0.1511E+00
     27.392  0.1740E-02  0.2001E-02  0.1520E+00  0.1514E+00
     27.517  0.9087E-03  0.2257E-02  0.1521E+00  0.1517E+00
     27.643  0.3801E-02  0.8845E-03  0.1525E+00  0.1518E+00
     27.769  0.4411E-02  0.2026E-02  0.1531E+00  0.1520E+00
     27.894  0.3044E-02  0.1689E-02  0.1535E+00  0.1522E+00
     28.020  0.4997E-03  0.3666E-02  0.1535E+00  0.1527E+00
     28.145  0.3624E-02  0.5451E-02  0.1540E+00  0.1534E+00
     28.271  0.1168E-02  0.9634E-03  0.1541E+00  0.1535E+00
     28.396  0.2639E-02  0.3857E-02  0.1545E+00  0.1540E+00
     28.522  0.2948E-02  0.8638E-03  0.1549E+00  0.1541E+00
     28.647  0.1008E-02  0.2128E-02  0.1550E+00  0.1544E+00
     28.773  0.8780E-03  0.2173E-02  0.1551E+00  0.1546E+00
     28.899  0.2099E-02  0.3082E-02  0.1554E+00  0.1550E+00
     29.024  0.1240E-02  0.9960E-03  0.1555E+00  0.1551E+00
     29.150  0.8477E-03  0.7682E-03  0.1556E+00  0.1552E+00
     29.275  0.5086E-03  0.1707E-02  0.1557E+00  0.1555E+00
     29.401  0.2257E-02  0.1785E-02  0.1560E+00  0.1557E+00
     29.526  0.3524E-02  0.3869E-03  0.1564E+00  0.1557E+00
     29.652  0.2950E-03  0.2090E-02  0.1564E+00  0.1560E+00
     29.778  0.2122E-02  0.1896E-02  0.1567E+00  0.1562E+00
     29.903  0.1906E-02  0.1776E-02  0.1569E+00  0.1564E+00
     30.029  0.1444E-02  0.2649E-02  0.1571E+00  0.1568E+00
     30.154  0.1970E-02  0.9217E-03  0.1574E+00  0.1569E+00
     30.280  0.9043E-03  0.2067E-02  0.1575E+00  0.1572E+00
     30.405  0.9963E-04  0.2111E-02  0.1575E+00  0.1574E+00
     30.531  0.1080E-02  0.9232E-03  0.1576E+00  0.1575E+00
     30.657  0.8010E-03  0.7980E-03  0.1577E+00  0.1576E+00
     30.782  0.4664E-03  0.1100E-05  0.1578E+00  0.1576E+00
     30.908  0.1117E-02  0.1330E-03  0.1579E+00  0.1577E+00
     31.033  0.1120E-02  0.2192E-02  0.1581E+00  0.1579E+00
     31.159  0.1203E-02  0.1089E-02  0.1582E+00  0.1581E+00
     31.284  0.8837E-04  0.9679E-03  0.1582E+00  0.1582E+00
     31.410  0.3459E-09  0.3969E-03  0.1582E+00  0.1582E+00
     31.535  0.6015E-05  0.8466E-04  0.1582E+00  0.1582E+00
     31.661  0.1137E-02  0.6312E-03  0.1584E+00  0.1583E+00
     31.787  0.4191E-03  0.6774E-03  0.1584E+00  0.1584E+00
     31.912  0.4897E-03  0.5306E-04  0.1585E+00  0.1584E+00
     32.038  0.2000E-02  0.5994E-03  0.1587E+00  0.1585E+00
     32.163  0.3282E-03  0.2207E-02  0.1588E+00  0.1588E+00
     32.289  0.4535E-05  0.2799E-03  0.1588E+00  0.1588E+00
     32.414  0.9641E-03  0.1099E-02  0.1589E+00  0.1589E+00
     32.540  0.2926E-03  0.2415E-03  0.1589E+00  0.1590E+00
     32.666  0.3929E-03  0.8390E-08  0.1590E+00  0.1590E+00
     32.791  0.5175E-03  0.4726E-04  0.1591E+00  0.1590E+00
     32.917  0.2094E-02  0.5652E-03  0.1593E+00  0.1591E+00
     33.042  0.1271E-02  0.1626E-02  0.1595E+00  0.1593E+00
     33.168  0.1129E-02  0.1620E-02  0.1596E+00  0.1595E+00
     33.293  0.1127E-04  0.1514E-02  0.1596E+00  0.1596E+00
     33.419  0.9620E-03  0.4888E-03  0.1597E+00  0.1597E+00
     33.545  0.4244E-03  0.7083E-03  0.1598E+00  0.1598E+00
     33.670  0.4809E-07  0.1288E-04  0.1598E+00  0.1598E+00
     33.796  0.3773E-09  0.1824E-03  0.1598E+00  0.1598E+00
     33.921  0.2829E-04  0.4392E-05  0.1598E+00  0.1598E+00
     34.047  0.1695E-03  0.2617E-11  0.1598E+00  0.1598E+00
     34.172  0.1306E-05  0.4310E-18  0.1598E+00  0.1598E+00
     34.298  0.1813E-12  0.2861E-08  0.1598E+00  0.1598E+00
     34.424  0.8757E-06  0.1148E-03  0.1598E+00  0.1598E+00
     34.549  0.4280E-03  0.6427E-03  0.1599E+00  0.1599E+00
     34.675  0.1850E-03  0.3896E-04  0.1599E+00  0.1599E+00
     34.800  0.1941E-03  0.9619E-05  0.1599E+00  0.1599E+00
     34.926  0.1840E-03  0.1836E-03  0.1599E+00  0.1599E+00
     35.051  0.3575E-05  0.5849E-05  0.1599E+00  0.1599E+00
     35.177  0.2081E-09  0.1852E-06  0.1600E+00  0.1600E+00
     35.302  0.2312E-04  0.1332E-03  0.1600E+00  0.1600E+00
     35.428  0.2271E-03  0.6570E-04  0.1600E+00  0.1600E+00
     35.554  0.1477E-03  0.3523E-06  0.1600E+00  0.1600E+00
     35.679  0.3417E-06  0.8937E-04  0.1600E+00  0.1600E+00
     35.805  0.9277E-14  0.1082E-03  0.1600E+00  0.1600E+00
     35.930  0.0000E+00  0.1186E-05  0.1600E+00  0.1600E+00
     36.056  0.0000E+00  0.3080E-12  0.1600E+00  0.1600E+00
     36.181  0.0000E+00  0.0000E+00  0.1600E+00  0.1600E+00
     36.307  0.0000E+00  0.0000E+00  0.1600E+00  0.1600E+00
     36.433  0.0000E+00  0.0000E+00  0.1600E+00  0.1600E+00
     36.558  0.0000E+00  0.0000E+00  0.1600E+00  0.1600E+00
     36.684  0.0000E+00  0.0000E+00  0.1600E+00  0.1600E+00
     36.809  0.0000E+00  0.0000E+00  0.1600E+00  0.1600E+00
     36.935  0.0000E+00  0.0000E+00  0.1600E+00  0.1600E+00
     37.060  0.0000E+00  0.0000E+00  0.1600E+00  0.1600E+00
     37.186  0.0000E+00  0.0000E+00  0.1600E+00  0.1600E+00
     37.312  0.0000E+00  0.0000E+00  0.1600E+00  0.1600E+00
     37.437  0.0000E+00  0.0000E+00  0.1600E+00  0.1600E+00
     37.43708171     -0.23264988  301     10.43812698      1.00000000
     -0.233  0.0000E+00  0.0000E+00  0.0000E+00  0.0000E+00  0.0000E+00  0.0000E+00  0.0000E+00  0.0000E+00  0.0000E+00  0.0000E+00  0.0000E+00  0.0000E+00  0.0000E+00  0.0000E+00  0.0000E+00  0.0000E+00  0.0000E+00  0.0000E+00
     -0.107  0.0000E+00  0.0000E+00  0.0000E+00  0.0000E+00  0.0000E+00  0.0000E+00  0.0000E+00  0.0000E+00  0.0000E+00  0.0000E+00  0.0000E+00  0.0000E+00  0.0000E+00  0.0000E+00  0.0000E+00  0.0000E+00  0.0000E+00  0.0000E+00
      0.018  0.0000E+00  0.0000E+00  0.0000E+00  0.0000E+00  0.0000E+00  0.0000E+00  0.0000E+00  0.0000E+00  0.0000E+00  0.0000E+00  0.0000E+00  0.0000E+00  0.0000E+00  0.0000E+00  0.0000E+00  0.0000E+00  0.0000E+00  0.0000E+00
      0.144  0.0000E+00  0.0000E+00  0.0000E+00  0.0000E+00  0.0000E+00  0.0000E+00  0.0000E+00  0.0000E+00  0.0000E+00  0.0000E+00  0.0000E+00  0.0000E+00  0.0000E+00  0.0000E+00  0.0000E+00  0.0000E+00  0.0000E+00  0.0000E+00
      0.270  0.0000E+00  0.0000E+00  0.0000E+00  0.0000E+00  0.0000E+00  0.0000E+00  0.0000E+00  0.0000E+00  0.0000E+00  0.0000E+00  0.0000E+00  0.0000E+00  0.0000E+00  0.0000E+00  0.0000E+00  0.0000E+00  0.0000E+00  0.0000E+00
      0.395  0.0000E+00  0.0000E+00  0.0000E+00  0.0000E+00  0.0000E+00  0.0000E+00  0.0000E+00  0.0000E+00  0.0000E+00  0.0000E+00  0.0000E+00  0.0000E+00  0.0000E+00  0.0000E+00  0.0000E+00  0.0000E+00  0.0000E+00  0.0000E+00
      0.521  0.0000E+00  0.0000E+00  0.0000E+00  0.0000E+00  0.0000E+00  0.0000E+00  0.0000E+00  0.0000E+00  0.0000E+00  0.0000E+00  0.0000E+00  0.0000E+00  0.0000E+00  0.0000E+00  0.0000E+00  0.0000E+00  0.0000E+00  0.0000E+00
      0.646  0.0000E+00  0.0000E+00  0.0000E+00  0.0000E+00  0.0000E+00  0.0000E+00  0.0000E+00  0.0000E+00  0.0000E+00  0.0000E+00  0.0000E+00  0.0000E+00  0.0000E+00  0.0000E+00  0.0000E+00  0.0000E+00  0.0000E+00  0.0000E+00
      0.772  0.0000E+00  0.0000E+00  0.0000E+00  0.0000E+00  0.0000E+00  0.0000E+00  0.0000E+00  0.0000E+00  0.0000E+00  0.0000E+00  0.0000E+00  0.0000E+00  0.0000E+00  0.0000E+00  0.0000E+00  0.0000E+00  0.0000E+00  0.0000E+00
      0.897  0.0000E+00  0.0000E+00  0.0000E+00  0.0000E+00  0.0000E+00  0.0000E+00  0.0000E+00  0.0000E+00  0.0000E+00  0.0000E+00  0.0000E+00  0.0000E+00  0.0000E+00  0.0000E+00  0.0000E+00  0.0000E+00  0.0000E+00  0.0000E+00
      1.023  0.0000E+00  0.0000E+00  0.0000E+00  0.0000E+00  0.0000E+00  0.0000E+00  0.0000E+00  0.0000E+00  0.0000E+00  0.0000E+00  0.0000E+00  0.0000E+00  0.0000E+00  0.0000E+00  0.0000E+00  0.0000E+00  0.0000E+00  0.0000E+00
      1.149  0.0000E+00  0.0000E+00  0.0000E+00  0.0000E+00  0.0000E+00  0.0000E+00  0.0000E+00  0.0000E+00  0.0000E+00  0.0000E+00  0.0000E+00  0.0000E+00  0.0000E+00  0.0000E+00  0.0000E+00  0.0000E+00  0.0000E+00  0.0000E+00
      1.274  0.1138E-10  0.5546E-12  0.1028E-24  0.5510E-27  0.6457E-26  0.3164E-27  0.1028E-24  0.5510E-27  0.3478E-24  0.6266E-25  0.2093E-21  0.1250E-23  0.4161E-16  0.3497E-17  0.2093E-21  0.1250E-23  0.3478E-24  0.6266E-25
      1.400  0.4379E-04  0.1108E-04  0.3956E-18  0.1101E-19  0.6885E-15  0.1877E-16  0.3956E-18  0.1101E-19  0.1339E-17  0.1252E-17  0.8056E-15  0.2498E-16  0.1601E-09  0.6987E-10  0.8056E-15  0.2498E-16  0.1339E-17  0.1252E-17
      1.525  0.3277E-02  0.2895E-02  0.2960E-16  0.2878E-17  0.6993E-07  0.1076E-07  0.2960E-16  0.2878E-17  0.1002E-15  0.3275E-15  0.6020E-13  0.6526E-14  0.1282E-07  0.1833E-07  0.6020E-13  0.6526E-14  0.1002E-15  0.3275E-15
      1.651  0.4913E-02  0.3894E-02  0.4598E-10  0.2367E-11  0.6921E-04  0.4771E-04  0.4598E-10  0.2367E-11  0.1225E-11  0.4847E-13  0.7591E-14  0.1773E-13  0.8478E-06  0.3691E-06  0.7591E-14  0.1773E-13  0.1225E-11  0.4847E-13
      1.776  0.3851E-02  0.4474E-02  0.1972E-04  0.5973E-05  0.4089E-04  0.6309E-04  0.1972E-04  0.5973E-05  0.5251E-06  0.1160E-06  0.4973E-13  0.2239E-13  0.9473E-06  0.5904E-06  0.4973E-13  0.2239E-13  0.5251E-06  0.1160E-06
      1.902  0.1992E-01  0.1937E-01  0.3381E-03  0.3307E-03  0.4481E-05  0.8522E-06  0.3381E-03  0.3307E-03  0.9011E-05  0.6423E-05  0.2169E-06  0.2898E-07  0.7564E-05  0.6011E-05  0.2169E-06  0.2898E-07  0.9011E-05  0.6423E-05
      2.028  0.3655E-01  0.3107E-01  0.6228E-03  0.5336E-03  0.5597E-03  0.4575E-03  0.6228E-03  0.5336E-03  0.1723E-04  0.1063E-04  0.2686E-04  0.1631E-04  0.1310E-05  0.1188E-05  0.2686E-04  0.1631E-04  0.1723E-04  0.1063E-04
      2.153  0.1197E-01  0.1781E-01  0.9903E-04  0.2161E-03  0.4661E-03  0.5183E-03  0.9903E-04  0.2161E-03  0.2741E-05  0.4312E-05  0.4336E-05  0.6975E-05  0.2659E-04  0.1562E-04  0.4336E-05  0.6975E-05  0.2741E-05  0.4312E-05
      2.279  0.6547E-03  0.1665E-02  0.2073E-08  0.1641E-07  0.3993E-04  0.1027E-03  0.2073E-08  0.1641E-07  0.6099E-10  0.3275E-09  0.2076E-09  0.5318E-09  0.2807E-05  0.4877E-05  0.2076E-09  0.5318E-09  0.6099E-10  0.3275E-09
      2.404  0.4882E-02  0.1210E-02  0.8588E-04  0.2130E-04  0.3022E-03  0.7593E-04  0.8588E-04  0.2130E-04  0.2805E-05  0.4732E-06  0.1568E-04  0.2839E-05  0.1052E-04  0.1744E-05  0.1568E-04  0.2839E-05  0.2805E-05  0.4732E-06
      2.530  0.4827E-01  0.4473E-01  0.1305E-02  0.1057E-02  0.2162E-02  0.2321E-02  0.1305E-02  0.1057E-02  0.7741E-04  0.3845E-04  0.1122E-03  0.8677E-04  0.1215E-03  0.7292E-04  0.1122E-03  0.8677E-04  0.7741E-04  0.3845E-04
      2.655  0.2419E-01  0.2062E-01  0.1245E-02  0.1016E-02  0.2972E-03  0.2248E-03  0.1245E-02  0.1016E-02  0.1064E-03  0.5942E-04  0.5239E-04  0.1806E-04  0.5771E-04  0.4278E-04  0.5239E-04  0.1806E-04  0.1064E-03  0.5942E-04
      2.781  0.2306E-01  0.3238E-01  0.1205E-02  0.1705E-02  0.3776E-03  0.5162E-03  0.1205E-02  0.1705E-02  0.1099E-03  0.1043E-03  0.6306E-04  0.6587E-04  0.5967E-04  0.4722E-04  0.6306E-04  0.6587E-04  0.1099E-03  0.1043E-03
      2.906  0.2433E-01  0.2154E-01  0.1268E-02  0.1152E-02  0.8139E-03  0.7012E-03  0.1268E-02  0.1152E-02  0.1884E-03  0.1124E-03  0.4730E-05  0.5155E-06  0.2943E-03  0.1730E-03  0.4730E-05  0.5155E-06  0.1884E-03  0.1124E-03
      3.032  0.3714E-01  0.3047E-01  0.2505E-02  0.2038E-02  0.7061E-03  0.6182E-03  0.2505E-02  0.2038E-02  0.3884E-03  0.2074E-03  0.1849E-03  0.8185E-04  0.1642E-03  0.1208E-03  0.1849E-03  0.8185E-04  0.3884E-03  0.2074E-03
      3.158  0.5226E-01  0.4392E-01  0.2220E-02  0.2423E-02  0.4499E-02  0.2553E-02  0.2220E-02  0.2423E-02  0.2145E-03  0.1893E-03  0.5789E-03  0.3110E-03  0.3933E-03  0.8400E-04  0.5789E-03  0.3110E-03  0.2145E-03  0.1893E-03
      3.283  0.2108E-01  0.4050E-01  0.4211E-03  0.1009E-02  0.2870E-02  0.5206E-02  0.4211E-03  0.1009E-02  0.2209E-04  0.4394E-04  0.1771E-03  0.2571E-03  0.4692E-03  0.4938E-03  0.1771E-03  0.2571E-03  0.2209E-04  0.4394E-04
      3.409  0.2690E-01  0.7610E-02  0.1857E-02  0.5130E-03  0.1732E-02  0.5379E-03  0.1857E-02  0.5130E-03  0.3596E-03  0.5970E-04  0.5461E-03  0.9699E-04  0.1417E-04  0.9649E-05  0.5461E-03  0.9699E-04  0.3596E-03  0.5970E-04
      3.534  0.8176E-02  0.2831E-01  0.5647E-03  0.2008E-02  0.5263E-03  0.1854E-02  0.5647E-03  0.2008E-02  0.1093E-03  0.2370E-03  0.1660E-03  0.3749E-03  0.4229E-05  0.8108E-05  0.1660E-03  0.3749E-03  0.1093E-03  0.2370E-03
      3.660  0.4917E-03  0.1201E-03  0.4723E-04  0.8532E-05  0.2664E-04  0.7849E-05  0.4723E-04  0.8532E-05  0.1280E-04  0.1009E-05  0.3314E-05  0.1587E-05  0.1761E-04  0.3960E-07  0.3314E-05  0.1587E-05  0.1280E-04  0.1009E-05
      3.785  0.6153E-01  0.1245E-01  0.5204E-02  0.1225E-02  0.4926E-02  0.7371E-03  0.5204E-02  0.1225E-02  0.1287E-02  0.1987E-03  0.8924E-03  0.9517E-04  0.1760E-02  0.1906E-03  0.8924E-03  0.9517E-04  0.1287E-02  0.1987E-03
      3.911  0.7061E-01  0.7356E-01  0.8117E-02  0.6609E-02  0.2101E-02  0.5813E-02  0.8117E-02  0.6609E-02  0.2410E-02  0.1053E-02  0.9934E-03  0.7440E-03  0.1543E-02  0.1261E-02  0.9934E-03  0.7440E-03  0.2410E-02  0.1053E-02
      4.037  0.4075E-01  0.5388E-01  0.2410E-02  0.6773E-02  0.6658E-02  0.1014E-02  0.2410E-02  0.6773E-02  0.6403E-03  0.1278E-02  0.1477E-02  0.4233E-03  0.2107E-02  0.7468E-03  0.1477E-02  0.4233E-03  0.6403E-03  0.1278E-02
      4.162  0.3681E-01  0.5110E-01  0.2257E-02  0.2584E-02  0.6097E-02  0.9924E-02  0.2257E-02  0.2584E-02  0.7025E-03  0.3479E-03  0.1333E-02  0.1235E-02  0.2556E-02  0.1806E-02  0.1333E-02  0.1235E-02  0.7025E-03  0.3479E-03
      4.288  0.6900E-01  0.2556E-01  0.8864E-02  0.2021E-02  0.3249E-02  0.3806E-02  0.8864E-02  0.2021E-02  0.4309E-02  0.3957E-03  0.2978E-02  0.6151E-03  0.1513E-02  0.9046E-03  0.2978E-02  0.6151E-03  0.4309E-02  0.3957E-03
      4.413  0.2338E-01  0.6424E-01  0.3376E-02  0.8628E-02  0.3334E-03  0.3292E-02  0.3376E-02  0.8628E-02  0.2589E-02  0.2236E-02  0.5963E-03  0.1636E-02  0.9881E-03  0.7829E-03  0.5963E-03  0.1636E-02  0.2589E-02  0.2236E-02
      4.539  0.9887E-02  0.2922E-01  0.9618E-03  0.4568E-02  0.1492E-02  0.4431E-03  0.9618E-03  0.4568E-02  0.7991E-03  0.1789E-02  0.8856E-03  0.3763E-03  0.8500E-03  0.7628E-03  0.8856E-03  0.3763E-03  0.7991E-03  0.1789E-02
      4.664  0.5307E-01  0.3194E-02  0.4781E-02  0.3001E-03  0.9158E-02  0.5794E-03  0.4781E-02  0.3001E-03  0.3476E-02  0.8332E-04  0.4858E-02  0.1095E-03  0.5267E-02  0.1430E-03  0.4858E-02  0.1095E-03  0.3476E-02  0.8332E-04
      4.790  0.5856E-01  0.3720E-01  0.6262E-02  0.3216E-02  0.1054E-01  0.7876E-02  0.6262E-02  0.3216E-02  0.3375E-02  0.9721E-03  0.8515E-02  0.1828E-02  0.1442E-02  0.1663E-02  0.8515E-02  0.1828E-02  0.3375E-02  0.9721E-03
      4.916  0.3857E-01  0.5659E-01  0.2069E-02  0.6985E-02  0.1021E-01  0.8362E-02  0.2069E-02  0.6985E-02  0.1627E-02  0.2469E-02  0.3394E-02  0.4003E-02  0.1475E-01  0.1847E-02  0.3394E-02  0.4003E-02  0.1627E-02  0.2469E-02
      5.041  0.3660E-01  0.4658E-01  0.6175E-02  0.4660E-02  0.2676E-02  0.1043E-01  0.6175E-02  0.4660E-02  0.6675E-02  0.1208E-02  0.4711E-02  0.3619E-02  0.4794E-02  0.1200E-02  0.4711E-02  0.3619E-02  0.6675E-02  0.1208E-02
      5.167  0.8940E-01  0.2001E-01  0.1783E-01  0.1036E-02  0.1450E-02  0.6225E-02  0.1783E-01  0.1036E-02  0.2468E-01  0.2428E-03  0.8209E-02  0.3490E-03  0.1637E-01  0.5794E-02  0.8209E-02  0.3490E-03  0.2468E-01  0.2428E-03
      5.292  0.9952E-01  0.4294E-01  0.1397E-01  0.7331E-02  0.8001E-02  0.4945E-02  0.1397E-01  0.7331E-02  0.4468E-01  0.3126E-02  0.4510E-01  0.2011E-02  0.3008E-01  0.4622E-02  0.4510E-01  0.2011E-02  0.4468E-01  0.3126E-02
      5.418  0.1216E+00  0.5747E-01  0.1222E-01  0.1229E-01  0.2304E-01  0.2332E-02  0.1222E-01  0.1229E-01  0.4939E-01  0.7429E-02  0.6965E-01  0.2632E-02  0.5833E-01  0.3426E-02  0.6965E-01  0.2632E-02  0.4939E-01  0.7429E-02
      5.543  0.7874E-01  0.4759E-01  0.7682E-02  0.1095E-01  0.1039E-01  0.9665E-03  0.7682E-02  0.1095E-01  0.5109E-01  0.7304E-02  0.7380E-01  0.2035E-02  0.7858E-01  0.3557E-02  0.7380E-01  0.2035E-02  0.5109E-01  0.7304E-02
      5.669  0.4880E-01  0.8565E-01  0.6048E-02  0.1412E-01  0.7057E-02  0.1728E-01  0.6048E-02  0.1412E-01  0.6831E-01  0.7978E-02  0.6513E-01  0.1260E-01  0.1936E-01  0.6721E-02  0.6513E-01  0.1260E-01  0.6831E-01  0.7978E-02
      5.795  0.5023E-01  0.4436E-01  0.8230E-02  0.6349E-02  0.9686E-02  0.9902E-02  0.8230E-02  0.6349E-02  0.7894E-01  0.4472E-02  0.5169E-01  0.5710E-02  0.6276E-01  0.7939E-02  0.5169E-01  0.5710E-02  0.7894E-01  0.4472E-02
      5.920  0.1230E+00  0.6004E-01  0.2370E-01  0.9525E-02  0.2732E-01  0.1231E-01  0.2370E-01  0.9525E-02  0.2052E+00  0.1389E-01  0.1755E+00  0.8887E-02  0.1907E+00  0.9839E-02  0.1755E+00  0.8887E-02  0.2052E+00  0.1389E-01
      6.046  0.4829E-01  0.9307E-01  0.1199E-01  0.1482E-01  0.1126E-01  0.1622E-01  0.1199E-01  0.1482E-01  0.7047E-01  0.1922E-01  0.1036E+00  0.2409E-01  0.9146E-01  0.2553E-01  0.1036E+00  0.2409E-01  0.7047E-01  0.1922E-01