    2    2  100    2
  0.1066734E+02  0.2478540E-09  0.2478540E-09  0.4010177E-09  0.5000000E-15
  1.000000000000000E-004
  CAR 
 Co-hcc                                  
     18     70     16
 
  0.0000000E+00  0.0000000E+00  0.0000000E+00  0.1250000E-02
      1          1.479611        1.496807   1.000000   1.000000
      2          5.262369        6.243128   1.000000   1.000000
      3          7.823523        9.503293   1.000000   1.000000
      4          7.844640        9.534641   1.000000   1.000000
      5          7.844640        9.534641   1.000000   1.000000
      6          8.163381        9.908851   1.000000   1.000000
      7          8.163382        9.908852   1.000000   1.000000
      8          8.526110       10.337743   1.000000   0.997739
      9          8.526110       10.337744   1.000000   0.997739
     10          9.650211       10.356246   1.000000   0.989719
     11          9.650212       11.581748   1.000000   0.000000
     12         10.400904       11.581750   0.853789   0.000000
     13         16.968138       18.023829   0.000000   0.000000
     14         32.620167       32.358209   0.000000   0.000000
     15         35.344681       35.649036   0.000000   0.000000
     16         35.344714       35.724821   0.000000   0.000000
 
  0.1000000E+00 -0.6938894E-17  0.0000000E+00  0.7500000E-02
      1          1.833086        1.851874   1.000000   1.000000
      2          5.470801        6.481421   1.000000   1.000000
      3          7.550612        9.177888   1.000000   1.000000
      4          8.010107        9.473970   1.000000   1.000000
      5          8.039992        9.716873   1.000000   1.000000
      6          8.124106        9.751625   1.000000   1.000000
      7          8.269227        9.847619   1.000000   1.000000
      8          8.310079       10.070422   1.000000   1.000000
      9          8.424211       10.218640   1.000000   1.000000
     10          8.741649       10.251484   1.000000   1.000000
     11          9.692737       11.632323   1.000000   0.000000
     12         11.805660       12.766772   0.000000   0.000000
     13         17.029758       18.051673   0.000000   0.000000
     14         30.079418       30.263643   0.000000   0.000000
     15         32.685547       33.007163   0.000000   0.000000
     16         32.944483       33.037841   0.000000   0.000000
 
  0.2000000E+00 -0.1387779E-16  0.0000000E+00  0.7500000E-02
      1          2.834066        2.868536   1.000000   1.000000
      2          5.921691        7.034452   1.000000   1.000000
      3          7.233147        8.474108   1.000000   1.000000
      4          7.331430        8.744386   1.000000   1.000000
      5          7.885163        9.535306   1.000000   1.000000
      6          8.189981        9.947161   1.000000   1.000000
      7          8.402885       10.026210   1.000000   1.000000
      8          8.464422       10.221385   1.000000   1.000000
      9          8.488157       10.232558   1.000000   1.000000
     10          8.707747       10.509793   1.000000   0.021329
     11          9.773015       11.726407   1.000000   0.000000
     12         13.821472       14.666606   0.000000   0.000000
     13         17.255131       18.169808   0.000000   0.000000
     14         25.450465       25.865458   0.000000   0.000000
     15         29.881116       30.201617   0.000000   0.000000
     16         31.806967       31.960004   0.000000   0.000000
 
  0.3000000E+00  0.0000000E+00  0.0000000E+00  0.7500000E-02
      1          4.227712        4.363762   1.000000   1.000000
      2          6.045953        7.321221   1.000000   1.000000
      3          6.559870        7.754888   1.000000   1.000000
      4          7.206872        8.492710   1.000000   1.000000
      5          7.898918        9.485840   1.000000   1.000000
      6          7.939013        9.658499   1.000000   1.000000
      7          8.169294        9.753666   1.000000   1.000000
      8          9.070159       10.897132   1.000000   0.000000
      9          9.156035       10.905642   1.000000   0.000000
     10          9.236642       11.097721   1.000000   0.000000
     11          9.836144       11.799155   1.000000   0.000000
     12         16.107910       16.840017   0.000000   0.000000
     13         17.598899       18.327823   0.000000   0.000000
     14         21.310685       21.899028   0.000000   0.000000
     15         27.602093       27.865931   0.000000   0.000000
     16         28.824123       29.059380   0.000000   0.000000
 
  0.4000000E+00  0.2775558E-16  0.0000000E+00  0.7500000E-02
      1          5.314111        5.863281   1.000000   1.000000
      2          5.826858        7.110177   1.000000   1.000000
      3          6.094393        7.331487   1.000000   1.000000
      4          7.586931        8.506335   1.000000   1.000000
      5          7.755325        9.448255   1.000000   1.000000
      6          7.993391        9.537258   1.000000   1.000000
      7          8.151961        9.751733   1.000000   1.000000
      8          9.584926       11.498042   1.000000   0.000000
      9          9.721785       11.645144   1.000000   0.000000
     10          9.869811       11.837364   1.000000   0.000000
     11         10.354518       11.947377   0.990981   0.000000
     12         16.121077       16.871464   0.000000   0.000000
     13         18.562411       19.157828   0.000000   0.000000
     14         20.093923       20.666796   0.000000   0.000000
     15         25.422279       25.831999   0.000000   0.000000
     16         26.063099       26.259509   0.000000   0.000000
 
  0.5000000E+00  0.0000000E+00  0.0000000E+00  0.3750000E-02
      1          5.635310        6.576529   1.000000   1.000000
      2          5.674109        6.876969   1.000000   1.000000
      3          5.939368        7.192150   1.000000   1.000000
      4          7.688860        8.630538   1.000000   1.000000
      5          7.927843        9.372417   1.000000   1.000000
      6          7.932364        9.455553   1.000000   1.000000
      7          8.264014        9.881334   1.000000   1.000000
      8          9.779679       11.721236   1.000000   0.000000
      9          9.879693       11.848450   1.000000   0.000000
     10          9.932208       11.890147   1.000000   0.000000
     11         11.819819       13.102168   0.000000   0.000000
     12         13.874870       14.891971   0.000000   0.000000
     13         20.303588       20.747942   0.000000   0.000000
     14         20.973122       21.386584   0.000000   0.000000
     15         23.370803       23.946119   0.000000   0.000000
     16         24.657196       25.250937   0.000000   0.000000
 
  0.1000000E+00  0.1000000E+00  0.0000000E+00  0.7500000E-02
      1          2.513277        2.539446   1.000000   1.000000
      2          5.819352        6.891332   1.000000   1.000000
      3          7.270577        8.733439   1.000000   1.000000
      4          7.617453        8.829954   1.000000   1.000000
      5          7.961705        9.635402   1.000000   1.000000
      6          8.147334        9.885329   1.000000   1.000000
      7          8.261709        9.998927   1.000000   1.000000
      8          8.348195       10.087057   1.000000   1.000000
      9          8.559315       10.231083   1.000000   1.000000
     10          8.642165       10.426891   1.000000   0.624687
     11          9.735797       11.682497   1.000000   0.000000
     12         13.256454       14.133707   0.000000   0.000000
     13         17.179663       18.131345   0.000000   0.000000
     14         27.615940       27.912259   0.000000   0.000000
     15         28.289937       28.675732   0.000000   0.000000
     16         34.528677       34.454435   0.000000   0.000000
 
  0.2000000E+00  0.1000000E+00  0.0000000E+00  0.1500000E-01
      1          3.741962        3.811685   1.000000   1.000000
      2          6.192133        7.394993   1.000000   1.000000
      3          6.843438        8.014615   1.000000   1.000000
      4          6.987885        8.412682   1.000000   1.000000
      5          7.872181        9.480371   1.000000   1.000000
      6          7.876600        9.554035   1.000000   1.000000
      7          8.366408       10.024567   1.000000   1.000000
      8          8.608490       10.378493   1.000000   0.954169
      9          8.928379       10.728927   1.000000   0.000000
     10          9.250258       11.057697   1.000000   0.000000
     11          9.780454       11.734251   1.000000   0.000000
     12         15.290765       16.072098   0.000000   0.000000
     13         17.558332       18.364416   0.000000   0.000000
     14         23.380034       23.860868   0.000000   0.000000
     15         26.004920       26.379239   0.000000   0.000000
     16         30.841561       30.957543   0.000000   0.000000
 
  0.3000000E+00  0.1000000E+00  0.0000000E+00  0.1500000E-01
      1          5.078000        5.372999   1.000000   1.000000
      2          6.073965        7.378093   1.000000   1.000000
      3          6.290465        7.519151   1.000000   1.000000
      4          7.134100        8.304150   1.000000   1.000000
      5          7.700228        9.338852   1.000000   1.000000
      6          8.041170        9.631249   1.000000   1.000000
      7          8.116978        9.725384   1.000000   1.000000
      8          9.160563       10.975463   1.000000   0.000000
      9          9.498005       11.376036   1.000000   0.000000
     10          9.811051       11.769262   1.000000   0.000000
     11         10.128649       11.866733   1.000000   0.000000
     12         17.576832       18.222505   0.000000   0.000000
     13         17.639210       18.307455   0.000000   0.000000
     14         20.164122       20.788881   0.000000   0.000000
     15         24.416459       24.762037   0.000000   0.000000
     16         27.231660       27.538447   0.000000   0.000000
 
  0.4000000E+00  0.1000000E+00  0.0000000E+00  0.1500000E-01
      1          5.716643        6.545587   1.000000   1.000000
      2          5.866691        7.108184   1.000000   1.000000
      3          6.010737        7.273850   1.000000   1.000000
      4          7.586502        8.415956   1.000000   1.000000
      5          7.640609        9.285682   1.000000   1.000000
      6          7.923066        9.469490   1.000000   1.000000
      7          8.257882        9.880581   1.000000   1.000000
      8          9.677091       11.580090   1.000000   0.000000
      9          9.798572       11.726446   1.000000   0.000000
     10          9.824129       11.783920   1.000000   0.000000
     11         11.609361       12.977137   0.000000   0.000000
     12         14.943472       15.836567   0.000000   0.000000
     13         20.034542       20.552927   0.000000   0.000000
     14         20.834508       21.300804   0.000000   0.000000
     15         23.392777       23.726425   0.000000   0.000000
     16         24.208532       24.703241   0.000000   0.000000
 
  0.2000000E+00  0.2000000E+00  0.0000000E+00  0.7500000E-02
      1          5.008714        5.198065   1.000000   1.000000
      2          6.416409        7.642043   1.000000   1.000000
      3          6.467188        7.726997   1.000000   1.000000
      4          6.640465        7.982018   1.000000   1.000000
      5          7.604641        9.224014   1.000000   1.000000
      6          8.002060        9.591455   1.000000   1.000000
      7          8.208411        9.836569   1.000000   1.000000
      8          8.812183       10.615929   1.000000   0.000000
      9          9.503171       11.371596   1.000000   0.000000
     10          9.754528       11.704135   1.000000   0.000000
     11         10.161579       11.901990   1.000000   0.000000
     12         17.331841       18.032382   0.000000   0.000000
     13         18.187734       18.835605   0.000000   0.000000
     14         21.479998       21.996266   0.000000   0.000000
     15         22.096917       22.580092   0.000000   0.000000
     16         29.245337       29.330909   0.000000   0.000000
 
  0.3000000E+00  0.2000000E+00  0.0000000E+00  0.1500000E-01
      1          5.977102        6.571666   1.000000   1.000000
      2          6.144208        7.427118   1.000000   1.000000
      3          6.267995        7.541106   1.000000   1.000000
      4          6.889310        7.986238   1.000000   1.000000
      5          7.513278        9.096289   1.000000   1.000000
      6          7.950312        9.523890   1.000000   1.000000
      7          8.254504        9.878536   1.000000   1.000000
      8          9.203266       11.047844   1.000000   0.000000
      9          9.731397       11.677417   1.000000   0.000000
     10          9.802269       11.722674   1.000000   0.000000
     11         11.561705       13.024248   0.000000   0.000000
     12         17.141250       17.813332   0.000000   0.000000
     13         19.727035       20.323996   0.000000   0.000000
     14         19.870474       20.405492   0.000000   0.000000
     15         21.233742       21.698247   0.000000   0.000000
     16         26.145236       26.512743   0.000000   0.000000
 
  0.4000000E+00  0.2000000E+00  0.0000000E+00  0.7500000E-02
      1          6.052450        7.142424   1.000000   1.000000
      2          6.151213        7.359811   1.000000   1.000000
      3          6.175062        7.386401   1.000000   1.000000
      4          7.193277        8.096690   1.000000   1.000000
      5          7.545466        9.141856   1.000000   1.000000
      6          7.784317        9.306301   1.000000   1.000000
      7          8.380435       10.031523   1.000000   1.000000
      8          9.549873       11.435025   1.000000   0.000000
      9          9.722702       11.667276   1.000000   0.000000
     10          9.749429       11.669346   1.000000   0.000000
     11         13.261391       14.291756   0.000000   0.000000
     12         14.685497       15.675729   0.000000   0.000000
     13         19.857172       20.336847   0.000000   0.000000
     14         21.651000       22.123529   0.000000   0.000000
     15         21.960760       22.365968   0.000000   0.000000
     16         23.895888       24.420016   0.000000   0.000000
 
  0.3000000E+00  0.3000000E+00  0.0000000E+00  0.7500000E-02
      1          6.099976        7.399099   1.000000   1.000000
      2          6.376482        7.435446   1.000000   1.000000
      3          6.534345        7.713572   1.000000   1.000000
      4          6.770812        7.761725   1.000000   1.000000
      5          7.506822        9.048935   1.000000   1.000000
      6          7.705917        9.240201   1.000000   1.000000
      7          8.473095       10.131817   1.000000   1.000000
      8          9.386654       11.261241   1.000000   0.000000
      9          9.672022       11.609507   1.000000   0.000000
     10          9.706450       11.619115   1.000000   0.000000
     11         13.679907       14.725733   0.000000   0.000000
     12         16.691175       17.406228   0.000000   0.000000
     13         16.727016       17.421187   0.000000   0.000000
     14         22.197191       22.710572   0.000000   0.000000
     15         22.443129       22.861591   0.000000   0.000000
     16         25.067006       25.519306   0.000000   0.000000
 
  0.0000000E+00  0.0000000E+00  0.1250000E+00  0.2500000E-02
      1          1.639214        1.657025   1.000000   1.000000
      2          5.232791        6.129693   1.000000   1.000000
      3          7.782202        9.449906   1.000000   1.000000
      4          7.802271        9.489908   1.000000   1.000000
      5          7.802271        9.489909   1.000000   1.000000
      6          8.119813        9.858688   1.000000   1.000000
      7          8.119813        9.858688   1.000000   1.000000
      8          8.625232        9.956655   1.000000   1.000000
      9          8.625233       10.446610   1.000000   0.405186
     10          9.641659       10.446611   1.000000   0.405177
     11          9.641659       11.574346   1.000000   0.000000
     12          9.782380       11.574347   1.000000   0.000000
     13         17.898198       18.818845   0.000000   0.000000
     14         32.555724       32.266919   0.000000   0.000000
     15         34.851593       34.858943   0.000000   0.000000
     16         35.450143       35.286914   0.000000   0.000000
 
  0.1000000E+00 -0.6938894E-17  0.1250000E+00  0.1500000E-01
      1          1.989023        2.008916   1.000000   1.000000
      2          5.453489        6.380465   1.000000   1.000000
      3          7.553663        9.181417   1.000000   1.000000
      4          7.928301        9.206422   1.000000   1.000000
      5          7.948815        9.626774   1.000000   1.000000
      6          7.950326        9.652947   1.000000   1.000000
      7          8.258500        9.872033   1.000000   1.000000
      8          8.411877       10.009716   1.000000   1.000000
      9          8.554151       10.361747   1.000000   0.984627
     10          8.714291       10.392155   1.000000   0.903247
     11          9.678123       11.617577   1.000000   0.000000
     12         11.234384       12.465295   0.000000   0.000000
     13         18.032147       18.913764   0.000000   0.000000
     14         30.176896       30.342003   0.000000   0.000000
     15         32.844167       32.930948   0.000000   0.000000
     16         32.894780       33.193931   0.000000   0.000000
 
  0.2000000E+00 -0.1387779E-16  0.1250000E+00  0.1500000E-01
      1          2.974440        3.013485   1.000000   1.000000
      2          5.939476        6.975296   1.000000   1.000000
      3          7.191914        8.331633   1.000000   1.000000
      4          7.268983        8.773262   1.000000   1.000000
      5          7.817034        9.480185   1.000000   1.000000
      6          8.149675        9.868674   1.000000   1.000000
      7          8.272873        9.893225   1.000000   1.000000
      8          8.545151       10.312979   1.000000   0.999800
      9          8.680051       10.441783   1.000000   0.458824
     10          8.689057       10.495441   1.000000   0.052500
     11          9.746092       11.696774   1.000000   0.000000
     12         12.922162       13.982770   0.000000   0.000000
     13         18.496870       19.264384   0.000000   0.000000
     14         25.587079       25.997558   0.000000   0.000000
     15         30.073630       30.396920   0.000000   0.000000
     16         31.107641       31.269025   0.000000   0.000000
 
  0.3000000E+00  0.0000000E+00  0.1250000E+00  0.1500000E-01
      1          4.316464        4.475858   1.000000   1.000000
      2          6.081097        7.300860   1.000000   1.000000
      3          6.531736        7.713162   1.000000   1.000000
      4          7.186964        8.522569   1.000000   1.000000
      5          7.804771        9.369694   1.000000   1.000000
      6          7.983475        9.706202   1.000000   1.000000
      7          8.307614        9.824666   1.000000   1.000000
      8          9.090539       10.923817   1.000000   0.000000
      9          9.150207       10.924958   1.000000   0.000000
     10          9.190793       11.049892   1.000000   0.000000
     11          9.801098       11.759024   1.000000   0.000000
     12         14.638135       15.527040   0.000000   0.000000
     13         19.272006       19.891269   0.000000   0.000000
     14         21.490494       22.066088   0.000000   0.000000
     15         27.576708       27.922234   0.000000   0.000000
     16         27.823004       28.094976   0.000000   0.000000
 
  0.4000000E+00  0.2775558E-16  0.1250000E+00  0.1500000E-01
      1          5.261453        5.885215   1.000000   1.000000
      2          5.823037        7.069807   1.000000   1.000000
      3          6.275142        7.452396   1.000000   1.000000
      4          7.189922        8.366783   1.000000   1.000000
      5          7.819060        9.517967   1.000000   1.000000
      6          8.142750        9.684630   1.000000   1.000000
      7          8.510882        9.839228   1.000000   1.000000
      8          9.586652       11.503435   1.000000   0.000000
      9          9.645617       11.557569   1.000000   0.000000
     10          9.853181       11.813070   1.000000   0.000000
     11         10.269762       11.868734   0.999999   0.000000
     12         15.429770       16.136710   0.000000   0.000000
     13         18.306587       19.080253   0.000000   0.000000
     14         21.070458       21.518474   0.000000   0.000000
     15         24.491305       25.011582   0.000000   0.000000
     16         26.304767       26.514575   0.000000   0.000000
 
  0.5000000E+00  0.0000000E+00  0.1250000E+00  0.7500000E-02
      1          5.455614        6.448133   1.000000   1.000000
      2          5.668243        6.892250   1.000000   1.000000
      3          6.262403        7.450936   1.000000   1.000000
      4          7.219635        8.287667   1.000000   1.000000
      5          7.757048        9.447042   1.000000   1.000000
      6          8.265911        9.851534   1.000000   1.000000
      7          8.746975        9.949713   1.000000   1.000000
      8          9.725145       11.665824   1.000000   0.000000
      9          9.837744       11.789608   1.000000   0.000000
     10          9.927725       11.885127   1.000000   0.000000
     11         11.704436       12.922566   0.000000   0.000000
     12         13.778971       14.760191   0.000000   0.000000
     13         19.726519       20.276764   0.000000   0.000000
     14         20.095025       20.667547   0.000000   0.000000
     15         24.542978       24.981099   0.000000   0.000000
     16         25.557135       25.938218   0.000000   0.000000
 
  0.1000000E+00  0.1000000E+00  0.1250000E+00  0.1500000E-01
      1          2.659948        2.689004   1.000000   1.000000
      2          5.827226        6.818178   1.000000   1.000000
      3          7.290089        8.556612   1.000000   1.000000
      4          7.435468        8.853709   1.000000   1.000000
      5          7.948536        9.640745   1.000000   1.000000
      6          8.031031        9.683090   1.000000   1.000000
      7          8.246665        9.939055   1.000000   1.000000
      8          8.412178       10.168448   1.000000   1.000000
      9          8.662776       10.407245   1.000000   0.808798
     10          8.671309       10.460050   1.000000   0.267604
     11          9.716025       11.660209   1.000000   0.000000
     12         12.466708       13.568861   0.000000   0.000000
     13         18.337613       19.142784   0.000000   0.000000
     14         27.735981       28.024802   0.000000   0.000000
     15         28.439629       28.823143   0.000000   0.000000
     16         33.405139       33.427329   0.000000   0.000000
 
  0.2000000E+00  0.1000000E+00  0.1250000E+00  0.3000000E-01
      1          3.859352        3.940762   1.000000   1.000000
      2          6.238180        7.379503   1.000000   1.000000
      3          6.746305        7.911431   1.000000   1.000000
      4          7.027526        8.451807   1.000000   1.000000
      5          7.748041        9.381461   1.000000   1.000000
      6          7.986552        9.616950   1.000000   1.000000
      7          8.282620        9.946475   1.000000   1.000000
      8          8.658070       10.434636   1.000000   0.539333
      9          9.008631       10.811849   1.000000   0.000000
     10          9.200617       11.017454   1.000000   0.000000
     11          9.769569       11.713008   1.000000   0.000000
     12         14.075508       15.040553   0.000000   0.000000
     13         19.057677       19.728387   0.000000   0.000000
     14         23.527649       24.005665   0.000000   0.000000
     15         26.163678       26.540463   0.000000   0.000000
     16         29.741322       29.965254   0.000000   0.000000
 
  0.3000000E+00  0.1000000E+00  0.1250000E+00  0.3000000E-01
      1          5.103363        5.448608   1.000000   1.000000
      2          6.108592        7.349767   1.000000   1.000000
      3          6.326499        7.543771   1.000000   1.000000
      4          7.065051        8.329423   1.000000   1.000000
      5          7.737403        9.315312   1.000000   1.000000
      6          8.059446        9.686907   1.000000   1.000000
      7          8.211965        9.730262   1.000000   1.000000
      8          9.145339       10.967204   1.000000   0.000000
      9          9.542894       11.423263   1.000000   0.000000
     10          9.674964       11.574768   1.000000   0.000000
     11         10.167220       11.952217   1.000000   0.000000
     12         15.659742       16.414091   0.000000   0.000000
     13         19.149417       19.823679   0.000000   0.000000
     14         20.874935       21.400936   0.000000   0.000000
     15         24.560889       24.925340   0.000000   0.000000
     16         26.147850       26.544816   0.000000   0.000000
 
  0.4000000E+00  0.1000000E+00  0.1250000E+00  0.3000000E-01
      1          5.563434        6.482436   1.000000   1.000000
      2          5.858787        7.094977   1.000000   1.000000
      3          6.314370        7.482863   1.000000   1.000000
      4          7.142489        8.233980   1.000000   1.000000
      5          7.674825        9.315969   1.000000   1.000000
      6          8.284389        9.700264   1.000000   1.000000
      7          8.386406        9.906029   1.000000   1.000000
      8          9.636516       11.543198   1.000000   0.000000
      9          9.738968       11.668079   1.000000   0.000000
     10          9.827861       11.760981   1.000000   0.000000
     11         11.593323       12.926888   0.000000   0.000000
     12         14.786938       15.631496   0.000000   0.000000
     13         19.044195       19.713895   0.000000   0.000000
     14         21.172071       21.627708   0.000000   0.000000
     15         23.524923       23.904564   0.000000   0.000000
     16         24.460039       24.907162   0.000000   0.000000
 
  0.2000000E+00  0.2000000E+00  0.1250000E+00  0.1500000E-01
      1          5.071848        5.292676   1.000000   1.000000
      2          6.329028        7.554598   1.000000   1.000000
      3          6.587525        7.800966   1.000000   1.000000
      4          6.669148        8.022712   1.000000   1.000000
      5          7.648168        9.223790   1.000000   1.000000
      6          7.985898        9.583580   1.000000   1.000000
      7          8.138881        9.764497   1.000000   1.000000
      8          8.842310       10.646310   1.000000   0.000000
      9          9.562413       11.438624   1.000000   0.000000
     10          9.607209       11.511037   1.000000   0.000000
     11         10.235349       12.007473   1.000000   0.000000
     12         15.627926       16.435457   0.000000   0.000000
     13         20.073265       20.646730   0.000000   0.000000
     14         21.633742       22.150781   0.000000   0.000000
     15         22.298808       22.777749   0.000000   0.000000
     16         28.134583       28.356987   0.000000   0.000000
 
  0.3000000E+00  0.2000000E+00  0.1250000E+00  0.3000000E-01
      1          5.883305        6.595020   1.000000   1.000000
      2          6.255520        7.413656   1.000000   1.000000
      3          6.326193        7.598243   1.000000   1.000000
      4          6.853000        8.046874   1.000000   1.000000
      5          7.593469        9.124264   1.000000   1.000000
      6          7.923450        9.451619   1.000000   1.000000
      7          8.271371        9.894354   1.000000   1.000000
      8          9.211055       11.057272   1.000000   0.000000
      9          9.606159       11.528209   1.000000   0.000000
     10          9.842761       11.771231   1.000000   0.000000
     11         11.627713       13.077997   0.000000   0.000000
     12         16.659538       17.304351   0.000000   0.000000
     13         18.819931       19.517388   0.000000   0.000000
     14         20.663367       21.181115   0.000000   0.000000
     15         22.087763       22.516982   0.000000   0.000000
     16         25.186517       25.638465   0.000000   0.000000
 
  0.4000000E+00  0.2000000E+00  0.1250000E+00  0.1500000E-01
      1          5.894433        7.015984   1.000000   1.000000
      2          6.200524        7.427919   1.000000   1.000000
      3          6.438844        7.607249   1.000000   1.000000
      4          6.988414        8.009393   1.000000   1.000000
      5          7.519126        9.100138   1.000000   1.000000
      6          7.939382        9.360468   1.000000   1.000000
      7          8.411904       10.060050   1.000000   1.000000
      8          9.553565       11.440156   1.000000   0.000000
      9          9.584914       11.504254   1.000000   0.000000
     10          9.783540       11.709106   1.000000   0.000000
     11         13.357337       14.359982   0.000000   0.000000
     12         14.682487       15.648022   0.000000   0.000000
     13         19.791980       20.308089   0.000000   0.000000
     14         20.910475       21.444695   0.000000   0.000000
     15         21.186584       21.700241   0.000000   0.000000
     16         25.114225       25.547932   0.000000   0.000000
 
  0.3000000E+00  0.3000000E+00  0.1250000E+00  0.1500000E-01
      1          6.127529        7.433629   1.000000   1.000000
      2          6.396792        7.438421   1.000000   1.000000
      3          6.587506        7.776706   1.000000   1.000000
      4          6.739666        7.800291   1.000000   1.000000
      5          7.556643        9.049268   1.000000   1.000000
      6          7.652322        9.158538   1.000000   1.000000