<?xml version="1.0" encoding="ISO-8859-1"?>
<modeling>
 <generator>
  <i name="program" type="string">vasp </i>
  <i name="version" type="string">6.3.2  </i>
  <i name="subversion" type="string">27Jun22 (build Aug 12 2022 00:53:59) complex                          parallel </i>
  <i name="platform" type="string">tv2STD </i>
  <i name="date" type="string">2024 11 30 </i>
  <i name="time" type="string">17:13:10 </i>
 </generator>
 <incar>
  <i type="string" name="SYSTEM">Co-hcc</i>
  <i type="int" name="ISTART">     0</i>
  <i type="string" name="PREC">Accurate      normal | accurate</i>
  <i type="string" name="ALGO">Normal     Normal, Fast, Very_Fast</i>
  <i type="logical" name="ADDGRID"> F  </i>
  <i type="int" name="ISPIN">     2</i>
  <i type="int" name="ICHARG">     2</i>
  <i type="int" name="INIWAV">     1</i>
  <i type="int" name="NELM">   100</i>
  <i type="int" name="IBRION">     2</i>
  <i name="EDIFF">      0.00000100</i>
  <i name="EDIFFG">     -0.02000000</i>
  <i type="int" name="NSW">   100</i>
  <i type="int" name="ISIF">     2</i>
  <i type="int" name="ISYM">     1</i>
  <i name="ENCUT">    400.00000000</i>
  <v name="MAGMOM">      3.00000000      3.00000000</v>
  <i type="logical" name="LREAL"> F  </i>
  <i type="int" name="ISMEAR">     0</i>
  <i name="SIGMA">      0.05000000</i>
  <i type="int" name="NWRITE">     2</i>
  <i type="logical" name="LWAVE"> T  </i>
  <i type="logical" name="LCHARG"> T  </i>
  <i type="int" name="LORBIT">    11</i>
 </incar>
 <primitive_cell>
  <structure name="primitive_cell" >
   <crystal>
    <varray name="basis" >
     <v>       2.47854007       0.00000000       0.00000000 </v>
     <v>      -1.23927004       2.14647867       0.00000000 </v>
     <v>       0.00000000       0.00000000       4.01017696 </v>
    </varray>
    <i name="volume">     21.33467637 </i>
    <varray name="rec_basis" >
     <v>       0.40346332       0.23293965       0.00000000 </v>
     <v>       0.00000000       0.46587931       0.00000000 </v>
     <v>       0.00000000       0.00000000       0.24936555 </v>
    </varray>
   </crystal>
   <varray name="positions" >
    <v>       0.00000000       0.00000000       0.00000000 </v>
    <v>       0.33333333       0.66666667       0.50000000 </v>
   </varray>
  </structure>
  <varray name="primitive_index" >
   <v type="int" >        1 </v>
   <v type="int" >        2 </v>
  </varray>
 </primitive_cell>
 <kpoints>
  <generation param="Gamma">
   <v type="int" name="divisions">      10       10        8 </v>
   <v name="usershift">      0.00000000       0.00000000       0.00000000 </v>
   <v name="genvec1">      0.10000000       0.00000000       0.00000000 </v>
   <v name="genvec2">      0.00000000       0.10000000       0.00000000 </v>
   <v name="genvec3">      0.00000000       0.00000000       0.12500000 </v>
   <v name="shift">      0.00000000       0.00000000       0.00000000 </v>
  </generation>
  <varray name="kpointlist" >
   <v>       0.00000000       0.00000000       0.00000000 </v>
   <v>       0.10000000      -0.00000000       0.00000000 </v>
   <v>       0.20000000      -0.00000000       0.00000000 </v>
   <v>       0.30000000       0.00000000       0.00000000 </v>
   <v>       0.40000000       0.00000000       0.00000000 </v>
   <v>       0.50000000       0.00000000       0.00000000 </v>
   <v>       0.10000000       0.10000000       0.00000000 </v>
   <v>       0.20000000       0.10000000       0.00000000 </v>
   <v>       0.30000000       0.10000000       0.00000000 </v>
   <v>       0.40000000       0.10000000       0.00000000 </v>
   <v>       0.20000000       0.20000000       0.00000000 </v>
   <v>       0.30000000       0.20000000       0.00000000 </v>
   <v>       0.40000000       0.20000000       0.00000000 </v>
   <v>       0.30000000       0.30000000       0.00000000 </v>
   <v>       0.00000000       0.00000000       0.12500000 </v>
   <v>       0.10000000      -0.00000000       0.12500000 </v>
   <v>       0.20000000      -0.00000000       0.12500000 </v>
   <v>       0.30000000       0.00000000       0.12500000 </v>
   <v>       0.40000000       0.00000000       0.12500000 </v>
   <v>       0.50000000       0.00000000       0.12500000 </v>
   <v>       0.10000000       0.10000000       0.12500000 </v>
   <v>       0.20000000       0.10000000       0.12500000 </v>
   <v>       0.30000000       0.10000000       0.12500000 </v>
   <v>       0.40000000       0.10000000       0.12500000 </v>
   <v>       0.20000000       0.20000000       0.12500000 </v>
   <v>       0.30000000       0.20000000       0.12500000 </v>
   <v>       0.40000000       0.20000000       0.12500000 </v>
   <v>       0.30000000       0.30000000       0.12500000 </v>
   <v>       0.00000000       0.00000000       0.25000000 </v>
   <v>       0.10000000      -0.00000000       0.25000000 </v>
   <v>       0.20000000      -0.00000000       0.25000000 </v>
   <v>       0.30000000       0.00000000       0.25000000 </v>
   <v>       0.40000000       0.00000000       0.25000000 </v>
   <v>       0.50000000       0.00000000       0.25000000 </v>
   <v>       0.10000000       0.10000000       0.25000000 </v>
   <v>       0.20000000       0.10000000       0.25000000 </v>
   <v>       0.30000000       0.10000000       0.25000000 </v>
   <v>       0.40000000       0.10000000       0.25000000 </v>
   <v>       0.20000000       0.20000000       0.25000000 </v>
   <v>       0.30000000       0.20000000       0.25000000 </v>
   <v>       0.40000000       0.20000000       0.25000000 </v>
   <v>       0.30000000       0.30000000       0.25000000 </v>
   <v>       0.00000000       0.00000000       0.37500000 </v>
   <v>       0.10000000      -0.00000000       0.37500000 </v>
   <v>       0.20000000      -0.00000000       0.37500000 </v>
   <v>       0.30000000       0.00000000       0.37500000 </v>
   <v>       0.40000000       0.00000000       0.37500000 </v>
   <v>       0.50000000       0.00000000       0.37500000 </v>
   <v>       0.10000000       0.10000000       0.37500000 </v>
   <v>       0.20000000       0.10000000       0.37500000 </v>
   <v>       0.30000000       0.10000000       0.37500000 </v>
   <v>       0.40000000       0.10000000       0.37500000 </v>
   <v>       0.20000000       0.20000000       0.37500000 </v>
   <v>       0.30000000       0.20000000       0.37500000 </v>
   <v>       0.40000000       0.20000000       0.37500000 </v>
   <v>       0.30000000       0.30000000       0.37500000 </v>
   <v>       0.00000000       0.00000000       0.50000000 </v>
   <v>       0.10000000      -0.00000000       0.50000000 </v>
   <v>       0.20000000      -0.00000000       0.50000000 </v>
   <v>       0.30000000       0.00000000       0.50000000 </v>
   <v>       0.40000000       0.00000000       0.50000000 </v>
   <v>       0.50000000       0.00000000       0.50000000 </v>
   <v>       0.10000000       0.10000000       0.50000000 </v>
   <v>       0.20000000       0.10000000       0.50000000 </v>
   <v>       0.30000000       0.10000000       0.50000000 </v>
   <v>       0.40000000       0.10000000       0.50000000 </v>
   <v>       0.20000000       0.20000000       0.50000000 </v>
   <v>       0.30000000       0.20000000       0.50000000 </v>
   <v>       0.40000000       0.20000000       0.50000000 </v>
   <v>       0.30000000       0.30000000       0.50000000 </v>
  </varray>
  <varray name="weights" >
   <v>       0.00125000 </v>
   <v>       0.00750000 </v>
   <v>       0.00750000 </v>
   <v>       0.00750000 </v>
   <v>       0.00750000 </v>
   <v>       0.00375000 </v>
   <v>       0.00750000 </v>
   <v>       0.01500000 </v>
   <v>       0.01500000 </v>
   <v>       0.01500000 </v>
   <v>       0.00750000 </v>
   <v>       0.01500000 </v>
   <v>       0.00750000 </v>
   <v>       0.00750000 </v>
   <v>       0.00250000 </v>
   <v>       0.01500000 </v>
   <v>       0.01500000 </v>
   <v>       0.01500000 </v>
   <v>       0.01500000 </v>
   <v>       0.00750000 </v>
   <v>       0.01500000 </v>
   <v>       0.03000000 </v>
   <v>       0.03000000 </v>
   <v>       0.03000000 </v>
   <v>       0.01500000 </v>
   <v>       0.03000000 </v>
   <v>       0.01500000 </v>
   <v>       0.01500000 </v>
   <v>       0.00250000 </v>
   <v>       0.01500000 </v>
   <v>       0.01500000 </v>
   <v>       0.01500000 </v>
   <v>       0.01500000 </v>
   <v>       0.00750000 </v>
   <v>       0.01500000 </v>
   <v>       0.03000000 </v>
   <v>       0.03000000 </v>
   <v>       0.03000000 </v>
   <v>       0.01500000 </v>
   <v>       0.03000000 </v>
   <v>       0.01500000 </v>
   <v>       0.01500000 </v>
   <v>       0.00250000 </v>
   <v>       0.01500000 </v>
   <v>       0.01500000 </v>
   <v>       0.01500000 </v>
   <v>       0.01500000 </v>
   <v>       0.00750000 </v>
   <v>       0.01500000 </v>
   <v>       0.03000000 </v>
   <v>       0.03000000 </v>
   <v>       0.03000000 </v>
   <v>       0.01500000 </v>
   <v>       0.03000000 </v>
   <v>       0.01500000 </v>
   <v>       0.01500000 </v>
   <v>       0.00125000 </v>
   <v>       0.00750000 </v>
   <v>       0.00750000 </v>
   <v>       0.00750000 </v>
   <v>       0.00750000 </v>
   <v>       0.00375000 </v>
   <v>       0.00750000 </v>
   <v>       0.01500000 </v>
   <v>       0.01500000 </v>
   <v>       0.01500000 </v>
   <v>       0.00750000 </v>
   <v>       0.01500000 </v>
   <v>       0.00750000 </v>
   <v>       0.00750000 </v>
  </varray>
 </kpoints>
 <parameters>
  <separator name="general" >
   <i type="string" name="SYSTEM">Co-hcc</i>
   <i type="logical" name="LCOMPAT"> F  </i>
  </separator>
  <separator name="electronic" >
   <i type="string" name="PREC">accura</i>
   <i name="ENMAX">    400.00000000</i>
   <i name="ENAUG">    477.81800000</i>
   <i name="EDIFF">      0.00000100</i>
   <i type="int" name="IALGO">    38</i>
   <i type="int" name="IWAVPR">    11</i>
   <i type="int" name="NBANDS">    16</i>
   <i type="int" name="NBANDSLOW">    -1</i>
   <i type="int" name="NBANDSHIGH">    -1</i>
   <i name="NELECT">     18.00000000</i>
   <i type="int" name="TURBO">     0</i>
   <i type="int" name="IRESTART">     0</i>
   <i type="int" name="NREBOOT">     0</i>
   <i type="int" name="NMIN">     0</i>
   <i name="EREF">      0.00000000</i>
   <separator name="electronic smearing" >
    <i type="int" name="ISMEAR">     0</i>
    <i name="SIGMA">      0.05000000</i>
    <i name="KSPACING">      0.50000000</i>
    <i type="logical" name="KGAMMA"> T  </i>
    <i type="logical" name="KBLOWUP"> T  </i>
   </separator>
   <separator name="electronic projectors" >
    <i type="logical" name="LREAL"> F  </i>
    <v name="ROPT">      0.00000000</v>
    <i type="int" name="LMAXPAW">  -100</i>
    <i type="int" name="LMAXMIX">     2</i>
    <i type="logical" name="NLSPLINE"> F  </i>
   </separator>
   <separator name="electronic startup" >
    <i type="int" name="ISTART">     0</i>
    <i type="int" name="ICHARG">     2</i>
    <i type="int" name="INIWAV">     1</i>
   </separator>
   <separator name="electronic spin" >
    <i type="int" name="ISPIN">     2</i>
    <i type="logical" name="LNONCOLLINEAR"> F  </i>
    <v name="MAGMOM">      3.00000000      3.00000000</v>
    <i name="NUPDOWN">     -1.00000000</i>
    <i type="logical" name="LSORBIT"> F  </i>
    <v name="SAXIS">      0.00000000      0.00000000      1.00000000</v>
    <i type="logical" name="LSPIRAL"> F  </i>
    <v name="QSPIRAL">      0.00000000      0.00000000      0.00000000</v>
    <i type="logical" name="LZEROZ"> F  </i>
   </separator>
   <separator name="electronic exchange-correlation" >
    <i type="logical" name="LASPH"> F  </i>
    <i type="logical" name="LMETAGGA"> F  </i>
   </separator>
   <separator name="electronic convergence" >
    <i type="int" name="NELM">   100</i>
    <i type="int" name="NELMDL">    -5</i>
    <i type="int" name="NELMIN">     2</i>
    <i name="ENINI">    400.00000000</i>
    <separator name="electronic convergence detail" >
     <i type="logical" name="LDIAG"> T  </i>
     <i type="logical" name="LSUBROT"> F  </i>
     <i name="WEIMIN">      0.00100000</i>
     <i name="EBREAK">      0.00000002</i>
     <i name="DEPER">      0.30000000</i>
     <i type="int" name="NRMM">     4</i>
     <i name="TIME">      0.40000000</i>
    </separator>
   </separator>
   <separator name="electronic mixer" >
    <i name="AMIX">      0.40000000</i>
    <i name="BMIX">      1.00000000</i>
    <i name="AMIN">      0.10000000</i>
    <i name="AMIX_MAG">      1.60000000</i>
    <i name="BMIX_MAG">      1.00000000</i>
    <separator name="electronic mixer details" >
     <i type="int" name="IMIX">     4</i>
     <i type="logical" name="MIXFIRST"> F  </i>
     <i type="int" name="MAXMIX">   -45</i>
     <i name="WC">    100.00000000</i>
     <i type="int" name="INIMIX">     1</i>
     <i type="int" name="MIXPRE">     1</i>
     <i type="int" name="MREMOVE">     5</i>
    </separator>
   </separator>
   <separator name="electronic dipolcorrection" >
    <i type="logical" name="LDIPOL"> F  </i>
    <i type="logical" name="LMONO"> F  </i>
    <i type="int" name="IDIPOL">     0</i>
    <i name="EPSILON">      1.00000000</i>
    <v name="DIPOL">   -100.00000000   -100.00000000   -100.00000000</v>
    <i name="EFIELD">      0.00000000</i>
   </separator>
  </separator>
  <separator name="grids" >
   <i type="int" name="NGX">    16</i>
   <i type="int" name="NGY">    16</i>
   <i type="int" name="NGZ">    28</i>
   <i type="int" name="NGXF">    32</i>
   <i type="int" name="NGYF">    32</i>
   <i type="int" name="NGZF">    56</i>
   <i type="logical" name="ADDGRID"> F  </i>
  </separator>
  <separator name="ionic" >
   <i type="int" name="NSW">   100</i>
   <i type="int" name="IBRION">     2</i>
   <i type="int" name="MDALGO">     0</i>
   <i type="int" name="ISIF">     2</i>
   <i name="PSTRESS">      0.00000000</i>
   <i name="EDIFFG">     -0.02000000</i>
   <i type="int" name="NFREE">     1</i>
   <i name="POTIM">      0.50000000</i>
   <i name="SMASS">     -3.00000000</i>
   <i name="SCALEE">      1.00000000</i>
  </separator>
  <separator name="ionic md" >
   <i name="TEBEG">      0.00010000</i>
   <i name="TEEND">      0.00010000</i>
   <i type="int" name="NBLOCK">     1</i>
   <i type="int" name="KBLOCK">   100</i>
   <i type="int" name="NPACO">   256</i>
   <i name="APACO">     10.00000000</i>
  </separator>
  <separator name="symmetry" >
   <i type="int" name="ISYM">     1</i>
   <i name="SYMPREC">      0.00001000</i>
  </separator>
  <separator name="dos" >
   <i type="int" name="LORBIT">    11</i>
   <v name="RWIGS">     -1.00000000</v>
   <i type="int" name="NEDOS">   301</i>
   <i name="EMIN">     10.00000000</i>
   <i name="EMAX">    -10.00000000</i>
   <i name="EFERMI">      0.00000000</i>
  </separator>
  <separator name="writing" >
   <i type="int" name="NWRITE">     2</i>
   <i type="logical" name="LWAVE"> T  </i>
   <i type="logical" name="LDOWNSAMPLE"> F  </i>
   <i type="logical" name="LCHARG"> T  </i>
   <i type="logical" name="LPARD"> F  </i>
   <i type="logical" name="LVTOT"> F  </i>
   <i type="logical" name="LVHAR"> F  </i>
   <i type="logical" name="LELF"> F  </i>
   <i type="logical" name="LOPTICS"> F  </i>
   <v name="STM">      0.00000000      0.00000000      0.00000000      0.00000000      0.00000000      0.00000000      0.00000000</v>
  </separator>
  <separator name="performance" >
   <i type="int" name="NPAR">     4</i>
   <i type="int" name="NSIM">     4</i>
   <i type="int" name="NBLK">    -1</i>
   <i type="logical" name="LPLANE"> T  </i>
   <i type="logical" name="LSCALAPACK"> T  </i>
   <i type="logical" name="LSCAAWARE"> F  </i>
   <i type="logical" name="LSCALU"> F  </i>
   <i type="logical" name="LASYNC"> F  </i>
   <i type="logical" name="LORBITALREAL"> F  </i>
  </separator>
  <separator name="miscellaneous" >
   <i type="int" name="IDIOT">     3</i>
   <i type="int" name="PHON_NSTRUCT">    -1</i>
   <i type="logical" name="LMUSIC"> F  </i>
   <v name="POMASS">     58.93300000</v>
   <v name="DARWINR">      0.00000000</v>
   <v name="DARWINV">      1.00000000</v>
   <i type="logical" name="LCORR"> T  </i>
  </separator>
  <i type="logical" name="GGA_COMPAT"> T  </i>
  <i type="logical" name="LBERRY"> F  </i>
  <i type="int" name="ICORELEVEL">     0</i>
  <i type="logical" name="LDAU"> F  </i>
  <i type="int" name="I_CONSTRAINED_M">     0</i>
  <separator name="electronic exchange-correlation" >
   <i type="string" name="GGA">--</i>
   <i type="int" name="VOSKOWN">     0</i>
   <i type="logical" name="LHFCALC"> F  </i>
   <i type="string" name="PRECFOCK"></i>
   <i type="logical" name="LSYMGRAD"> F  </i>
   <i type="logical" name="LHFONE"> F  </i>
   <i type="logical" name="LRHFCALC"> F  </i>
   <i type="logical" name="LTHOMAS"> F  </i>
   <i type="logical" name="LMODELHF"> F  </i>
   <i type="logical" name="LFOCKACE"> F  </i>
   <i name="ENCUT4O">     -1.00000000</i>
   <i type="int" name="EXXOEP">     0</i>
   <i type="int" name="FOURORBIT">     0</i>
   <i name="AEXX">      0.00000000</i>
   <i name="HFALPHA">      0.00000000</i>
   <i name="MCALPHA">      0.00000000</i>
   <i name="ALDAX">      1.00000000</i>
   <i name="AGGAX">      1.00000000</i>
   <i name="ALDAC">      1.00000000</i>
   <i name="AGGAC">      1.00000000</i>
   <i type="int" name="NKREDX">     1</i>
   <i type="int" name="NKREDY">     1</i>
   <i type="int" name="NKREDZ">     1</i>
   <i type="logical" name="SHIFTRED"> F  </i>
   <i type="logical" name="ODDONLY"> F  </i>
   <i type="logical" name="EVENONLY"> F  </i>
   <i type="int" name="LMAXFOCK">     0</i>
   <i type="int" name="NMAXFOCKAE">     0</i>
   <i type="logical" name="LFOCKAEDFT"> F  </i>
   <i name="HFSCREEN">      0.00000000</i>
   <i name="HFSCREENC">      0.00000000</i>
   <i type="int" name="NBANDSGWLOW">     0</i>
  </separator>
  <separator name="vdW DFT" >
   <i type="logical" name="LUSE_VDW"> F  </i>
   <i name="Zab_VDW">     -0.84910000</i>
   <i name="PARAM1">      0.12340000</i>
   <i name="PARAM2">      1.00000000</i>
   <i name="PARAM3">      0.00000000</i>
  </separator>
  <separator name="model GW" >
   <i type="int" name="MODEL_GW">     0</i>
   <i name="MODEL_EPS0">      6.40040291</i>
   <i name="MODEL_ALPHA">      1.00000000</i>
  </separator>
  <separator name="linear response parameters" >
   <i type="logical" name="LEPSILON"> F  </i>
   <i type="logical" name="LRPA"> F  </i>
   <i type="logical" name="LNABLA"> F  </i>
   <i type="logical" name="LVEL"> F  </i>
   <i name="CSHIFT">      0.10000000</i>
   <i name="OMEGAMAX">     -1.00000000</i>
   <i name="DEG_THRESHOLD">      0.00200000</i>
   <i name="RTIME">     -0.10000000</i>
   <i name="WPLASMAI">      0.00000000</i>
   <v name="DFIELD">      0.00000000      0.00000000      0.00000000</v>
   <v name="WPLASMA">      0.00000000      0.00000000      0.00000000      0.00000000      0.00000000      0.00000000      0.00000000      0.00000000      0.00000000</v>
  </separator>
  <separator name="orbital magnetization" >
   <i type="logical" name="NUCIND"> F  </i>
   <v name="MAGPOS">      0.00000000      0.00000000      0.00000000</v>
   <i type="logical" name="LNICSALL"> T  </i>
   <i type="logical" name="ORBITALMAG"> F  </i>
   <i type="logical" name="LMAGBLOCH"> F  </i>
   <i type="logical" name="LCHIMAG"> F  </i>
   <i type="logical" name="LGAUGE"> T  </i>
   <i type="int" name="MAGATOM">     0</i>
   <v name="MAGDIPOL">      0.00000000      0.00000000      0.00000000</v>
   <v name="AVECCONST">      0.00000000      0.00000000      0.00000000</v>
  </separator>
  <separator name="response functions" >
   <i type="logical" name="LFINITE_TEMPERATURE"> F  </i>
   <i type="logical" name="LADDER"> F  </i>
   <i type="logical" name="LRPAFORCE"> F  </i>
   <i type="logical" name="LFXC"> F  </i>
   <i type="logical" name="LHARTREE"> T  </i>
   <i type="int" name="IBSE">     0</i>
   <v type="int" name="KPOINT">    -1     0     0     0</v>
   <i type="logical" name="LTCTC"> F  </i>
   <i type="logical" name="LTCTE"> F  </i>
   <i type="logical" name="LTETE"> F  </i>
   <i type="logical" name="LTRIPLET"> F  </i>
   <i type="logical" name="LFXCEPS"> F  </i>
   <i type="logical" name="LFXHEG"> F  </i>
   <i type="int" name="NATURALO">     2</i>
   <i type="logical" name="LHOLEGF"> F  </i>
   <i type="logical" name="L2ORDER"> F  </i>
   <i type="logical" name="LDMP1"> F  </i>
   <i type="logical" name="LMP2LT"> F  </i>
   <i type="logical" name="LSMP2LT"> F  </i>
   <i type="logical" name="LGWLF"> F  </i>
   <i name="ENCUTGW">     -2.00000000</i>
   <i name="ENCUTGWSOFT">     -2.00000000</i>
   <i name="ENCUTLF">     -1.00000000</i>
   <i type="logical" name="LESF_SPLINES"> F  </i>
   <i type="int" name="LMAXMP2">    -1</i>
   <i name="SCISSOR">      0.00000000</i>
   <i type="int" name="NOMEGA">     0</i>
   <i type="int" name="NOMEGAR">     0</i>
   <i type="int" name="NBANDSGW">    -1</i>
   <i type="int" name="NBANDSO">    -1</i>
   <i type="int" name="NBANDSV">    -1</i>
   <i type="int" name="NELMGW">     1</i>
   <i type="int" name="NELMHF">     1</i>
   <i type="int" name="DIM">     3</i>
   <i type="int" name="IESPILON">     4</i>
   <i type="int" name="ANTIRES">     0</i>
   <i name="OMEGAMAX">    -30.00000000</i>
   <i name="OMEGAMIN">    -30.00000000</i>
   <i name="OMEGATL">   -200.00000000</i>
   <i type="int" name="OMEGAGRID">     0</i>
   <i name="CSHIFT">     -0.10000000</i>
   <i type="logical" name="LSELFENERGY"> F  </i>
   <i type="logical" name="LSPECTRAL"> F  </i>
   <i type="logical" name="LSPECTRALGW"> F  </i>
   <i type="logical" name="LSINGLES"> F  </i>
   <i type="logical" name="LFERMIGW"> F  </i>
   <i type="logical" name="ODDONLYGW"> F  </i>
   <i type="logical" name="EVENONLYGW"> F  </i>
   <i type="int" name="NKREDLFX">     1</i>
   <i type="int" name="NKREDLFY">     1</i>
   <i type="int" name="NKREDLFZ">     1</i>
   <i type="int" name="MAXMEM">  2800</i>
   <i type="int" name="TELESCOPE">     0</i>
   <i type="int" name="NTAUPAR">    -1</i>
   <i type="int" name="NOMEGAPAR">    -1</i>
   <i name="DAMP_NEWTON">      0.80000001</i>
   <i name="LAMBDA">      1.00000000</i>
  </separator>
  <separator name="External order field" >
   <i name="OFIELD_KAPPA">      0.00000000</i>
   <v name="OFIELD_K">      0.00000000      0.00000000      0.00000000</v>
   <i name="OFIELD_Q6_NEAR">      0.00000000</i>
   <i name="OFIELD_Q6_FAR">      0.00000000</i>
   <i name="OFIELD_A">      0.00000000</i>
  </separator>
  <separator name="optional k-points parameters" >
   <i type="int" name="KPOINTS_OPT_MODE">     1</i>
   <i type="logical" name="LKPOINTS_OPT"> F  </i>
  </separator>
 </parameters>
 <atominfo>
  <atoms>       2 </atoms>
  <types>       1 </types>
  <array name="atoms" >
   <dimension dim="1">ion</dimension>
   <field type="string">element</field>
   <field type="int">atomtype</field>
   <set>
    <rc><c>Co</c><c>   1</c></rc>
    <rc><c>Co</c><c>   1</c></rc>
   </set>
  </array>
  <array name="atomtypes" >
   <dimension dim="1">type</dimension>
   <field type="int">atomspertype</field>
   <field type="string">element</field>
   <field>mass</field>
   <field>valence</field>
   <field type="string">pseudopotential</field>
   <set>
    <rc><c>   2</c><c>Co</c><c>     58.93300000</c><c>      9.00000000</c><c>  PAW_PBE Co 02Aug2007                  </c></rc>
   </set>
  </array>
 </atominfo>
 <structure name="initialpos" >
  <crystal>
   <varray name="basis" >
    <v>       2.47854007       0.00000000       0.00000000 </v>
    <v>      -1.23927004       2.14647867       0.00000000 </v>
    <v>       0.00000000       0.00000000       4.01017696 </v>
   </varray>
   <i name="volume">     21.33467637 </i>
   <varray name="rec_basis" >
    <v>       0.40346332       0.23293965       0.00000000 </v>
    <v>       0.00000000       0.46587931       0.00000000 </v>
    <v>       0.00000000       0.00000000       0.24936555 </v>
   </varray>
  </crystal>
  <varray name="positions" >
   <v>       0.00000000       0.00000000       0.00000000 </v>
   <v>       0.33333333       0.66666667       0.50000000 </v>
  </varray>
 </structure>
 <calculation>
  <scstep>
   <time name="dav">    0.42    0.42</time>
   <time name="total">    0.44    0.44</time>
   <energy>
    <i name="alphaZ">     79.41567083 </i>
    <i name="ewald">  -1530.28093412 </i>
    <i name="hartreedc">   -296.42019758 </i>
    <i name="XCdc">     35.74000450 </i>
    <i name="pawpsdc">   1439.98163886 </i>
    <i name="pawaedc">  -1545.88690193 </i>
    <i name="eentropy">     -0.00324089 </i>
    <i name="bandstr">    258.51716090 </i>
    <i name="atom">   1626.71546820 </i>
    <i name="e_fr_energy">     67.77866879 </i>
    <i name="e_wo_entrp">     67.78190968 </i>
    <i name="e_0_energy">     67.78028923 </i>
   </energy>
  </scstep>
  <scstep>
   <time name="dav">    0.39    0.39</time>
   <time name="total">    0.39    0.40</time>
   <energy>
    <i name="e_fr_energy">    -13.62707277 </i>
    <i name="e_wo_entrp">    -13.62529718 </i>
    <i name="e_0_energy">    -13.62618497 </i>
   </energy>
  </scstep>
  <scstep>
   <time name="dav">    0.47    0.48</time>
   <time name="total">    0.47    0.48</time>
   <energy>
    <i name="e_fr_energy">    -15.57800256 </i>
    <i name="e_wo_entrp">    -15.57589045 </i>
    <i name="e_0_energy">    -15.57694650 </i>
   </energy>
  </scstep>
  <scstep>
   <time name="dav">    0.54    0.54</time>
   <time name="total">    0.54    0.54</time>
   <energy>
    <i name="e_fr_energy">    -15.61391458 </i>
    <i name="e_wo_entrp">    -15.61182856 </i>
    <i name="e_0_energy">    -15.61287157 </i>
   </energy>
  </scstep>
  <scstep>
   <time name="dav">    0.48    0.48</time>
   <time name="total">    0.50    0.50</time>
   <energy>
    <i name="e_fr_energy">    -15.61414565 </i>
    <i name="e_wo_entrp">    -15.61205962 </i>
    <i name="e_0_energy">    -15.61310263 </i>
   </energy>
  </scstep>
  <scstep>
   <time name="dav">    0.41    0.41</time>
   <time name="total">    0.44    0.44</time>
   <energy>
    <i name="e_fr_energy">    -14.42311638 </i>
    <i name="e_wo_entrp">    -14.42072904 </i>
    <i name="e_0_energy">    -14.42192271 </i>
   </energy>
  </scstep>
  <scstep>
   <time name="dav">    0.43    0.44</time>
   <time name="total">    0.46    0.47</time>
   <energy>
    <i name="e_fr_energy">    -14.10663863 </i>
    <i name="e_wo_entrp">    -14.10371928 </i>
    <i name="e_0_energy">    -14.10517896 </i>
   </energy>
  </scstep>
  <scstep>
   <time name="dav">    0.52    0.52</time>
   <time name="total">    0.55    0.55</time>
   <energy>
    <i name="e_fr_energy">    -14.08421209 </i>
    <i name="e_wo_entrp">    -14.08175810 </i>
    <i name="e_0_energy">    -14.08298510 </i>
   </energy>
  </scstep>
  <scstep>
   <time name="dav">    0.54    0.54</time>
   <time name="total">    0.57    0.57</time>
   <energy>
    <i name="e_fr_energy">    -14.06921776 </i>
    <i name="e_wo_entrp">    -14.06680942 </i>
    <i name="e_0_energy">    -14.06801359 </i>
   </energy>
  </scstep>
  <scstep>
   <time name="dav">    0.52    0.52</time>
   <time name="total">    0.55    0.55</time>
   <energy>
    <i name="e_fr_energy">    -14.06867036 </i>
    <i name="e_wo_entrp">    -14.06620250 </i>
    <i name="e_0_energy">    -14.06743643 </i>
   </energy>
  </scstep>
  <scstep>
   <time name="dav">    0.54    0.54</time>
   <time name="total">    0.57    0.57</time>
   <energy>
    <i name="e_fr_energy">    -14.06864625 </i>
    <i name="e_wo_entrp">    -14.06612867 </i>
    <i name="e_0_energy">    -14.06738746 </i>
   </energy>
  </scstep>
  <scstep>
   <time name="dav">    0.42    0.42</time>
   <time name="total">    0.45    0.45</time>
   <energy>
    <i name="e_fr_energy">    -14.06864296 </i>
    <i name="e_wo_entrp">    -14.06612893 </i>
    <i name="e_0_energy">    -14.06738594 </i>
   </energy>
  </scstep>
  <scstep>
   <time name="dav">    0.32    0.32</time>
   <time name="total">    0.33    0.33</time>
   <energy>
    <i name="alphaZ">     79.41567083 </i>
    <i name="ewald">  -1530.28093412 </i>
    <i name="hartreedc">   -260.93639791 </i>
    <i name="XCdc">     32.99111035 </i>
    <i name="pawpsdc">   1826.75036598 </i>
    <i name="pawaedc">  -1932.99943063 </i>
    <i name="eentropy">     -0.00251924 </i>
    <i name="bandstr">    144.27802450 </i>
    <i name="atom">   1626.71546820 </i>
    <i name="e_fr_energy">    -14.06864201 </i>
    <i name="e_wo_entrp">    -14.06612278 </i>
    <i name="e_0_energy">    -14.06738240 </i>
   </energy>
  </scstep>
  <structure>
   <crystal>
    <varray name="basis" >
     <v>       2.47854007       0.00000000       0.00000000 </v>
     <v>      -1.23927004       2.14647867       0.00000000 </v>
     <v>       0.00000000       0.00000000       4.01017696 </v>
    </varray>
    <i name="volume">     21.33467637 </i>
    <varray name="rec_basis" >
     <v>       0.40346332       0.23293965       0.00000000 </v>
     <v>       0.00000000       0.46587931       0.00000000 </v>
     <v>       0.00000000       0.00000000       0.24936555 </v>
    </varray>
   </crystal>
   <varray name="positions" >
    <v>       0.00000000       0.00000000       0.00000000 </v>
    <v>       0.33333333       0.66666667       0.50000000 </v>
   </varray>
  </structure>
  <varray name="forces" >
   <v>       0.00000000       0.00000000       0.00000000 </v>
   <v>      -0.00000000      -0.00000000       0.00000000 </v>
  </varray>
  <varray name="stress" >
   <v>      39.10154560       0.00000000       0.00000000 </v>
   <v>       0.00000000      39.10154560      -0.00000000 </v>
   <v>       0.00000000      -0.00000000      35.18787155 </v>
  </varray>
  <energy>
   <i name="e_fr_energy">    -14.06864201 </i>
   <i name="e_wo_entrp">    -14.06612278 </i>
   <i name="e_0_energy">    -14.06738240 </i>
  </energy>
  <time name="totalsc">    6.49    6.64</time>
  <eigenvalues>
   <array>
    <dimension dim="1">band</dimension>
    <dimension dim="2">kpoint</dimension>
    <dimension dim="3">spin</dimension>
    <field>eigene</field>
    <field>occ</field>
    <set>
     <set comment="spin 1">
      <set comment="kpoint 1">
       <r>    1.4796    1.0000 </r>
       <r>    5.2624    1.0000 </r>
       <r>    7.8235    1.0000 </r>
       <r>    7.8446    1.0000 </r>
       <r>    7.8446    1.0000 </r>
       <r>    8.1634    1.0000 </r>
       <r>    8.1634    1.0000 </r>
       <r>    8.5261    1.0000 </r>
       <r>    8.5261    1.0000 </r>
       <r>    9.6502    1.0000 </r>
       <r>    9.6502    1.0000 </r>
       <r>   10.4009    0.8538 </r>
       <r>   16.9681    0.0000 </r>
       <r>   32.6202    0.0000 </r>
       <r>   35.3447    0.0000 </r>
       <r>   35.3447    0.0000 </r>
      </set>
      <set comment="kpoint 2">
       <r>    1.8331    1.0000 </r>
       <r>    5.4708    1.0000 </r>
       <r>    7.5506    1.0000 </r>
       <r>    8.0101    1.0000 </r>
       <r>    8.0400    1.0000 </r>
       <r>    8.1241    1.0000 </r>
       <r>    8.2692    1.0000 </r>
       <r>    8.3101    1.0000 </r>
       <r>    8.4242    1.0000 </r>
       <r>    8.7416    1.0000 </r>
       <r>    9.6927    1.0000 </r>
       <r>   11.8057    0.0000 </r>
       <r>   17.0298    0.0000 </r>
       <r>   30.0794    0.0000 </r>
       <r>   32.6855    0.0000 </r>
       <r>   32.9445    0.0000 </r>
      </set>
      <set comment="kpoint 3">
       <r>    2.8341    1.0000 </r>
       <r>    5.9217    1.0000 </r>
       <r>    7.2331    1.0000 </r>
       <r>    7.3314    1.0000 </r>
       <r>    7.8852    1.0000 </r>
       <r>    8.1900    1.0000 </r>
       <r>    8.4029    1.0000 </r>
       <r>    8.4644    1.0000 </r>
       <r>    8.4882    1.0000 </r>
       <r>    8.7077    1.0000 </r>
       <r>    9.7730    1.0000 </r>
       <r>   13.8215    0.0000 </r>
       <r>   17.2551    0.0000 </r>
       <r>   25.4505    0.0000 </r>
       <r>   29.8811    0.0000 </r>
       <r>   31.8070    0.0000 </r>
      </set>
      <set comment="kpoint 4">
       <r>    4.2277    1.0000 </r>
       <r>    6.0460    1.0000 </r>
       <r>    6.5599    1.0000 </r>
       <r>    7.2069    1.0000 </r>
       <r>    7.8989    1.0000 </r>
       <r>    7.9390    1.0000 </r>
       <r>    8.1693    1.0000 </r>
       <r>    9.0702    1.0000 </r>
       <r>    9.1560    1.0000 </r>
       <r>    9.2366    1.0000 </r>
       <r>    9.8361    1.0000 </r>
       <r>   16.1079    0.0000 </r>
       <r>   17.5989    0.0000 </r>
       <r>   21.3107    0.0000 </r>
       <r>   27.6021    0.0000 </r>
       <r>   28.8241    0.0000 </r>
      </set>
      <set comment="kpoint 5">
       <r>    5.3141    1.0000 </r>
       <r>    5.8269    1.0000 </r>
       <r>    6.0944    1.0000 </r>
       <r>    7.5869    1.0000 </r>
       <r>    7.7553    1.0000 </r>
       <r>    7.9934    1.0000 </r>
       <r>    8.1520    1.0000 </r>
       <r>    9.5849    1.0000 </r>
       <r>    9.7218    1.0000 </r>
       <r>    9.8698    1.0000 </r>
       <r>   10.3545    0.9910 </r>
       <r>   16.1211    0.0000 </r>
       <r>   18.5624    0.0000 </r>
       <r>   20.0939    0.0000 </r>
       <r>   25.4223    0.0000 </r>
       <r>   26.0631    0.0000 </r>
      </set>
      <set comment="kpoint 6">
       <r>    5.6353    1.0000 </r>
       <r>    5.6741    1.0000 </r>
       <r>    5.9394    1.0000 </r>
       <r>    7.6889    1.0000 </r>
       <r>    7.9278    1.0000 </r>
       <r>    7.9324    1.0000 </r>
       <r>    8.2640    1.0000 </r>
       <r>    9.7797    1.0000 </r>
       <r>    9.8797    1.0000 </r>
       <r>    9.9322    1.0000 </r>
       <r>   11.8198    0.0000 </r>
       <r>   13.8749    0.0000 </r>
       <r>   20.3036    0.0000 </r>
       <r>   20.9731    0.0000 </r>
       <r>   23.3708    0.0000 </r>
       <r>   24.6572    0.0000 </r>
      </set>
      <set comment="kpoint 7">
       <r>    2.5133    1.0000 </r>
       <r>    5.8194    1.0000 </r>
       <r>    7.2706    1.0000 </r>
       <r>    7.6175    1.0000 </r>
       <r>    7.9617    1.0000 </r>
       <r>    8.1473    1.0000 </r>
       <r>    8.2617    1.0000 </r>
       <r>    8.3482    1.0000 </r>
       <r>    8.5593    1.0000 </r>
       <r>    8.6422    1.0000 </r>
       <r>    9.7358    1.0000 </r>
       <r>   13.2565    0.0000 </r>
       <r>   17.1797    0.0000 </r>
       <r>   27.6159    0.0000 </r>
       <r>   28.2899    0.0000 </r>
       <r>   34.5287    0.0000 </r>
      </set>
      <set comment="kpoint 8">
       <r>    3.7420    1.0000 </r>
       <r>    6.1921    1.0000 </r>
       <r>    6.8434    1.0000 </r>
       <r>    6.9879    1.0000 </r>
       <r>    7.8722    1.0000 </r>
       <r>    7.8766    1.0000 </r>
       <r>    8.3664    1.0000 </r>
       <r>    8.6085    1.0000 </r>
       <r>    8.9284    1.0000 </r>
       <r>    9.2503    1.0000 </r>
       <r>    9.7805    1.0000 </r>
       <r>   15.2908    0.0000 </r>
       <r>   17.5583    0.0000 </r>
       <r>   23.3800    0.0000 </r>
       <r>   26.0049    0.0000 </r>
       <r>   30.8416    0.0000 </r>
      </set>
      <set comment="kpoint 9">
       <r>    5.0780    1.0000 </r>
       <r>    6.0740    1.0000 </r>
       <r>    6.2905    1.0000 </r>
       <r>    7.1341    1.0000 </r>
       <r>    7.7002    1.0000 </r>
       <r>    8.0412    1.0000 </r>
       <r>    8.1170    1.0000 </r>
       <r>    9.1606    1.0000 </r>
       <r>    9.4980    1.0000 </r>
       <r>    9.8111    1.0000 </r>
       <r>   10.1286    1.0000 </r>
       <r>   17.5768    0.0000 </r>
       <r>   17.6392    0.0000 </r>
       <r>   20.1641    0.0000 </r>
       <r>   24.4165    0.0000 </r>
       <r>   27.2317    0.0000 </r>
      </set>
      <set comment="kpoint 10">
       <r>    5.7166    1.0000 </r>
       <r>    5.8667    1.0000 </r>
       <r>    6.0107    1.0000 </r>
       <r>    7.5865    1.0000 </r>
       <r>    7.6406    1.0000 </r>
       <r>    7.9231    1.0000 </r>
       <r>    8.2579    1.0000 </r>
       <r>    9.6771    1.0000 </r>
       <r>    9.7986    1.0000 </r>
       <r>    9.8241    1.0000 </r>
       <r>   11.6094    0.0000 </r>
       <r>   14.9435    0.0000 </r>
       <r>   20.0345    0.0000 </r>
       <r>   20.8345    0.0000 </r>
       <r>   23.3928    0.0000 </r>
       <r>   24.2085    0.0000 </r>
      </set>
      <set comment="kpoint 11">
       <r>    5.0087    1.0000 </r>
       <r>    6.4164    1.0000 </r>
       <r>    6.4672    1.0000 </r>
       <r>    6.6405    1.0000 </r>
       <r>    7.6046    1.0000 </r>
       <r>    8.0021    1.0000 </r>
       <r>    8.2084    1.0000 </r>
       <r>    8.8122    1.0000 </r>
       <r>    9.5032    1.0000 </r>
       <r>    9.7545    1.0000 </r>
       <r>   10.1616    1.0000 </r>
       <r>   17.3318    0.0000 </r>
       <r>   18.1877    0.0000 </r>
       <r>   21.4800    0.0000 </r>
       <r>   22.0969    0.0000 </r>
       <r>   29.2453    0.0000 </r>
      </set>
      <set comment="kpoint 12">
       <r>    5.9771    1.0000 </r>
       <r>    6.1442    1.0000 </r>
       <r>    6.2680    1.0000 </r>
       <r>    6.8893    1.0000 </r>
       <r>    7.5133    1.0000 </r>
       <r>    7.9503    1.0000 </r>
       <r>    8.2545    1.0000 </r>
       <r>    9.2033    1.0000 </r>
       <r>    9.7314    1.0000 </r>
       <r>    9.8023    1.0000 </r>
       <r>   11.5617    0.0000 </r>
       <r>   17.1413    0.0000 </r>
       <r>   19.7270    0.0000 </r>
       <r>   19.8705    0.0000 </r>
       <r>   21.2337    0.0000 </r>
       <r>   26.1452    0.0000 </r>
      </set>
      <set comment="kpoint 13">
       <r>    6.0524    1.0000 </r>
       <r>    6.1512    1.0000 </r>
       <r>    6.1751    1.0000 </r>
       <r>    7.1933    1.0000 </r>
       <r>    7.5455    1.0000 </r>
       <r>    7.7843    1.0000 </r>
       <r>    8.3804    1.0000 </r>
       <r>    9.5499    1.0000 </r>
       <r>    9.7227    1.0000 </r>
       <r>    9.7494    1.0000 </r>
       <r>   13.2614    0.0000 </r>
       <r>   14.6855    0.0000 </r>
       <r>   19.8572    0.0000 </r>
       <r>   21.6510    0.0000 </r>
       <r>   21.9608    0.0000 </r>
       <r>   23.8959    0.0000 </r>
      </set>
      <set comment="kpoint 14">
       <r>    6.1000    1.0000 </r>
       <r>    6.3765    1.0000 </r>
       <r>    6.5343    1.0000 </r>
       <r>    6.7708    1.0000 </r>
       <r>    7.5068    1.0000 </r>
       <r>    7.7059    1.0000 </r>
       <r>    8.4731    1.0000 </r>
       <r>    9.3867    1.0000 </r>
       <r>    9.6720    1.0000 </r>
       <r>    9.7064    1.0000 </r>
       <r>   13.6799    0.0000 </r>
       <r>   16.6912    0.0000 </r>
       <r>   16.7270    0.0000 </r>
       <r>   22.1972    0.0000 </r>
       <r>   22.4431    0.0000 </r>
       <r>   25.0670    0.0000 </r>
      </set>
      <set comment="kpoint 15">
       <r>    1.6392    1.0000 </r>
       <r>    5.2328    1.0000 </r>
       <r>    7.7822    1.0000 </r>
       <r>    7.8023    1.0000 </r>
       <r>    7.8023    1.0000 </r>
       <r>    8.1198    1.0000 </r>
       <r>    8.1198    1.0000 </r>
       <r>    8.6252    1.0000 </r>
       <r>    8.6252    1.0000 </r>
       <r>    9.6417    1.0000 </r>
       <r>    9.6417    1.0000 </r>
       <r>    9.7824    1.0000 </r>
       <r>   17.8982    0.0000 </r>
       <r>   32.5557    0.0000 </r>
       <r>   34.8516    0.0000 </r>
       <r>   35.4501    0.0000 </r>
      </set>
      <set comment="kpoint 16">
       <r>    1.9890    1.0000 </r>
       <r>    5.4535    1.0000 </r>
       <r>    7.5537    1.0000 </r>
       <r>    7.9283    1.0000 </r>
       <r>    7.9488    1.0000 </r>
       <r>    7.9503    1.0000 </r>
       <r>    8.2585    1.0000 </r>
       <r>    8.4119    1.0000 </r>
       <r>    8.5542    1.0000 </r>
       <r>    8.7143    1.0000 </r>
       <r>    9.6781    1.0000 </r>
       <r>   11.2344    0.0000 </r>
       <r>   18.0321    0.0000 </r>
       <r>   30.1769    0.0000 </r>
       <r>   32.8442    0.0000 </r>
       <r>   32.8948    0.0000 </r>
      </set>
      <set comment="kpoint 17">
       <r>    2.9744    1.0000 </r>
       <r>    5.9395    1.0000 </r>
       <r>    7.1919    1.0000 </r>
       <r>    7.2690    1.0000 </r>
       <r>    7.8170    1.0000 </r>
       <r>    8.1497    1.0000 </r>
       <r>    8.2729    1.0000 </r>
       <r>    8.5452    1.0000 </r>
       <r>    8.6801    1.0000 </r>
       <r>    8.6891    1.0000 </r>
       <r>    9.7461    1.0000 </r>
       <r>   12.9222    0.0000 </r>
       <r>   18.4969    0.0000 </r>
       <r>   25.5871    0.0000 </r>
       <r>   30.0736    0.0000 </r>
       <r>   31.1076    0.0000 </r>
      </set>
      <set comment="kpoint 18">
       <r>    4.3165    1.0000 </r>
       <r>    6.0811    1.0000 </r>
       <r>    6.5317    1.0000 </r>
       <r>    7.1870    1.0000 </r>
       <r>    7.8048    1.0000 </r>
       <r>    7.9835    1.0000 </r>
       <r>    8.3076    1.0000 </r>
       <r>    9.0905    1.0000 </r>
       <r>    9.1502    1.0000 </r>
       <r>    9.1908    1.0000 </r>
       <r>    9.8011    1.0000 </r>
       <r>   14.6381    0.0000 </r>
       <r>   19.2720    0.0000 </r>
       <r>   21.4905    0.0000 </r>
       <r>   27.5767    0.0000 </r>
       <r>   27.8230    0.0000 </r>
      </set>
      <set comment="kpoint 19">
       <r>    5.2615    1.0000 </r>
       <r>    5.8230    1.0000 </r>
       <r>    6.2751    1.0000 </r>
       <r>    7.1899    1.0000 </r>
       <r>    7.8191    1.0000 </r>
       <r>    8.1427    1.0000 </r>
       <r>    8.5109    1.0000 </r>
       <r>    9.5867    1.0000 </r>
       <r>    9.6456    1.0000 </r>
       <r>    9.8532    1.0000 </r>
       <r>   10.2698    1.0000 </r>
       <r>   15.4298    0.0000 </r>
       <r>   18.3066    0.0000 </r>
       <r>   21.0705    0.0000 </r>
       <r>   24.4913    0.0000 </r>
       <r>   26.3048    0.0000 </r>
      </set>
      <set comment="kpoint 20">
       <r>    5.4556    1.0000 </r>
       <r>    5.6682    1.0000 </r>
       <r>    6.2624    1.0000 </r>
       <r>    7.2196    1.0000 </r>
       <r>    7.7570    1.0000 </r>
       <r>    8.2659    1.0000 </r>
       <r>    8.7470    1.0000 </r>
       <r>    9.7251    1.0000 </r>
       <r>    9.8377    1.0000 </r>
       <r>    9.9277    1.0000 </r>
       <r>   11.7044    0.0000 </r>
       <r>   13.7790    0.0000 </r>
       <r>   19.7265    0.0000 </r>
       <r>   20.0950    0.0000 </r>
       <r>   24.5430    0.0000 </r>
       <r>   25.5571    0.0000 </r>
      </set>
      <set comment="kpoint 21">
       <r>    2.6599    1.0000 </r>
       <r>    5.8272    1.0000 </r>
       <r>    7.2901    1.0000 </r>
       <r>    7.4355    1.0000 </r>
       <r>    7.9485    1.0000 </r>
       <r>    8.0310    1.0000 </r>
       <r>    8.2467    1.0000 </r>
       <r>    8.4122    1.0000 </r>
       <r>    8.6628    1.0000 </r>
       <r>    8.6713    1.0000 </r>
       <r>    9.7160    1.0000 </r>
       <r>   12.4667    0.0000 </r>
       <r>   18.3376    0.0000 </r>
       <r>   27.7360    0.0000 </r>
       <r>   28.4396    0.0000 </r>
       <r>   33.4051    0.0000 </r>
      </set>
      <set comment="kpoint 22">
       <r>    3.8594    1.0000 </r>
       <r>    6.2382    1.0000 </r>
       <r>    6.7463    1.0000 </r>
       <r>    7.0275    1.0000 </r>
       <r>    7.7480    1.0000 </r>
       <r>    7.9866    1.0000 </r>
       <r>    8.2826    1.0000 </r>
       <r>    8.6581    1.0000 </r>
       <r>    9.0086    1.0000 </r>
       <r>    9.2006    1.0000 </r>
       <r>    9.7696    1.0000 </r>
       <r>   14.0755    0.0000 </r>
       <r>   19.0577    0.0000 </r>
       <r>   23.5276    0.0000 </r>
       <r>   26.1637    0.0000 </r>
       <r>   29.7413    0.0000 </r>
      </set>
      <set comment="kpoint 23">
       <r>    5.1034    1.0000 </r>
       <r>    6.1086    1.0000 </r>
       <r>    6.3265    1.0000 </r>
       <r>    7.0651    1.0000 </r>
       <r>    7.7374    1.0000 </r>
       <r>    8.0594    1.0000 </r>
       <r>    8.2120    1.0000 </r>
       <r>    9.1453    1.0000 </r>
       <r>    9.5429    1.0000 </r>
       <r>    9.6750    1.0000 </r>
       <r>   10.1672    1.0000 </r>
       <r>   15.6597    0.0000 </r>
       <r>   19.1494    0.0000 </r>
       <r>   20.8749    0.0000 </r>
       <r>   24.5609    0.0000 </r>
       <r>   26.1479    0.0000 </r>
      </set>
      <set comment="kpoint 24">
       <r>    5.5634    1.0000 </r>
       <r>    5.8588    1.0000 </r>
       <r>    6.3144    1.0000 </r>
       <r>    7.1425    1.0000 </r>
       <r>    7.6748    1.0000 </r>
       <r>    8.2844    1.0000 </r>
       <r>    8.3864    1.0000 </r>
       <r>    9.6365    1.0000 </r>
       <r>    9.7390    1.0000 </r>
       <r>    9.8279    1.0000 </r>
       <r>   11.5933    0.0000 </r>
       <r>   14.7869    0.0000 </r>
       <r>   19.0442    0.0000 </r>
       <r>   21.1721    0.0000 </r>
       <r>   23.5249    0.0000 </r>
       <r>   24.4600    0.0000 </r>
      </set>
      <set comment="kpoint 25">
       <r>    5.0718    1.0000 </r>
       <r>    6.3290    1.0000 </r>
       <r>    6.5875    1.0000 </r>
       <r>    6.6691    1.0000 </r>
       <r>    7.6482    1.0000 </r>
       <r>    7.9859    1.0000 </r>
       <r>    8.1389    1.0000 </r>
       <r>    8.8423    1.0000 </r>
       <r>    9.5624    1.0000 </r>
       <r>    9.6072    1.0000 </r>
       <r>   10.2353    1.0000 </r>
       <r>   15.6279    0.0000 </r>
       <r>   20.0733    0.0000 </r>
       <r>   21.6337    0.0000 </r>
       <r>   22.2988    0.0000 </r>
       <r>   28.1346    0.0000 </r>
      </set>
      <set comment="kpoint 26">
       <r>    5.8833    1.0000 </r>
       <r>    6.2555    1.0000 </r>
       <r>    6.3262    1.0000 </r>
       <r>    6.8530    1.0000 </r>
       <r>    7.5935    1.0000 </r>
       <r>    7.9235    1.0000 </r>
       <r>    8.2714    1.0000 </r>
       <r>    9.2111    1.0000 </r>
       <r>    9.6062    1.0000 </r>
       <r>    9.8428    1.0000 </r>
       <r>   11.6277    0.0000 </r>
       <r>   16.6595    0.0000 </r>
       <r>   18.8199    0.0000 </r>
       <r>   20.6634    0.0000 </r>
       <r>   22.0878    0.0000 </r>
       <r>   25.1865    0.0000 </r>
      </set>
      <set comment="kpoint 27">
       <r>    5.8944    1.0000 </r>
       <r>    6.2005    1.0000 </r>
       <r>    6.4388    1.0000 </r>
       <r>    6.9884    1.0000 </r>
       <r>    7.5191    1.0000 </r>
       <r>    7.9394    1.0000 </r>
       <r>    8.4119    1.0000 </r>
       <r>    9.5536    1.0000 </r>
       <r>    9.5849    1.0000 </r>
       <r>    9.7835    1.0000 </r>
       <r>   13.3573    0.0000 </r>
       <r>   14.6825    0.0000 </r>
       <r>   19.7920    0.0000 </r>
       <r>   20.9105    0.0000 </r>
       <r>   21.1866    0.0000 </r>
       <r>   25.1142    0.0000 </r>
      </set>
      <set comment="kpoint 28">
       <r>    6.1275    1.0000 </r>
       <r>    6.3968    1.0000 </r>
       <r>    6.5875    1.0000 </r>
       <r>    6.7397    1.0000 </r>
       <r>    7.5566    1.0000 </r>
       <r>    7.6523    1.0000 </r>
       <r>    8.4620    1.0000 </r>
       <r>    9.4074    1.0000 </r>
       <r>    9.5370    1.0000 </r>
       <r>    9.7332    1.0000 </r>
       <r>   13.8057    0.0000 </r>
       <r>   16.7008    0.0000 </r>
       <r>   16.8425    0.0000 </r>
       <r>   20.8611    0.0000 </r>
       <r>   22.8916    0.0000 </r>
       <r>   24.0338    0.0000 </r>
      </set>
      <set comment="kpoint 29">
       <r>    2.1067    1.0000 </r>
       <r>    5.0719    1.0000 </r>
       <r>    7.6737    1.0000 </r>
       <r>    7.7404    1.0000 </r>
       <r>    7.7404    1.0000 </r>
       <r>    8.0104    1.0000 </r>
       <r>    8.0104    1.0000 </r>
       <r>    8.6361    1.0000 </r>
       <r>    8.8489    1.0000 </r>
       <r>    8.8489    1.0000 </r>
       <r>    9.6012    1.0000 </r>
       <r>    9.6012    1.0000 </r>
       <r>   20.0424    0.0000 </r>
       <r>   31.6348    0.0000 </r>
       <r>   33.0664    0.0000 </r>
       <r>   34.7236    0.0000 </r>
      </set>
      <set comment="kpoint 30">
       <r>    2.4455    1.0000 </r>
       <r>    5.3242    1.0000 </r>
       <r>    7.5778    1.0000 </r>
       <r>    7.6351    1.0000 </r>
       <r>    7.7098    1.0000 </r>
       <r>    7.8728    1.0000 </r>
       <r>    8.1474    1.0000 </r>
       <r>    8.2944    1.0000 </r>
       <r>    8.8029    1.0000 </r>
       <r>    8.8634    1.0000 </r>
       <r>    9.6223    1.0000 </r>
       <r>   10.3730    0.9673 </r>
       <r>   20.2456    0.0000 </r>
       <r>   30.4547    0.0000 </r>
       <r>   31.9704    0.0000 </r>
       <r>   33.0709    0.0000 </r>
      </set>
      <set comment="kpoint 31">
       <r>    3.3829    1.0000 </r>
       <r>    5.9035    1.0000 </r>
       <r>    6.9264    1.0000 </r>
       <r>    7.3312    1.0000 </r>
       <r>    7.6279    1.0000 </r>
       <r>    8.1191    1.0000 </r>
       <r>    8.1459    1.0000 </r>
       <r>    8.5145    1.0000 </r>
       <r>    8.8233    1.0000 </r>
       <r>    8.9603    1.0000 </r>
       <r>    9.6607    1.0000 </r>
       <r>   11.5809    0.0000 </r>
       <r>   20.8746    0.0000 </r>
       <r>   25.9924    0.0000 </r>
       <r>   29.8245    0.0000 </r>
       <r>   30.6424    0.0000 </r>
      </set>
      <set comment="kpoint 32">
       <r>    4.5675    1.0000 </r>
       <r>    6.0768    1.0000 </r>
       <r>    6.4887    1.0000 </r>
       <r>    7.1753    1.0000 </r>
       <r>    7.7389    1.0000 </r>
       <r>    8.1121    1.0000 </r>
       <r>    8.4501    1.0000 </r>
       <r>    9.0217    1.0000 </r>
       <r>    9.1865    1.0000 </r>
       <r>    9.2249    1.0000 </r>
       <r>    9.7067    1.0000 </r>
       <r>   12.8857    0.0000 </r>
       <r>   21.2968    0.0000 </r>
       <r>   22.3216    0.0000 </r>
       <r>   26.1329    0.0000 </r>
       <r>   28.4688    0.0000 </r>
      </set>
      <set comment="kpoint 33">
       <r>    5.2135    1.0000 </r>
       <r>    5.8267    1.0000 </r>
       <r>    6.4879    1.0000 </r>
       <r>    6.9027    1.0000 </r>
       <r>    8.0038    1.0000 </r>
       <r>    8.2042    1.0000 </r>
       <r>    9.2691    1.0000 </r>
       <r>    9.3862    1.0000 </r>
       <r>    9.6306    1.0000 </r>
       <r>    9.8188    1.0000 </r>
       <r>   10.0197    1.0000 </r>
       <r>   13.9880    0.0000 </r>
       <r>   18.4332    0.0000 </r>
       <r>   21.4571    0.0000 </r>
       <r>   24.8753    0.0000 </r>
       <r>   27.0060    0.0000 </r>
      </set>
      <set comment="kpoint 34">
       <r>    5.2902    1.0000 </r>
       <r>    5.7176    1.0000 </r>
       <r>    6.6470    1.0000 </r>
       <r>    6.7052    1.0000 </r>
       <r>    7.9568    1.0000 </r>
       <r>    8.3644    1.0000 </r>
       <r>    9.4661    1.0000 </r>
       <r>    9.5563    1.0000 </r>
       <r>    9.8335    1.0000 </r>
       <r>    9.9150    1.0000 </r>
       <r>   11.4213    0.0000 </r>
       <r>   13.4639    0.0000 </r>
       <r>   18.7817    0.0000 </r>
       <r>   18.9230    0.0000 </r>
       <r>   26.4818    0.0000 </r>
       <r>   26.6134    0.0000 </r>
      </set>
      <set comment="kpoint 35">
       <r>    3.0882    1.0000 </r>
       <r>    5.7637    1.0000 </r>
       <r>    7.1043    1.0000 </r>
       <r>    7.3525    1.0000 </r>
       <r>    7.6849    1.0000 </r>
       <r>    8.0730    1.0000 </r>
       <r>    8.1022    1.0000 </r>
       <r>    8.3943    1.0000 </r>
       <r>    8.8654    1.0000 </r>
       <r>    8.8832    1.0000 </r>
       <r>    9.6486    1.0000 </r>
       <r>   11.2534    0.0000 </r>
       <r>   20.6691    0.0000 </r>
       <r>   28.0893    0.0000 </r>
       <r>   28.8716    0.0000 </r>
       <r>   32.0135    0.0000 </r>
      </set>
      <set comment="kpoint 36">
       <r>    4.1964    1.0000 </r>
       <r>    6.2738    1.0000 </r>
       <r>    6.5655    1.0000 </r>
       <r>    7.1204    1.0000 </r>
       <r>    7.5975    1.0000 </r>
       <r>    8.0291    1.0000 </r>
       <r>    8.1774    1.0000 </r>
       <r>    8.7605    1.0000 </r>
       <r>    9.1366    1.0000 </r>
       <r>    9.1805    1.0000 </r>
       <r>    9.7283    1.0000 </r>
       <r>   12.4611    0.0000 </r>
       <r>   21.5152    0.0000 </r>
       <r>   23.9677    0.0000 </r>
       <r>   26.5942    0.0000 </r>
       <r>   28.3106    0.0000 </r>
      </set>
      <set comment="kpoint 37">
       <r>    5.1910    1.0000 </r>
       <r>    6.0935    1.0000 </r>
       <r>    6.4135    1.0000 </r>
       <r>    7.0629    1.0000 </r>
       <r>    7.7366    1.0000 </r>
       <r>    8.1348    1.0000 </r>
       <r>    8.4339    1.0000 </r>
       <r>    9.1201    1.0000 </r>
       <r>    9.4297    1.0000 </r>
       <r>    9.6639    1.0000 </r>
       <r>   10.2110    1.0000 </r>
       <r>   13.8441    0.0000 </r>
       <r>   19.8873    0.0000 </r>
       <r>   22.5577    0.0000 </r>
       <r>   24.6362    0.0000 </r>
       <r>   25.5735    0.0000 </r>
      </set>
      <set comment="kpoint 38">
       <r>    5.4297    1.0000 </r>
       <r>    5.9111    1.0000 </r>
       <r>    6.5976    1.0000 </r>
       <r>    6.8403    1.0000 </r>
       <r>    7.7004    1.0000 </r>
       <r>    8.4415    1.0000 </r>
       <r>    8.8764    1.0000 </r>
       <r>    9.3787    1.0000 </r>
       <r>    9.6773    1.0000 </r>
       <r>    9.8995    1.0000 </r>
       <r>   11.6037    0.0000 </r>
       <r>   14.2498    0.0000 </r>
       <r>   18.2335    0.0000 </r>
       <r>   20.2987    0.0000 </r>
       <r>   24.2849    0.0000 </r>
       <r>   26.0503    0.0000 </r>
      </set>
      <set comment="kpoint 39">
       <r>    5.2470    1.0000 </r>
       <r>    6.2066    1.0000 </r>
       <r>    6.7667    1.0000 </r>
       <r>    6.7770    1.0000 </r>
       <r>    7.6865    1.0000 </r>
       <r>    7.8551    1.0000 </r>
       <r>    8.0982    1.0000 </r>
       <r>    8.9607    1.0000 </r>
       <r>    9.3618    1.0000 </r>
       <r>    9.6883    1.0000 </r>
       <r>   10.3475    0.9948 </r>
       <r>   13.8106    0.0000 </r>
       <r>   22.0775    0.0000 </r>
       <r>   22.1390    0.0000 </r>
       <r>   23.1229    0.0000 </r>
       <r>   26.7763    0.0000 </r>
      </set>
      <set comment="kpoint 40">
       <r>    5.8159    1.0000 </r>
       <r>    6.2682    1.0000 </r>
       <r>    6.4708    1.0000 </r>
       <r>    6.9830    1.0000 </r>
       <r>    7.5543    1.0000 </r>
       <r>    7.9453    1.0000 </r>
       <r>    8.3410    1.0000 </r>
       <r>    9.1775    1.0000 </r>
       <r>    9.4059    1.0000 </r>
       <r>    9.9211    1.0000 </r>
       <r>   11.8229    0.0000 </r>
       <r>   15.3587    0.0000 </r>
       <r>   18.8469    0.0000 </r>
       <r>   21.1804    0.0000 </r>
       <r>   22.4593    0.0000 </r>
       <r>   25.2271    0.0000 </r>
      </set>
      <set comment="kpoint 41">
       <r>    5.8043    1.0000 </r>
       <r>    6.3123    1.0000 </r>
       <r>    6.6767    1.0000 </r>
       <r>    6.8390    1.0000 </r>
       <r>    7.4111    1.0000 </r>
       <r>    8.1200    1.0000 </r>
       <r>    8.5179    1.0000 </r>
       <r>    9.2617    1.0000 </r>
       <r>    9.5748    1.0000 </r>
       <r>    9.8368    1.0000 </r>
       <r>   13.6171    0.0000 </r>
       <r>   14.6609    0.0000 </r>
       <r>   19.1721    0.0000 </r>
       <r>   19.5509    0.0000 </r>
       <r>   21.1602    0.0000 </r>
       <r>   25.3198    0.0000 </r>
      </set>
      <set comment="kpoint 42">
       <r>    6.1967    1.0000 </r>
       <r>    6.4247    1.0000 </r>
       <r>    6.7191    1.0000 </r>
       <r>    6.7327    1.0000 </r>
       <r>    7.5275    1.0000 </r>
       <r>    7.6309    1.0000 </r>
       <r>    8.4423    1.0000 </r>
       <r>    9.1897    1.0000 </r>
       <r>    9.4967    1.0000 </r>
       <r>    9.7826    1.0000 </r>
       <r>   14.1408    0.0000 </r>
       <r>   16.5142    0.0000 </r>
       <r>   17.2844    0.0000 </r>
       <r>   19.7519    0.0000 </r>
       <r>   21.8763    0.0000 </r>
       <r>   22.5731    0.0000 </r>
      </set>
      <set comment="kpoint 43">
       <r>    2.8411    1.0000 </r>
       <r>    4.5831    1.0000 </r>
       <r>    7.5493    1.0000 </r>
       <r>    7.7264    1.0000 </r>
       <r>    7.7264    1.0000 </r>
       <r>    7.8026    1.0000 </r>
       <r>    7.8815    1.0000 </r>
       <r>    7.8815    1.0000 </r>
       <r>    9.1033    1.0000 </r>
       <r>    9.1033    1.0000 </r>
       <r>    9.5024    1.0000 </r>
       <r>    9.5024    1.0000 </r>
       <r>   22.7278    0.0000 </r>
       <r>   28.7629    0.0000 </r>
       <r>   33.0108    0.0000 </r>
       <r>   33.9591    0.0000 </r>
      </set>
      <set comment="kpoint 44">
       <r>    3.1620    1.0000 </r>
       <r>    4.8628    1.0000 </r>
       <r>    7.3385    1.0000 </r>
       <r>    7.4756    1.0000 </r>
       <r>    7.6515    1.0000 </r>
       <r>    7.8568    1.0000 </r>
       <r>    8.0142    1.0000 </r>
       <r>    8.0172    1.0000 </r>
       <r>    9.0725    1.0000 </r>
       <r>    9.1548    1.0000 </r>
       <r>    9.5043    1.0000 </r>
       <r>    9.8288    1.0000 </r>
       <r>   22.9603    0.0000 </r>
       <r>   29.0059    0.0000 </r>
       <r>   30.9876    0.0000 </r>
       <r>   32.3833    0.0000 </r>
      </set>
      <set comment="kpoint 45">
       <r>    4.0169    1.0000 </r>
       <r>    5.5135    1.0000 </r>
       <r>    6.8526    1.0000 </r>
       <r>    7.2962    1.0000 </r>
       <r>    7.5415    1.0000 </r>
       <r>    7.9605    1.0000 </r>
       <r>    8.1506    1.0000 </r>
       <r>    8.3774    1.0000 </r>
       <r>    9.0650    1.0000 </r>
       <r>    9.3262    1.0000 </r>
       <r>    9.5119    1.0000 </r>
       <r>   10.5351    0.0030 </r>
       <r>   23.6235    0.0000 </r>
       <r>   26.6500    0.0000 </r>
       <r>   28.5073    0.0000 </r>
       <r>   29.9696    0.0000 </r>
      </set>
      <set comment="kpoint 46">
       <r>    4.9384    1.0000 </r>
       <r>    5.7922    1.0000 </r>
       <r>    6.6433    1.0000 </r>
       <r>    7.0957    1.0000 </r>
       <r>    7.8578    1.0000 </r>
       <r>    8.3103    1.0000 </r>
       <r>    8.3706    1.0000 </r>
       <r>    8.8060    1.0000 </r>
       <r>    9.2958    1.0000 </r>
       <r>    9.5764    1.0000 </r>
       <r>    9.5963    1.0000 </r>
       <r>   11.4257    0.0000 </r>
       <r>   22.2885    0.0000 </r>
       <r>   23.8434    0.0000 </r>
       <r>   25.6818    0.0000 </r>
       <r>   29.4967    0.0000 </r>
      </set>
      <set comment="kpoint 47">
       <r>    5.2711    1.0000 </r>
       <r>    5.6818    1.0000 </r>
       <r>    6.5573    1.0000 </r>
       <r>    6.8731    1.0000 </r>
       <r>    8.2921    1.0000 </r>
       <r>    8.5222    1.0000 </r>
       <r>    9.0377    1.0000 </r>
       <r>    9.5882    1.0000 </r>
       <r>    9.6723    1.0000 </r>
       <r>    9.7739    1.0000 </r>
       <r>   10.1738    1.0000 </r>
       <r>   12.5140    0.0000 </r>
       <r>   18.9102    0.0000 </r>
       <r>   20.5703    0.0000 </r>
       <r>   27.0204    0.0000 </r>
       <r>   28.1056    0.0000 </r>
      </set>
      <set comment="kpoint 48">
       <r>    5.2810    1.0000 </r>
       <r>    5.6248    1.0000 </r>
       <r>    6.5409    1.0000 </r>
       <r>    6.7739    1.0000 </r>
       <r>    8.2690    1.0000 </r>
       <r>    8.7659    1.0000 </r>
       <r>    9.0819    1.0000 </r>
       <r>    9.8506    1.0000 </r>
       <r>    9.8958    1.0000 </r>
       <r>    9.8975    1.0000 </r>
       <r>   11.4229    0.0000 </r>
       <r>   12.8887    0.0000 </r>
       <r>   18.1149    0.0000 </r>
       <r>   18.1502    0.0000 </r>
       <r>   27.6082    0.0000 </r>
       <r>   28.8347    0.0000 </r>
      </set>
      <set comment="kpoint 49">
       <r>    3.7572    1.0000 </r>
       <r>    5.3489    1.0000 </r>
       <r>    6.9576    1.0000 </r>
       <r>    7.3497    1.0000 </r>
       <r>    7.5273    1.0000 </r>
       <r>    7.9109    1.0000 </r>
       <r>    8.0995    1.0000 </r>
       <r>    8.2765    1.0000 </r>
       <r>    9.0929    1.0000 </r>
       <r>    9.2348    1.0000 </r>
       <r>    9.5271    1.0000 </r>
       <r>   10.3322    0.9986 </r>
       <r>   23.4217    0.0000 </r>
       <r>   28.6540    0.0000 </r>
       <r>   29.3971    0.0000 </r>
       <r>   29.4616    0.0000 </r>
      </set>
      <set comment="kpoint 50">
       <r>    4.7056    1.0000 </r>
       <r>    5.8838    1.0000 </r>
       <r>    6.7167    1.0000 </r>
       <r>    7.1831    1.0000 </r>
       <r>    7.4769    1.0000 </r>
       <r>    7.8473    1.0000 </r>
       <r>    8.2859    1.0000 </r>
       <r>    8.6757    1.0000 </r>
       <r>    9.3011    1.0000 </r>
       <r>    9.4378    1.0000 </r>
       <r>    9.6812    1.0000 </r>
       <r>   11.1347    0.0000 </r>
       <r>   24.0724    0.0000 </r>
       <r>   24.7790    0.0000 </r>
       <r>   26.6429    0.0000 </r>
       <r>   27.7653    0.0000 </r>
      </set>
      <set comment="kpoint 51">
       <r>    5.3560    1.0000 </r>
       <r>    5.8716    1.0000 </r>
       <r>    6.6229    1.0000 </r>
       <r>    7.0674    1.0000 </r>
       <r>    7.8456    1.0000 </r>
       <r>    8.2268    1.0000 </r>
       <r>    8.5255    1.0000 </r>
       <r>    8.9041    1.0000 </r>
       <r>    9.5241    1.0000 </r>
       <r>    9.7904    1.0000 </r>
       <r>   10.3763    0.9599 </r>
       <r>   12.2878    0.0000 </r>
       <r>   20.6000    0.0000 </r>
       <r>   22.4531    0.0000 </r>
       <r>   25.7589    0.0000 </r>
       <r>   26.6877    0.0000 </r>
      </set>
      <set comment="kpoint 52">
       <r>    5.4377    1.0000 </r>
       <r>    5.8022    1.0000 </r>
       <r>    6.5827    1.0000 </r>
       <r>    6.9186    1.0000 </r>
       <r>    7.9134    1.0000 </r>
       <r>    8.7189    1.0000 </r>
       <r>    8.8754    1.0000 </r>
       <r>    9.2124    1.0000 </r>
       <r>    9.6819    1.0000 </r>
       <r>    9.9204    1.0000 </r>
       <r>   11.8530    0.0000 </r>
       <r>   13.3871    0.0000 </r>
       <r>   18.1026    0.0000 </r>
       <r>   19.2695    0.0000 </r>
       <r>   25.2376    0.0000 </r>
       <r>   27.6422    0.0000 </r>
      </set>
      <set comment="kpoint 53">
       <r>    5.4965    1.0000 </r>
       <r>    6.0213    1.0000 </r>
       <r>    6.9364    1.0000 </r>
       <r>    6.9907    1.0000 </r>
       <r>    7.5990    1.0000 </r>
       <r>    7.6164    1.0000 </r>
       <r>    8.2286    1.0000 </r>
       <r>    8.8132    1.0000 </r>
       <r>    9.5380    1.0000 </r>
       <r>    9.7966    1.0000 </r>
       <r>   10.5331    0.0036 </r>
       <r>   12.2808    0.0000 </r>
       <r>   22.7626    0.0000 </r>
       <r>   23.2432    0.0000 </r>
       <r>   24.3617    0.0000 </r>
       <r>   25.6704    0.0000 </r>
      </set>
      <set comment="kpoint 54">
       <r>    5.8391    1.0000 </r>
       <r>    6.1102    1.0000 </r>
       <r>    6.7147    1.0000 </r>
       <r>    7.2332    1.0000 </r>
       <r>    7.4131    1.0000 </r>
       <r>    7.9214    1.0000 </r>
       <r>    8.4348    1.0000 </r>
       <r>    8.8511    1.0000 </r>
       <r>    9.5890    1.0000 </r>
       <r>    9.9459    1.0000 </r>
       <r>   12.2068    0.0000 </r>
       <r>   13.9975    0.0000 </r>
       <r>   19.3955    0.0000 </r>
       <r>   21.1471    0.0000 </r>
       <r>   22.2673    0.0000 </r>
       <r>   24.3383    0.0000 </r>
      </set>
      <set comment="kpoint 55">
       <r>    5.8347    1.0000 </r>
       <r>    6.2088    1.0000 </r>
       <r>    6.6843    1.0000 </r>
       <r>    7.2017    1.0000 </r>
       <r>    7.3005    1.0000 </r>
       <r>    8.0934    1.0000 </r>
       <r>    8.6659    1.0000 </r>
       <r>    8.9437    1.0000 </r>
       <r>    9.6395    1.0000 </r>
       <r>    9.8372    1.0000 </r>
       <r>   13.9795    0.0000 </r>
       <r>   14.5723    0.0000 </r>
       <r>   18.4326    0.0000 </r>
       <r>   18.5653    0.0000 </r>
       <r>   21.8310    0.0000 </r>
       <r>   24.0159    0.0000 </r>
      </set>
      <set comment="kpoint 56">
       <r>    6.2783    1.0000 </r>
       <r>    6.4026    1.0000 </r>
       <r>    6.7951    1.0000 </r>
       <r>    6.8960    1.0000 </r>
       <r>    7.4293    1.0000 </r>
       <r>    7.6185    1.0000 </r>
       <r>    8.4557    1.0000 </r>
       <r>    8.8231    1.0000 </r>
       <r>    9.6170    1.0000 </r>
       <r>    9.7952    1.0000 </r>
       <r>   14.6359    0.0000 </r>
       <r>   15.9883    0.0000 </r>
       <r>   17.9664    0.0000 </r>
       <r>   19.2494    0.0000 </r>
       <r>   20.8387    0.0000 </r>
       <r>   21.3704    0.0000 </r>
      </set>
      <set comment="kpoint 57">
       <r>    3.7423    1.0000 </r>
       <r>    3.7423    1.0000 </r>
       <r>    7.5185    1.0000 </r>
       <r>    7.5185    1.0000 </r>
       <r>    7.7769    1.0000 </r>
       <r>    7.7769    1.0000 </r>
       <r>    7.7769    1.0000 </r>
       <r>    7.7769    1.0000 </r>
       <r>    9.3324    1.0000 </r>
       <r>    9.3324    1.0000 </r>
       <r>    9.3324    1.0000 </r>
       <r>    9.3324    1.0000 </r>
       <r>   25.6863    0.0000 </r>
       <r>   25.6863    0.0000 </r>
       <r>   33.3591    0.0000 </r>
       <r>   33.3591    0.0000 </r>
      </set>
      <set comment="kpoint 58">
       <r>    4.0415    1.0000 </r>
       <r>    4.0415    1.0000 </r>
       <r>    7.3090    1.0000 </r>
       <r>    7.3090    1.0000 </r>
       <r>    7.7941    1.0000 </r>
       <r>    7.7941    1.0000 </r>
       <r>    7.9101    1.0000 </r>
       <r>    7.9101    1.0000 </r>
       <r>    9.3165    1.0000 </r>
       <r>    9.3165    1.0000 </r>
       <r>    9.4699    1.0000 </r>
       <r>    9.4699    1.0000 </r>
       <r>   25.9314    0.0000 </r>
       <r>   25.9314    0.0000 </r>
       <r>   31.6275    0.0000 </r>
       <r>   31.6275    0.0000 </r>
      </set>
      <set comment="kpoint 59">
       <r>    4.7860    1.0000 </r>
       <r>    4.7860    1.0000 </r>
       <r>    7.0421    1.0000 </r>
       <r>    7.0421    1.0000 </r>
       <r>    7.7304    1.0000 </r>
       <r>    7.7304    1.0000 </r>
       <r>    8.2436    1.0000 </r>
       <r>    8.2436    1.0000 </r>
       <r>    9.3063    1.0000 </r>
       <r>    9.3063    1.0000 </r>
       <r>    9.8218    1.0000 </r>
       <r>    9.8218    1.0000 </r>
       <r>   26.4486    0.0000 </r>
       <r>   26.4486    0.0000 </r>
       <r>   27.7708    0.0000 </r>
       <r>   27.7708    0.0000 </r>
      </set>
      <set comment="kpoint 60">
       <r>    5.3702    1.0000 </r>
       <r>    5.3702    1.0000 </r>
       <r>    6.8884    1.0000 </r>
       <r>    6.8884    1.0000 </r>
       <r>    8.1245    1.0000 </r>
       <r>    8.1245    1.0000 </r>
       <r>    8.5535    1.0000 </r>
       <r>    8.5535    1.0000 </r>
       <r>    9.4326    1.0000 </r>
       <r>    9.4326    1.0000 </r>
       <r>   10.3257    0.9993 </r>
       <r>   10.3257    0.9993 </r>
       <r>   23.1915    0.0000 </r>
       <r>   23.1915    0.0000 </r>
       <r>   28.0320    0.0000 </r>
       <r>   28.0320    0.0000 </r>
      </set>
      <set comment="kpoint 61">
       <r>    5.4446    1.0000 </r>
       <r>    5.4446    1.0000 </r>
       <r>    6.7288    1.0000 </r>
       <r>    6.7288    1.0000 </r>
       <r>    8.6522    1.0000 </r>
       <r>    8.6522    1.0000 </r>
       <r>    9.0589    1.0000 </r>
       <r>    9.0589    1.0000 </r>
       <r>    9.7228    1.0000 </r>
       <r>    9.7228    1.0000 </r>
       <r>   11.2294    0.0000 </r>
       <r>   11.2294    0.0000 </r>
       <r>   19.6411    0.0000 </r>
       <r>   19.6411    0.0000 </r>
       <r>   29.4171    0.0000 </r>
       <r>   29.4254    0.0000 </r>
      </set>
      <set comment="kpoint 62">
       <r>    5.4162    1.0000 </r>
       <r>    5.4162    1.0000 </r>
       <r>    6.6594    1.0000 </r>
       <r>    6.6594    1.0000 </r>
       <r>    8.6604    1.0000 </r>
       <r>    8.6604    1.0000 </r>
       <r>    9.4105    1.0000 </r>
       <r>    9.4105    1.0000 </r>
       <r>    9.8730    1.0000 </r>
       <r>    9.8730    1.0000 </r>
       <r>   12.1115    0.0000 </r>
       <r>   12.1115    0.0000 </r>
       <r>   17.8877    0.0000 </r>
       <r>   17.8877    0.0000 </r>
       <r>   29.0559    0.0000 </r>
       <r>   29.0559    0.0000 </r>
      </set>
      <set comment="kpoint 63">
       <r>    4.5757    1.0000 </r>
       <r>    4.5757    1.0000 </r>
       <r>    7.1024    1.0000 </r>
       <r>    7.1024    1.0000 </r>
       <r>    7.6950    1.0000 </r>
       <r>    7.6950    1.0000 </r>
       <r>    8.1658    1.0000 </r>
       <r>    8.1658    1.0000 </r>
       <r>    9.3137    1.0000 </r>
       <r>    9.3137    1.0000 </r>
       <r>    9.7151    1.0000 </r>
       <r>    9.7151    1.0000 </r>
       <r>   26.3901    0.0000 </r>
       <r>   26.3901    0.0000 </r>
       <r>   29.3450    0.0000 </r>
       <r>   29.3450    0.0000 </r>
      </set>
      <set comment="kpoint 64">
       <r>    5.3047    1.0000 </r>
       <r>    5.3047    1.0000 </r>
       <r>    6.9854    1.0000 </r>
       <r>    6.9854    1.0000 </r>
       <r>    7.6180    1.0000 </r>
       <r>    7.6180    1.0000 </r>
       <r>    8.4735    1.0000 </r>
       <r>    8.4735    1.0000 </r>
       <r>    9.4636    1.0000 </r>
       <r>    9.4636    1.0000 </r>
       <r>   10.1653    1.0000 </r>
       <r>   10.1653    1.0000 </r>
       <r>   25.3611    0.0000 </r>
       <r>   25.3611    0.0000 </r>
       <r>   27.3785    0.0000 </r>
       <r>   27.3785    0.0000 </r>
      </set>
      <set comment="kpoint 65">
       <r>    5.5943    1.0000 </r>
       <r>    5.5943    1.0000 </r>
       <r>    6.8791    1.0000 </r>
       <r>    6.8791    1.0000 </r>
       <r>    8.1212    1.0000 </r>
       <r>    8.1212    1.0000 </r>
       <r>    8.6236    1.0000 </r>
       <r>    8.6236    1.0000 </r>
       <r>    9.7432    1.0000 </r>
       <r>    9.7432    1.0000 </r>
       <r>   11.0768    0.0000 </r>
       <r>   11.0768    0.0000 </r>
       <r>   21.4788    0.0000 </r>
       <r>   21.4788    0.0000 </r>
       <r>   27.0385    0.0000 </r>
       <r>   27.0385    0.0000 </r>
      </set>
      <set comment="kpoint 66">
       <r>    5.5811    1.0000 </r>
       <r>    5.5811    1.0000 </r>
       <r>    6.7631    1.0000 </r>
       <r>    6.7631    1.0000 </r>
       <r>    8.3629    1.0000 </r>
       <r>    8.3629    1.0000 </r>
       <r>    9.0796    1.0000 </r>
       <r>    9.0796    1.0000 </r>
       <r>    9.7976    1.0000 </r>
       <r>    9.7976    1.0000 </r>
       <r>   12.4971    0.0000 </r>
       <r>   12.4971    0.0000 </r>
       <r>   18.4979    0.0000 </r>
       <r>   18.4979    0.0000 </r>
       <r>   26.3816    0.0000 </r>
       <r>   26.3816    0.0000 </r>
      </set>
      <set comment="kpoint 67">
       <r>    5.7715    1.0000 </r>
       <r>    5.7715    1.0000 </r>
       <r>    7.0933    1.0000 </r>
       <r>    7.0933    1.0000 </r>
       <r>    7.4814    1.0000 </r>
       <r>    7.4814    1.0000 </r>
       <r>    8.4885    1.0000 </r>
       <r>    8.4885    1.0000 </r>
       <r>    9.7959    1.0000 </r>
       <r>    9.7959    1.0000 </r>
       <r>   11.1310    0.0000 </r>
       <r>   11.1310    0.0000 </r>
       <r>   23.5664    0.0000 </r>
       <r>   23.5664    0.0000 </r>
       <r>   24.4668    0.0000 </r>
       <r>   24.4668    0.0000 </r>
      </set>
      <set comment="kpoint 68">
       <r>    5.9467    1.0000 </r>
       <r>    5.9467    1.0000 </r>
       <r>    7.0027    1.0000 </r>
       <r>    7.0027    1.0000 </r>
       <r>    7.7101    1.0000 </r>
       <r>    7.7101    1.0000 </r>
       <r>    8.5754    1.0000 </r>
       <r>    8.5754    1.0000 </r>
       <r>    9.8345    1.0000 </r>
       <r>    9.8345    1.0000 </r>
       <r>   12.9131    0.0000 </r>
       <r>   12.9131    0.0000 </r>
       <r>   20.2152    0.0000 </r>
       <r>   20.2152    0.0000 </r>
       <r>   23.1721    0.0000 </r>
       <r>   23.1721    0.0000 </r>
      </set>
      <set comment="kpoint 69">
       <r>    5.9798    1.0000 </r>
       <r>    5.9798    1.0000 </r>
       <r>    6.9368    1.0000 </r>
       <r>    6.9368    1.0000 </r>
       <r>    7.7637    1.0000 </r>
       <r>    7.7637    1.0000 </r>
       <r>    8.7868    1.0000 </r>
       <r>    8.7868    1.0000 </r>
       <r>    9.7509    1.0000 </r>
       <r>    9.7509    1.0000 </r>
       <r>   14.3409    0.0000 </r>
       <r>   14.3409    0.0000 </r>
       <r>   18.1699    0.0000 </r>
       <r>   18.1699    0.0000 </r>
       <r>   22.8183    0.0000 </r>
       <r>   22.8183    0.0000 </r>
      </set>
      <set comment="kpoint 70">
       <r>    6.3487    1.0000 </r>
       <r>    6.3487    1.0000 </r>
       <r>    6.9054    1.0000 </r>
       <r>    6.9054    1.0000 </r>
       <r>    7.4973    1.0000 </r>
       <r>    7.4973    1.0000 </r>
       <r>    8.5653    1.0000 </r>
       <r>    8.5653    1.0000 </r>
       <r>    9.7353    1.0000 </r>
       <r>    9.7353    1.0000 </r>
       <r>   15.2778    0.0000 </r>
       <r>   15.2778    0.0000 </r>
       <r>   18.7460    0.0000 </r>
       <r>   18.7460    0.0000 </r>
       <r>   20.6396    0.0000 </r>
       <r>   20.6396    0.0000 </r>
      </set>
     </set>
     <set comment="spin 2">
      <set comment="kpoint 1">
       <r>    1.4968    1.0000 </r>
       <r>    6.2431    1.0000 </r>
       <r>    9.5033    1.0000 </r>
       <r>    9.5346    1.0000 </r>
       <r>    9.5346    1.0000 </r>
       <r>    9.9089    1.0000 </r>
       <r>    9.9089    1.0000 </r>
       <r>   10.3377    0.9977 </r>
       <r>   10.3377    0.9977 </r>
       <r>   10.3562    0.9897 </r>
       <r>   11.5817    0.0000 </r>
       <r>   11.5817    0.0000 </r>
       <r>   18.0238    0.0000 </r>
       <r>   32.3582    0.0000 </r>
       <r>   35.6490    0.0000 </r>
       <r>   35.7248    0.0000 </r>
      </set>
      <set comment="kpoint 2">
       <r>    1.8519    1.0000 </r>
       <r>    6.4814    1.0000 </r>
       <r>    9.1779    1.0000 </r>
       <r>    9.4740    1.0000 </r>
       <r>    9.7169    1.0000 </r>
       <r>    9.7516    1.0000 </r>
       <r>    9.8476    1.0000 </r>
       <r>   10.0704    1.0000 </r>
       <r>   10.2186    1.0000 </r>
       <r>   10.2515    1.0000 </r>
       <r>   11.6323    0.0000 </r>
       <r>   12.7668    0.0000 </r>
       <r>   18.0517    0.0000 </r>
       <r>   30.2636    0.0000 </r>
       <r>   33.0072    0.0000 </r>
       <r>   33.0378    0.0000 </r>
      </set>
      <set comment="kpoint 3">
       <r>    2.8685    1.0000 </r>
       <r>    7.0345    1.0000 </r>
       <r>    8.4741    1.0000 </r>
       <r>    8.7444    1.0000 </r>
       <r>    9.5353    1.0000 </r>
       <r>    9.9472    1.0000 </r>
       <r>   10.0262    1.0000 </r>
       <r>   10.2214    1.0000 </r>
       <r>   10.2326    1.0000 </r>
       <r>   10.5098    0.0213 </r>
       <r>   11.7264    0.0000 </r>
       <r>   14.6666    0.0000 </r>
       <r>   18.1698    0.0000 </r>
       <r>   25.8655    0.0000 </r>
       <r>   30.2016    0.0000 </r>
       <r>   31.9600    0.0000 </r>
      </set>
      <set comment="kpoint 4">
       <r>    4.3638    1.0000 </r>
       <r>    7.3212    1.0000 </r>
       <r>    7.7549    1.0000 </r>
       <r>    8.4927    1.0000 </r>
       <r>    9.4858    1.0000 </r>
       <r>    9.6585    1.0000 </r>
       <r>    9.7537    1.0000 </r>
       <r>   10.8971    0.0000 </r>
       <r>   10.9056    0.0000 </r>
       <r>   11.0977    0.0000 </r>
       <r>   11.7992    0.0000 </r>
       <r>   16.8400    0.0000 </r>
       <r>   18.3278    0.0000 </r>
       <r>   21.8990    0.0000 </r>
       <r>   27.8659    0.0000 </r>
       <r>   29.0594    0.0000 </r>
      </set>
      <set comment="kpoint 5">
       <r>    5.8633    1.0000 </r>
       <r>    7.1102    1.0000 </r>
       <r>    7.3315    1.0000 </r>
       <r>    8.5063    1.0000 </r>
       <r>    9.4483    1.0000 </r>
       <r>    9.5373    1.0000 </r>
       <r>    9.7517    1.0000 </r>
       <r>   11.4980    0.0000 </r>
       <r>   11.6451    0.0000 </r>
       <r>   11.8374    0.0000 </r>
       <r>   11.9474    0.0000 </r>
       <r>   16.8715    0.0000 </r>
       <r>   19.1578    0.0000 </r>
       <r>   20.6668    0.0000 </r>
       <r>   25.8320    0.0000 </r>
       <r>   26.2595    0.0000 </r>
      </set>
      <set comment="kpoint 6">
       <r>    6.5765    1.0000 </r>
       <r>    6.8770    1.0000 </r>
       <r>    7.1922    1.0000 </r>
       <r>    8.6305    1.0000 </r>
       <r>    9.3724    1.0000 </r>
       <r>    9.4556    1.0000 </r>
       <r>    9.8813    1.0000 </r>
       <r>   11.7212    0.0000 </r>
       <r>   11.8484    0.0000 </r>
       <r>   11.8901    0.0000 </r>
       <r>   13.1022    0.0000 </r>
       <r>   14.8920    0.0000 </r>
       <r>   20.7479    0.0000 </r>
       <r>   21.3866    0.0000 </r>
       <r>   23.9461    0.0000 </r>
       <r>   25.2509    0.0000 </r>
      </set>
      <set comment="kpoint 7">
       <r>    2.5394    1.0000 </r>
       <r>    6.8913    1.0000 </r>
       <r>    8.7334    1.0000 </r>
       <r>    8.8300    1.0000 </r>
       <r>    9.6354    1.0000 </r>
       <r>    9.8853    1.0000 </r>
       <r>    9.9989    1.0000 </r>
       <r>   10.0871    1.0000 </r>
       <r>   10.2311    1.0000 </r>
       <r>   10.4269    0.6247 </r>
       <r>   11.6825    0.0000 </r>
       <r>   14.1337    0.0000 </r>
       <r>   18.1313    0.0000 </r>
       <r>   27.9123    0.0000 </r>
       <r>   28.6757    0.0000 </r>
       <r>   34.4544    0.0000 </r>
      </set>
      <set comment="kpoint 8">
       <r>    3.8117    1.0000 </r>
       <r>    7.3950    1.0000 </r>
       <r>    8.0146    1.0000 </r>
       <r>    8.4127    1.0000 </r>
       <r>    9.4804    1.0000 </r>
       <r>    9.5540    1.0000 </r>
       <r>   10.0246    1.0000 </r>
       <r>   10.3785    0.9542 </r>
       <r>   10.7289    0.0000 </r>
       <r>   11.0577    0.0000 </r>
       <r>   11.7343    0.0000 </r>
       <r>   16.0721    0.0000 </r>
       <r>   18.3644    0.0000 </r>
       <r>   23.8609    0.0000 </r>
       <r>   26.3792    0.0000 </r>
       <r>   30.9575    0.0000 </r>
      </set>
      <set comment="kpoint 9">
       <r>    5.3730    1.0000 </r>
       <r>    7.3781    1.0000 </r>
       <r>    7.5192    1.0000 </r>
       <r>    8.3042    1.0000 </r>
       <r>    9.3389    1.0000 </r>
       <r>    9.6312    1.0000 </r>
       <r>    9.7254    1.0000 </r>
       <r>   10.9755    0.0000 </r>
       <r>   11.3760    0.0000 </r>
       <r>   11.7693    0.0000 </r>
       <r>   11.8667    0.0000 </r>
       <r>   18.2225    0.0000 </r>
       <r>   18.3075    0.0000 </r>
       <r>   20.7889    0.0000 </r>
       <r>   24.7620    0.0000 </r>
       <r>   27.5384    0.0000 </r>
      </set>
      <set comment="kpoint 10">
       <r>    6.5456    1.0000 </r>
       <r>    7.1082    1.0000 </r>
       <r>    7.2739    1.0000 </r>
       <r>    8.4160    1.0000 </r>
       <r>    9.2857    1.0000 </r>
       <r>    9.4695    1.0000 </r>
       <r>    9.8806    1.0000 </r>
       <r>   11.5801    0.0000 </r>
       <r>   11.7264    0.0000 </r>
       <r>   11.7839    0.0000 </r>
       <r>   12.9771    0.0000 </r>
       <r>   15.8366    0.0000 </r>
       <r>   20.5529    0.0000 </r>
       <r>   21.3008    0.0000 </r>
       <r>   23.7264    0.0000 </r>
       <r>   24.7032    0.0000 </r>
      </set>
      <set comment="kpoint 11">
       <r>    5.1981    1.0000 </r>
       <r>    7.6420    1.0000 </r>
[...]
       </set>
       <set comment="band 12">
        <r>  0.0665  0.0465  0.0000  0.0495  0.1578  0.0000  0.1196  0.0000  0.1064 </r>
        <r>  0.0000  0.0000  0.0456  0.0000  0.0000  0.1614  0.0000  0.1766  0.0000 </r>
       </set>
       <set comment="band 13">
        <r>  0.1779  0.0189  0.0000  0.1949  0.1236  0.0000  0.0369  0.0000  0.0941 </r>
        <r>  0.0000  0.0000  0.0473  0.0000  0.0000  0.0242  0.0000  0.1247  0.0000 </r>
       </set>
       <set comment="band 14">
        <r>  0.0000  0.0000  0.0473  0.0000  0.0000  0.0242  0.0000  0.1247  0.0000 </r>
        <r>  0.1779  0.0189  0.0000  0.1949  0.1236  0.0000  0.0369  0.0000  0.0941 </r>
       </set>
       <set comment="band 15">
        <r>  0.0532  0.3002  0.0004  0.0230  0.0320  0.0053  0.0757  0.0006  0.1054 </r>
        <r>  0.0021  0.0116  0.0102  0.0009  0.0012  0.1362  0.0029  0.0146  0.0041 </r>
       </set>
       <set comment="band 16">
        <r>  0.0021  0.0116  0.0102  0.0009  0.0012  0.1362  0.0029  0.0146  0.0041 </r>
        <r>  0.0532  0.3002  0.0004  0.0230  0.0320  0.0053  0.0757  0.0006  0.1054 </r>
       </set>
      </set>
      <set comment="kpoint 66">
       <set comment="band 1">
        <r>  0.0000  0.0000  0.0103  0.0000  0.0001  0.1193  0.0000  0.2731  0.0000 </r>
        <r>  0.1207  0.0188  0.0000  0.0097  0.2215  0.0000  0.0230  0.0001  0.0660 </r>
       </set>
       <set comment="band 2">
        <r>  0.1207  0.0188  0.0000  0.0097  0.2215  0.0000  0.0230  0.0001  0.0660 </r>
        <r>  0.0000  0.0000  0.0103  0.0000  0.0001  0.1193  0.0000  0.2731  0.0000 </r>
       </set>
       <set comment="band 3">
        <r>  0.0000  0.0000  0.0135  0.0000  0.0000  0.0709  0.0000  0.1275  0.0000 </r>
        <r>  0.0016  0.0127  0.0000  0.0244  0.3107  0.0000  0.2387  0.0000  0.1316 </r>
       </set>
       <set comment="band 4">
        <r>  0.0016  0.0127  0.0000  0.0244  0.3107  0.0000  0.2387  0.0000  0.1316 </r>
        <r>  0.0000  0.0000  0.0135  0.0000  0.0000  0.0709  0.0000  0.1275  0.0000 </r>
       </set>
       <set comment="band 5">
        <r>  0.0000  0.0000  0.0388  0.0000  0.0000  0.3037  0.0000  0.1681  0.0000 </r>
        <r>  0.0149  0.0353  0.0000  0.0998  0.0106  0.0000  0.1426  0.0000  0.0796 </r>
       </set>
       <set comment="band 6">
        <r>  0.0149  0.0353  0.0000  0.0998  0.0106  0.0000  0.1426  0.0000  0.0796 </r>
        <r>  0.0000  0.0000  0.0388  0.0000  0.0000  0.3037  0.0000  0.1681  0.0000 </r>
       </set>
       <set comment="band 7">
        <r>  0.0000  0.0000  0.0179  0.0000  0.0000  0.2717  0.0000  0.1436  0.0000 </r>
        <r>  0.0032  0.0198  0.0000  0.0533  0.0410  0.0000  0.1153  0.0000  0.2817 </r>
       </set>
       <set comment="band 8">
        <r>  0.0032  0.0198  0.0000  0.0533  0.0410  0.0000  0.1153  0.0000  0.2817 </r>
        <r>  0.0000  0.0000  0.0179  0.0000  0.0000  0.2717  0.0000  0.1436  0.0000 </r>
       </set>
       <set comment="band 9">
        <r>  0.0000  0.0000  0.0026  0.0000  0.0000  0.1085  0.0000  0.1125  0.0000 </r>
        <r>  0.0004  0.0017  0.0000  0.0005  0.1668  0.0000  0.3861  0.0000  0.2085 </r>
       </set>
       <set comment="band 10">
        <r>  0.0004  0.0017  0.0000  0.0005  0.1668  0.0000  0.3861  0.0000  0.2085 </r>
        <r>  0.0000  0.0000  0.0026  0.0000  0.0000  0.1085  0.0000  0.1125  0.0000 </r>
       </set>
       <set comment="band 11">
        <r>  0.0000  0.0000  0.0710  0.0000  0.0000  0.0677  0.0000  0.0684  0.0000 </r>
        <r>  0.0303  0.0833  0.0000  0.1713  0.1577  0.0000  0.0541  0.0000  0.1750 </r>
       </set>
       <set comment="band 12">
        <r>  0.0303  0.0833  0.0000  0.1713  0.1577  0.0000  0.0541  0.0000  0.1750 </r>
        <r>  0.0000  0.0000  0.0710  0.0000  0.0000  0.0677  0.0000  0.0684  0.0000 </r>
       </set>
       <set comment="band 13">
        <r>  0.3215  0.0044  0.0000  0.0743  0.1447  0.0000  0.0225  0.0000  0.0802 </r>
        <r>  0.0000  0.0000  0.0358  0.0000  0.0000  0.0422  0.0000  0.1606  0.0000 </r>
       </set>
       <set comment="band 14">
        <r>  0.0000  0.0000  0.0358  0.0000  0.0000  0.0422  0.0000  0.1606  0.0000 </r>
        <r>  0.3215  0.0044  0.0000  0.0743  0.1447  0.0000  0.0225  0.0000  0.0802 </r>
       </set>
       <set comment="band 15">
        <r>  0.0786  0.2914  0.0000  0.0689  0.0602  0.0001  0.0443  0.0000  0.0516 </r>
        <r>  0.0001  0.0002  0.0107  0.0001  0.0000  0.1245  0.0000  0.0330  0.0000 </r>
       </set>
       <set comment="band 16">
        <r>  0.0001  0.0002  0.0107  0.0001  0.0000  0.1245  0.0000  0.0330  0.0000 </r>
        <r>  0.0786  0.2914  0.0000  0.0689  0.0602  0.0001  0.0443  0.0000  0.0516 </r>
       </set>
      </set>
      <set comment="kpoint 67">
       <set comment="band 1">
        <r>  0.0004  0.0001  0.0731  0.0000  0.0001  0.2324  0.0000  0.0775  0.0000 </r>
        <r>  0.2362  0.0765  0.0001  0.0271  0.0471  0.0004  0.0073  0.0001  0.0229 </r>
       </set>
       <set comment="band 2">
        <r>  0.2362  0.0765  0.0001  0.0271  0.0471  0.0004  0.0073  0.0001  0.0229 </r>
        <r>  0.0004  0.0001  0.0731  0.0000  0.0001  0.2324  0.0000  0.0775  0.0000 </r>
       </set>
       <set comment="band 3">
        <r>  0.0000  0.0000  0.0233  0.0000  0.0000  0.0487  0.0000  0.0184  0.0000 </r>
        <r>  0.0237  0.0327  0.0000  0.0326  0.1883  0.0000  0.0841  0.0000  0.4646 </r>
       </set>
       <set comment="band 4">
        <r>  0.0237  0.0327  0.0000  0.0326  0.1883  0.0000  0.0841  0.0000  0.4646 </r>
        <r>  0.0000  0.0000  0.0233  0.0000  0.0000  0.0487  0.0000  0.0184  0.0000 </r>
       </set>
       <set comment="band 5">
        <r>  0.0000  0.0000  0.0009  0.0000  0.0000  0.0822  0.0000  0.1110  0.0000 </r>
        <r>  0.0013  0.0317  0.0000  0.0151  0.0759  0.0000  0.4795  0.0000  0.1373 </r>
       </set>
       <set comment="band 6">
        <r>  0.0013  0.0317  0.0000  0.0151  0.0759  0.0000  0.4795  0.0000  0.1373 </r>
        <r>  0.0000  0.0000  0.0009  0.0000  0.0000  0.0822  0.0000  0.1110  0.0000 </r>
       </set>
       <set comment="band 7">
        <r>  0.0000  0.0000  0.0011  0.0000  0.0000  0.2026  0.0000  0.5175  0.0000 </r>
        <r>  0.0036  0.0027  0.0000  0.0011  0.1353  0.0000  0.0067  0.0000  0.0946 </r>
       </set>
       <set comment="band 8">
        <r>  0.0036  0.0027  0.0000  0.0011  0.1353  0.0000  0.0067  0.0000  0.0946 </r>
        <r>  0.0000  0.0000  0.0011  0.0000  0.0000  0.2026  0.0000  0.5175  0.0000 </r>
       </set>
       <set comment="band 9">
        <r>  0.0000  0.0000  0.0019  0.0000  0.0000  0.1498  0.0000  0.1379  0.0000 </r>
        <r>  0.0000  0.0000  0.0000  0.0000  0.2841  0.0000  0.3192  0.0000  0.0985 </r>
       </set>
       <set comment="band 10">
        <r>  0.0000  0.0000  0.0000  0.0000  0.2841  0.0000  0.3192  0.0000  0.0985 </r>
        <r>  0.0000  0.0000  0.0019  0.0000  0.0000  0.1498  0.0000  0.1379  0.0000 </r>
       </set>
       <set comment="band 11">
        <r>  0.0000  0.0000  0.0499  0.0000  0.0000  0.2399  0.0000  0.0864  0.0000 </r>
        <r>  0.0764  0.0688  0.0000  0.0239  0.2356  0.0000  0.0493  0.0000  0.0994 </r>
       </set>
       <set comment="band 12">
        <r>  0.0764  0.0688  0.0000  0.0239  0.2356  0.0000  0.0493  0.0000  0.0994 </r>
        <r>  0.0000  0.0000  0.0499  0.0000  0.0000  0.2399  0.0000  0.0864  0.0000 </r>
       </set>
       <set comment="band 13">
        <r>  0.0000  0.0003  0.0661  0.0007  0.0003  0.0492  0.0000  0.0497  0.0009 </r>
        <r>  0.0019  0.0798  0.0002  0.2030  0.0851  0.0002  0.0111  0.0002  0.2552 </r>
       </set>
       <set comment="band 14">
        <r>  0.0019  0.0798  0.0002  0.2030  0.0851  0.0002  0.0111  0.0002  0.2552 </r>
        <r>  0.0000  0.0003  0.0661  0.0007  0.0003  0.0492  0.0000  0.0497  0.0009 </r>
       </set>
       <set comment="band 15">
        <r>  0.2313  0.2039  0.0000  0.0759  0.0108  0.0000  0.0932  0.0000  0.0130 </r>
        <r>  0.0000  0.0000  0.0037  0.0000  0.0000  0.1048  0.0000  0.0910  0.0000 </r>
       </set>
       <set comment="band 16">
        <r>  0.0000  0.0000  0.0037  0.0000  0.0000  0.1048  0.0000  0.0910  0.0000 </r>
        <r>  0.2313  0.2039  0.0000  0.0759  0.0108  0.0000  0.0932  0.0000  0.0130 </r>
       </set>
      </set>
      <set comment="kpoint 68">
       <set comment="band 1">
        <r>  0.0000  0.0000  0.0211  0.0000  0.0001  0.2422  0.0000  0.2059  0.0000 </r>
        <r>  0.1155  0.0503  0.0000  0.0171  0.1262  0.0001  0.0440  0.0001  0.0283 </r>
       </set>
       <set comment="band 2">
        <r>  0.1155  0.0503  0.0000  0.0171  0.1262  0.0001  0.0440  0.0001  0.0283 </r>
        <r>  0.0000  0.0000  0.0211  0.0000  0.0001  0.2422  0.0000  0.2059  0.0000 </r>
       </set>
       <set comment="band 3">
        <r>  0.0000  0.0000  0.0260  0.0000  0.0000  0.0911  0.0000  0.0141  0.0000 </r>
        <r>  0.0144  0.0257  0.0000  0.0360  0.2918  0.0000  0.1053  0.0000  0.3153 </r>
       </set>
       <set comment="band 4">
        <r>  0.0144  0.0257  0.0000  0.0360  0.2918  0.0000  0.1053  0.0000  0.3153 </r>
        <r>  0.0000  0.0000  0.0260  0.0000  0.0000  0.0911  0.0000  0.0141  0.0000 </r>
       </set>
       <set comment="band 5">
        <r>  0.0000  0.0000  0.0206  0.0000  0.0000  0.0816  0.0000  0.2156  0.0000 </r>
        <r>  0.0113  0.0471  0.0000  0.0716  0.0436  0.0000  0.2546  0.0000  0.1532 </r>
       </set>
       <set comment="band 6">
        <r>  0.0113  0.0471  0.0000  0.0716  0.0436  0.0000  0.2546  0.0000  0.1532 </r>
        <r>  0.0000  0.0000  0.0206  0.0000  0.0000  0.0816  0.0000  0.2156  0.0000 </r>
       </set>
       <set comment="band 7">
        <r>  0.0000  0.0000  0.0012  0.0000  0.0000  0.2543  0.0000  0.3074  0.0000 </r>
        <r>  0.0083  0.0030  0.0000  0.0063  0.1156  0.0000  0.0464  0.0000  0.2210 </r>
       </set>
       <set comment="band 8">
        <r>  0.0083  0.0030  0.0000  0.0063  0.1156  0.0000  0.0464  0.0000  0.2210 </r>
        <r>  0.0000  0.0000  0.0012  0.0000  0.0000  0.2543  0.0000  0.3074  0.0000 </r>
       </set>
       <set comment="band 9">
        <r>  0.0000  0.0000  0.0035  0.0000  0.0000  0.1719  0.0000  0.1264  0.0000 </r>
        <r>  0.0001  0.0026  0.0000  0.0007  0.1281  0.0000  0.5015  0.0000  0.0540 </r>
       </set>
       <set comment="band 10">
        <r>  0.0001  0.0026  0.0000  0.0007  0.1281  0.0000  0.5015  0.0000  0.0540 </r>
        <r>  0.0000  0.0000  0.0035  0.0000  0.0000  0.1719  0.0000  0.1264  0.0000 </r>
       </set>
       <set comment="band 11">
        <r>  0.0000  0.0000  0.0758  0.0000  0.0000  0.1043  0.0000  0.0440  0.0000 </r>
        <r>  0.0721  0.1152  0.0000  0.0858  0.2517  0.0000  0.0050  0.0000  0.1403 </r>
       </set>
       <set comment="band 12">
        <r>  0.0721  0.1152  0.0000  0.0858  0.2517  0.0000  0.0050  0.0000  0.1403 </r>
        <r>  0.0000  0.0000  0.0758  0.0000  0.0000  0.1043  0.0000  0.0440  0.0000 </r>
       </set>
       <set comment="band 13">
        <r>  0.1624  0.0060  0.0000  0.2168  0.0928  0.0000  0.0186  0.0001  0.1479 </r>
        <r>  0.0001  0.0000  0.0480  0.0001  0.0000  0.0194  0.0000  0.1357  0.0001 </r>
       </set>
       <set comment="band 14">
        <r>  0.0001  0.0000  0.0480  0.0001  0.0000  0.0194  0.0000  0.1357  0.0001 </r>
        <r>  0.1624  0.0060  0.0000  0.2168  0.0928  0.0000  0.0186  0.0001  0.1479 </r>
       </set>
       <set comment="band 15">
        <r>  0.2168  0.2394  0.0000  0.0180  0.0305  0.0000  0.0478  0.0000  0.0608 </r>
        <r>  0.0000  0.0000  0.0198  0.0000  0.0000  0.1370  0.0000  0.0401  0.0000 </r>
       </set>
       <set comment="band 16">
        <r>  0.0000  0.0000  0.0198  0.0000  0.0000  0.1370  0.0000  0.0401  0.0000 </r>
        <r>  0.2168  0.2394  0.0000  0.0180  0.0305  0.0000  0.0478  0.0000  0.0608 </r>
       </set>
      </set>
      <set comment="kpoint 69">
       <set comment="band 1">
        <r>  0.0000  0.0000  0.0031  0.0000  0.0000  0.1132  0.0000  0.3394  0.0000 </r>
        <r>  0.0781  0.0281  0.0000  0.0211  0.1735  0.0000  0.0510  0.0000  0.0633 </r>
       </set>
       <set comment="band 2">
        <r>  0.0781  0.0281  0.0000  0.0211  0.1735  0.0000  0.0510  0.0000  0.0633 </r>
        <r>  0.0000  0.0000  0.0031  0.0000  0.0000  0.1132  0.0000  0.3394  0.0000 </r>
       </set>
       <set comment="band 3">
        <r>  0.0000  0.0000  0.0098  0.0000  0.0000  0.1033  0.0000  0.1064  0.0000 </r>
        <r>  0.0013  0.0296  0.0000  0.0158  0.3227  0.0000  0.2264  0.0000  0.1157 </r>
       </set>
       <set comment="band 4">
        <r>  0.0013  0.0296  0.0000  0.0158  0.3227  0.0000  0.2264  0.0000  0.1157 </r>
        <r>  0.0000  0.0000  0.0098  0.0000  0.0000  0.1033  0.0000  0.1064  0.0000 </r>
       </set>
       <set comment="band 5">
        <r>  0.0000  0.0000  0.0399  0.0000  0.0000  0.2702  0.0000  0.1001  0.0000 </r>
        <r>  0.0175  0.0361  0.0000  0.1082  0.0898  0.0000  0.0451  0.0000  0.1739 </r>
       </set>
       <set comment="band 6">
        <r>  0.0175  0.0361  0.0000  0.1082  0.0898  0.0000  0.0451  0.0000  0.1739 </r>
        <r>  0.0000  0.0000  0.0399  0.0000  0.0000  0.2702  0.0000  0.1001  0.0000 </r>
       </set>
       <set comment="band 7">
        <r>  0.0000  0.0000  0.0054  0.0000  0.0000  0.2790  0.0000  0.1383  0.0000 </r>
        <r>  0.0007  0.0092  0.0000  0.0250  0.1486  0.0000  0.0175  0.0000  0.3368 </r>
       </set>
       <set comment="band 8">
        <r>  0.0007  0.0092  0.0000  0.0250  0.1486  0.0000  0.0175  0.0000  0.3368 </r>
        <r>  0.0000  0.0000  0.0054  0.0000  0.0000  0.2790  0.0000  0.1383  0.0000 </r>
       </set>
       <set comment="band 9">
        <r>  0.0000  0.0000  0.0013  0.0000  0.0000  0.1180  0.0000  0.1665  0.0000 </r>
        <r>  0.0007  0.0011  0.0000  0.0004  0.0435  0.0000  0.6162  0.0000  0.0394 </r>
       </set>
       <set comment="band 10">
        <r>  0.0007  0.0011  0.0000  0.0004  0.0435  0.0000  0.6162  0.0000  0.0394 </r>
        <r>  0.0000  0.0000  0.0013  0.0000  0.0000  0.1180  0.0000  0.1665  0.0000 </r>
       </set>
       <set comment="band 11">
        <r>  0.0000  0.0000  0.1043  0.0000  0.0000  0.0339  0.0000  0.0322  0.0000 </r>
        <r>  0.0088  0.0842  0.0000  0.2395  0.1036  0.0000  0.0076  0.0000  0.2459 </r>
       </set>
       <set comment="band 12">
        <r>  0.0088  0.0842  0.0000  0.2395  0.1036  0.0000  0.0076  0.0000  0.2459 </r>
        <r>  0.0000  0.0000  0.1043  0.0000  0.0000  0.0339  0.0000  0.0322  0.0000 </r>
       </set>
       <set comment="band 13">
        <r>  0.2809  0.0717  0.0000  0.0393  0.1732  0.0000  0.0133  0.0000  0.0623 </r>
        <r>  0.0000  0.0000  0.0296  0.0000  0.0000  0.0525  0.0000  0.1570  0.0000 </r>
       </set>
       <set comment="band 14">
        <r>  0.0000  0.0000  0.0296  0.0000  0.0000  0.0525  0.0000  0.1570  0.0000 </r>
        <r>  0.2809  0.0717  0.0000  0.0393  0.1732  0.0000  0.0133  0.0000  0.0623 </r>
       </set>
       <set comment="band 15">
        <r>  0.2179  0.1934  0.0000  0.0647  0.0679  0.0000  0.0399  0.0000  0.0227 </r>
        <r>  0.0001  0.0000  0.0207  0.0000  0.0000  0.1252  0.0000  0.0529  0.0000 </r>
       </set>
       <set comment="band 16">
        <r>  0.0001  0.0000  0.0207  0.0000  0.0000  0.1252  0.0000  0.0529  0.0000 </r>
        <r>  0.2179  0.1934  0.0000  0.0647  0.0679  0.0000  0.0399  0.0000  0.0227 </r>
       </set>
      </set>
      <set comment="kpoint 70">
       <set comment="band 1">
        <r>  0.0000  0.0000  0.0020  0.0000  0.0000  0.3807  0.0000  0.1270  0.0000 </r>
        <r>  0.0518  0.0382  0.0000  0.0319  0.0694  0.0001  0.0907  0.0000  0.0816 </r>
       </set>
       <set comment="band 2">
        <r>  0.0518  0.0382  0.0000  0.0319  0.0694  0.0001  0.0907  0.0000  0.0816 </r>
        <r>  0.0000  0.0000  0.0020  0.0000  0.0000  0.3807  0.0000  0.1270  0.0000 </r>
       </set>
       <set comment="band 3">
        <r>  0.0000  0.0000  0.0050  0.0000  0.0000  0.1125  0.0000  0.3067  0.0000 </r>
        <r>  0.0268  0.0189  0.0000  0.0388  0.0639  0.0000  0.1544  0.0000  0.1767 </r>
       </set>
       <set comment="band 4">
        <r>  0.0268  0.0189  0.0000  0.0388  0.0639  0.0000  0.1544  0.0000  0.1767 </r>
        <r>  0.0000  0.0000  0.0050  0.0000  0.0000  0.1125  0.0000  0.3067  0.0000 </r>
       </set>
       <set comment="band 5">
        <r>  0.0000  0.0000  0.0437  0.0000  0.0000  0.0157  0.0000  0.0470  0.0000 </r>
        <r>  0.0010  0.0883  0.0000  0.0512  0.3125  0.0000  0.0435  0.0000  0.2993 </r>
       </set>
       <set comment="band 6">
        <r>  0.0010  0.0883  0.0000  0.0512  0.3125  0.0000  0.0435  0.0000  0.2993 </r>
        <r>  0.0000  0.0000  0.0437  0.0000  0.0000  0.0157  0.0000  0.0470  0.0000 </r>
       </set>
       <set comment="band 7">
        <r>  0.0000  0.0000  0.0003  0.0000  0.0000  0.1884  0.0000  0.2678  0.0000 </r>
        <r>  0.0028  0.0062  0.0000  0.0026  0.2710  0.0000  0.0151  0.0000  0.2099 </r>
       </set>
       <set comment="band 8">
        <r>  0.0028  0.0062  0.0000  0.0026  0.2710  0.0000  0.0151  0.0000  0.2099 </r>
        <r>  0.0000  0.0000  0.0003  0.0000  0.0000  0.1884  0.0000  0.2678  0.0000 </r>
       </set>
       <set comment="band 9">
        <r>  0.0000  0.0000  0.0007  0.0000  0.0000  0.1606  0.0000  0.1280  0.0000 </r>
        <r>  0.0021  0.0010  0.0000  0.0003  0.0244  0.0000  0.6589  0.0000  0.0103 </r>
       </set>
       <set comment="band 10">
        <r>  0.0021  0.0010  0.0000  0.0003  0.0244  0.0000  0.6589  0.0000  0.0103 </r>
        <r>  0.0000  0.0000  0.0007  0.0000  0.0000  0.1606  0.0000  0.1280  0.0000 </r>
       </set>
       <set comment="band 11">
        <r>  0.0000  0.0000  0.1193  0.0000  0.0000  0.0451  0.0000  0.0190  0.0000 </r>
        <r>  0.0343  0.2131  0.0000  0.0847  0.2461  0.0000  0.0004  0.0000  0.1071 </r>
       </set>
       <set comment="band 12">
        <r>  0.0343  0.2131  0.0000  0.0847  0.2461  0.0000  0.0004  0.0000  0.1071 </r>
        <r>  0.0000  0.0000  0.1193  0.0000  0.0000  0.0451  0.0000  0.0190  0.0000 </r>
       </set>
       <set comment="band 13">
        <r>  0.0048  0.0978  0.0000  0.2457  0.0823  0.0000  0.0000  0.0000  0.2209 </r>
        <r>  0.0000  0.0000  0.0450  0.0001  0.0000  0.0799  0.0000  0.0586  0.0001 </r>
       </set>
       <set comment="band 14">
        <r>  0.0000  0.0000  0.0450  0.0001  0.0000  0.0799  0.0000  0.0586  0.0001 </r>
        <r>  0.0048  0.0978  0.0000  0.2457  0.0823  0.0000  0.0000  0.0000  0.2209 </r>
       </set>
       <set comment="band 15">
        <r>  0.4930  0.0382  0.0000  0.0128  0.0019  0.0000  0.0498  0.0000  0.0007 </r>
        <r>  0.0000  0.0000  0.0019  0.0000  0.0000  0.1105  0.0000  0.1381  0.0000 </r>
       </set>
       <set comment="band 16">
        <r>  0.0000  0.0000  0.0019  0.0000  0.0000  0.1105  0.0000  0.1381  0.0000 </r>
        <r>  0.4930  0.0382  0.0000  0.0128  0.0019  0.0000  0.0498  0.0000  0.0007 </r>
       </set>
      </set>
     </set>
    </set>
   </array>
  </projected>
 </calculation>
 <structure name="finalpos" >
  <crystal>
   <varray name="basis" >
    <v>       2.47854007       0.00000000       0.00000000 </v>
    <v>      -1.23927004       2.14647867       0.00000000 </v>
    <v>       0.00000000       0.00000000       4.01017696 </v>
   </varray>
   <i name="volume">     21.33467637 </i>
   <varray name="rec_basis" >
    <v>       0.40346332       0.23293965       0.00000000 </v>
    <v>       0.00000000       0.46587931       0.00000000 </v>
    <v>       0.00000000       0.00000000       0.24936555 </v>
   </varray>
  </crystal>
  <varray name="positions" >
   <v>       0.00000000       0.00000000       0.00000000 </v>
   <v>       0.33333333       0.66666667       0.50000000 </v>
  </varray>
 </structure>
</modeling>
