Co-hcc                                  
           1
     2.478540    0.000000    0.000000
    -1.239270    2.146479    0.000000
     0.000000    0.000000    4.010177
   Co
     2
Direct configuration=     1
   0.00000000  0.00000000  0.00000000
   0.33333333  0.66666667  0.50000000
