       N       E                     dE             d eps       ncg     rms          rms(c)
DAV:   1     0.222399876622E+02    0.22240E+02   -0.34850E+03  2916   0.770E+02
DAV:   2    -0.704482845501E+01   -0.29285E+02   -0.27371E+02  3116   0.136E+02
DAV:   3    -0.782263142810E+01   -0.77780E+00   -0.77553E+00  3304   0.253E+01
DAV:   4    -0.783086162118E+01   -0.82302E-02   -0.82280E-02  3624   0.228E+00
DAV:   5    -0.783102678260E+01   -0.16516E-03   -0.16516E-03  3604   0.287E-01    0.110E+01
DAV:   6    -0.722442465051E+01    0.60660E+00   -0.12494E+01  3720   0.458E+01    0.459E+00
DAV:   7    -0.702951785015E+01    0.19491E+00   -0.15435E+00  3568   0.149E+01    0.243E+00
DAV:   8    -0.701918501794E+01    0.10333E-01   -0.14448E-02  3884   0.988E-01    0.108E+00
DAV:   9    -0.701332876872E+01    0.58562E-02   -0.56863E-03  4492   0.599E-01    0.255E-01
DAV:  10    -0.701270344745E+01    0.62532E-03   -0.39613E-04  4336   0.124E-01    0.324E-02
DAV:  11    -0.701270017234E+01    0.32751E-05   -0.26966E-05  3672   0.510E-02    0.368E-02
DAV:  12    -0.701270034579E+01   -0.17344E-06   -0.18382E-06  3308   0.150E-02
   1 F= -.70127003E+01 E0= -.70119004E+01  d E =-.701270E+01  mag=     1.5967
