Pt-hcc                                  
   1.00000000000000     
     2.808032    0.000000    0.000000
    -1.404016    2.431827    0.000000
     0.000000    0.000000    4.864849
   Pt
     2
Direct
  0.000000  0.000000  0.000000
  0.333333  0.666667  0.500000
 
   40   40   72
  290.83      290.46      288.68      283.69      273.29      255.75      230.64      199.19      164.11      128.91    
  96.928      70.533      50.660      36.853      27.689      21.455      17.237      14.527      12.884      12.016    
  11.743      12.016      12.885      14.527      17.237      21.455      27.688      36.856      50.658      70.534    
  96.928      128.91      164.11      199.19      230.64      255.75      273.29      283.69      288.68      290.46    
  290.46      290.46      289.38      285.96      278.15      263.98      242.36      213.73      180.12      144.74    
  111.08      82.007      59.146      42.664      31.557      24.117      19.015      15.646      13.536      12.320    
  11.769      11.768      12.321      13.535      15.647      19.013      24.121      31.555      42.665      59.147    
  82.007      111.08      144.74      180.12      213.73      242.36      263.98      278.15      285.96      289.38    
  288.68      289.39      288.68      285.96      279.64      267.84      249.15      223.40      191.94      157.46    
  123.30      92.589      67.438      48.612      35.566      26.863      20.892      16.850      14.248      12.668    
  11.831      11.568      11.831      12.669      14.248      16.851      20.891      26.863      35.569      48.610    
  67.440      92.587      123.30      157.46      191.94      223.40      249.15      267.84      279.64      285.96    
  283.69      285.97      285.97      283.69      278.15      267.84      251.36      228.19      199.13      166.29    
  132.68      101.39      74.829      54.229      39.500      29.556      22.772      18.090      14.998      13.051    
  11.927      11.413      11.413      11.927      13.051      14.999      18.090      22.775      29.553      39.502    
  54.227      74.830      101.39      132.68      166.29      199.13      228.19      251.36      267.84      278.15    
  273.29      278.18      279.68      278.18      273.29      263.98      249.15      228.19      201.53      170.80    
  138.55      107.68      80.653      59.007      43.050      32.042      24.543      19.301      15.752      13.452    
  12.050      11.299      11.064      11.299      12.050      13.452      15.753      19.299      24.545      32.041    
  43.051      59.007      80.653      107.68      138.55      170.80      201.53      228.19      249.15      263.98    
  255.75      264.01      267.89      267.89      264.02      255.75      242.36      223.40      199.13      170.80    
  140.55      110.95      84.375      62.486      45.886      34.146      26.087      20.404      16.464      13.851    
  12.189      11.221      10.775      10.776      11.220      12.190      13.849      16.466      20.403      26.087    
  34.146      45.885      62.487      84.374      110.95      140.55      170.80      199.13      223.40      242.36    
  230.64      242.39      249.20      251.42      249.20      242.39      230.64      213.73      191.94      166.29    
  138.56      110.95      85.654      64.318      47.717      35.680      27.290      21.318      17.089      14.217    
  12.334      11.172      10.541      10.343      10.541      11.172      12.334      14.217      17.089      21.318    
  27.289      35.681      47.717      64.319      85.654      110.95      138.55      166.29      191.94      213.73    
  199.19      213.74      223.44      228.24      228.25      223.44      213.74      199.19      180.12      157.46    
  132.68      107.68      84.376      64.318      48.351      36.490      28.056      21.971      17.578      14.525    
  12.469      11.144      10.357      9.9913      9.9910      10.357      11.144      12.469      14.525      17.577    
  21.972      28.056      36.490      48.350      64.319      84.374      107.68      132.68      157.46      180.12    
  164.11      180.12      191.95      199.15      201.56      199.15      191.95      180.12      164.11      144.74    
  123.30      101.39      80.654      62.485      47.718      36.490      28.319      22.313      17.889      14.748    
  12.578      11.133      10.217      9.7142      9.5521      9.7142      10.217      11.132      12.578      14.748    
  17.888      22.313      28.319      36.490      47.717      62.487      80.653      101.39      123.30      144.74    
  128.91      144.72      157.43      166.27      170.78      170.78      166.27      157.43      144.72      128.91    
  111.08      92.588      74.831      59.006      45.887      35.679      28.056      22.313      17.996      14.864    
  12.650      11.128      10.120      9.5067      9.2162      9.2162      9.5068      10.120      11.129      12.650    
  14.865      17.995      22.313      28.056      35.681      45.885      59.007      74.830      92.587      111.08    
  96.928      111.04      123.24      132.61      138.48      140.48      138.48      132.61      123.24      111.04    
  96.928      82.007      67.439      54.227      43.052      34.145      27.291      21.971      17.889      14.864    
  12.675      11.128      10.062      9.3691      8.9764      8.8506      8.9763      9.3692      10.062      11.129    
  12.674      14.865      17.888      21.972      27.289      34.146      43.051      54.227      67.440      82.007    
  70.534      81.960      92.503      101.28      107.55      110.82      110.82      107.55      101.28      92.503    
  81.961      70.534      59.145      48.612      39.502      32.040      26.089      21.316      17.578      14.747    
  12.651      11.128      10.043      9.2995      8.8332      8.6076      8.6081      8.8329      9.3001      10.043    
  11.129      12.650      14.748      17.577      21.318      26.087      32.041      39.502      48.610      59.147    
  50.658      59.096      67.343      74.696      80.492      84.198      85.473      84.199      80.493      74.696    
  67.342      59.095      50.658      42.666      35.566      29.554      24.545      20.402      17.090      14.524    
  12.579      11.128      10.062      9.2997      8.7850      8.4870      8.3889      8.4871      8.7848      9.3001    
  10.062      11.129      12.578      14.525      17.089      20.403      24.545      29.553      35.569      42.665    
  36.856      42.617      48.515      54.088      58.833      62.288      64.109      64.108      62.287      58.832    
  54.088      48.517      42.619      36.854      31.554      26.866      22.772      19.300      16.466      14.216    
  12.470      11.132      10.120      9.3685      8.8333      8.4868      8.3166      8.3163      8.4871      8.8329    
  9.3692      10.120      11.132      12.469      14.217      16.466      19.299      22.775      26.863      31.555    
  27.688      31.515      35.484      39.372      42.882      45.686      47.499      48.127      47.500      45.688    
  42.883      39.372      35.481      31.514      27.691      24.119      20.890      18.091      15.751      13.850    
  12.335      11.144      10.217      9.5067      8.9768      8.6079      8.3889      8.3166      8.3889      8.6081    
  8.9763      9.5068      10.217      11.144      12.334      13.849      15.753      18.090      20.891      24.121    
  21.455      24.089      26.793      29.443      31.895      33.968      35.480      36.277      36.277      35.479    
  33.967      31.894      29.444      26.796      24.087      21.453      19.014      16.851      14.998      13.452    
  12.190      11.171      10.357      9.7135      9.2164      8.8500      8.6079      8.4868      8.4870      8.6076    
  8.8506      9.2162      9.7142      10.357      11.172      12.190      13.452      14.999      16.851      19.013    
  17.237      18.988      20.837      22.687      24.426      25.938      27.115      27.866      28.124      27.866    
  27.116      25.939      24.427      22.685      20.835      18.990      17.239      15.646      14.247      13.052    
  12.049      11.221      10.542      9.9912      9.5526      9.2164      8.9768      8.8333      8.7850      8.8332    
  8.9764      9.2162      9.5521      9.9910      10.541      11.220      12.050      13.051      14.248      15.647    
  14.527      15.629      16.810      18.023      19.207      20.285      21.179      21.818      22.152      22.151    
  21.817      21.177      20.284      19.208      18.025      16.810      15.628      14.526      13.536      12.669    
  11.926      11.299      10.776      10.343      9.9912      9.7135      9.5067      9.3685      9.2997      9.2995    
  9.3691      9.5067      9.7142      9.9913      10.343      10.776      11.299      11.927      12.669      13.535    
  12.885      13.521      14.217      14.949      15.684      16.378      16.984      17.459      17.761      17.865    
  17.761      17.460      16.986      16.377      15.683      14.949      14.217      13.522      12.885      12.320    
  11.830      11.413      11.064      10.776      10.542      10.357      10.217      10.120      10.062      10.043    
  10.062      10.120      10.217      10.357      10.541      10.775      11.064      11.413      11.831      12.321    
  12.016      12.310      12.645      13.015      13.401      13.785      14.140      14.438      14.653      14.766    
  14.765      14.652      14.437      14.140      13.786      13.402      13.015      12.646      12.309      12.015    
  11.768      11.568      11.413      11.299      11.221      11.171      11.144      11.132      11.128      11.128    
  11.128      11.128      11.133      11.144      11.172      11.221      11.299      11.413      11.568      11.768    
  11.743      11.758      11.812      11.898      12.012      12.144      12.280      12.408      12.512      12.581    
  12.605      12.581      12.513      12.408      12.280      12.143      12.012      11.898      11.811      11.759    
  11.744      11.768      11.830      11.926      12.049      12.190      12.335      12.470      12.579      12.651    
  12.675      12.650      12.578      12.469      12.334      12.189      12.050      11.927      11.831      11.769    
  12.016      11.759      11.550      11.389      11.268      11.185      11.133      11.102      11.088      11.083    
  11.082      11.082      11.083      11.088      11.102      11.132      11.185      11.269      11.389      11.551    
  11.759      12.015      12.320      12.669      13.052      13.452      13.850      14.216      14.524      14.747    
  14.864      14.864      14.748      14.525      14.217      13.851      13.452      13.051      12.668      12.320    
  12.884      12.309      11.812      11.389      11.036      10.746      10.511      10.327      10.189      10.092    
  10.036      10.017      10.036      10.093      10.189      10.327      10.511      10.746      11.036      11.389    
  11.811      12.309      12.885      13.536      14.247      14.998      15.751      16.466      17.090      17.578    
  17.889      17.996      17.889      17.578      17.089      16.464      15.752      14.998      14.248      13.536    
  14.527      13.522      12.645      11.898      11.268      10.745      10.316      9.9675      9.6945      9.4912    
  9.3562      9.2888      9.2886      9.3561      9.4911      9.6941      9.9675      10.315      10.746      11.269    
  11.898      12.646      13.522      14.526      15.646      16.851      18.091      19.300      20.402      21.316    
  21.971      22.313      22.313      21.971      21.318      20.404      19.301      18.090      16.850      15.646    
  17.237      15.628      14.218      13.015      12.012      11.186      10.511      9.9676      9.5358      9.2063    
  8.9726      8.8325      8.7860      8.8326      8.9726      9.2065      9.5361      9.9675      10.511      11.185    
  12.012      13.015      14.217      15.628      17.239      19.014      20.890      22.772      24.545      26.089    
  27.291      28.056      28.319      28.056      27.290      26.087      24.543      22.772      20.892      19.015    
  21.455      18.990      16.809      14.949      13.402      12.143      11.133      10.327      9.6945      9.2066    
  8.8486      8.6124      8.4946      8.4947      8.6124      8.8486      9.2065      9.6941      10.327      11.132    
  12.143      13.402      14.949      16.810      18.990      21.453      24.119      26.866      29.554      32.040    
  34.145      35.679      36.490      36.490      35.680      34.146      32.042      29.556      26.863      24.117    
  27.689      24.085      20.838      18.024      15.683      13.786      12.280      11.102      10.189      9.4909    
  8.9727      8.6123      8.3993      8.3286      8.3992      8.6124      8.9726      9.4911      10.189      11.102    
  12.280      13.786      15.683      18.025      20.835      24.087      27.691      31.554      35.566      39.502    
  43.052      45.887      47.718      48.351      47.717      45.886      43.050      39.500      35.566      31.557    
  36.853      31.517      26.793      22.685      19.209      16.376      14.141      12.408      11.088      10.093    
  9.3562      8.8326      8.4946      8.3284      8.3286      8.4947      8.8326      9.3561      10.093      11.088    
  12.408      14.140      16.377      19.208      22.685      26.796      31.514      36.854      42.666      48.612    
  54.227      59.006      62.485      64.318      64.318      62.486      59.007      54.229      48.612      42.664    
  50.660      42.617      35.482      29.446      24.425      20.286      16.984      14.437      12.513      11.083    
  10.036      9.2885      8.7862      8.4946      8.3993      8.4946      8.7860      9.2886      10.036      11.083    
  12.513      14.437      16.986      20.284      24.427      29.444      35.481      42.619      50.658      59.145    
  67.439      74.831      80.654      84.376      85.654      84.375      80.653      74.829      67.438      59.146    
  70.533      59.096      48.517      39.371      31.896      25.938      21.178      17.459      14.652      12.582    
  11.081      10.018      9.2885      8.8326      8.6123      8.6124      8.8325      9.2888      10.017      11.082    
  12.581      14.652      17.460      21.177      25.939      31.894      39.372      48.517      59.095      70.534    
  82.007      92.588      101.39      107.68      110.95      110.95      107.68      101.39      92.589      82.007    
  96.928      81.960      67.342      54.090      42.882      33.968      27.116      21.817      17.762      14.765    
  12.605      11.081      10.036      9.3562      8.9727      8.8486      8.9726      9.3562      10.036      11.082    
  12.605      14.765      17.761      21.817      27.116      33.967      42.883      54.088      67.342      81.961    
  96.928      111.08      123.30      132.68      138.56      140.55      138.55      132.68      123.30      111.08    
  128.91      111.04      92.504      74.695      58.833      45.687      35.479      27.867      22.151      17.866    
  14.765      12.582      11.083      10.093      9.4909      9.2066      9.2063      9.4912      10.092      11.083    
  12.581      14.766      17.865      22.151      27.866      35.479      45.688      58.832      74.696      92.503    
  111.04      128.91      144.74      157.46      166.29      170.80      170.80      166.29      157.46      144.74    
  164.11      144.72      123.24      101.28      80.493      62.288      47.500      36.277      28.125      22.151    
  17.762      14.652      12.513      11.088      10.189      9.6945      9.5358      9.6945      10.189      11.088    
  12.512      14.653      17.761      22.152      28.124      36.277      47.500      62.287      80.493      101.28    
  123.24      144.72      164.11      180.12      191.94      199.13      201.53      199.13      191.94      180.12    
  199.19      180.12      157.43      132.61      107.55      84.199      64.108      48.128      36.277      27.867    
  21.817      17.459      14.437      12.408      11.102      10.327      9.9676      9.9675      10.327      11.102    
  12.408      14.438      17.459      21.818      27.866      36.277      48.127      64.108      84.199      107.55    
  132.61      157.43      180.12      199.19      213.73      223.40      228.19      228.19      223.40      213.73    
  230.64      213.74      191.95      166.27      138.48      110.82      85.474      64.108      47.500      35.479    
  27.116      21.178      16.984      14.141      12.280      11.133      10.511      10.316      10.511      11.133    
  12.280      14.140      16.984      21.179      27.115      35.480      47.499      64.109      85.473      110.82    
  138.48      166.27      191.95      213.74      230.64      242.36      249.15      251.36      249.15      242.36    
  255.75      242.39      223.44      199.15      170.78      140.48      110.82      84.199      62.288      45.687    
  33.968      25.938      20.286      16.376      13.786      12.143      11.186      10.745      10.746      11.185    
  12.144      13.785      16.378      20.285      25.938      33.968      45.686      62.288      84.198      110.82    
  140.48      170.78      199.15      223.44      242.39      255.75      263.98      267.84      267.84      263.98    
  273.29      264.02      249.20      228.25      201.56      170.78      138.48      107.55      80.493      58.833    
  42.882      31.896      24.425      19.209      15.683      13.402      12.012      11.268      11.036      11.268    
  12.012      13.401      15.684      19.207      24.426      31.895      42.882      58.833      80.492      107.55    
  138.48      170.78      201.56      228.25      249.20      264.02      273.29      278.15      279.64      278.15    
  283.69      278.18      267.89      251.42      228.25      199.15      166.27      132.61      101.28      74.695    
  54.090      39.371      29.446      22.685      18.024      14.949      13.015      11.898      11.389      11.389    
  11.898      13.015      14.949      18.023      22.687      29.443      39.372      54.088      74.696      101.28    
  132.61      166.27      199.15      228.24      251.42      267.89      278.18      283.69      285.96      285.96    
  288.68      285.97      279.68      267.89      249.20      223.44      191.95      157.43      123.24      92.504    
  67.342      48.517      35.482      26.793      20.838      16.809      14.218      12.645      11.812      11.550    
  11.812      12.645      14.217      16.810      20.837      26.793      35.484      48.515      67.343      92.503    
  123.24      157.43      191.95      223.44      249.20      267.89      279.68      285.97      288.68      289.38    
  290.46      289.39      285.97      278.18      264.02      242.39      213.74      180.12      144.72      111.04    
  81.960      59.096      42.617      31.517      24.085      18.990      15.628      13.522      12.309      11.759    
  11.758      12.310      13.521      15.629      18.988      24.089      31.515      42.617      59.096      81.960    
  111.04      144.72      180.12      213.74      242.39      264.01      278.18      285.97      289.39      290.46    
  290.66      290.21      288.21      282.89      272.13      254.27      228.94      197.42      162.43      127.44    
  95.754      69.669      50.072      36.473      27.440      21.279      17.111      14.432      12.808      11.949    
  11.679      11.948      12.808      14.432      17.112      21.278      27.438      36.477      50.070      69.670    
  95.754      127.44      162.43      197.42      228.94      254.27      272.13      282.89      288.21      290.21    
  290.21      290.21      288.98      285.28      277.14      262.62      240.74      211.97      178.38      143.16    
  109.76      80.998      58.434      42.194      31.255      23.909      18.866      15.537      13.451      12.248    
  11.703      11.702      12.249      13.450      15.539      18.864      23.913      31.252      42.195      58.434    
  80.998      109.76      143.16      178.38      211.97      240.74      262.62      277.13      285.28      288.98    
  288.21      288.99      288.21      285.28      278.67      266.55      247.59      221.66      190.17      155.80    
  121.88      91.457      66.611      48.051      35.203      26.621      20.720      16.726      14.154      12.592    
  11.763      11.503      11.763      12.592      14.154      16.727      20.719      26.621      35.206      48.049    
  66.613      91.456      121.88      155.80      190.17      221.66      247.59      266.55      278.67      285.28    
  282.89      285.30      285.30      282.89      277.13      266.55      249.82      226.48      197.35      164.59    
  131.18      100.16      73.905      53.584      39.076      29.278      22.577      17.951      14.895      12.970    
  11.857      11.349      11.349      11.857      12.969      14.895      17.950      22.580      29.275      39.078    
  53.582      73.906      100.16      131.18      164.59      197.35      226.48      249.82      266.55      277.14    
  272.13      277.16      278.71      277.16      272.13      262.62      247.59      226.48      199.76      169.09    
  137.01      106.39      79.656      58.292      42.570      31.729      24.327      19.146      15.639      13.365    
  11.978      11.234      11.003      11.234      11.978      13.364      15.640      19.144      24.329      31.728    
  42.571      58.292      79.656      106.39      137.01      169.09      199.76      226.48      247.59      262.62    
  254.27      262.66      266.61      266.61      262.66      254.27      240.74      221.66      197.35      169.09    
  139.00      109.63      83.334      61.722      45.362      33.801      25.851      20.235      16.342      13.758    
  12.115      11.156      10.715      10.716      11.156      12.116      13.757      16.344      20.234      25.852    
  33.801      45.361      61.723      83.333      109.63      139.00      169.09      197.35      221.66      240.74    
  228.94      240.77      247.65      249.89      247.65      240.77      228.94      211.97      190.17      164.59    
  137.01      109.63      84.598      63.529      47.165      35.311      27.039      21.137      16.959      14.120    
  12.257      11.107      10.482      10.286      10.482      11.107      12.258      14.119      16.959      21.137    
  27.038      35.311      47.164      63.530      84.597      109.63      137.01      164.59      190.17      211.97    
  197.42      211.99      221.71      226.54      226.54      221.71      211.99      197.42      178.38      155.80    
  131.18      106.39      83.334      63.529      47.789      36.108      27.795      21.783      17.441      14.424    
  12.390      11.079      10.299      9.9365      9.9364      10.299      11.079      12.390      14.424      17.441    
  21.784      27.795      36.109      47.788      63.530      83.333      106.39      131.18      155.80      178.38    
  162.43      178.39      190.19      197.39      199.80      197.39      190.19      178.39      162.43      143.16    
  121.88      100.16      79.657      61.722      47.165      36.108      28.055      22.121      17.748      14.644    
  12.498      11.067      10.160      9.6614      9.5007      9.6614      10.160      11.067      12.498      14.644    
  17.747      22.121      28.054      36.108      47.164      61.723      79.656      100.16      121.88      143.16    
  127.44      143.15      155.79      164.58      169.09      169.08      164.59      155.79      143.15      127.44    
  109.76      91.457      73.907      58.291      45.363      35.310      27.796      22.120      17.854      14.759    
  12.569      11.063      10.064      9.4553      9.1673      9.1671      9.4556      10.063      11.063      12.569    
  14.759      17.853      22.121      27.795      35.312      45.361      58.292      73.906      91.456      109.76    
  95.754      109.73      121.83      131.12      136.95      138.94      136.95      131.12      121.83      109.73    
  95.754      80.999      66.611      53.582      42.572      33.800      27.040      21.783      17.748      14.759    
  12.593      11.062      10.006      9.3188      8.9291      8.8042      8.9291      9.3189      10.006      11.063    
  12.593      14.759      17.747      21.784      27.038      33.801      42.571      53.582      66.613      80.998    
  69.670      80.957      91.381      100.07      106.28      109.52      109.52      106.28      100.07      91.382    
  80.958      69.670      58.433      48.050      39.078      31.727      25.853      21.136      17.442      14.643    
  12.569      11.062      9.9875      9.2496      8.7871      8.5628      8.5635      8.7865      9.2503      9.9867    
  11.063      12.568      14.644      17.441      21.138      25.852      31.728      39.078      48.049      58.434    
  50.070      58.389      66.525      73.785      79.512      83.176      84.436      83.177      79.513      73.786    
  66.524      58.387      50.070      42.197      35.202      29.277      24.328      20.233      16.960      14.423    
  12.499      11.062      10.006      9.2499      8.7391      8.4432      8.3456      8.4433      8.7390      9.2502    
  10.006      11.063      12.498      14.424      16.959      20.234      24.329      29.276      35.205      42.195    
  36.477      42.151      47.962      53.455      58.134      61.543      63.339      63.339      61.542      58.133    
  53.455      47.964      42.153      36.474      31.251      26.624      22.577      19.145      16.343      14.119    
  12.391      11.066      10.064      9.3183      8.7869      8.4430      8.2738      8.2736      8.4431      8.7868    
  9.3188      10.064      11.067      12.391      14.120      16.344      19.144      22.580      26.621      31.252    
  27.438      31.215      35.128      38.959      42.417      45.180      46.966      47.584      46.967      45.181    
  42.418      38.959      35.125      31.215      27.442      23.911      20.718      17.952      15.638      13.757    
  12.258      11.079      10.160      9.4554      8.9295      8.5632      8.3457      8.2739      8.3457      8.5633    
  8.9290      9.4554      10.160      11.079      12.258      13.757      15.639      17.950      20.719      23.912    
  21.278      23.883      26.557      29.175      31.594      33.639      35.128      35.914      35.914      35.127    
  33.637      31.594      29.176      26.560      23.882      21.276      18.866      16.727      14.894      13.365    
  12.115      11.106      10.299      9.6608      9.1673      8.8036      8.5632      8.4429      8.4431      8.5631    
  8.8042      9.1673      9.6614      10.299      11.107      12.116      13.365      14.895      16.727      18.864    
  17.111      18.842      20.670      22.501      24.221      25.717      26.880      27.622      27.877      27.623    
  26.882      25.718      24.221      22.498      20.669      18.844      17.112      15.538      14.154      12.970    
  11.977      11.156      10.483      9.9365      9.5012      9.1673      8.9295      8.7870      8.7392      8.7869    
  8.9291      9.1671      9.5007      9.9362      10.482      11.155      11.978      12.970      14.154      15.539    
  14.432      15.523      16.691      17.892      19.062      20.128      21.013      21.645      21.975      21.975    
  21.644      21.011      20.127      19.063      17.893      16.691      15.522      14.431      13.451      12.592    
  11.857      11.235      10.715      10.286      9.9365      9.6608      9.4554      9.3182      9.2498      9.2499    
  9.3188      9.4555      9.6614      9.9368      10.286      10.716      11.234      11.857      12.592      13.450    
  12.808      13.438      14.128      14.853      15.580      16.267      16.867      17.337      17.636      17.739    
  17.636      17.338      16.868      16.266      15.579      14.852      14.128      13.439      12.809      12.249    
  11.763      11.349      11.002      10.715      10.483      10.299      10.160      10.064      10.006      9.9872    
  10.006      10.063      10.160      10.299      10.482      10.715      11.002      11.349      11.763      12.249    
  11.949      12.240      12.573      12.940      13.323      13.703      14.055      14.349      14.563      14.674    
  14.674      14.562      14.349      14.054      13.704      13.323      12.940      12.574      12.240      11.948    
  11.702      11.503      11.349      11.235      11.156      11.106      11.079      11.066      11.062      11.062    
  11.062      11.063      11.067      11.079      11.107      11.157      11.234      11.348      11.503      11.702    
  11.679      11.695      11.748      11.834      11.948      12.079      12.214      12.342      12.445      12.514    
  12.538      12.514      12.446      12.342      12.215      12.079      11.948      11.834      11.748      11.695    
  11.679      11.702      11.763      11.857      11.977      12.115      12.258      12.391      12.499      12.569    
  12.593      12.569      12.498      12.390      12.257      12.115      11.978      11.857      11.763      11.703    
  11.949      11.695      11.489      11.330      11.211      11.130      11.078      11.049      11.035      11.031    