    2    2  100    1
  0.1661017E+02  0.2808032E-09  0.2808032E-09  0.4864849E-09  0.5000000E-15
  1.000000000000000E-004
  CAR 
 Pt-hcc                                  
     32     70     24
 
  0.0000000E+00  0.0000000E+00  0.0000000E+00  0.1250000E-02
      1        -42.190210   1.000000
      2        -42.074347   1.000000
      3        -42.074346   1.000000
      4        -42.040421   1.000000
      5        -42.040420   1.000000
      6        -41.918109   1.000000
      7          1.029060   1.000000
      8          3.632924   1.000000
      9          6.607959   1.000000
     10          7.063565   1.000000
     11          7.063566   1.000000
     12          7.399590   1.000000
     13          7.399591   1.000000
     14          8.563155   1.000000
     15          8.563155   1.000000
     16          9.737389   1.000000
     17         10.020595   1.000000
     18         10.020595   1.000000
     19         14.599908   0.000000
     20         25.362696   0.000000
     21         25.907361   0.000000
     22         27.435969   0.000000
     23         30.683109   0.000000
     24         30.683110   0.000000
 
  0.1000000E+00 -0.6938894E-17  0.0000000E+00  0.7500000E-02
      1        -42.180694   1.000000
      2        -42.103724   1.000000
      3        -42.083040   1.000000
      4        -42.070889   1.000000
      5        -42.046525   1.000000
      6        -41.920464   1.000000
      7          1.372817   1.000000
      8          3.942091   1.000000
      9          6.544411   1.000000
     10          7.077411   1.000000
     11          7.265616   1.000000
     12          7.318701   1.000000
     13          7.641974   1.000000
     14          8.060362   1.000000
     15          8.408486   1.000000
     16          8.577389   1.000000
     17         10.076083   0.999869
     18         11.769400   0.000000
     19         14.571059   0.000000
     20         25.697702   0.000000
     21         26.407294   0.000000
     22         27.595480   0.000000
     23         29.213079   0.000000
     24         29.234779   0.000000
 
  0.2000000E+00 -0.1387779E-16  0.0000000E+00  0.7500000E-02
      1        -42.181270   1.000000
      2        -42.154014   1.000000
      3        -42.149740   1.000000
      4        -42.105081   1.000000
      5        -42.063355   1.000000
      6        -41.928060   1.000000
      7          2.315035   1.000000
      8          4.628598   1.000000
      9          6.332983   1.000000
     10          6.800111   1.000000
     11          6.817207   1.000000
     12          7.651509   1.000000
     13          8.040405   1.000000
     14          8.062880   1.000000
     15          8.092164   1.000000
     16          8.321152   1.000000
     17         10.165677   0.867998
     18         13.842753   0.000000
     19         14.526874   0.000000
     20         23.826580   0.000000
     21         26.860170   0.000000
     22         26.999908   0.000000
     23         27.950249   0.000000
     24         28.195374   0.000000
 
  0.3000000E+00  0.0000000E+00  0.0000000E+00  0.7500000E-02
      1        -42.278040   1.000000
      2        -42.244818   1.000000
      3        -42.132021   1.000000
      4        -42.116784   1.000000
      5        -42.084322   1.000000
      6        -41.941495   1.000000
      7          3.487250   1.000000
      8          4.769022   1.000000
      9          5.819083   1.000000
     10          6.577487   1.000000
     11          6.903093   1.000000
     12          7.623620   1.000000
     13          7.705127   1.000000
     14          8.710397   1.000000
     15          9.070955   1.000000
     16          9.279429   1.000000
     17         10.214551   0.395360
     18         14.685371   0.000000
     19         15.970302   0.000000
     20         20.126984   0.000000
     21         24.574627   0.000000
     22         25.410092   0.000000
     23         26.438553   0.000000
     24         27.857914   0.000000
 
  0.4000000E+00  0.2775558E-16  0.0000000E+00  0.7500000E-02
      1        -42.355127   1.000000
      2        -42.320135   1.000000
      3        -42.153133   1.000000
      4        -42.101126   1.000000
      5        -42.078481   1.000000
      6        -41.959791   1.000000
      7          4.162002   1.000000
      8          4.479134   1.000000
      9          5.213834   1.000000
     10          7.057984   1.000000
     11          7.280045   1.000000
     12          7.449712   1.000000
     13          7.662579   1.000000
     14         10.055448   0.999989
     15         10.216867   0.370365
     16         10.225843   0.279352
     17         10.448172   0.000000
     18         15.542249   0.000000
     19         16.549891   0.000000
     20         17.890154   0.000000
     21         22.105088   0.000000
     22         22.769653   0.000000
     23         23.984534   0.000000
     24         26.605645   0.000000
 
  0.5000000E+00  0.0000000E+00  0.0000000E+00  0.3750000E-02
      1        -42.384139   1.000000
      2        -42.349348   1.000000
      3        -42.161379   1.000000
      4        -42.107549   1.000000
      5        -42.059536   1.000000
      6        -41.971269   1.000000
      7          4.294262   1.000000
      8          4.330617   1.000000
      9          5.009194   1.000000
     10          7.155213   1.000000
     11          7.357990   1.000000
     12          7.538693   1.000000
     13          7.867202   1.000000
     14         10.225424   0.283349
     15         10.466579   0.000000
     16         10.650278   0.000000
     17         12.391110   0.000000
     18         13.776803   0.000000
     19         17.240323   0.000000
     20         18.837262   0.000000
     21         19.267050   0.000000
     22         22.041696   0.000000
     23         23.269504   0.000000
     24         26.078144   0.000000
 
  0.1000000E+00  0.1000000E+00  0.0000000E+00  0.7500000E-02
      1        -42.162592   1.000000
      2        -42.152413   1.000000
      3        -42.130836   1.000000
      4        -42.093752   1.000000
      5        -42.062099   1.000000
      6        -41.925399   1.000000
      7          2.023226   1.000000
      8          4.483387   1.000000
      9          6.297579   1.000000
     10          6.995531   1.000000
     11          7.176008   1.000000
     12          7.284074   1.000000
     13          7.857534   1.000000
     14          7.882427   1.000000
     15          8.183405   1.000000
     16          8.475519   1.000000
     17         10.095850   0.999006
     18         13.292585   0.000000
     19         14.536423   0.000000
     20         25.374607   0.000000
     21         25.776845   0.000000
     22         27.268237   0.000000
     23         28.205082   0.000000
     24         28.791660   0.000000
 
  0.2000000E+00  0.1000000E+00  0.0000000E+00  0.1500000E-01
      1        -42.232813   1.000000
      2        -42.211550   1.000000
      3        -42.130361   1.000000
      4        -42.124587   1.000000
      5        -42.086753   1.000000
      6        -41.935941   1.000000
      7          3.147563   1.000000
      8          5.074104   1.000000
      9          6.131161   1.000000
     10          6.199682   1.000000
     11          6.745950   1.000000
     12          7.432234   1.000000
     13          7.846325   1.000000
     14          8.139012   1.000000
     15          8.830247   1.000000
     16          9.197032   1.000000
     17         10.097145   0.998876
     18         14.611112   0.000000
     19         15.288191   0.000000
     20         22.004822   0.000000
     21         23.924388   0.000000
     22         26.375637   0.000000
     23         28.150994   0.000000
     24         28.504628   0.000000
 
  0.3000000E+00  0.1000000E+00  0.0000000E+00  0.1500000E-01
      1        -42.316876   1.000000
      2        -42.287270   1.000000
      3        -42.156660   1.000000
      4        -42.110673   1.000000
      5        -42.091581   1.000000
      6        -41.952848   1.000000
      7          4.188998   1.000000
      8          4.866346   1.000000
      9          5.483315   1.000000
     10          6.588848   1.000000
     11          7.160197   1.000000
     12          7.160390   1.000000
     13          7.689881   1.000000
     14          8.855142   1.000000
     15          9.820124   1.000000
     16         10.085697   0.999636
     17         10.509029   0.000000
     18         15.225084   0.000000
     19         17.348186   0.000000
     20         18.261456   0.000000
     21         21.892645   0.000000
     22         24.785556   0.000000
     23         24.881438   0.000000
     24         26.980596   0.000000
 
  0.4000000E+00  0.1000000E+00  0.0000000E+00  0.1500000E-01
      1        -42.368565   1.000000
      2        -42.334103   1.000000
      3        -42.176485   1.000000
      4        -42.125117   1.000000
      5        -42.059869   1.000000
      6        -41.971044   1.000000
      7          4.527871   1.000000
      8          4.614064   1.000000
      9          5.111600   1.000000
     10          7.110115   1.000000
     11          7.320770   1.000000
     12          7.325358   1.000000
     13          7.627762   1.000000
     14          9.980729   1.000000
     15         10.070600   0.999929
     16         10.321888   0.000481
     17         12.123040   0.000000
     18         14.954603   0.000000
     19         16.878207   0.000000
     20         18.989981   0.000000
     21         19.689593   0.000000
     22         22.004466   0.000000
     23         23.705049   0.000000
     24         25.987739   0.000000
 
  0.2000000E+00  0.2000000E+00  0.0000000E+00  0.7500000E-02
      1        -42.280076   1.000000
      2        -42.279740   1.000000
      3        -42.161159   1.000000
      4        -42.128110   1.000000
      5        -42.096249   1.000000
      6        -41.950468   1.000000
      7          4.314263   1.000000
      8          5.645101   1.000000
      9          5.670861   1.000000
     10          5.716102   1.000000
     11          6.942014   1.000000
     12          6.985743   1.000000
     13          7.868252   1.000000
     14          8.179081   1.000000
     15          9.807738   1.000000
     16          9.935125   1.000000
     17         10.584033   0.000000
     18         15.183219   0.000000
     19         17.213292   0.000000
     20         19.712866   0.000000
     21         20.636751   0.000000
     22         25.619641   0.000000
     23         26.449175   0.000000
     24         27.067941   0.000000
 
  0.3000000E+00  0.2000000E+00  0.0000000E+00  0.1500000E-01
      1        -42.331026   1.000000
      2        -42.307525   1.000000
      3        -42.203475   1.000000
      4        -42.163654   1.000000
      5        -42.060378   1.000000
      6        -41.970534   1.000000
      7          5.091744   1.000000
      8          5.316762   1.000000
      9          5.328491   1.000000
     10          6.388296   1.000000
     11          6.852269   1.000000
     12          7.423496   1.000000
     13          7.452792   1.000000
     14          8.904737   1.000000
     15          9.810928   1.000000
     16         10.207499   0.473724
     17         12.150248   0.000000
     18         16.155399   0.000000
     19         17.129532   0.000000
     20         18.771917   0.000000
     21         19.230335   0.000000
     22         23.452665   0.000000
     23         24.710041   0.000000
     24         25.626659   0.000000
 
  0.4000000E+00  0.2000000E+00  0.0000000E+00  0.7500000E-02
      1        -42.349847   1.000000
      2        -42.314856   1.000000
      3        -42.223936   1.000000
      4        -42.176912   1.000000
      5        -42.040046   1.000000
      6        -41.985285   1.000000
      7          5.188215   1.000000
      8          5.192582   1.000000
      9          5.211873   1.000000
     10          6.925602   1.000000
     11          6.977466   1.000000
     12          7.079041   1.000000
     13          7.700926   1.000000
     14          9.600960   1.000000
     15          9.765689   1.000000
     16         10.030701   1.000000
     17         13.723421   0.000000
     18         14.164588   0.000000
     19         17.491084   0.000000
     20         18.965901   0.000000
     21         20.422054   0.000000
     22         21.318412   0.000000
     23         23.771875   0.000000
     24         25.240731   0.000000
 
  0.3000000E+00  0.3000000E+00  0.0000000E+00  0.7500000E-02
      1        -42.319913   1.000000
      2        -42.293015   1.000000
      3        -42.254608   1.000000
      4        -42.220093   1.000000
      5        -42.028385   1.000000
      6        -41.994101   1.000000
      7          5.280908   1.000000
      8          5.625389   1.000000
      9          5.869904   1.000000
     10          6.283354   1.000000
     11          6.808931   1.000000
     12          7.056573   1.000000
     13          7.783640   1.000000
     14          9.234426   1.000000
     15          9.615448   1.000000
     16          9.886474   1.000000
     17         13.701110   0.000000
     18         14.966353   0.000000
     19         16.400473   0.000000
     20         19.722262   0.000000
     21         21.291468   0.000000
     22         22.425562   0.000000
     23         23.181226   0.000000
     24         23.651691   0.000000
 
  0.0000000E+00  0.0000000E+00  0.1250000E+00  0.2500000E-02
      1        -42.180042   1.000000
      2        -42.073060   1.000000
      3        -42.073059   1.000000
      4        -42.041861   1.000000
      5        -42.041860   1.000000
      6        -41.928931   1.000000
      7          1.156690   1.000000
      8          3.610232   1.000000
      9          6.577578   1.000000
     10          7.045427   1.000000
     11          7.045427   1.000000
     12          7.364030   1.000000
     13          7.364031   1.000000
     14          8.652952   1.000000
     15          8.652952   1.000000
     16          9.116801   1.000000
     17          9.994779   1.000000
     18          9.994779   1.000000
     19         15.470023   0.000000
     20         24.908464   0.000000
     21         26.361961   0.000000
     22         27.163728   0.000000
     23         30.274026   0.000000
     24         30.274026   0.000000
 
  0.1000000E+00 -0.6938894E-17  0.1250000E+00  0.1500000E-01
      1        -42.171769   1.000000
      2        -42.101623   1.000000
      3        -42.081555   1.000000
      4        -42.072642   1.000000
      5        -42.048163   1.000000
      6        -41.929996   1.000000
      7          1.498111   1.000000
      8          3.925686   1.000000
      9          6.547491   1.000000
     10          6.998097   1.000000
     11          7.173000   1.000000
     12          7.292364   1.000000
     13          7.602433   1.000000
     14          8.022604   1.000000
     15          8.514779   1.000000
     16          8.558511   1.000000
     17         10.040671   0.999998
     18         11.213865   0.000000
     19         15.568201   0.000000
     20         25.339588   0.000000
     21         26.720023   0.000000
     22         27.434421   0.000000
     23         28.687021   0.000000
     24         29.177307   0.000000
 
  0.2000000E+00 -0.1387779E-16  0.1250000E+00  0.1500000E-01
      1        -42.185849   1.000000
      2        -42.152625   1.000000
      3        -42.138834   1.000000
      4        -42.103446   1.000000
      5        -42.064823   1.000000
      6        -41.935358   1.000000
      7          2.426646   1.000000
      8          4.634635   1.000000
      9          6.362608   1.000000
     10          6.552632   1.000000
     11          6.830302   1.000000
     12          7.552529   1.000000
     13          7.892095   1.000000
     14          8.208673   1.000000
     15          8.279987   1.000000
     16          8.368930   1.000000
     17         10.110719   0.996224
     18         12.640612   0.000000
     19         16.011795   0.000000
     20         23.928679   0.000000
     21         26.746364   0.000000
     22         27.015307   0.000000
     23         27.443984   0.000000
     24         28.549810   0.000000
 
  0.3000000E+00  0.0000000E+00  0.1250000E+00  0.1500000E-01
      1        -42.279038   1.000000
      2        -42.247812   1.000000
      3        -42.130091   1.000000
      4        -42.107130   1.000000
      5        -42.086208   1.000000
      6        -41.946933   1.000000
      7          3.542680   1.000000
      8          4.794107   1.000000
      9          5.796597   1.000000
     10          6.428088   1.000000
     11          6.928618   1.000000
     12          7.718912   1.000000
     13          7.761910   1.000000
     14          8.759794   1.000000
     15          9.091257   1.000000
     16          9.235024   1.000000
     17         10.150662   0.938425
     18         13.672975   0.000000
     19         17.030404   0.000000
     20         20.384958   0.000000
     21         24.800879   0.000000
     22         24.934365   0.000000
     23         26.418941   0.000000
     24         28.267300   0.000000
 
  0.4000000E+00  0.2775558E-16  0.1250000E+00  0.1500000E-01
      1        -42.356063   1.000000
      2        -42.323186   1.000000
      3        -42.151065   1.000000
      4        -42.103171   1.000000
      5        -42.071846   1.000000
      6        -41.962859   1.000000
      7          4.105990   1.000000
      8          4.489307   1.000000
      9          5.351607   1.000000
     10          6.476091   1.000000
     11          7.470424   1.000000
     12          7.527935   1.000000
     13          8.182284   1.000000
     14          9.987824   1.000000
     15         10.070147   0.999933
     16         10.308641   0.001713
     17         10.366471   0.000003
     18         14.724030   0.000000
     19         16.591878   0.000000
     20         18.679861   0.000000
     21         21.846496   0.000000
     22         23.028616   0.000000
     23         24.294478   0.000000
     24         26.830559   0.000000
 
  0.5000000E+00  0.0000000E+00  0.1250000E+00  0.7500000E-02
      1        -42.385130   1.000000
      2        -42.352563   1.000000
      3        -42.159324   1.000000
      4        -42.109549   1.000000
      5        -42.054233   1.000000
      6        -41.972882   1.000000
      7          4.193548   1.000000
      8          4.321039   1.000000
      9          5.209576   1.000000
     10          6.537643   1.000000
     11          7.441376   1.000000
     12          7.609408   1.000000
     13          8.609270   1.000000
     14         10.064573   0.999965
     15         10.485376   0.000000
     16         10.644422   0.000000
     17         12.183008   0.000000
     18         13.681793   0.000000
     19         17.082301   0.000000
     20         17.756680   0.000000
     21         20.597590   0.000000
     22         22.312704   0.000000
     23         23.409253   0.000000
     24         26.349382   0.000000
 
  0.1000000E+00  0.1000000E+00  0.1250000E+00  0.1500000E-01
      1        -42.166175   1.000000
      2        -42.138673   1.000000
      3        -42.131877   1.000000
      4        -42.093271   1.000000
      5        -42.063646   1.000000
      6        -41.933514   1.000000
      7          2.141270   1.000000
      8          4.481849   1.000000
      9          6.326369   1.000000
     10          6.747760   1.000000
     11          7.077711   1.000000
     12          7.296136   1.000000
     13          7.795487   1.000000
     14          8.001275   1.000000
     15          8.268953   1.000000
     16          8.537413   1.000000
     17         10.048969   0.999995
     18         12.310536   0.000000
     19         15.845939   0.000000
     20         25.364313   0.000000
     21         25.855674   0.000000
     22         27.079966   0.000000
     23         27.746313   0.000000
     24         29.056676   0.000000
 
  0.2000000E+00  0.1000000E+00  0.1250000E+00  0.3000000E-01
      1        -42.234981   1.000000
      2        -42.213634   1.000000
      3        -42.124309   1.000000
      4        -42.119163   1.000000
      5        -42.088287   1.000000
      6        -41.942002   1.000000
      7          3.236642   1.000000
      8          5.104304   1.000000
      9          6.028078   1.000000
     10          6.193114   1.000000
     11          6.723209   1.000000
     12          7.334848   1.000000
     13          7.987856   1.000000
     14          8.124322   1.000000
     15          8.932575   1.000000
     16          9.149103   1.000000
     17         10.050427   0.999994
     18         13.404006   0.000000
     19         16.671360   0.000000
     20         22.178227   0.000000
     21         24.049851   0.000000
     22         26.220671   0.000000
     23         27.456545   0.000000
     24         29.164125   0.000000
 
  0.3000000E+00  0.1000000E+00  0.1250000E+00  0.3000000E-01
      1        -42.317652   1.000000
      2        -42.290060   1.000000
      3        -42.155487   1.000000
      4        -42.112710   1.000000
      5        -42.083528   1.000000
      6        -41.956305   1.000000
      7          4.181437   1.000000
      8          4.898038   1.000000
      9          5.536092   1.000000
     10          6.337914   1.000000
     11          7.124230   1.000000
     12          7.480165   1.000000
     13          7.703054   1.000000
     14          8.870442   1.000000
     15          9.863061   1.000000
     16          9.915909   1.000000
     17         10.561682   0.000000
     18         14.468592   0.000000
     19         17.575432   0.000000
     20         19.015450   0.000000
     21         21.980346   0.000000
     22         24.091556   0.000000
     23         25.434626   0.000000
     24         27.127883   0.000000
 
  0.4000000E+00  0.1000000E+00  0.1250000E+00  0.3000000E-01
      1        -42.369207   1.000000
      2        -42.337000   1.000000
      3        -42.174989   1.000000
      4        -42.127407   1.000000
      5        -42.054217   1.000000
      6        -41.972577   1.000000
      7          4.407453   1.000000
      8          4.618674   1.000000
      9          5.339902   1.000000
     10          6.481589   1.000000
     11          7.204569   1.000000
     12          7.723289   1.000000
     13          8.113033   1.000000
     14          9.879711   1.000000
     15          9.985842   1.000000
     16         10.360141   0.000006
     17         12.083916   0.000000
     18         14.800073   0.000000
     19         16.489450   0.000000
     20         18.840989   0.000000
     21         20.219970   0.000000
     22         22.263139   0.000000
     23         23.934810   0.000000
     24         26.019609   0.000000
 
  0.2000000E+00  0.2000000E+00  0.1250000E+00  0.1500000E-01
      1        -42.282266   1.000000
      2        -42.281009   1.000000
      3        -42.161091   1.000000
      4        -42.130485   1.000000
      5        -42.087482   1.000000
      6        -41.954028   1.000000
      7          4.351241   1.000000
      8          5.513151   1.000000
      9          5.734322   1.000000
     10          5.801874   1.000000
     11          6.952932   1.000000
     12          6.966477   1.000000
     13          7.758466   1.000000
     14          8.320786   1.000000
     15          9.742130   1.000000
     16          9.908177   1.000000
     17         10.648534   0.000000
     18         14.446169   0.000000
     19         17.815011   0.000000
     20         20.131519   0.000000
     21         20.788628   0.000000
     22         25.391571   0.000000
     23         25.616790   0.000000
     24         27.705127   0.000000
 
  0.3000000E+00  0.2000000E+00  0.1250000E+00  0.3000000E-01
      1        -42.331432   1.000000
      2        -42.310000   1.000000
      3        -42.203153   1.000000
      4        -42.165951   1.000000
      5        -42.054143   1.000000
      6        -41.971792   1.000000
      7          4.962369   1.000000
      8          5.342558   1.000000
      9          5.499638   1.000000
     10          6.209319   1.000000
     11          6.976003   1.000000
     12          7.325790   1.000000
     13          7.584154   1.000000
     14          8.961800   1.000000
     15          9.628632   1.000000
     16         10.299597   0.003783
     17         12.191369   0.000000
     18         16.150945   0.000000
     19         16.509272   0.000000
     20         18.835178   0.000000
     21         20.035578   0.000000
     22         22.961365   0.000000
     23         24.709589   0.000000
     24         25.560666   0.000000
 
  0.4000000E+00  0.2000000E+00  0.1250000E+00  0.1500000E-01
      1        -42.349895   1.000000
      2        -42.317623   1.000000
      3        -42.223398   1.000000
      4        -42.179515   1.000000
      5        -42.034934   1.000000
      6        -41.984955   1.000000
      7          4.928962   1.000000
      8          5.231381   1.000000
      9          5.584116   1.000000
     10          6.415374   1.000000
     11          6.848895   1.000000
     12          7.505657   1.000000
     13          7.856076   1.000000
     14          9.576355   1.000000
     15          9.624295   1.000000
     16         10.099228   0.998634
     17         13.805685   0.000000
     18         14.200776   0.000000
     19         17.524230   0.000000
     20         18.641358   0.000000
     21         19.612121   0.000000
     22         22.448509   0.000000
     23         24.003410   0.000000
     24         24.394123   0.000000
 
  0.3000000E+00  0.3000000E+00  0.1250000E+00  0.1500000E-01
      1        -42.319052   1.000000
      2        -42.295496   1.000000
      3        -42.255865   1.000000
      4        -42.222841   1.000000
      5        -42.024085   1.000000
      6        -41.992673   1.000000
      7          5.310215   1.000000
      8          5.607628   1.000000
      9          5.905415   1.000000
     10          6.181350   1.000000
     11          6.921755   1.000000
     12          6.962279   1.000000
     13          7.792685   1.000000
     14          9.319569   1.000000
     15          9.424246   1.000000
     16          9.971758   1.000000
     17         13.792700   0.000000
     18         15.106108   0.000000
     19         16.633107   0.000000
     20         18.872954   0.000000
     21         21.426208   0.000000
     22         21.571489   0.000000
     23         23.343022   0.000000
     24         24.663453   0.000000
 
  0.0000000E+00  0.0000000E+00  0.2500000E+00  0.2500000E-02
      1        -42.150789   1.000000
      2        -42.069674   1.000000
      3        -42.069673   1.000000
      4        -42.045460   1.000000
      5        -42.045459   1.000000
      6        -41.958409   1.000000
      7          1.524509   1.000000
      8          3.505739   1.000000
      9          6.509043   1.000000
     10          7.016486   1.000000
     11          7.016487   1.000000
     12          7.272914   1.000000
     13          7.272915   1.000000
     14          7.995168   1.000000
     15          8.886269   1.000000
     16          8.886269   1.000000
     17          9.906458   1.000000
     18          9.906458   1.000000
     19         17.359388   0.000000
     20         24.344716   0.000000
     21         26.540645   0.000000
     22         26.576521   0.000000
     23         29.854146   0.000000
     24         29.854146   0.000000
 
  0.1000000E+00 -0.6938894E-17  0.2500000E+00  0.1500000E-01
      1        -42.147446   1.000000
      2        -42.094291   1.000000
      3        -42.077654   1.000000
      4        -42.077515   1.000000
      5        -42.052111   1.000000
      6        -41.956748   1.000000
      7          1.859993   1.000000
      8          3.835274   1.000000
      9          6.535510   1.000000
     10          6.857031   1.000000
     11          6.933047   1.000000
     12          7.250847   1.000000
     13          7.505866   1.000000
     14          7.636891   1.000000
     15          8.778234   1.000000
     16          8.783400   1.000000
     17          9.926948   1.000000
     18         10.506819   0.000000
     19         17.520809   0.000000
     20         24.791617   0.000000
     21         26.797875   0.000000
     22         26.944292   0.000000
     23         28.397314   0.000000
     24         29.200426   0.000000
 
  0.2000000E+00 -0.1387779E-16  0.2500000E+00  0.1500000E-01
      1        -42.188432   1.000000
      2        -42.158912   1.000000
      3        -42.108532   1.000000
      4        -42.099092   1.000000
      5        -42.069347   1.000000
      6        -41.957091   1.000000
      7          2.750130   1.000000
      8          4.597854   1.000000
      9          6.202113   1.000000
     10          6.461713   1.000000
     11          6.619911   1.000000
     12          7.368463   1.000000
     13          7.815334   1.000000
     14          8.141017   1.000000
     15          8.650792   1.000000
     16          8.679134   1.000000
     17          9.948385   1.000000
     18         11.463235   0.000000
     19         18.001008   0.000000
     20         24.228576   0.000000
     21         26.045735   0.000000
     22         26.739693   0.000000
     23         27.480403   0.000000
     24         28.629263   0.000000
 
  0.3000000E+00  0.0000000E+00  0.2500000E+00  0.1500000E-01
      1        -42.280485   1.000000
      2        -42.255080   1.000000
      3        -42.124852   1.000000
      4        -42.091260   1.000000
      5        -42.082510   1.000000
      6        -41.961744   1.000000
      7          3.708260   1.000000