PROCAR lm decomposed
# of k-points:   70         # of bands:   24         # of ions:    2

 k-point     1 :    0.00000000 0.00000000 0.00000000     weight = 0.00125000

band     1 # energy  -42.19021008 # occ.  2.00000000
 
ion      s     py     pz     px    dxy    dyz    dz2    dxz  x2-y2    tot
    1  0.000  0.000  0.492  0.000  0.000  0.000  0.000  0.000  0.000  0.492
    2  0.000  0.000  0.492  0.000  0.000  0.000  0.000  0.000  0.000  0.492
tot    0.000  0.000  0.984  0.000  0.000  0.000  0.000  0.000  0.000  0.984
 
band     2 # energy  -42.07434688 # occ.  2.00000000
 
ion      s     py     pz     px    dxy    dyz    dz2    dxz  x2-y2    tot
    1  0.000  0.124  0.000  0.373  0.000  0.000  0.000  0.000  0.000  0.498
    2  0.000  0.124  0.000  0.373  0.000  0.000  0.000  0.000  0.000  0.497
tot    0.000  0.249  0.000  0.746  0.000  0.000  0.000  0.000  0.000  0.995
 
band     3 # energy  -42.07434593 # occ.  2.00000000
 
ion      s     py     pz     px    dxy    dyz    dz2    dxz  x2-y2    tot
    1  0.000  0.373  0.000  0.124  0.000  0.000  0.000  0.000  0.000  0.498
    2  0.000  0.373  0.000  0.124  0.000  0.000  0.000  0.000  0.000  0.497
tot    0.000  0.746  0.000  0.249  0.000  0.000  0.000  0.000  0.000  0.995
 
band     4 # energy  -42.04042106 # occ.  2.00000000
 
ion      s     py     pz     px    dxy    dyz    dz2    dxz  x2-y2    tot
    1  0.000  0.124  0.000  0.373  0.000  0.000  0.000  0.000  0.000  0.498
    2  0.000  0.125  0.000  0.374  0.000  0.000  0.000  0.000  0.000  0.498
tot    0.000  0.249  0.000  0.747  0.000  0.000  0.000  0.000  0.000  0.996
 
band     5 # energy  -42.04042012 # occ.  2.00000000
 
ion      s     py     pz     px    dxy    dyz    dz2    dxz  x2-y2    tot
    1  0.000  0.373  0.000  0.124  0.000  0.000  0.000  0.000  0.000  0.498
    2  0.000  0.374  0.000  0.125  0.000  0.000  0.000  0.000  0.000  0.498
tot    0.000  0.747  0.000  0.249  0.000  0.000  0.000  0.000  0.000  0.996
 
band     6 # energy  -41.91810858 # occ.  2.00000000
 
ion      s     py     pz     px    dxy    dyz    dz2    dxz  x2-y2    tot
    1  0.000  0.000  0.497  0.000  0.000  0.000  0.000  0.000  0.000  0.497
    2  0.000  0.000  0.497  0.000  0.000  0.000  0.000  0.000  0.000  0.497
tot    0.000  0.000  0.995  0.000  0.000  0.000  0.000  0.000  0.000  0.995
 
band     7 # energy    1.02906002 # occ.  2.00000000
 
ion      s     py     pz     px    dxy    dyz    dz2    dxz  x2-y2    tot
    1  0.184  0.000  0.000  0.000  0.000  0.000  0.000  0.000  0.000  0.185
    2  0.184  0.000  0.000  0.000  0.000  0.000  0.000  0.000  0.000  0.185
tot    0.369  0.000  0.000  0.000  0.000  0.000  0.001  0.000  0.000  0.370
 
band     8 # energy    3.63292425 # occ.  2.00000000
 
ion      s     py     pz     px    dxy    dyz    dz2    dxz  x2-y2    tot
    1  0.078  0.000  0.000  0.000  0.000  0.000  0.228  0.000  0.000  0.306
    2  0.078  0.000  0.000  0.000  0.000  0.000  0.228  0.000  0.000  0.306
tot    0.156  0.000  0.000  0.000  0.000  0.000  0.457  0.000  0.000  0.613
 
band     9 # energy    6.60795945 # occ.  2.00000000
 
ion      s     py     pz     px    dxy    dyz    dz2    dxz  x2-y2    tot
    1  0.000  0.000  0.000  0.000  0.000  0.000  0.410  0.000  0.000  0.410
    2  0.000  0.000  0.000  0.000  0.000  0.000  0.410  0.000  0.000  0.410
tot    0.000  0.000  0.000  0.000  0.000  0.000  0.821  0.000  0.000  0.821
 
band    10 # energy    7.06356514 # occ.  2.00000000
 
ion      s     py     pz     px    dxy    dyz    dz2    dxz  x2-y2    tot
    1  0.000  0.000  0.000  0.000  0.105  0.000  0.000  0.000  0.315  0.420
    2  0.000  0.000  0.000  0.000  0.105  0.000  0.000  0.000  0.315  0.420
tot    0.000  0.000  0.000  0.000  0.210  0.000  0.000  0.000  0.629  0.839
 
band    11 # energy    7.06356584 # occ.  2.00000000
 
ion      s     py     pz     px    dxy    dyz    dz2    dxz  x2-y2    tot
    1  0.000  0.000  0.000  0.000  0.315  0.000  0.000  0.000  0.105  0.420
    2  0.000  0.000  0.000  0.000  0.315  0.000  0.000  0.000  0.105  0.420
tot    0.000  0.000  0.000  0.000  0.629  0.000  0.000  0.000  0.210  0.839
 
band    12 # energy    7.39959031 # occ.  2.00000000
 
ion      s     py     pz     px    dxy    dyz    dz2    dxz  x2-y2    tot
    1  0.000  0.000  0.000  0.000  0.107  0.000  0.000  0.000  0.322  0.429
    2  0.000  0.000  0.000  0.000  0.107  0.000  0.000  0.000  0.322  0.429
tot    0.000  0.000  0.000  0.000  0.215  0.000  0.000  0.000  0.644  0.858
 
band    13 # energy    7.39959104 # occ.  2.00000000
 
ion      s     py     pz     px    dxy    dyz    dz2    dxz  x2-y2    tot
    1  0.000  0.000  0.000  0.000  0.322  0.000  0.000  0.000  0.107  0.429
    2  0.000  0.000  0.000  0.000  0.322  0.000  0.000  0.000  0.107  0.429
tot    0.000  0.000  0.000  0.000  0.644  0.000  0.000  0.000  0.215  0.858
 
band    14 # energy    8.56315488 # occ.  2.00000000
 
ion      s     py     pz     px    dxy    dyz    dz2    dxz  x2-y2    tot
    1  0.000  0.000  0.000  0.000  0.000  0.110  0.000  0.331  0.000  0.442
    2  0.000  0.000  0.000  0.000  0.000  0.110  0.000  0.331  0.000  0.442
tot    0.000  0.000  0.000  0.000  0.000  0.221  0.000  0.663  0.000  0.884
 
band    15 # energy    8.56315515 # occ.  2.00000000
 
ion      s     py     pz     px    dxy    dyz    dz2    dxz  x2-y2    tot
    1  0.000  0.000  0.000  0.000  0.000  0.331  0.000  0.110  0.000  0.442
    2  0.000  0.000  0.000  0.000  0.000  0.331  0.000  0.110  0.000  0.442
tot    0.000  0.000  0.000  0.000  0.000  0.663  0.000  0.221  0.000  0.884
 
band    16 # energy    9.73738876 # occ.  2.00000000
 
ion      s     py     pz     px    dxy    dyz    dz2    dxz  x2-y2    tot
    1  0.000  0.000  0.079  0.000  0.000  0.000  0.000  0.000  0.000  0.079
    2  0.000  0.000  0.079  0.000  0.000  0.000  0.000  0.000  0.000  0.079
tot    0.000  0.000  0.159  0.000  0.000  0.000  0.000  0.000  0.000  0.159
 
band    17 # energy   10.02059465 # occ.  1.99999982
 
ion      s     py     pz     px    dxy    dyz    dz2    dxz  x2-y2    tot
    1  0.000  0.000  0.000  0.000  0.000  0.116  0.000  0.348  0.000  0.463
    2  0.000  0.000  0.000  0.000  0.000  0.116  0.000  0.348  0.000  0.463
tot    0.000  0.000  0.000  0.000  0.000  0.232  0.000  0.695  0.000  0.927
 
band    18 # energy   10.02059496 # occ.  1.99999982
 
ion      s     py     pz     px    dxy    dyz    dz2    dxz  x2-y2    tot
    1  0.000  0.000  0.000  0.000  0.000  0.348  0.000  0.116  0.000  0.463
    2  0.000  0.000  0.000  0.000  0.000  0.348  0.000  0.116  0.000  0.463
tot    0.000  0.000  0.000  0.000  0.000  0.695  0.000  0.232  0.000  0.927
 
band    19 # energy   14.59990771 # occ.  0.00000000
 
ion      s     py     pz     px    dxy    dyz    dz2    dxz  x2-y2    tot
    1  0.172  0.000  0.000  0.000  0.000  0.000  0.226  0.000  0.000  0.398
    2  0.172  0.000  0.000  0.000  0.000  0.000  0.226  0.000  0.000  0.398
tot    0.343  0.000  0.000  0.000  0.000  0.000  0.452  0.000  0.000  0.796
 
band    20 # energy   25.36269559 # occ.  0.00000000
 
ion      s     py     pz     px    dxy    dyz    dz2    dxz  x2-y2    tot
    1  0.003  0.000  0.000  0.000  0.000  0.000  0.002  0.000  0.000  0.005
    2  0.003  0.000  0.000  0.000  0.000  0.000  0.002  0.000  0.000  0.005
tot    0.006  0.000  0.000  0.000  0.000  0.000  0.004  0.000  0.000  0.011
 
band    21 # energy   25.90736077 # occ.  0.00000000
 
ion      s     py     pz     px    dxy    dyz    dz2    dxz  x2-y2    tot
    1  0.000  0.000  0.022  0.000  0.000  0.000  0.000  0.000  0.000  0.022
    2  0.000  0.000  0.022  0.000  0.000  0.000  0.000  0.000  0.000  0.022
tot    0.000  0.000  0.043  0.000  0.000  0.000  0.000  0.000  0.000  0.043
 
band    22 # energy   27.43596913 # occ.  0.00000000
 
ion      s     py     pz     px    dxy    dyz    dz2    dxz  x2-y2    tot
    1  0.000  0.000  0.000  0.000  0.000  0.000  0.016  0.000  0.000  0.017
    2  0.000  0.000  0.000  0.000  0.000  0.000  0.016  0.000  0.000  0.017
tot    0.001  0.000  0.000  0.000  0.000  0.000  0.032  0.000  0.000  0.033
 
band    23 # energy   30.68310938 # occ.  0.00000000
 
ion      s     py     pz     px    dxy    dyz    dz2    dxz  x2-y2    tot
    1  0.000  0.032  0.000  0.093  0.015  0.000  0.000  0.000  0.005  0.144
    2  0.000  0.032  0.000  0.093  0.015  0.000  0.000  0.000  0.005  0.144
tot    0.000  0.064  0.000  0.186  0.029  0.000  0.000  0.000  0.010  0.289
 
band    24 # energy   30.68310957 # occ.  0.00000000
 
ion      s     py     pz     px    dxy    dyz    dz2    dxz  x2-y2    tot
    1  0.000  0.093  0.000  0.032  0.005  0.000  0.000  0.000  0.015  0.144
    2  0.000  0.093  0.000  0.032  0.005  0.000  0.000  0.000  0.015  0.144
tot    0.000  0.186  0.000  0.064  0.010  0.000  0.000  0.000  0.029  0.289
 

 k-point     2 :    0.10000000-0.00000000 0.00000000     weight = 0.00750000

band     1 # energy  -42.18069412 # occ.  2.00000000
 
ion      s     py     pz     px    dxy    dyz    dz2    dxz  x2-y2    tot
    1  0.000  0.000  0.492  0.000  0.000  0.000  0.000  0.000  0.000  0.492
    2  0.000  0.000  0.492  0.000  0.000  0.000  0.000  0.000  0.000  0.492
tot    0.000  0.000  0.985  0.000  0.000  0.000  0.000  0.000  0.000  0.985
 
band     2 # energy  -42.10372411 # occ.  2.00000000
 
ion      s     py     pz     px    dxy    dyz    dz2    dxz  x2-y2    tot
    1  0.000  0.124  0.000  0.373  0.000  0.000  0.000  0.000  0.000  0.497
    2  0.000  0.124  0.000  0.373  0.000  0.000  0.000  0.000  0.000  0.497
tot    0.000  0.248  0.000  0.745  0.000  0.000  0.000  0.000  0.000  0.994
 
band     3 # energy  -42.08303972 # occ.  2.00000000
 
ion      s     py     pz     px    dxy    dyz    dz2    dxz  x2-y2    tot
    1  0.000  0.373  0.000  0.124  0.000  0.000  0.000  0.000  0.000  0.497
    2  0.000  0.373  0.000  0.124  0.000  0.000  0.000  0.000  0.000  0.497
tot    0.000  0.746  0.000  0.249  0.000  0.000  0.000  0.000  0.000  0.995
 
band     4 # energy  -42.07088937 # occ.  2.00000000
 
ion      s     py     pz     px    dxy    dyz    dz2    dxz  x2-y2    tot
    1  0.000  0.124  0.000  0.373  0.000  0.000  0.000  0.000  0.000  0.497
    2  0.000  0.124  0.000  0.373  0.000  0.000  0.000  0.000  0.000  0.498
tot    0.000  0.249  0.000  0.746  0.000  0.000  0.000  0.000  0.000  0.995
 
band     5 # energy  -42.04652546 # occ.  2.00000000
 
ion      s     py     pz     px    dxy    dyz    dz2    dxz  x2-y2    tot
    1  0.000  0.373  0.000  0.124  0.000  0.000  0.000  0.000  0.000  0.498
    2  0.000  0.373  0.000  0.124  0.000  0.000  0.000  0.000  0.000  0.498
tot    0.000  0.747  0.000  0.249  0.000  0.000  0.000  0.000  0.000  0.996
 
band     6 # energy  -41.92046375 # occ.  2.00000000
 
ion      s     py     pz     px    dxy    dyz    dz2    dxz  x2-y2    tot
    1  0.000  0.000  0.497  0.000  0.000  0.000  0.000  0.000  0.000  0.497
    2  0.000  0.000  0.497  0.000  0.000  0.000  0.000  0.000  0.000  0.497
tot    0.000  0.000  0.995  0.000  0.000  0.000  0.000  0.000  0.000  0.995
 
band     7 # energy    1.37281664 # occ.  2.00000000
 
ion      s     py     pz     px    dxy    dyz    dz2    dxz  x2-y2    tot
    1  0.181  0.001  0.000  0.002  0.000  0.000  0.000  0.000  0.000  0.184
    2  0.181  0.001  0.000  0.002  0.000  0.000  0.000  0.000  0.000  0.184
tot    0.362  0.001  0.000  0.003  0.001  0.000  0.000  0.000  0.000  0.367
 
band     8 # energy    3.94209108 # occ.  2.00000000
 
ion      s     py     pz     px    dxy    dyz    dz2    dxz  x2-y2    tot
    1  0.072  0.000  0.000  0.001  0.002  0.000  0.233  0.000  0.001  0.309
    2  0.072  0.000  0.000  0.001  0.002  0.000  0.233  0.000  0.001  0.309
tot    0.143  0.001  0.000  0.003  0.003  0.000  0.465  0.000  0.001  0.617
 
band     9 # energy    6.54441056 # occ.  2.00000000
 
ion      s     py     pz     px    dxy    dyz    dz2    dxz  x2-y2    tot
    1  0.000  0.000  0.000  0.000  0.116  0.000  0.251  0.000  0.039  0.406
    2  0.000  0.000  0.000  0.000  0.116  0.000  0.251  0.000  0.039  0.406
tot    0.000  0.000  0.000  0.001  0.232  0.000  0.503  0.000  0.077  0.813
 
band    10 # energy    7.07741105 # occ.  2.00000000
 
ion      s     py     pz     px    dxy    dyz    dz2    dxz  x2-y2    tot
    1  0.000  0.000  0.000  0.000  0.211  0.000  0.136  0.000  0.070  0.417
    2  0.000  0.000  0.000  0.000  0.210  0.000  0.136  0.000  0.070  0.417
tot    0.000  0.000  0.000  0.001  0.421  0.000  0.272  0.000  0.140  0.835
 
band    11 # energy    7.26561577 # occ.  2.00000000
 
ion      s     py     pz     px    dxy    dyz    dz2    dxz  x2-y2    tot
    1  0.001  0.000  0.000  0.000  0.296  0.000  0.026  0.000  0.099  0.422
    2  0.001  0.000  0.000  0.000  0.296  0.000  0.026  0.000  0.099  0.422
tot    0.003  0.000  0.000  0.001  0.592  0.000  0.051  0.000  0.197  0.845
 
band    12 # energy    7.31870062 # occ.  2.00000000
 
ion      s     py     pz     px    dxy    dyz    dz2    dxz  x2-y2    tot
    1  0.000  0.000  0.000  0.000  0.105  0.000  0.000  0.000  0.316  0.422
    2  0.000  0.000  0.000  0.000  0.105  0.000  0.000  0.000  0.316  0.422
tot    0.000  0.001  0.000  0.000  0.211  0.000  0.000  0.000  0.632  0.843
 
band    13 # energy    7.64197383 # occ.  2.00000000
 
ion      s     py     pz     px    dxy    dyz    dz2    dxz  x2-y2    tot
    1  0.000  0.000  0.000  0.000  0.108  0.000  0.000  0.000  0.323  0.431
    2  0.000  0.000  0.000  0.000  0.108  0.000  0.000  0.000  0.323  0.431
tot    0.000  0.001  0.000  0.000  0.215  0.000  0.000  0.000  0.646  0.862
 
band    14 # energy    8.06036189 # occ.  2.00000000
 
ion      s     py     pz     px    dxy    dyz    dz2    dxz  x2-y2    tot
    1  0.000  0.000  0.016  0.000  0.000  0.084  0.000  0.252  0.000  0.352
    2  0.000  0.000  0.016  0.000  0.000  0.084  0.000  0.252  0.000  0.352
tot    0.000  0.000  0.031  0.000  0.000  0.168  0.000  0.504  0.000  0.703
 
band    15 # energy    8.40848574 # occ.  2.00000000
 
ion      s     py     pz     px    dxy    dyz    dz2    dxz  x2-y2    tot
    1  0.000  0.000  0.000  0.000  0.000  0.328  0.000  0.109  0.000  0.438
    2  0.000  0.000  0.000  0.000  0.000  0.328  0.000  0.109  0.000  0.438
tot    0.000  0.000  0.000  0.000  0.000  0.656  0.000  0.219  0.000  0.875
 
band    16 # energy    8.57738879 # occ.  2.00000000
 
ion      s     py     pz     px    dxy    dyz    dz2    dxz  x2-y2    tot
    1  0.000  0.000  0.019  0.000  0.000  0.083  0.000  0.250  0.000  0.351
    2  0.000  0.000  0.019  0.000  0.000  0.083  0.000  0.250  0.000  0.351
tot    0.000  0.000  0.037  0.000  0.000  0.166  0.000  0.499  0.000  0.703
 
band    17 # energy   10.07608343 # occ.  1.99973886
 
ion      s     py     pz     px    dxy    dyz    dz2    dxz  x2-y2    tot
    1  0.000  0.000  0.000  0.000  0.000  0.349  0.000  0.116  0.000  0.466
    2  0.000  0.000  0.000  0.000  0.000  0.349  0.000  0.116  0.000  0.466
tot    0.000  0.000  0.000  0.000  0.000  0.699  0.000  0.233  0.000  0.932
 
band    18 # energy   11.76940044 # occ.  0.00000000
 
ion      s     py     pz     px    dxy    dyz    dz2    dxz  x2-y2    tot
    1  0.000  0.000  0.046  0.000  0.000  0.057  0.000  0.172  0.000  0.275
    2  0.000  0.000  0.046  0.000  0.000  0.057  0.000  0.172  0.000  0.275
tot    0.000  0.000  0.092  0.000  0.000  0.115  0.000  0.344  0.000  0.551
 
band    19 # energy   14.57105940 # occ.  0.00000000
 
ion      s     py     pz     px    dxy    dyz    dz2    dxz  x2-y2    tot
    1  0.173  0.000  0.000  0.001  0.001  0.000  0.217  0.000  0.000  0.393
    2  0.173  0.000  0.000  0.001  0.001  0.000  0.217  0.000  0.000  0.393
tot    0.346  0.000  0.000  0.001  0.003  0.000  0.435  0.000  0.001  0.786
 
band    20 # energy   25.69770206 # occ.  0.00000000
 
ion      s     py     pz     px    dxy    dyz    dz2    dxz  x2-y2    tot
    1  0.005  0.001  0.000  0.004  0.018  0.000  0.003  0.000  0.006  0.039
    2  0.005  0.001  0.000  0.004  0.018  0.000  0.003  0.000  0.006  0.039
tot    0.011  0.003  0.000  0.008  0.037  0.000  0.006  0.000  0.012  0.077
 
band    21 # energy   26.40729395 # occ.  0.00000000
 
ion      s     py     pz     px    dxy    dyz    dz2    dxz  x2-y2    tot
    1  0.000  0.000  0.019  0.000  0.000  0.002  0.000  0.005  0.000  0.026
    2  0.000  0.000  0.019  0.000  0.000  0.002  0.000  0.005  0.000  0.026
tot    0.000  0.000  0.038  0.000  0.000  0.003  0.000  0.010  0.000  0.052
 
band    22 # energy   27.59547954 # occ.  0.00000000
 
ion      s     py     pz     px    dxy    dyz    dz2    dxz  x2-y2    tot
    1  0.004  0.006  0.000  0.018  0.018  0.000  0.023  0.000  0.006  0.076
    2  0.004  0.006  0.000  0.018  0.018  0.000  0.023  0.000  0.006  0.076
tot    0.008  0.012  0.000  0.037  0.035  0.000  0.047  0.000  0.012  0.151
 
band    23 # energy   29.21307950 # occ.  0.00000000
 
ion      s     py     pz     px    dxy    dyz    dz2    dxz  x2-y2    tot
    1  0.000  0.084  0.000  0.028  0.009  0.000  0.000  0.000  0.027  0.148
    2  0.000  0.084  0.000  0.028  0.009  0.000  0.000  0.000  0.027  0.148
tot    0.000  0.167  0.000  0.056  0.018  0.000  0.000  0.000  0.054  0.295
 
band    24 # energy   29.23477908 # occ.  0.00000000
 
ion      s     py     pz     px    dxy    dyz    dz2    dxz  x2-y2    tot
    1  0.005  0.020  0.000  0.060  0.007  0.000  0.000  0.000  0.002  0.096
    2  0.005  0.020  0.000  0.060  0.007  0.000  0.000  0.000  0.002  0.096
tot    0.011  0.040  0.000  0.121  0.015  0.000  0.001  0.000  0.005  0.192
 

 k-point     3 :    0.20000000-0.00000000 0.00000000     weight = 0.00750000

band     1 # energy  -42.18126981 # occ.  2.00000000
 
ion      s     py     pz     px    dxy    dyz    dz2    dxz  x2-y2    tot
    1  0.000  0.124  0.000  0.372  0.000  0.000  0.000  0.000  0.000  0.496
    2  0.000  0.124  0.000  0.372  0.000  0.000  0.000  0.000  0.000  0.496
tot    0.000  0.248  0.000  0.743  0.000  0.000  0.000  0.000  0.000  0.991
 
band     2 # energy  -42.15401433 # occ.  2.00000000
 
ion      s     py     pz     px    dxy    dyz    dz2    dxz  x2-y2    tot
    1  0.000  0.000  0.493  0.000  0.000  0.000  0.000  0.000  0.000  0.493
    2  0.000  0.000  0.493  0.000  0.000  0.000  0.000  0.000  0.000  0.493
tot    0.000  0.000  0.986  0.000  0.000  0.000  0.000  0.000  0.000  0.986
 
band     3 # energy  -42.14974000 # occ.  2.00000000
 
ion      s     py     pz     px    dxy    dyz    dz2    dxz  x2-y2    tot
    1  0.000  0.124  0.000  0.372  0.000  0.000  0.000  0.000  0.000  0.496
    2  0.000  0.124  0.000  0.372  0.000  0.000  0.000  0.000  0.000  0.496
tot    0.000  0.248  0.000  0.744  0.000  0.000  0.000  0.000  0.000  0.992
 
band     4 # energy  -42.10508086 # occ.  2.00000000
 
ion      s     py     pz     px    dxy    dyz    dz2    dxz  x2-y2    tot
    1  0.000  0.373  0.000  0.124  0.000  0.000  0.000  0.000  0.000  0.497
    2  0.000  0.373  0.000  0.124  0.000  0.000  0.000  0.000  0.000  0.497
tot    0.000  0.745  0.000  0.248  0.000  0.000  0.000  0.000  0.000  0.994
 
band     5 # energy  -42.06335503 # occ.  2.00000000
 
ion      s     py     pz     px    dxy    dyz    dz2    dxz  x2-y2    tot
    1  0.000  0.373  0.000  0.124  0.000  0.000  0.000  0.000  0.000  0.498
    2  0.000  0.373  0.000  0.124  0.000  0.000  0.000  0.000  0.000  0.498
tot    0.000  0.747  0.000  0.249  0.000  0.000  0.000  0.000  0.000  0.995
 
band     6 # energy  -41.92805973 # occ.  2.00000000
 
ion      s     py     pz     px    dxy    dyz    dz2    dxz  x2-y2    tot
    1  0.000  0.000  0.497  0.000  0.000  0.000  0.000  0.000  0.000  0.497
    2  0.000  0.000  0.497  0.000  0.000  0.000  0.000  0.000  0.000  0.497
tot    0.000  0.000  0.994  0.000  0.000  0.000  0.000  0.000  0.000  0.994
 
band     7 # energy    2.31503481 # occ.  2.00000000
 
ion      s     py     pz     px    dxy    dyz    dz2    dxz  x2-y2    tot
    1  0.168  0.002  0.000  0.006  0.006  0.000  0.001  0.000  0.002  0.184
    2  0.168  0.002  0.000  0.006  0.006  0.000  0.001  0.000  0.002  0.184
tot    0.336  0.004  0.000  0.011  0.012  0.000  0.001  0.000  0.004  0.368
 
band     8 # energy    4.62859843 # occ.  2.00000000
 
ion      s     py     pz     px    dxy    dyz    dz2    dxz  x2-y2    tot
    1  0.049  0.001  0.000  0.004  0.038  0.000  0.220  0.000  0.013  0.324
    2  0.049  0.001  0.000  0.004  0.038  0.000  0.220  0.000  0.013  0.324
tot    0.097  0.002  0.000  0.007  0.075  0.000  0.440  0.000  0.025  0.647
 
band     9 # energy    6.33298298 # occ.  2.00000000
 
ion      s     py     pz     px    dxy    dyz    dz2    dxz  x2-y2    tot
    1  0.003  0.001  0.000  0.003  0.187  0.000  0.127  0.000  0.062  0.383
    2  0.003  0.001  0.000  0.003  0.187  0.000  0.127  0.000  0.062  0.383
tot    0.006  0.002  0.000  0.006  0.373  0.000  0.254  0.000  0.124  0.765
 
band    10 # energy    6.80011106 # occ.  2.00000000
 
ion      s     py     pz     px    dxy    dyz    dz2    dxz  x2-y2    tot
    1  0.000  0.000  0.016  0.000  0.000  0.076  0.000  0.229  0.000  0.321
    2  0.000  0.000  0.016  0.000  0.000  0.076  0.000  0.229  0.000  0.321
tot    0.000  0.000  0.032  0.000  0.000  0.152  0.000  0.457  0.000  0.642
 
band    11 # energy    6.81720733 # occ.  2.00000000
 
ion      s     py     pz     px    dxy    dyz    dz2    dxz  x2-y2    tot
    1  0.005  0.000  0.000  0.001  0.257  0.000  0.054  0.000  0.086  0.404
    2  0.005  0.000  0.000  0.001  0.257  0.000  0.054  0.000  0.086  0.404
tot    0.010  0.001  0.000  0.002  0.515  0.000  0.108  0.000  0.172  0.807
 
band    12 # energy    7.65150900 # occ.  2.00000000
 
ion      s     py     pz     px    dxy    dyz    dz2    dxz  x2-y2    tot
    1  0.003  0.000  0.000  0.001  0.109  0.000  0.268  0.000  0.036  0.419
    2  0.003  0.000  0.000  0.001  0.109  0.000  0.268  0.000  0.036  0.419
tot    0.007  0.001  0.000  0.003  0.218  0.000  0.536  0.000  0.073  0.838
 
band    13 # energy    8.04040494 # occ.  2.00000000
 
ion      s     py     pz     px    dxy    dyz    dz2    dxz  x2-y2    tot
    1  0.000  0.001  0.000  0.000  0.107  0.000  0.000  0.000  0.321  0.429
    2  0.000  0.001  0.000  0.000  0.107  0.000  0.000  0.000  0.321  0.429
tot    0.000  0.002  0.000  0.001  0.214  0.000  0.000  0.000  0.641  0.857
 
band    14 # energy    8.06287955 # occ.  2.00000000
 
ion      s     py     pz     px    dxy    dyz    dz2    dxz  x2-y2    tot
    1  0.000  0.000  0.000  0.000  0.000  0.322  0.000  0.107  0.000  0.429
    2  0.000  0.000  0.000  0.000  0.000  0.322  0.000  0.107  0.000  0.429
tot    0.000  0.000  0.000  0.000  0.000  0.644  0.000  0.215  0.000  0.858
 
band    15 # energy    8.09216382 # occ.  2.00000000
 
ion      s     py     pz     px    dxy    dyz    dz2    dxz  x2-y2    tot
    1  0.000  0.000  0.008  0.000  0.000  0.095  0.000  0.286  0.000  0.390
    2  0.000  0.000  0.008  0.000  0.000  0.095  0.000  0.286  0.000  0.390
tot    0.000  0.000  0.017  0.000  0.000  0.191  0.000  0.572  0.000  0.779
 
band    16 # energy    8.32115217 # occ.  2.00000000
 
ion      s     py     pz     px    dxy    dyz    dz2    dxz  x2-y2    tot
    1  0.000  0.001  0.000  0.000  0.109  0.000  0.000  0.000  0.327  0.438
    2  0.000  0.001  0.000  0.000  0.109  0.000  0.000  0.000  0.327  0.438
tot    0.000  0.002  0.000  0.001  0.218  0.000  0.000  0.000  0.655  0.875
 
band    17 # energy   10.16567730 # occ.  1.73599635
 
ion      s     py     pz     px    dxy    dyz    dz2    dxz  x2-y2    tot
    1  0.000  0.000  0.000  0.000  0.000  0.352  0.000  0.117  0.000  0.469
    2  0.000  0.000  0.000  0.000  0.000  0.352  0.000  0.117  0.000  0.469
tot    0.000  0.000  0.000  0.000  0.000  0.704  0.000  0.235  0.000  0.939
 
band    18 # energy   13.84275325 # occ.  0.00000000
 
ion      s     py     pz     px    dxy    dyz    dz2    dxz  x2-y2    tot
    1  0.000  0.000  0.058  0.000  0.000  0.048  0.000  0.145  0.000  0.252
    2  0.000  0.000  0.058  0.000  0.000  0.048  0.000  0.145  0.000  0.252
tot    0.000  0.000  0.115  0.000  0.000  0.097  0.000  0.291  0.000  0.503
 
band    19 # energy   14.52687421 # occ.  0.00000000
 
ion      s     py     pz     px    dxy    dyz    dz2    dxz  x2-y2    tot
    1  0.177  0.001  0.000  0.003  0.005  0.000  0.187  0.000  0.002  0.375
    2  0.177  0.001  0.000  0.003  0.005  0.000  0.187  0.000  0.002  0.375
tot    0.354  0.002  0.000  0.006  0.010  0.000  0.374  0.000  0.003  0.749
 
band    20 # energy   23.82657962 # occ.  0.00000000
 
ion      s     py     pz     px    dxy    dyz    dz2    dxz  x2-y2    tot
    1  0.027  0.017  0.000  0.050  0.050  0.000  0.026  0.000  0.017  0.186
    2  0.027  0.017  0.000  0.050  0.050  0.000  0.026  0.000  0.017  0.186
tot    0.055  0.033  0.000  0.099  0.099  0.000  0.052  0.000  0.033  0.371
 
band    21 # energy   26.86016989 # occ.  0.00000000
 
ion      s     py     pz     px    dxy    dyz    dz2    dxz  x2-y2    tot
    1  0.000  0.079  0.000  0.026  0.010  0.000  0.000  0.000  0.031  0.147
    2  0.000  0.079  0.000  0.026  0.010  0.000  0.000  0.000  0.031  0.147
tot    0.000  0.157  0.000  0.052  0.021  0.000  0.000  0.000  0.063  0.293
 
band    22 # energy   26.99990784 # occ.  0.00000000
 
ion      s     py     pz     px    dxy    dyz    dz2    dxz  x2-y2    tot
    1  0.000  0.000  0.012  0.000  0.000  0.003  0.000  0.008  0.000  0.022
    2  0.000  0.000  0.012  0.000  0.000  0.003  0.000  0.008  0.000  0.022
tot    0.000  0.000  0.023  0.000  0.000  0.005  0.000  0.015  0.000  0.043
 
band    23 # energy   27.95024909 # occ.  0.00000000
 
ion      s     py     pz     px    dxy    dyz    dz2    dxz  x2-y2    tot
    1  0.005  0.003  0.000  0.010  0.034  0.000  0.016  0.000  0.011  0.080
    2  0.005  0.003  0.000  0.010  0.034  0.000  0.016  0.000  0.011  0.080
tot    0.010  0.007  0.000  0.020  0.069  0.000  0.031  0.000  0.023  0.159
 
band    24 # energy   28.19537385 # occ.  0.00000000
 
ion      s     py     pz     px    dxy    dyz    dz2    dxz  x2-y2    tot
    1  0.000  0.000  0.003  0.000  0.000  0.015  0.000  0.046  0.000  0.065
    2  0.000  0.000  0.003  0.000  0.000  0.015  0.000  0.046  0.000  0.065
tot    0.000  0.000  0.006  0.000  0.000  0.031  0.000  0.093  0.000  0.130
 

 k-point     4 :    0.30000000 0.00000000 0.00000000     weight = 0.00750000

band     1 # energy  -42.27803988 # occ.  2.00000000
 
ion      s     py     pz     px    dxy    dyz    dz2    dxz  x2-y2    tot
    1  0.000  0.123  0.000  0.370  0.000  0.000  0.000  0.000  0.000  0.494
    2  0.000  0.123  0.000  0.370  0.000  0.000  0.000  0.000  0.000  0.494
tot    0.000  0.247  0.000  0.741  0.000  0.000  0.000  0.000  0.000  0.988
 
band     2 # energy  -42.24481817 # occ.  2.00000000
 
ion      s     py     pz     px    dxy    dyz    dz2    dxz  x2-y2    tot
    1  0.000  0.124  0.000  0.371  0.000  0.000  0.000  0.000  0.000  0.495
    2  0.000  0.124  0.000  0.371  0.000  0.000  0.000  0.000  0.000  0.495
tot    0.000  0.247  0.000  0.742  0.000  0.000  0.000  0.000  0.000  0.989
 
band     3 # energy  -42.13202128 # occ.  2.00000000
 
ion      s     py     pz     px    dxy    dyz    dz2    dxz  x2-y2    tot
    1  0.000  0.372  0.000  0.124  0.000  0.000  0.000  0.000  0.000  0.497
    2  0.000  0.372  0.000  0.124  0.000  0.000  0.000  0.000  0.000  0.497
tot    0.000  0.745  0.000  0.248  0.000  0.000  0.000  0.000  0.000  0.993
 
band     4 # energy  -42.11678400 # occ.  2.00000000
 
ion      s     py     pz     px    dxy    dyz    dz2    dxz  x2-y2    tot
    1  0.000  0.000  0.494  0.000  0.000  0.000  0.000  0.000  0.000  0.494
    2  0.000  0.000  0.494  0.000  0.000  0.000  0.000  0.000  0.000  0.494
tot    0.000  0.000  0.987  0.000  0.000  0.000  0.000  0.000  0.000  0.987
 
band     5 # energy  -42.08432235 # occ.  2.00000000
 
ion      s     py     pz     px    dxy    dyz    dz2    dxz  x2-y2    tot
    1  0.000  0.373  0.000  0.124  0.000  0.000  0.000  0.000  0.000  0.497
    2  0.000  0.373  0.000  0.124  0.000  0.000  0.000  0.000  0.000  0.497
tot    0.000  0.746  0.000  0.249  0.000  0.000  0.000  0.000  0.000  0.995
 
band     6 # energy  -41.94149513 # occ.  2.00000000
 
ion      s     py     pz     px    dxy    dyz    dz2    dxz  x2-y2    tot
    1  0.000  0.000  0.497  0.000  0.000  0.000  0.000  0.000  0.000  0.497
    2  0.000  0.000  0.497  0.000  0.000  0.000  0.000  0.000  0.000  0.497
tot    0.000  0.000  0.994  0.000  0.000  0.000  0.000  0.000  0.000  0.994
 
band     7 # energy    3.48724974 # occ.  2.00000000
 
ion      s     py     pz     px    dxy    dyz    dz2    dxz  x2-y2    tot
    1  0.134  0.003  0.000  0.008  0.046  0.000  0.006  0.000  0.015  0.211
    2  0.134  0.003  0.000  0.008  0.046  0.000  0.006  0.000  0.015  0.211
tot    0.268  0.005  0.000  0.016  0.092  0.000  0.011  0.000  0.031  0.422
 
band     8 # energy    4.76902204 # occ.  2.00000000
 
ion      s     py     pz     px    dxy    dyz    dz2    dxz  x2-y2    tot
    1  0.020  0.000  0.000  0.001  0.160  0.000  0.119  0.000  0.053  0.354
    2  0.020  0.000  0.000  0.001  0.160  0.000  0.119  0.000  0.053  0.354
tot    0.039  0.001  0.000  0.002  0.321  0.000  0.239  0.000  0.107  0.709
 
band     9 # energy    5.81908271 # occ.  2.00000000
 
ion      s     py     pz     px    dxy    dyz    dz2    dxz  x2-y2    tot
    1  0.000  0.000  0.010  0.000  0.000  0.080  0.000  0.239  0.000  0.328
    2  0.000  0.000  0.010  0.000  0.000  0.080  0.000  0.239  0.000  0.328
tot    0.000  0.000  0.019  0.000  0.000  0.159  0.000  0.478  0.000  0.657
 
band    10 # energy    6.57748744 # occ.  2.00000000
 
ion      s     py     pz     px    dxy    dyz    dz2    dxz  x2-y2    tot
    1  0.012  0.003  0.000  0.008  0.210  0.000  0.045  0.000  0.070  0.348
    2  0.012  0.003  0.000  0.008  0.210  0.000  0.045  0.000  0.070  0.348
tot    0.024  0.005  0.000  0.016  0.420  0.000  0.090  0.000  0.140  0.696
 
band    11 # energy    6.90309277 # occ.  2.00000000
 
ion      s     py     pz     px    dxy    dyz    dz2    dxz  x2-y2    tot