   1   1   0   0
  0.1081089E+02  0.2481945E-09  0.2481945E-09  0.2481945E-09  0.5000000E-15
  1.000000000000000E-004
  CAR 
 Co-fcc                                  
     53.59146711     -1.01122355  301     10.40127421      1.00000000
     -1.011  0.0000E+00  0.0000E+00  0.0000E+00  0.0000E+00
     -0.829  0.0000E+00  0.0000E+00  0.0000E+00  0.0000E+00
     -0.647  0.0000E+00  0.0000E+00  0.0000E+00  0.0000E+00
     -0.465  0.0000E+00  0.0000E+00  0.0000E+00  0.0000E+00
     -0.283  0.0000E+00  0.0000E+00  0.0000E+00  0.0000E+00
     -0.101  0.0000E+00  0.0000E+00  0.0000E+00  0.0000E+00
      0.081  0.0000E+00  0.0000E+00  0.0000E+00  0.0000E+00
      0.263  0.0000E+00  0.0000E+00  0.0000E+00  0.0000E+00
      0.445  0.0000E+00  0.0000E+00  0.0000E+00  0.0000E+00
      0.627  0.0000E+00  0.0000E+00  0.0000E+00  0.0000E+00
      0.809  0.0000E+00  0.0000E+00  0.0000E+00  0.0000E+00
      0.991  0.0000E+00  0.0000E+00  0.0000E+00  0.0000E+00
      1.173  0.0000E+00  0.0000E+00  0.0000E+00  0.0000E+00
      1.355  0.5785E-05  0.2106E-05  0.1053E-05  0.3834E-06
      1.537  0.1065E-01  0.1038E-01  0.1939E-02  0.1890E-02
      1.719  0.1132E-01  0.8165E-02  0.4000E-02  0.3376E-02
      1.901  0.2214E-01  0.2546E-01  0.8029E-02  0.8009E-02
      2.083  0.3263E-01  0.3245E-01  0.1397E-01  0.1392E-01
      2.265  0.3123E-01  0.2407E-01  0.1965E-01  0.1830E-01
      2.447  0.1909E-01  0.2236E-01  0.2313E-01  0.2237E-01
      2.629  0.5980E-01  0.6389E-01  0.3401E-01  0.3399E-01
      2.811  0.3254E-01  0.3093E-01  0.3993E-01  0.3962E-01
      2.993  0.4848E-01  0.2785E-01  0.4876E-01  0.4469E-01
      3.175  0.4570E-01  0.4422E-01  0.5707E-01  0.5274E-01
      3.357  0.7278E-01  0.9482E-01  0.7032E-01  0.7000E-01
      3.539  0.3208E-01  0.3231E-01  0.7616E-01  0.7588E-01
      3.721  0.7546E-01  0.5828E-01  0.8990E-01  0.8649E-01
      3.903  0.9849E-01  0.6570E-01  0.1078E+00  0.9844E-01
      4.085  0.6406E-01  0.5914E-01  0.1195E+00  0.1092E+00
      4.267  0.8937E-01  0.6907E-01  0.1357E+00  0.1218E+00
      4.449  0.9526E-01  0.9013E-01  0.1531E+00  0.1382E+00
      4.631  0.1310E+00  0.9751E-01  0.1769E+00  0.1559E+00
      4.813  0.8690E-01  0.8124E-01  0.1927E+00  0.1707E+00
      4.995  0.2201E+00  0.5751E-01  0.2328E+00  0.1812E+00
      5.177  0.2358E+00  0.1547E+00  0.2757E+00  0.2093E+00
      5.359  0.5353E+00  0.1149E+00  0.3732E+00  0.2303E+00
      5.541  0.5408E+00  0.1408E+00  0.4716E+00  0.2559E+00
      5.723  0.6747E+00  0.1167E+00  0.5944E+00  0.2771E+00
      5.905  0.6873E+00  0.2007E+00  0.7195E+00  0.3137E+00
      6.087  0.9972E+00  0.2742E+00  0.9010E+00  0.3636E+00
      6.269  0.8260E+00  0.2729E+00  0.1051E+01  0.4132E+00
      6.451  0.9768E+00  0.4173E+00  0.1229E+01  0.4892E+00
      6.633  0.8225E+00  0.4932E+00  0.1379E+01  0.5789E+00
      6.815  0.8545E+00  0.4393E+00  0.1534E+01  0.6589E+00
      6.997  0.6804E+00  0.3717E+00  0.1658E+01  0.7265E+00
      7.179  0.9326E+00  0.7255E+00  0.1828E+01  0.8586E+00
      7.361  0.1193E+01  0.6331E+00  0.2045E+01  0.9738E+00
      7.543  0.1055E+01  0.8227E+00  0.2237E+01  0.1124E+01
      7.725  0.1616E+01  0.7289E+00  0.2531E+01  0.1256E+01
      7.907  0.1560E+01  0.6927E+00  0.2815E+01  0.1382E+01
      8.089  0.1331E+01  0.7651E+00  0.3057E+01  0.1522E+01
      8.271  0.1044E+01  0.5810E+00  0.3247E+01  0.1627E+01
      8.453  0.1008E+01  0.8913E+00  0.3431E+01  0.1790E+01
      8.635  0.1310E+01  0.9639E+00  0.3669E+01  0.1965E+01
      8.817  0.1288E+01  0.9120E+00  0.3904E+01  0.2131E+01
      8.999  0.1206E+01  0.1010E+01  0.4123E+01  0.2315E+01
      9.181  0.8820E+00  0.1143E+01  0.4284E+01  0.2523E+01
      9.363  0.1160E+01  0.9269E+00  0.4495E+01  0.2691E+01
      9.545  0.1431E+01  0.1343E+01  0.4756E+01  0.2936E+01
      9.727  0.1856E+01  0.1016E+01  0.5093E+01  0.3121E+01
      9.909  0.7418E+00  0.9272E+00  0.5228E+01  0.3290E+01
     10.091  0.2460E+00  0.6894E+00  0.5273E+01  0.3415E+01
     10.273  0.1695E+00  0.7007E+00  0.5304E+01  0.3543E+01
     10.455  0.6407E-01  0.1189E+01  0.5316E+01  0.3759E+01
     10.637  0.1580E+00  0.1016E+01  0.5344E+01  0.3944E+01
     10.819  0.2114E+00  0.1155E+01  0.5383E+01  0.4154E+01
     11.001  0.1473E+00  0.7164E+00  0.5410E+01  0.4285E+01
     11.183  0.7852E-01  0.1180E+01  0.5424E+01  0.4499E+01
     11.365  0.1392E+00  0.1200E+01  0.5449E+01  0.4718E+01
     11.547  0.1493E+00  0.1835E+01  0.5476E+01  0.5052E+01
     11.729  0.1459E+00  0.1178E+01  0.5503E+01  0.5266E+01
     11.911  0.1249E+00  0.3066E+00  0.5526E+01  0.5322E+01
     12.093  0.1440E+00  0.1171E+00  0.5552E+01  0.5343E+01
     12.275  0.6452E-01  0.2049E+00  0.5564E+01  0.5381E+01
     12.457  0.1661E+00  0.3005E+00  0.5594E+01  0.5435E+01
     12.639  0.2188E+00  0.1329E+00  0.5634E+01  0.5460E+01
     12.821  0.2614E-01  0.8414E-01  0.5639E+01  0.5475E+01
     13.003  0.9305E-01  0.2229E+00  0.5655E+01  0.5516E+01
     13.185  0.1734E+00  0.2389E+00  0.5687E+01  0.5559E+01
     13.367  0.4700E-01  0.1343E+00  0.5696E+01  0.5583E+01
     13.549  0.1817E+00  0.1402E+00  0.5729E+01  0.5609E+01
     13.732  0.1339E+00  0.1222E+00  0.5753E+01  0.5631E+01
     13.914  0.1326E+00  0.1262E+00  0.5777E+01  0.5654E+01
     14.096  0.1355E+00  0.1362E+00  0.5802E+01  0.5679E+01
     14.278  0.1877E-01  0.1930E+00  0.5805E+01  0.5714E+01
     14.460  0.2909E-01  0.1189E+00  0.5811E+01  0.5736E+01
     14.642  0.1175E+00  0.1314E+00  0.5832E+01  0.5760E+01
     14.824  0.1417E+00  0.1251E+00  0.5858E+01  0.5782E+01
     15.006  0.1085E+00  0.1395E+00  0.5878E+01  0.5808E+01
     15.188  0.1199E+00  0.1598E-02  0.5899E+01  0.5808E+01
     15.370  0.5869E-01  0.1825E+00  0.5910E+01  0.5841E+01
     15.552  0.8827E-04  0.3385E-01  0.5910E+01  0.5847E+01
     15.734  0.1280E+00  0.1512E+00  0.5933E+01  0.5875E+01
     15.916  0.4665E-02  0.1634E+00  0.5934E+01  0.5905E+01
     16.098  0.9717E-01  0.2887E-01  0.5952E+01  0.5910E+01
     16.280  0.3700E-01  0.1204E-03  0.5959E+01  0.5910E+01
     16.462  0.9551E-01  0.1269E+00  0.5976E+01  0.5933E+01
     16.644  0.1630E-01  0.8772E-01  0.5979E+01  0.5949E+01
     16.826  0.1722E+00  0.1601E-01  0.6010E+01  0.5952E+01
     17.008  0.1164E+00  0.1215E+00  0.6031E+01  0.5974E+01
     17.190  0.9331E-01  0.1034E-01  0.6048E+01  0.5976E+01
     17.372  0.2615E+00  0.1218E-02  0.6096E+01  0.5976E+01
     17.554  0.1842E+00  0.6486E-01  0.6130E+01  0.5988E+01
     17.736  0.8798E-01  0.1321E+00  0.6146E+01  0.6012E+01
     17.918  0.1745E+00  0.2191E+00  0.6177E+01  0.6052E+01
     18.100  0.6674E-01  0.2342E+00  0.6189E+01  0.6095E+01
     18.282  0.1725E+00  0.1329E+00  0.6221E+01  0.6119E+01
     18.464  0.1424E+00  0.2000E+00  0.6247E+01  0.6155E+01
     18.646  0.1179E+00  0.1532E+00  0.6268E+01  0.6183E+01
     18.828  0.1707E+00  0.6452E-01  0.6299E+01  0.6195E+01
     19.010  0.7732E-01  0.1794E+00  0.6313E+01  0.6227E+01
     19.192  0.7699E-01  0.1754E+00  0.6327E+01  0.6259E+01
     19.374  0.1024E+00  0.1881E+00  0.6346E+01  0.6294E+01
     19.556  0.1342E+00  0.4799E-01  0.6370E+01  0.6302E+01
     19.738  0.1232E+00  0.1297E+00  0.6393E+01  0.6326E+01
     19.920  0.8476E-01  0.4104E-01  0.6408E+01  0.6333E+01
     20.102  0.1252E+00  0.1701E+00  0.6431E+01  0.6364E+01
     20.284  0.1776E+00  0.1457E+00  0.6463E+01  0.6391E+01
     20.466  0.1719E+00  0.7226E-01  0.6495E+01  0.6404E+01
     20.648  0.1281E+00  0.1836E+00  0.6518E+01  0.6437E+01
     20.830  0.1313E+00  0.9711E-01  0.6542E+01  0.6455E+01
     21.012  0.1775E+00  0.3724E-01  0.6574E+01  0.6462E+01
     21.194  0.2580E+00  0.2705E+00  0.6621E+01  0.6511E+01
     21.376  0.1116E+00  0.1945E+00  0.6642E+01  0.6547E+01
     21.558  0.8869E-01  0.4083E-01  0.6658E+01  0.6554E+01
     21.740  0.1887E+00  0.3271E+00  0.6692E+01  0.6614E+01
     21.922  0.2716E+00  0.1456E+00  0.6741E+01  0.6640E+01
     22.104  0.1905E+00  0.1102E+00  0.6776E+01  0.6660E+01
     22.286  0.1058E+00  0.2543E+00  0.6795E+01  0.6706E+01
     22.468  0.1465E+00  0.1393E+00  0.6822E+01  0.6732E+01
     22.650  0.3287E+00  0.2693E+00  0.6882E+01  0.6781E+01
     22.832  0.2084E+00  0.8614E-01  0.6920E+01  0.6796E+01
     23.014  0.1103E+00  0.2639E+00  0.6940E+01  0.6844E+01
     23.196  0.9407E-01  0.3013E+00  0.6957E+01  0.6899E+01
     23.378  0.2201E+00  0.1176E+00  0.6997E+01  0.6921E+01
     23.560  0.1778E+00  0.1311E+00  0.7029E+01  0.6945E+01
     23.742  0.3078E+00  0.1948E+00  0.7085E+01  0.6980E+01
     23.924  0.1087E+00  0.2021E+00  0.7105E+01  0.7017E+01
     24.106  0.1986E+00  0.3114E+00  0.7141E+01  0.7073E+01
     24.288  0.1454E+00  0.1240E+00  0.7168E+01  0.7096E+01
     24.470  0.2374E+00  0.2272E+00  0.7211E+01  0.7137E+01
     24.652  0.2968E+00  0.1160E+00  0.7265E+01  0.7158E+01
     24.834  0.2151E+00  0.2164E+00  0.7304E+01  0.7198E+01
     25.016  0.7600E-01  0.2732E+00  0.7318E+01  0.7248E+01
     25.198  0.2006E+00  0.2595E+00  0.7355E+01  0.7295E+01
     25.380  0.2241E+00  0.1900E+00  0.7395E+01  0.7329E+01
     25.562  0.3514E+00  0.1193E+00  0.7459E+01  0.7351E+01
     25.744  0.2793E+00  0.2770E+00  0.7510E+01  0.7401E+01
     25.926  0.1637E+00  0.3117E+00  0.7540E+01  0.7458E+01
     26.108  0.3559E-01  0.3027E+00  0.7546E+01  0.7513E+01
     26.290  0.2226E+00  0.1546E+00  0.7587E+01  0.7541E+01
     26.472  0.3289E+00  0.4053E-01  0.7647E+01  0.7549E+01
     26.654  0.2493E+00  0.2796E+00  0.7692E+01  0.7600E+01
     26.836  0.2091E+00  0.3103E+00  0.7730E+01  0.7656E+01
     27.018  0.1096E+00  0.2826E+00  0.7750E+01  0.7708E+01
     27.200  0.2266E+00  0.1364E+00  0.7791E+01  0.7732E+01
     27.382  0.1833E+00  0.1437E+00  0.7825E+01  0.7759E+01
     27.564  0.1366E+00  0.2531E+00  0.7850E+01  0.7805E+01
     27.746  0.1955E+00  0.1385E+00  0.7885E+01  0.7830E+01
     27.928  0.3546E+00  0.1578E+00  0.7950E+01  0.7859E+01
     28.110  0.1655E+00  0.2742E+00  0.7980E+01  0.7909E+01
     28.292  0.2327E+00  0.2767E+00  0.8022E+01  0.7959E+01
     28.474  0.1415E+00  0.2451E+00  0.8048E+01  0.8003E+01
     28.656  0.1105E+00  0.1062E+00  0.8068E+01  0.8023E+01
     28.838  0.2469E+00  0.1814E+00  0.8113E+01  0.8056E+01
     29.020  0.1926E+00  0.1581E+00  0.8148E+01  0.8085E+01
     29.202  0.8311E-01  0.3007E+00  0.8163E+01  0.8139E+01
     29.384  0.1461E+00  0.5432E-01  0.8190E+01  0.8149E+01
     29.566  0.1093E+00  0.1809E+00  0.8210E+01  0.8182E+01
     29.748  0.2367E+00  0.1112E+00  0.8253E+01  0.8202E+01
     29.930  0.2317E+00  0.1175E+00  0.8295E+01  0.8224E+01
     30.112  0.1811E+00  0.3107E+00  0.8328E+01  0.8280E+01
     30.294  0.2074E+00  0.2443E+00  0.8366E+01  0.8325E+01
     30.476  0.8636E-01  0.2193E+00  0.8381E+01  0.8365E+01
     30.658  0.1462E+00  0.1026E-01  0.8408E+01  0.8367E+01
     30.840  0.1551E+00  0.2242E+00  0.8436E+01  0.8407E+01
     31.022  0.2608E+00  0.1633E+00  0.8484E+01  0.8437E+01
     31.204  0.1262E+00  0.1913E+00  0.8507E+01  0.8472E+01
     31.386  0.1627E+00  0.1507E+00  0.8536E+01  0.8499E+01
     31.568  0.1649E+00  0.1930E+00  0.8566E+01  0.8534E+01
     31.750  0.2253E+00  0.2539E+00  0.8607E+01  0.8581E+01
     31.932  0.1990E+00  0.1914E+00  0.8643E+01  0.8616E+01
     32.114  0.2489E+00  0.1732E+00  0.8689E+01  0.8647E+01
     32.296  0.1803E+00  0.1674E+00  0.8722E+01  0.8678E+01
     32.478  0.2410E+00  0.1965E+00  0.8765E+01  0.8713E+01
     32.660  0.2448E+00  0.2955E+00  0.8810E+01  0.8767E+01
     32.842  0.3737E+00  0.3105E+00  0.8878E+01  0.8824E+01
     33.024  0.1913E+00  0.2919E+00  0.8913E+01  0.8877E+01
     33.206  0.2472E+00  0.1807E+00  0.8958E+01  0.8910E+01
     33.388  0.2164E+00  0.2509E+00  0.8997E+01  0.8955E+01
     33.570  0.2337E+00  0.2606E+00  0.9040E+01  0.9003E+01
     33.752  0.2136E+00  0.2247E+00  0.9079E+01  0.9044E+01
     33.934  0.1636E+00  0.2488E+00  0.9108E+01  0.9089E+01
     34.117  0.3498E+00  0.1413E+00  0.9172E+01  0.9115E+01
     34.299  0.2231E+00  0.2565E+00  0.9213E+01  0.9161E+01
     34.481  0.4432E+00  0.3620E+00  0.9293E+01  0.9227E+01
     34.663  0.1721E+00  0.4066E+00  0.9325E+01  0.9301E+01
     34.845  0.2567E+00  0.9060E-01  0.9371E+01  0.9318E+01
     35.027  0.2932E+00  0.2644E+00  0.9425E+01  0.9366E+01
     35.209  0.1693E+00  0.2563E+00  0.9456E+01  0.9412E+01
     35.391  0.1156E+00  0.2064E+00  0.9477E+01  0.9450E+01
     35.573  0.2944E+00  0.1935E+00  0.9530E+01  0.9485E+01
     35.755  0.3341E+00  0.2771E+00  0.9591E+01  0.9536E+01
     35.937  0.3374E+00  0.3436E+00  0.9652E+01  0.9598E+01
     36.119  0.2165E+00  0.3326E+00  0.9692E+01  0.9659E+01
     36.301  0.2368E+00  0.1411E+00  0.9735E+01  0.9684E+01
     36.483  0.3141E+00  0.2430E+00  0.9792E+01  0.9729E+01
     36.665  0.1094E+00  0.3238E+00  0.9812E+01  0.9788E+01
     36.847  0.1091E+00  0.3792E-01  0.9832E+01  0.9795E+01
     37.029  0.2400E+00  0.2035E+00  0.9876E+01  0.9832E+01
     37.211  0.9430E-01  0.2420E+00  0.9893E+01  0.9876E+01
     37.393  0.1245E+00  0.6875E-01  0.9915E+01  0.9888E+01
     37.575  0.1764E+00  0.2252E+00  0.9947E+01  0.9929E+01
     37.757  0.1709E+00  0.1015E+00  0.9979E+01  0.9948E+01
     37.939  0.2627E+00  0.2065E+00  0.1003E+02  0.9985E+01
     38.121  0.1263E+00  0.6536E-01  0.1005E+02  0.9997E+01
     38.303  0.2093E+00  0.2100E+00  0.1009E+02  0.1004E+02
     38.485  0.1674E+00  0.1607E+00  0.1012E+02  0.1006E+02
     38.667  0.7036E-01  0.1935E+00  0.1013E+02  0.1010E+02
     38.849  0.9474E-01  0.1002E+00  0.1015E+02  0.1012E+02
     39.031  0.2806E+00  0.1734E+00  0.1020E+02  0.1015E+02
     39.213  0.2369E+00  0.2840E+00  0.1024E+02  0.1020E+02
     39.395  0.1673E+00  0.1873E+00  0.1027E+02  0.1024E+02
     39.577  0.1762E+00  0.1215E+00  0.1030E+02  0.1026E+02
     39.759  0.2729E+00  0.1502E+00  0.1035E+02  0.1028E+02
     39.941  0.1491E+00  0.3520E+00  0.1038E+02  0.1035E+02
     40.123  0.2182E+00  0.2259E+00  0.1042E+02  0.1039E+02
     40.305  0.3826E+00  0.5473E-01  0.1049E+02  0.1040E+02
     40.487  0.4421E+00  0.4796E+00  0.1057E+02  0.1049E+02
     40.669  0.2943E+00  0.3701E+00  0.1062E+02  0.1055E+02
     40.851  0.4262E+00  0.2909E+00  0.1070E+02  0.1061E+02
     41.033  0.3013E+00  0.5317E+00  0.1076E+02  0.1070E+02
     41.215  0.2341E+00  0.2239E+00  0.1080E+02  0.1075E+02
     41.397  0.2022E+00  0.2520E+00  0.1084E+02  0.1079E+02
     41.579  0.2495E+00  0.1827E+00  0.1088E+02  0.1082E+02
     41.761  0.1722E+00  0.2149E+00  0.1091E+02  0.1086E+02
     41.943  0.3035E+00  0.3652E+00  0.1097E+02  0.1093E+02
     42.125  0.1214E+00  0.2097E+00  0.1099E+02  0.1097E+02
     42.307  0.1139E+00  0.1812E+00  0.1101E+02  0.1100E+02
     42.489  0.2944E+00  0.7201E-01  0.1107E+02  0.1101E+02
     42.671  0.2873E+00  0.2185E+00  0.1112E+02  0.1105E+02
     42.853  0.1432E+00  0.2973E+00  0.1114E+02  0.1111E+02
     43.035  0.2166E+00  0.2207E+00  0.1118E+02  0.1115E+02
     43.217  0.3111E+00  0.2203E+00  0.1124E+02  0.1119E+02
     43.399  0.4067E-01  0.2803E+00  0.1125E+02  0.1124E+02
     43.581  0.1357E+00  0.8775E-01  0.1127E+02  0.1126E+02
     43.763  0.2773E+00  0.8683E-02  0.1132E+02  0.1126E+02
     43.945  0.1931E+00  0.2918E+00  0.1136E+02  0.1131E+02
     44.127  0.1340E+00  0.1266E+00  0.1138E+02  0.1133E+02
     44.309  0.4112E-01  0.1654E+00  0.1139E+02  0.1136E+02
     44.491  0.2010E+00  0.1693E+00  0.1143E+02  0.1139E+02
     44.673  0.1885E+00  0.9980E-01  0.1146E+02  0.1141E+02
     44.855  0.1615E+00  0.1157E+00  0.1149E+02  0.1143E+02
     45.037  0.3186E+00  0.2914E+00  0.1155E+02  0.1149E+02
     45.219  0.2919E+00  0.2391E+00  0.1160E+02  0.1153E+02
     45.401  0.1320E+00  0.3395E+00  0.1162E+02  0.1159E+02
     45.583  0.7531E-01  0.1330E+00  0.1164E+02  0.1162E+02
     45.765  0.1597E+00  0.3406E-02  0.1167E+02  0.1162E+02
     45.947  0.1772E+00  0.8961E-01  0.1170E+02  0.1163E+02
     46.129  0.1065E+00  0.1529E+00  0.1172E+02  0.1166E+02
     46.311  0.1616E+00  0.1216E+00  0.1175E+02  0.1168E+02
     46.493  0.1882E+00  0.2582E+00  0.1178E+02  0.1173E+02
     46.675  0.3963E-01  0.1812E+00  0.1179E+02  0.1176E+02
     46.857  0.2032E+00  0.5945E-01  0.1183E+02  0.1177E+02
     47.039  0.1757E+00  0.2817E-01  0.1186E+02  0.1178E+02
     47.221  0.1944E+00  0.1358E+00  0.1189E+02  0.1180E+02
     47.403  0.5110E+00  0.5992E-01  0.1199E+02  0.1181E+02
     47.585  0.7027E-01  0.8573E-02  0.1200E+02  0.1182E+02
     47.767  0.5335E-05  0.1634E+00  0.1200E+02  0.1185E+02
     47.949  0.0000E+00  0.5875E-01  0.1200E+02  0.1186E+02
     48.131  0.0000E+00  0.4428E-01  0.1200E+02  0.1186E+02
     48.313  0.0000E+00  0.5473E-01  0.1200E+02  0.1187E+02
     48.495  0.0000E+00  0.1150E+00  0.1200E+02  0.1189E+02
     48.677  0.0000E+00  0.1095E+00  0.1200E+02  0.1191E+02
     48.859  0.0000E+00  0.6116E-02  0.1200E+02  0.1192E+02
     49.041  0.0000E+00  0.1584E-01  0.1200E+02  0.1192E+02
     49.223  0.0000E+00  0.1713E-01  0.1200E+02  0.1192E+02
     49.405  0.0000E+00  0.5674E-02  0.1200E+02  0.1192E+02
     49.587  0.0000E+00  0.7356E-01  0.1200E+02  0.1194E+02
     49.769  0.0000E+00  0.1967E-01  0.1200E+02  0.1194E+02
     49.951  0.0000E+00  0.4511E-09  0.1200E+02  0.1194E+02
     50.133  0.0000E+00  0.0000E+00  0.1200E+02  0.1194E+02
     50.315  0.0000E+00  0.3784E-12  0.1200E+02  0.1194E+02
     50.497  0.0000E+00  0.2046E-02  0.1200E+02  0.1194E+02
     50.679  0.0000E+00  0.8622E-01  0.1200E+02  0.1196E+02
     50.861  0.0000E+00  0.4098E-01  0.1200E+02  0.1196E+02
     51.043  0.0000E+00  0.1460E+00  0.1200E+02  0.1199E+02
     51.225  0.0000E+00  0.5435E-01  0.1200E+02  0.1200E+02
     51.407  0.0000E+00  0.1736E-04  0.1200E+02  0.1200E+02
     51.589  0.0000E+00  0.0000E+00  0.1200E+02  0.1200E+02
     51.771  0.0000E+00  0.0000E+00  0.1200E+02  0.1200E+02
     51.953  0.0000E+00  0.0000E+00  0.1200E+02  0.1200E+02
     52.135  0.0000E+00  0.0000E+00  0.1200E+02  0.1200E+02
     52.317  0.0000E+00  0.0000E+00  0.1200E+02  0.1200E+02
     52.499  0.0000E+00  0.0000E+00  0.1200E+02  0.1200E+02
     52.681  0.0000E+00  0.0000E+00  0.1200E+02  0.1200E+02
     52.863  0.0000E+00  0.0000E+00  0.1200E+02  0.1200E+02
     53.045  0.0000E+00  0.0000E+00  0.1200E+02  0.1200E+02
     53.227  0.0000E+00  0.0000E+00  0.1200E+02  0.1200E+02
     53.409  0.0000E+00  0.0000E+00  0.1200E+02  0.1200E+02
     53.591  0.0000E+00  0.0000E+00  0.1200E+02  0.1200E+02
