    1    1    1    2
  0.1081089E+02  0.2481945E-09  0.2481945E-09  0.2481945E-09  0.5000000E-15
  1.000000000000000E-004
  CAR 
 Co-fcc                                  
      9    110     12
 
  0.5000000E-01  0.5000000E-01  0.5000000E-01  0.2000000E-02
      1          1.470717        1.480449   1.000000   1.000000
      2          7.651889        9.231811   1.000000   1.000000
      3          7.704760        9.295322   1.000000   1.000000
      4          7.704760        9.295322   1.000000   1.000000
      5          8.750454       10.673005   1.000000   0.000000
      6          8.750454       10.673005   1.000000   0.000000
      7         33.279091       33.007923   0.000000   0.000000
      8         36.544153       36.676946   0.000000   0.000000
      9         37.671240       37.843541   0.000000   0.000000
     10         37.671240       37.843541   0.000000   0.000000
     11         41.353871       41.626450   0.000000   0.000000
     12         41.353872       41.626547   0.000000   0.000000
 
  0.1500000E+00  0.5000000E-01  0.5000000E-01  0.6000000E-02
      1          1.992209        2.005262   1.000000   1.000000
      2          7.504676        9.043871   1.000000   1.000000
      3          7.815944        9.419900   1.000000   1.000000
      4          7.829168        9.431072   1.000000   1.000000
      5          8.639984       10.540427   1.000000   0.000041
      6          8.788693       10.705379   1.000000   0.000000
      7         31.573702       31.649891   0.000000   0.000000
      8         33.893957       33.955346   0.000000   0.000000
      9         36.478992       36.589763   0.000000   0.000000
     10         38.358354       38.534767   0.000000   0.000000
     11         40.892875       40.891419   0.000000   0.000000
     12         41.504323       41.753540   0.000000   0.000000
 
  0.2500000E+00  0.5000000E-01  0.5000000E-01  0.6000000E-02
      1          3.185385        3.230319   1.000000   1.000000
      2          7.312440        8.736261   1.000000   1.000000
      3          7.889772        9.529097   1.000000   1.000000
      4          7.928103        9.578374   1.000000   1.000000
      5          8.663656       10.518285   1.000000   0.000467
      6          8.964597       10.844948   1.000000   0.000000
      7         26.814373       27.172563   0.000000   0.000000
      8         32.794519       32.814098   0.000000   0.000000
      9         35.894638       35.996171   0.000000   0.000000
     10         37.971193       38.258735   0.000000   0.000000
     11         40.530400       40.527733   0.000000   0.000000
     12         40.976003       41.190978   0.000000   0.000000
 
  0.3500000E+00  0.5000000E-01  0.5000000E-01  0.6000000E-02
      1          4.555013        4.821002   1.000000   1.000000
      2          7.568410        8.657377   1.000000   1.000000
      3          7.748274        9.410255   1.000000   1.000000
      4          7.795513        9.480039   1.000000   1.000000
      5          9.043207       10.881025   1.000000   0.000000
      6          9.398609       11.240546   1.000000   0.000000
      7         22.073406       22.616813   0.000000   0.000000
      8         32.106515       32.065036   0.000000   0.000000
      9         34.863291       35.014512   0.000000   0.000000
     10         37.392165       37.763302   0.000000   0.000000
     11         38.710990       38.938910   0.000000   0.000000
     12         40.462235       40.615256   0.000000   0.000000
 
  0.4500000E+00  0.5000000E-01  0.5000000E-01  0.6000000E-02
      1          5.162646        5.930380   1.000000   1.000000
      2          7.579270        9.193018   1.000000   1.000000
      3          7.644176        9.322897   1.000000   1.000000
      4          8.738821        9.371262   1.000000   1.000000
      5          9.459294       11.331101   1.000000   0.000000
      6         10.068554       11.681419   1.000000   0.000000
      7         18.120692       18.925273   0.000000   0.000000
      8         31.695755       31.540158   0.000000   0.000000
      9         34.271003       34.501226   0.000000   0.000000
     10         35.797532       36.119840   0.000000   0.000000
     11         38.310616       38.591895   0.000000   0.000000
     12         39.654828       39.878594   0.000000   0.000000
 
 -0.4500000E+00  0.5000000E-01  0.5000000E-01  0.6000000E-02
      1          5.232675        6.147652   1.000000   1.000000
      2          7.518252        9.156739   1.000000   1.000000
      3          7.609385        9.282918   1.000000   1.000000
      4          9.120835        9.826668   1.000000   1.000000
      5          9.645096       11.541172   1.000000   0.000000
      6         10.659585       11.837276   0.000000   0.000000
      7         16.649302       17.642591   0.000000   0.000000
      8         31.678771       31.454321   0.000000   0.000000
      9         34.505858       34.820502   0.000000   0.000000
     10         34.596447       34.889399   0.000000   0.000000
     11         38.935657       39.204163   0.000000   0.000000
     12         38.964808       39.208234   0.000000   0.000000
 
 -0.3500000E+00  0.5000000E-01  0.5000000E-01  0.6000000E-02
      1          5.055377        5.671153   1.000000   1.000000
      2          7.604958        8.984985   1.000000   1.000000
      3          7.706751        9.294053   1.000000   1.000000
      4          8.292792        9.382624   1.000000   1.000000
      5          9.507400       11.354888   1.000000   0.000000
      6          9.655470       11.397517   1.000000   0.000000
      7         19.294663       19.997670   0.000000   0.000000
      8         32.139059       31.916561   0.000000   0.000000
      9         34.013744       34.350271   0.000000   0.000000
     10         35.842477       36.180158   0.000000   0.000000
     11         38.761245       38.976801   0.000000   0.000000
     12         40.191173       40.422488   0.000000   0.000000
 
 -0.2500000E+00  0.5000000E-01  0.5000000E-01  0.6000000E-02
      1          4.140034        4.290068   1.000000   1.000000
      2          7.368729        8.615430   1.000000   1.000000
      3          7.795945        9.468185   1.000000   1.000000
      4          7.866709        9.535565   1.000000   1.000000
      5          8.988262       10.795002   1.000000   0.000000
      6          9.153632       11.033183   1.000000   0.000000
      7         23.596379       24.074135   0.000000   0.000000
      8         32.960210       32.780995   0.000000   0.000000
      9         34.218306       34.568373   0.000000   0.000000
     10         37.625688       37.969153   0.000000   0.000000
     11         39.024245       39.165198   0.000000   0.000000
     12         41.987079       42.152552   0.000000   0.000000
 
 -0.1500000E+00  0.5000000E-01  0.5000000E-01  0.6000000E-02
      1          2.730030        2.756756   1.000000   1.000000
      2          7.351045        8.825470   1.000000   1.000000
      3          7.905163        9.534292   1.000000   1.000000
      4          7.918542        9.546588   1.000000   1.000000
      5          8.628773       10.489370   1.000000   0.006356
      6          8.858706       10.763332   1.000000   0.000000
      7         28.467386       28.761673   0.000000   0.000000
      8         33.810671       33.665149   0.000000   0.000000
      9         34.970106       35.296572   0.000000   0.000000
     10         38.385966       38.517524   0.000000   0.000000
     11         39.936116       40.090234   0.000000   0.000000
     12         43.480259       43.543305   0.000000   0.000000
 
 -0.5000000E-01  0.5000000E-01  0.5000000E-01  0.6000000E-02
      1          1.734146        1.745117   1.000000   1.000000
      2          7.557172        9.117451   1.000000   1.000000
      3          7.777610        9.373592   1.000000   1.000000
      4          7.781374        9.377778   1.000000   1.000000
      5          8.658949       10.563927   1.000000   0.000002
      6          8.791515       10.717742   1.000000   0.000000
      7         32.695585       32.573269   0.000000   0.000000
      8         35.178804       35.255981   0.000000   0.000000
      9         36.184022       36.447643   0.000000   0.000000
     10         37.540618       37.649142   0.000000   0.000000
     11         41.397633       41.605798   0.000000   0.000000
     12         42.695176       42.839690   0.000000   0.000000
 
  0.1500000E+00  0.1500000E+00  0.5000000E-01  0.6000000E-02
      1          2.246469        2.262204   1.000000   1.000000
      2          7.367819        8.892670   1.000000   1.000000
      3          7.927439        9.535730   1.000000   1.000000
      4          7.931695        9.540290   1.000000   1.000000
      5          8.500602       10.366595   1.000000   0.836676
      6          8.869964       10.803029   1.000000   0.000000
      7         31.755272       31.827859   0.000000   0.000000
      8         33.837954       33.865890   0.000000   0.000000
      9         34.371541       34.685068   0.000000   0.000000
     10         36.178800       36.247147   0.000000   0.000000
     11         42.302901       42.625463   0.000000   0.000000
     12         43.401421       43.861190   0.000000   0.000000
 
  0.2500000E+00  0.1500000E+00  0.5000000E-01  0.1200000E-01
      1          3.201018        3.240301   1.000000   1.000000
      2          7.122802        8.585290   1.000000   1.000000
      3          7.952151        9.608831   1.000000   1.000000
      4          8.141146        9.779635   1.000000   1.000000
      5          8.492420       10.274969   1.000000   0.999823
      6          9.042963       10.957213   1.000000   0.000000
      7         28.822661       29.116979   0.000000   0.000000
      8         30.956941       31.158218   0.000000   0.000000
      9         34.508617       34.606670   0.000000   0.000000
     10         35.913589       35.993454   0.000000   0.000000
     11         40.749146       41.384433   0.000000   0.000000
     12         43.137093       43.189844   0.000000   0.000000
 
  0.3500000E+00  0.1500000E+00  0.5000000E-01  0.1200000E-01
      1          4.543204        4.718775   1.000000   1.000000
      2          7.034834        8.353572   1.000000   1.000000
      3          7.678231        9.328219   1.000000   1.000000
      4          8.107064        9.797175   1.000000   1.000000
      5          9.003724       10.751283   1.000000   0.000000
      6          9.524390       11.347699   1.000000   0.000000
      7         23.952270       24.408656   0.000000   0.000000
      8         30.152903       30.358335   0.000000   0.000000
      9         33.051775       33.184407   0.000000   0.000000
     10         35.651977       35.912695   0.000000   0.000000
     11         41.774790       41.863389   0.000000   0.000000
     12         41.908664       42.220952   0.000000   0.000000
 
  0.4500000E+00  0.1500000E+00  0.5000000E-01  0.1200000E-01
      1          5.396903        6.053191   1.000000   1.000000
      2          7.303458        8.495524   1.000000   1.000000
      3          7.687024        9.099825   1.000000   1.000000
      4          7.957667        9.647841   1.000000   1.000000
      5          9.498012       11.347391   1.000000   0.000000
      6         10.605462       12.065562   0.000000   0.000000
      7         19.590393       20.246407   0.000000   0.000000
      8         29.812391       29.946193   0.000000   0.000000
      9         31.629296       31.902939   0.000000   0.000000
     10         34.719304       34.937307   0.000000   0.000000
     11         40.793853       40.967112   0.000000   0.000000
     12         43.076628       43.215535   0.000000   0.000000
 
 -0.4500000E+00  0.1500000E+00  0.5000000E-01  0.1200000E-01
      1          5.555831        6.514988   1.000000   1.000000
      2          7.237520        8.675895   1.000000   1.000000
      3          7.839391        9.307758   1.000000   1.000000
      4          8.236927        9.540955   1.000000   1.000000
      5          9.619284       11.503861   1.000000   0.000000
      6         12.099279       13.052066   0.000000   0.000000
      7         16.755957       17.694072   0.000000   0.000000
      8         29.378433       29.496883   0.000000   0.000000
      9         31.296080       31.627698   0.000000   0.000000
     10         34.445438       34.576528   0.000000   0.000000
     11         40.177344       40.414464   0.000000   0.000000
     12         42.703418       42.842400   0.000000   0.000000
 
 -0.3500000E+00  0.1500000E+00  0.5000000E-01  0.1200000E-01
      1          5.509219        6.314226   1.000000   1.000000
      2          7.326077        8.693930   1.000000   1.000000
      3          7.845155        9.096420   1.000000   1.000000
      4          7.985189        9.576244   1.000000   1.000000
      5          9.406391       11.250858   1.000000   0.000000
      6         11.240304       12.558981   0.000000   0.000000
      7         18.378551       19.131166   0.000000   0.000000
      8         28.831019       29.035584   0.000000   0.000000
      9         32.289646       32.501553   0.000000   0.000000
     10         35.198973       35.354272   0.000000   0.000000
     11         39.819597       40.063437   0.000000   0.000000
     12         42.421253       42.564608   0.000000   0.000000
 
 -0.2500000E+00  0.1500000E+00  0.5000000E-01  0.1200000E-01
      1          4.958831        5.242745   1.000000   1.000000
      2          7.204916        8.423338   1.000000   1.000000
      3          7.581417        9.208941   1.000000   1.000000
      4          8.021806        9.731890   1.000000   1.000000
      5          8.928646       10.712164   1.000000   0.000000
      6          9.989719       11.729626   1.000000   0.000000
      7         22.431742       22.950836   0.000000   0.000000
      8         28.788847       29.040189   0.000000   0.000000
      9         33.955599       34.054442   0.000000   0.000000
     10         36.852546       37.072417   0.000000   0.000000
     11         39.717447       39.878849   0.000000   0.000000
     12         41.804755       41.970632   0.000000   0.000000
 
 -0.1500000E+00  0.1500000E+00  0.5000000E-01  0.1200000E-01
      1          3.641960        3.700387   1.000000   1.000000
      2          7.121470        8.552489   1.000000   1.000000
      3          7.844409        9.485451   1.000000   1.000000
      4          8.157546        9.818704   1.000000   1.000000
      5          8.469825       10.281390   1.000000   0.999652
      6          9.269704       11.132276   1.000000   0.000000
      7         27.172166       27.526123   0.000000   0.000000
      8         29.357322       29.605760   0.000000   0.000000
      9         36.008351       36.050540   0.000000   0.000000
     10         37.457874       37.501968   0.000000   0.000000
     11         40.583036       40.668114   0.000000   0.000000
     12         41.478329       41.912621   0.000000   0.000000
 
 -0.5000000E-01  0.1500000E+00  0.5000000E-01  0.1200000E-01
      1          2.493483        2.513224   1.000000   1.000000
      2          7.351624        8.856844   1.000000   1.000000
      3          7.913588        9.529844   1.000000   1.000000
      4          7.943506        9.560030   1.000000   1.000000
      5          8.530547       10.397442   1.000000   0.543157
      6          8.885092       10.800013   1.000000   0.000000
      7         30.200873       30.413438   0.000000   0.000000
      8         32.406824       32.532429   0.000000   0.000000
      9         35.805031       35.893322   0.000000   0.000000
     10         37.807440       37.854295   0.000000   0.000000
     11         40.871625       41.061430   0.000000   0.000000
     12         42.574120       42.692519   0.000000   0.000000
 
  0.2500000E+00  0.2500000E+00  0.5000000E-01  0.6000000E-02
      1          3.825883        3.910746   1.000000   1.000000
      2          6.819066        8.248253   1.000000   1.000000
      3          8.058853        9.733275   1.000000   1.000000
      4          8.424154       10.081516   1.000000   1.000000
      5          8.572783       10.233978   1.000000   0.999999
      6          9.109784       11.061314   1.000000   0.000000
      7         29.276919       29.567663   0.000000   0.000000
      8         30.795267       31.121526   0.000000   0.000000
      9         31.492405       31.558653   0.000000   0.000000
     10         32.717060       32.890811   0.000000   0.000000
     11         37.934775       38.566929   0.000000   0.000000
     12         46.902957       46.886014   0.000000   0.000000
 
  0.3500000E+00  0.2500000E+00  0.5000000E-01  0.1200000E-01
      1          4.816407        5.072169   1.000000   1.000000
      2          6.575823        7.946405   1.000000   1.000000
      3          7.858073        9.398122   1.000000   1.000000
      4          8.665853       10.374326   1.000000   0.777037
      5          9.046799       10.746328   1.000000   0.000000
      6          9.546733       11.373488   1.000000   0.000000
      7         26.270017       26.629993   0.000000   0.000000
      8         28.197102       28.481506   0.000000   0.000000
      9         30.000633       30.271072   0.000000   0.000000
     10         33.361120       33.562416   0.000000   0.000000
     11         37.834414       38.322160   0.000000   0.000000
     12         46.385640       46.546741   0.000000   0.000000
 
  0.4500000E+00  0.2500000E+00  0.5000000E-01  0.1200000E-01
      1          5.638009        6.308360   1.000000   1.000000
      2          6.570822        7.838713   1.000000   1.000000
      3          7.638970        9.042481   1.000000   1.000000
      4          8.528073       10.277169   1.000000   0.999776
      5          9.555670       11.422393   1.000000   0.000000
      6         11.002985       12.356790   0.000000   0.000000
      7         21.706874       22.200087   0.000000   0.000000
      8         27.281130       27.579522   0.000000   0.000000
      9         28.364107       28.708870   0.000000   0.000000
     10         33.552089       33.775746   0.000000   0.000000
     11         40.885142       41.210254   0.000000   0.000000
     12         45.007074       45.262210   0.000000   0.000000
 
 -0.4500000E+00  0.2500000E+00  0.5000000E-01  0.1200000E-01
      1          5.986221        7.044985   1.000000   1.000000
      2          6.686629        7.901571   1.000000   1.000000
      3          7.652818        8.945117   1.000000   1.000000
      4          8.355329       10.113708   1.000000   1.000000
      5          9.649507       11.524700   1.000000   0.000000
      6         13.359518       14.281546   0.000000   0.000000
      7         17.872804       18.578905   0.000000   0.000000
      8         25.743897       26.119633   0.000000   0.000000
      9         28.658783       28.981305   0.000000   0.000000
     10         33.637177       33.808611   0.000000   0.000000
     11         43.153153       43.276120   0.000000   0.000000
     12         45.718489       46.272034   0.000000   0.000000
 
 -0.3500000E+00  0.2500000E+00  0.5000000E-01  0.1200000E-01
      1          6.155235        7.151980   1.000000   1.000000
      2          6.804497        8.103991   1.000000   1.000000
      3          7.527955        8.777539   1.000000   1.000000
      4          8.267487       10.037158   1.000000   1.000000
      5          9.397451       11.220047   1.000000   0.000000
      6         13.505757       14.461370   0.000000   0.000000
      7         17.892585       18.627368   0.000000   0.000000
      8         24.630994       25.037459   0.000000   0.000000
      9         29.956345       30.262109   0.000000   0.000000
     10         34.302018       34.434724   0.000000   0.000000
     11         42.305027       42.436080   0.000000   0.000000
     12         45.947605       46.059540   0.000000   0.000000
 
 -0.2500000E+00  0.2500000E+00  0.5000000E-01  0.1200000E-01
      1          5.977881        6.489880   1.000000   1.000000
      2          7.008445        8.278530   1.000000   1.000000
      3          7.155916        8.679745   1.000000   1.000000
      4          8.311668       10.100650   1.000000   1.000000
      5          8.934835       10.675849   1.000000   0.000000
      6         11.465156       12.906270   0.000000   0.000000
      7         21.722097       22.259312   0.000000   0.000000
      8         24.266057       24.675302   0.000000   0.000000
      9         31.851032       32.096653   0.000000   0.000000
     10         35.812764       35.961608   0.000000   0.000000
     11         40.941580       40.982292   0.000000   0.000000
     12         44.911806       45.022957   0.000000   0.000000
 
 -0.1500000E+00  0.2500000E+00  0.5000000E-01  0.1200000E-01
      1          4.942393        5.133829   1.000000   1.000000
      2          6.976813        8.327804   1.000000   1.000000
      3          7.556441        9.161709   1.000000   1.000000
      4          8.260702       10.016211   1.000000   1.000000
      5          8.624765       10.359575   1.000000   0.880889
      6         10.079590       11.822021   1.000000   0.000000
      7         24.311351       24.763521   0.000000   0.000000
      8         26.590093       26.925378   0.000000   0.000000
      9         34.061007       34.202451   0.000000   0.000000
     10         37.760128       37.922625   0.000000   0.000000
     11         39.176481       39.221134   0.000000   0.000000
     12         43.015145       43.265864   0.000000   0.000000
 
 -0.5000000E-01  0.2500000E+00  0.5000000E-01  0.1200000E-01
      1          3.817411        3.903291   1.000000   1.000000
      2          7.204523        8.574070   1.000000   1.000000
      3          7.830673        9.486738   1.000000   1.000000
      4          7.984467        9.656249   1.000000   1.000000
      5          8.733824       10.535337   1.000000   0.000075
      6          9.205495       11.072980   1.000000   0.000000
      7         25.307634       25.720469   0.000000   0.000000
      8         31.460058       31.590307   0.000000   0.000000
      9         34.871246       34.958269   0.000000   0.000000
     10         37.952556       38.159872   0.000000   0.000000
     11         39.672274       39.867191   0.000000   0.000000
     12         41.582444       41.735434   0.000000   0.000000
 
  0.3500000E+00  0.3500000E+00  0.5000000E-01  0.6000000E-02
      1          5.115340        5.678357   1.000000   1.000000
      2          6.243755        7.582276   1.000000   1.000000
      3          8.622633        9.841586   1.000000   1.000000
      4          9.046558       10.802876   1.000000   0.000000
      5          9.403829       11.048443   1.000000   0.000000
      6          9.504899       11.357614   1.000000   0.000000
      7         26.453222       26.778128   0.000000   0.000000
      8         27.110377       27.452620   0.000000   0.000000
      9         27.814206       28.083485   0.000000   0.000000
     10         31.333959       31.626828   0.000000   0.000000
     11         35.561799       36.038968   0.000000   0.000000
     12         47.309955       50.812891   0.000000   0.000000
 
  0.4500000E+00  0.3500000E+00  0.5000000E-01  0.1200000E-01
      1          5.396038        6.306472   1.000000   1.000000
      2          6.100561        7.399889   1.000000   1.000000
      3          8.581405        9.850864   1.000000   1.000000
      4          9.220725       11.047669   1.000000   0.000000
      5          9.572357       11.431856   1.000000   0.000000
      6         11.188273       12.335149   0.000000   0.000000
      7         23.975239       24.390453   0.000000   0.000000
      8         24.642351       25.060843   0.000000   0.000000
      9         26.277027       26.555564   0.000000   0.000000
     10         32.334289       32.611359   0.000000   0.000000
     11         36.498133       36.911419   0.000000   0.000000
     12         47.246501       49.568556   0.000000   0.000000
 
 -0.4500000E+00  0.3500000E+00  0.5000000E-01  0.1200000E-01
      1          5.714083        6.868507   1.000000   1.000000
      2          6.208097        7.448861   1.000000   1.000000
      3          8.193471        9.462480   1.000000   1.000000
      4          8.972207       10.829925   1.000000   0.000000
      5          9.726626       11.586125   1.000000   0.000000
      6         13.866221       14.668730   0.000000   0.000000
      7         20.174119       20.649661   0.000000   0.000000
      8         22.515022       23.086565   0.000000   0.000000
      9         26.547422       26.832610   0.000000   0.000000
     10         32.879469       33.136351   0.000000   0.000000
     11         40.217160       40.568414   0.000000   0.000000
     12         47.024916       47.778312   0.000000   0.000000
 
 -0.3500000E+00  0.3500000E+00  0.5000000E-01  0.1200000E-01
      1          6.127166        7.439235   1.000000   1.000000
      2          6.455700        7.569862   1.000000   1.000000
      3          7.674507        8.937430   1.000000   1.000000
      4          8.724485       10.582206   1.000000   0.000000
      5          9.532314       11.336677   1.000000   0.000000
      6         16.276026       16.948810   0.000000   0.000000
      7         17.373544       17.991457   0.000000   0.000000
      8         21.416241       22.027741   0.000000   0.000000
      9         27.804646       28.121717   0.000000   0.000000
     10         33.375280       33.576013   0.000000   0.000000
     11         44.965814       45.308898   0.000000   0.000000
     12         45.785867       45.996033   0.000000   0.000000
 
 -0.2500000E+00  0.3500000E+00  0.5000000E-01  0.1200000E-01
      1          6.430996        7.349242   1.000000   1.000000
      2          6.690624        8.050159   1.000000   1.000000
      3          7.241283        8.512477   1.000000   1.000000
      4          8.451921       10.269967   1.000000   0.999898
      5          9.253599       11.026824   1.000000   0.000000
      6         13.607489       14.617733   0.000000   0.000000
      7         19.380419       19.976985   0.000000   0.000000
      8         22.525885       23.026291   0.000000   0.000000
      9         29.738068       30.052160   0.000000   0.000000
     10         34.308558       34.456469   0.000000   0.000000
     11         43.190180       43.243364   0.000000   0.000000
     12         46.825617       47.113749   0.000000   0.000000
 
 -0.1500000E+00  0.3500000E+00  0.5000000E-01  0.1200000E-01
      1          5.751534        6.422703   1.000000   1.000000
      2          7.198006        8.410540   1.000000   1.000000
      3          7.416211        8.844250   1.000000   1.000000
      4          8.099127        9.833532   1.000000   1.000000
      5          9.163494       10.962780   1.000000   0.000000
      6         11.397871       12.798546   0.000000   0.000000
      7         19.932443       20.559958   0.000000   0.000000
      8         26.474690       26.805842   0.000000   0.000000
      9         31.986145       32.212201   0.000000   0.000000
     10         35.578953       35.716880   0.000000   0.000000
     11         40.455588       40.612281   0.000000   0.000000
     12         43.750443       43.873349   0.000000   0.000000
 
 -0.5000000E-01  0.3500000E+00  0.5000000E-01  0.1200000E-01
      1          4.993004        5.434146   1.000000   1.000000
      2          7.581216        8.644126   1.000000   1.000000
      3          7.683364        9.267092   1.000000   1.000000
      4          7.835128        9.516339   1.000000   1.000000
      5          9.245383       11.057902   1.000000   0.000000
      6          9.818023       11.561848   1.000000   0.000000
      7         20.739425       21.344489   0.000000   0.000000
      8         30.975583       31.042363   0.000000   0.000000
      9         33.732707       33.868357   0.000000   0.000000
     10         36.143634       36.461022   0.000000   0.000000
     11         39.428897       39.638084   0.000000   0.000000
     12         41.219510       41.390773   0.000000   0.000000
 
  0.4500000E+00  0.4500000E+00  0.5000000E-01  0.6000000E-02
      1          5.203689        6.277072   1.000000   1.000000
      2          5.851312        7.132960   1.000000   1.000000
      3          9.450668       11.060330   1.000000   0.000000
      4          9.541415       11.400978   1.000000   0.000000
      5          9.749006       11.611248   1.000000   0.000000
      6         11.850476       12.410219   0.000000   0.000000
      7         21.828662       22.502148   0.000000   0.000000
      8         25.121848       25.353348   0.000000   0.000000
      9         25.903559       26.094216   0.000000   0.000000
     10         30.869357       31.246897   0.000000   0.000000
     11         34.808722       35.247969   0.000000   0.000000
     12         47.394005       51.037027   0.000000   0.000000
 
 -0.4500000E+00  0.4500000E+00  0.5000000E-01  0.1200000E-01
      1          5.295665        6.454927   1.000000   1.000000
      2          5.866648        7.132890   1.000000   1.000000
      3          9.196104       10.630819   1.000000   0.000000
      4          9.404651       11.372023   1.000000   0.000000
      5          9.857376       11.695543   1.000000   0.000000
      6         13.684670       14.132545   0.000000   0.000000
      7         20.332762       21.144676   0.000000   0.000000
      8         23.356010       23.647471   0.000000   0.000000
      9         25.151315       25.373454   0.000000   0.000000
     10         31.966189       32.285476   0.000000   0.000000