    2    2    1    2
  0.2137190E+02  0.2470000E-09  0.2470000E-09  0.8090000E-09  0.5000000E-15
  1.000000000000000E-004
  CAR 
 Co fcc                                  
     18     21     16
 
  0.0000000E+00  0.0000000E+00  0.0000000E+00  0.6944444E-02
      1         -3.005881       -2.776664   1.000000   1.000000
      2         -2.545858       -2.133163   1.000000   1.000000
      3         -0.292428        1.494877   1.000000   1.000000
      4          0.718413        2.181375   1.000000   1.000000
      5          0.718415        2.569623   1.000000   1.003149
      6          0.719181        2.569626   1.000000   1.003149
      7          0.719183        2.570725   1.000000   1.003217
      8          0.731010        2.570728   1.000000   1.003217
      9          1.424532        2.704394   1.000000   1.023662
     10          1.424536        3.849717   1.000000  -0.000000
     11          1.427673        3.849719   1.000000  -0.000000
     12          1.427678        3.853922   1.000000  -0.000000
     13          2.136240        3.853924   1.000000  -0.000000
     14          6.412155        6.699613  -0.000000  -0.000000
     15         10.844396       11.198350   0.000000   0.000000
     16         18.800182       18.785762   0.000000   0.000000
 
  0.1666667E+00 -0.1387779E-16  0.0000000E+00  0.4166667E-01
      1         -2.040423       -1.782693   1.000000   1.000000
      2         -1.649605       -1.145111   1.000000   1.000000
      3         -0.000596        1.849416   1.000000   1.000000
      4          0.479858        1.987646   1.000000   1.000000
      5          0.489001        2.251007   1.000000   1.000000
      6          0.523560        2.267450   1.000000   1.000001
      7          0.803346        2.915591   1.000000   0.886718
      8          0.995303        2.948618   1.000000   0.787938
      9          1.128097        3.026931   1.000000   0.478373
     10          1.128959        3.028201   1.000000   0.473008
     11          1.343955        3.753402   1.000000  -0.000001
     12          1.350085        3.762006   1.000000  -0.000001
     13          3.727994        4.675056  -0.000004  -0.000000
     14          7.847055        8.392703  -0.000000  -0.000000
     15         11.470112       11.738355   0.000000   0.000000
     16         19.942512       19.976204   0.000000   0.000000
 
  0.3333333E+00 -0.2775558E-16  0.0000000E+00  0.4166667E-01
      1         -0.904162        0.178597   1.000000   1.000000
      2         -0.855000        0.404526   1.000000   1.000000
      3         -0.199042        1.626570   1.000000   1.000000
      4         -0.039248        1.970913   1.000000   1.000000
      5          0.620945        2.389348   1.000000   1.000037
      6          0.785972        2.764652   1.000000   1.034929
      7          1.186083        2.845210   1.000000   1.008349
      8          1.196766        3.537787   1.000000  -0.000805
      9          1.769778        3.565535   1.000000  -0.000413
     10          2.026548        3.580783   1.000000  -0.000281
     11          2.027008        4.045254   1.000000  -0.000000
     12          2.701452        4.046007   1.022981  -0.000000
     13          6.699957        7.170406  -0.000000  -0.000000
     14         11.072859       11.686562   0.000000   0.000000
     15         13.011663       13.194202   0.000000   0.000000
     16         14.216176       14.712240   0.000000   0.000000
 
  0.5000000E+00 -0.5551115E-16  0.0000000E+00  0.2083333E-01
      1         -1.043284        0.352174   1.000000   1.000000
      2         -1.040372        0.366563   1.000000   1.000000
      3         -0.441325        1.484934   1.000000   1.000000
      4         -0.374725        1.598460   1.000000   1.000000
      5          0.936945        3.189748   1.000000   0.000493
      6          1.031535        3.330914   1.000000  -0.025587
      7          1.108235        3.473172   1.000000  -0.003201
      8          1.120840        3.491229   1.000000  -0.002231
      9          2.525275        4.622131   1.001250  -0.000000
     10          2.525314        4.622229   1.001252  -0.000000
     11          5.236663        5.264653  -0.000000  -0.000000
     12          5.590068        5.642677  -0.000000  -0.000000
     13          9.218742       10.095158   0.000000   0.000000
     14         10.037263       10.739385   0.000000   0.000000
     15         10.441272       10.964126   0.000000   0.000000
     16         11.577694       11.850519   0.000000   0.000000
 
  0.1666667E+00  0.1666667E+00  0.0000000E+00  0.4166667E-01
      1         -0.530191       -0.035492   1.000000   1.000000
      2         -0.393390        0.491483   1.000000   1.000000
      3          0.015813        1.765441   1.000000   1.000000
      4          0.106763        1.771822   1.000000   1.000000
      5          0.110833        1.777856   1.000000   1.000000
      6          0.224623        2.268284   1.000000   1.000001
      7          0.515986        2.444771   1.000000   1.000175
      8          1.129792        3.229515   1.000000  -0.028674
      9          1.137481        3.489471   1.000000  -0.002313
     10          1.221312        3.501191   1.000000  -0.001813
     11          2.187973        4.008640   1.000000  -0.000000
     12          2.576942        4.142634   1.003626  -0.000000
     13          5.802884        6.390352  -0.000000  -0.000000
     14         10.149656       10.784491   0.000000   0.000000
     15         12.776534       12.913718   0.000000   0.000000
     16         18.268580       18.596834   0.000000   0.000000
 
  0.3333333E+00  0.1666667E+00  0.0000000E+00  0.8333333E-01
      1         -0.473252        0.948981   1.000000   1.000000
      2         -0.466876        0.983917   1.000000   1.000000
      3         -0.240056        1.703766   1.000000   1.000000
      4         -0.151751        1.870859   1.000000   1.000000
      5          0.828259        2.659494   1.000000   1.013989
      6          0.840508        2.730689   1.000000   1.029576
      7          0.854119        3.126021   1.000000   0.118580
      8          0.877796        3.130756   1.000000   0.106352
      9          1.361033        3.145336   1.000000   0.072250
     10          1.523357        3.454981   1.000000  -0.004513
     11          5.158389        6.109799  -0.000000  -0.000000
     12          5.977610        6.784055  -0.000000  -0.000000
     13          9.401235        9.760686   0.000000   0.000000
     14         11.324350       11.946943   0.000000   0.000000
     15         12.348597       12.992839   0.000000   0.000000
     16         13.404493       13.972150   0.000000   0.000000
 
  0.3333333E+00  0.3333333E+00  0.0000000E+00  0.1388889E-01
      1          0.175739        1.910116   1.000000   1.000000
      2          0.212297        1.940971   1.000000   1.000000
      3          0.212297        1.940976   1.000000   1.000000
      4          0.251098        1.978761   1.000000   1.000000
      5          0.444994        2.268499   1.000000   1.000001
      6          0.460243        2.330140   1.000000   1.000006
      7          0.460248        2.330140   1.000000   1.000006
      8          0.481296        2.396654   1.000000   1.000045
      9          0.965828        3.322315   1.000000  -0.027541
     10          0.965831        3.322318   1.000000  -0.027540
     11          9.682895       10.210663   0.000000   0.000000
     12          9.937866       10.508571   0.000000   0.000000
     13          9.937868       10.508574   0.000000   0.000000
     14         10.588947       11.204787   0.000000   0.000000
     15         12.040567       12.796877   0.000000   0.000000
     16         12.040571       12.796880   0.000000   0.000000
 
  0.0000000E+00  0.0000000E+00  0.2500000E+00  0.1388889E-01
      1         -2.941140       -2.695681   1.000000   1.000000
      2         -2.615134       -2.243608   1.000000   1.000000
      3         -0.226997        1.524834   1.000000   1.000000
      4          0.389214        1.870510   1.000000   1.000000
      5          0.718413        2.569640   1.000000   1.003150
      6          0.718414        2.569643   1.000000   1.003150
      7          0.718960        2.570410   1.000000   1.003198
      8          0.718962        2.570413   1.000000   1.003198
      9          1.424884        3.376944   1.000000  -0.015386
     10          1.424888        3.850158   1.000000  -0.000000
     11          1.426990        3.850160   1.000000  -0.000000
     12          1.426994        3.852995   1.000000  -0.000000
     13          2.806679        3.852997   1.031304  -0.000000
     14          5.579735        5.931539  -0.000000  -0.000000
     15         11.945377       12.246061   0.000000   0.000000
     16         16.852180       16.987988   0.000000   0.000000
 
  0.1666667E+00 -0.1387779E-16  0.2500000E+00  0.8333333E-01
      1         -1.982564       -1.702672   1.000000   1.000000
      2         -1.705018       -1.254916   1.000000   1.000000
      3          0.050182        1.858599   1.000000   1.000000
      4          0.416190        1.947938   1.000000   1.000000
      5          0.488698        2.255904   1.000000   1.000000
      6          0.490685        2.266289   1.000000   1.000001
      7          0.810210        2.929533   1.000000   0.848181
      8          0.911949        2.948985   1.000000   0.786697
      9          1.128263        3.027181   1.000000   0.477317
     10          1.128841        3.028031   1.000000   0.473726
     11          1.344849        3.754646   1.000000  -0.000001
     12          1.349252        3.760837   1.000000  -0.000001
     13          4.229553        5.066344  -0.000000  -0.000000
     14          6.913420        7.482890  -0.000000  -0.000000
     15         12.690290       12.956098   0.000000   0.000000
     16         17.762433       17.937447   0.000000   0.000000
 
  0.3333333E+00 -0.2775558E-16  0.2500000E+00  0.8333333E-01
      1         -0.896920        0.210805   1.000000   1.000000
      2         -0.862217        0.370370   1.000000   1.000000
      3         -0.181665        1.659690   1.000000   1.000000
      4         -0.071515        1.881344   1.000000   1.000000
      5          0.661199        2.541151   1.000000   1.001764
      6          0.773401        2.766318   1.000000   1.035059
      7          1.187570        2.853030   1.000000   1.000451
      8          1.195180        3.344242   1.000000  -0.022506
      9          1.863305        3.567667   1.000000  -0.000391
     10          2.026630        3.578535   1.000000  -0.000297
     11          2.026931        4.045389   1.000000  -0.000000
     12          2.506177        4.045890   1.000811  -0.000000
     13          7.168665        7.637203  -0.000000  -0.000000
     14          9.900735       10.384177   0.000000   0.000000
     15         13.919766       14.385087   0.000000   0.000000
     16         14.396303       14.873856   0.000000   0.000000
 
  0.5000000E+00 -0.5551115E-16  0.2500000E+00  0.4166667E-01
      1         -1.043133        0.353846   1.000000   1.000000
      2         -1.040919        0.364212   1.000000   1.000000
      3         -0.432854        1.499210   1.000000   1.000000
      4         -0.386069        1.578856   1.000000   1.000000
      5          0.953555        3.219274   1.000000  -0.023756
      6          1.020783        3.321617   1.000000  -0.027696
      7          1.110011        3.475754   1.000000  -0.003044
      8          1.119019        3.488669   1.000000  -0.002351
      9          2.525310        4.622232   1.001251  -0.000000
     10          2.525354        4.622269   1.001253  -0.000000
     11          5.279095        5.299011  -0.000000  -0.000000
     12          5.528721        5.567719  -0.000000  -0.000000
     13          9.221163       10.086300   0.000000   0.000000
     14          9.628391       10.373146   0.000000   0.000000
     15         11.072729       11.551665   0.000000   0.000000
     16         11.772737       12.053209   0.000000   0.000000
 
  0.1666667E+00  0.1666667E+00  0.2500000E+00  0.8333333E-01
      1         -0.508464        0.031355   1.000000   1.000000
      2         -0.411980        0.400808   1.000000   1.000000
      3          0.033831        1.766380   1.000000   1.000000
      4          0.107331        1.770605   1.000000   1.000000
      5          0.110416        1.835750   1.000000   1.000000
      6          0.165723        2.138265   1.000000   1.000000
      7          0.639975        2.604496   1.000000   1.005983
      8          1.123760        3.111608   1.000000   0.159216
      9          1.134052        3.491271   1.000000  -0.002229
     10          1.136467        3.499558   1.000000  -0.001877
     11          2.212088        4.014586   1.000000  -0.000000
     12          2.461845        4.093017   1.000274  -0.000000
     13          6.285136        6.861748  -0.000000  -0.000000
     14          9.037453        9.584842   0.000000   0.000000
     15         14.164190       14.399851   0.000000   0.000000
     16         18.352826       18.697717   0.000000   0.000000
 
  0.3333333E+00  0.1666667E+00  0.2500000E+00  0.1666667E+00
      1         -0.472710        0.953644   1.000000   1.000000
      2         -0.468272        0.978287   1.000000   1.000000
      3         -0.228652        1.723715   1.000000   1.000000
      4         -0.166599        1.840089   1.000000   1.000000
      5          0.829609        2.680339   1.000000   1.018226
      6          0.846254        2.727559   1.000000   1.028911
      7          0.854041        3.121647   1.000000   0.130373
      8          0.877460        3.140168   1.000000   0.083724
      9          1.384306        3.182878   1.000000   0.008609
     10          1.499610        3.408440   1.000000  -0.009864
     11          5.241723        6.169654  -0.000000  -0.000000
     12          5.802094        6.623969  -0.000000  -0.000000
     13          9.833679       10.203258   0.000000   0.000000
     14         11.364450       11.952809   0.000000   0.000000
     15         12.104458       12.690816   0.000000   0.000000
     16         12.666006       13.218617   0.000000   0.000000
 
  0.3333333E+00  0.3333333E+00  0.2500000E+00  0.2777778E-01
      1          0.185595        1.917863   1.000000   1.000000
      2          0.210868        1.941893   1.000000   1.000000
      3          0.210868        1.941897   1.000000   1.000000
      4          0.238394        1.965439   1.000000   1.000000
      5          0.451937        2.290380   1.000000   1.000001
      6          0.461374        2.327531   1.000000   1.000005
      7          0.461379        2.327531   1.000000   1.000005
      8          0.477139        2.380004   1.000000   1.000028
      9          0.966590        3.324964   1.000000  -0.026945
     10          0.966593        3.324968   1.000000  -0.026944
     11          9.787265       10.321651   0.000000   0.000000
     12          9.963096       10.526231   0.000000   0.000000
     13          9.963098       10.526234   0.000000   0.000000
     14         10.415740       11.006682   0.000000   0.000000
     15         11.791812       12.491207   0.000000   0.000000
     16         11.791815       12.491209   0.000000   0.000000
 
  0.0000000E+00  0.0000000E+00  0.5000000E+00  0.6944444E-02
      1         -2.780514       -2.484021   1.000000   1.000000
      2         -2.780513       -2.484021   1.000000   1.000000
      3         -0.009864        1.631826   1.000000   1.000000
      4         -0.009862        1.631828   1.000000   1.000000
      5          0.718701        2.570038   1.000000   1.003175
      6          0.718703        2.570041   1.000000   1.003175
      7          0.718706        2.570043   1.000000   1.003175
      8          0.718707        2.570046   1.000000   1.003175
      9          1.426014        3.851662   1.000000  -0.000000
     10          1.426014        3.851662   1.000000  -0.000000
     11          1.426018        3.851664   1.000000  -0.000000
     12          1.426018        3.851664   1.000000  -0.000000
     13          4.119780        4.578819  -0.000000  -0.000000
     14          4.119780        4.578820  -0.000000  -0.000000
     15         14.211442       14.436798   0.000000   0.000000
     16         14.211442       14.436799   0.000000   0.000000
 
  0.1666667E+00 -0.1387779E-16  0.5000000E+00  0.4166667E-01
      1         -1.842608       -1.493280   1.000000   1.000000
      2         -1.842607       -1.493280   1.000000   1.000000
      3          0.205772        1.890465   1.000000   1.000000
      4          0.205774        1.890467   1.000000   1.000000
      5          0.488473        2.262390   1.000000   1.000001
      6          0.488477        2.262394   1.000000   1.000001
      7          0.837027        2.944900   1.000000   0.800319
      8          0.837028        2.944901   1.000000   0.800316
      9          1.128616        3.027711   1.000000   0.475078
     10          1.128620        3.027716   1.000000   0.475058
     11          1.347084        3.757788   1.000000  -0.000001
     12          1.347084        3.757789   1.000000  -0.000001
     13          5.430881        6.103365  -0.000000  -0.000000
     14          5.430881        6.103365  -0.000000  -0.000000
     15         15.047420       15.279121   0.000000   0.000000
     16         15.047420       15.279122   0.000000   0.000000
 
  0.3333333E+00 -0.2775558E-16  0.5000000E+00  0.4166667E-01
      1         -0.879646        0.289540   1.000000   1.000000
      2         -0.879643        0.289542   1.000000   1.000000
      3         -0.133567        1.751171   1.000000   1.000000
      4         -0.133567        1.751172   1.000000   1.000000
      5          0.730283        2.741290   1.000000   1.031675
      6          0.730286        2.741293   1.000000   1.031676
      7          1.191278        2.990434   1.000000   0.631005
      8          1.191278        2.990436   1.000000   0.630994
      9          2.026792        3.572972   1.000000  -0.000343
     10          2.026797        3.572972   1.000000  -0.000343
     11          2.138206        4.045674   1.000000  -0.000000
     12          2.138207        4.045679   1.000000  -0.000000
     13          8.347656        8.811239  -0.000000   0.000000
     14          8.347656        8.811239  -0.000000   0.000000
     15         14.384326       14.939555   0.000000   0.000000
     16         14.384327       14.939556   0.000000   0.000000
 
  0.5000000E+00 -0.5551115E-16  0.5000000E+00  0.2083333E-01
      1         -1.042224        0.358689   1.000000   1.000000
      2         -1.042220        0.358692   1.000000   1.000000
      3         -0.410769        1.536521   1.000000   1.000000
      4         -0.410769        1.536521   1.000000   1.000000
      5          0.990237        3.280619   1.000000  -0.034786
      6          0.990240        3.280623   1.000000  -0.034786
      7          1.114564        3.482259   1.000000  -0.002676
      8          1.114564        3.482259   1.000000  -0.002676
      9          2.525303        4.622203   1.001251  -0.000000
     10          2.525308        4.622208   1.001251  -0.000000
     11          5.394458        5.413250  -0.000000  -0.000000
     12          5.394458        5.413250  -0.000000  -0.000000
     13          9.321113       10.144750   0.000000   0.000000
     14          9.321113       10.144751   0.000000   0.000000
     15         11.784148       12.145781   0.000000   0.000000
     16         11.784148       12.145781   0.000000   0.000000
 
  0.1666667E+00  0.1666667E+00  0.5000000E+00  0.4166667E-01
      1         -0.458672        0.204748   1.000000   1.000000
      2         -0.458670        0.204748   1.000000   1.000000
      3          0.085652        1.768628   1.000000   1.000000
      4          0.085652        1.768632   1.000000   1.000000
      5          0.109453        1.971416   1.000000   1.000000
      6          0.109458        1.971416   1.000000   1.000000
      7          0.890196        2.858282   1.000000   0.994434
      8          0.890198        2.858285   1.000000   0.994431
      9          1.133800        3.495437   1.000000  -0.002045
     10          1.133800        3.495437   1.000000  -0.002045
     11          2.298156        4.037982   1.000002  -0.000000
     12          2.298160        4.037987   1.000002  -0.000000
     13          7.482196        8.031833  -0.000000  -0.000000
     14          7.482196        8.031833  -0.000000  -0.000000
     15         16.524690       16.808601   0.000000   0.000000
     16         16.524690       16.808601   0.000000   0.000000
 
  0.3333333E+00  0.1666667E+00  0.5000000E+00  0.8333333E-01
      1         -0.470918        0.965474   1.000000   1.000000
      2         -0.470914        0.965478   1.000000   1.000000
      3         -0.199342        1.776779   1.000000   1.000000
      4         -0.199342        1.776779   1.000000   1.000000
      5          0.837238        2.711987   1.000000   1.025417
      6          0.837239        2.711991   1.000000   1.025418
      7          0.869621        3.130285   1.000000   0.107545
      8          0.869623        3.130285   1.000000   0.107544
      9          1.441766        3.294671   1.000000  -0.032995
     10          1.441770        3.294674   1.000000  -0.032995
     11          5.480534        6.352661  -0.000000  -0.000000
     12          5.480535        6.352663  -0.000000  -0.000000
     13         10.834169       11.236434   0.000000   0.000000
     14         10.834169       11.236434   0.000000   0.000000
     15         11.962746       12.587596   0.000000   0.000000
     16         11.962746       12.587597   0.000000   0.000000
 
  0.3333333E+00  0.3333333E+00  0.5000000E+00  0.1388889E-01
      1          0.209396        1.939162   1.000000   1.000000
      2          0.209396        1.939166   1.000000   1.000000
      3          0.210604        1.942912   1.000000   1.000000
      4          0.210604        1.942916   1.000000   1.000000
      5          0.462538        2.324861   1.000000   1.000005
      6          0.462543        2.324861   1.000000   1.000005
      7          0.465888        2.337532   1.000000   1.000007
      8          0.465892        2.337532   1.000000   1.000007
      9          0.967267        3.327533   1.000000  -0.026361
     10          0.967270        3.327537   1.000000  -0.026361
     11          9.990709       10.545261   0.000000   0.000000
     12          9.990711       10.545264   0.000000   0.000000
     13         10.069678       10.624985   0.000000   0.000000
     14         10.069679       10.624986   0.000000   0.000000
     15         11.606800       12.291783   0.000000   0.000000
     16         11.606801       12.291784   0.000000   0.000000
