 vasp.6.3.2 27Jun22 (build Aug 12 2022 00:53:59) complex                        
  
 executed on               tv2STD date 2024.11.30  15:14:08
 running   24 mpi-ranks, with    1 threads/rank
 distrk:  each k-point on   24 cores,    1 groups
 distr:  one band on NCORE=   6 cores,    4 groups


--------------------------------------------------------------------------------------------------------


 INCAR:
   SYSTEM = Co fcc
   NWRITE = 2    write-flag
   ISTART = 0    job   : 0-new, 1-cont, 2-samecut
   ICHARG = 2    charge: 0-wave, 1-file, 2-atom, >10-const
   INIWAV = 1    electr: 0-lowe 1-rand  2-diag
   ENCUT = 375     energy cutoff in eV
   PREC = Accurate      normal | accurate
   ADDGRID = .FALSE.  (use fine grid)
   NELM = 100     number of ELM steps
   EDIFF = 1E-06    energy stopping-criterion for ELM
   LREAL = .FALSE.      real-space projection (.FALSE., .TRUE., On, Auto)
   ALGO = Normal     Normal, Fast, Very_Fast
   LWAVE = .FALSE.
   LCHARG = .FALSE.
   NSW = 0       max number of geometry steps
   IBRION = -1     ionic relax: 0-MD, 1-quasi-Newton, 2-CG, 3-Damped MD
   EDIFFG = -0.02  force (eV/A) stopping-criterion for geometry steps
   ISIF = 2     (1:force\=y stress\=trace only ions\=y shape\=n volume\=n)
   ISYM = 1     (1-use symmetry, 0-no symmetry)
   ISMEAR = 1     (-1-Fermi, 1-Methfessel/Paxton)
   SIGMA = 0.2   broadening in eV
   NPAR = 4
   ISPIN = 2
   MAGMOM = 2*3

 POTCAR:    PAW_PBE Co 02Aug2007                  
 POTCAR:    PAW_PBE Co 02Aug2007                  
   SHA256 =  0e690c60710354995174544f52f9f2c30879afabeffe3b3fbd4001cb294e56d4 Co/POTCAR             
   COPYR  = (c) Copyright 02Aug2007 Georg Kresse                                                    
   COPYR  = This file is part of the software VASP. Any use, copying, and all other rights are regul
   COPYR  = If you do not have a valid VASP license, you may not use, copy or distribute this file. 
   VRHFIN =Co: d8 s1                                                                                
   LEXCH  = PE                                                                                      
   EATOM  =   813.3670 eV,   59.7808 Ry                                                             
                                                                                                    
   TITEL  = PAW_PBE Co 02Aug2007                                                                    
   LULTRA =        F    use ultrasoft PP ?                                                          
   IUNSCR =        1    unscreen: 0-lin 1-nonlin 2-no                                               
   RPACOR =    2.000    partial core radius                                                         
   POMASS =   58.933; ZVAL   =    9.000    mass and valenz                                          
   RCORE  =    2.300    outmost cutoff radius                                                       
   RWIGS  =    2.460; RWIGS  =    1.302    wigner-seitz radius (au A)                               
   ENMAX  =  267.968; ENMIN  =  200.976 eV                                                          
   RCLOC  =    1.203    cutoff for local pot                                                        
   LCOR   =        T    correct aug charges                                                         
   LPAW   =        T    paw PP                                                                      
   EAUG   =  477.818                                                                                
   DEXC   =    0.000                                                                                
   RMAX   =    2.360    core radius for proj-oper                                                   
   RAUG   =    1.300    factor for augmentation sphere                                              
   RDEP   =    2.393    radius for radial grids                                                     
   RDEPT  =    1.864    core radius for aug-charge                                                  
                                                                                                    
   Atomic configuration                                                                             
    9 entries                                                                                       
     n  l   j            E        occ.                                                              
     1  0  0.50     -7587.6674   2.0000                                                             
     2  0  0.50      -893.6084   2.0000                                                             
     2  1  1.50      -764.5805   6.0000                                                             
     3  0  0.50       -97.5973   2.0000                                                             
     3  1  1.50       -60.9648   6.0000                                                             
     3  2  2.50        -4.2382   8.0000                                                             
     4  0  0.50        -4.3746   1.0000                                                             
     4  1  1.50        -4.0817   0.0000                                                             
     4  3  2.50        -1.3606   0.0000                                                             
   Description                                                                                      
     l       E           TYP  RCUT    TYP  RCUT                                                     
     2     -4.2382362     23  2.300                                                                 
     2     -5.5988188     23  2.300                                                                 
     0     -4.3745797     23  2.300                                                                 
     0      5.7660125     23  2.300                                                                 
     1     -2.7211652     23  2.300                                                                 
     1     16.9860234     23  2.300                                                                 
  local pseudopotential read in
  partial core-charges read in
  partial kinetic energy density read in
  atomic valenz-charges read in
  non local Contribution for L=           2  read in
    real space projection operators read in
  non local Contribution for L=           2  read in
    real space projection operators read in
  non local Contribution for L=           0  read in
    real space projection operators read in
  non local Contribution for L=           0  read in
    real space projection operators read in
  non local Contribution for L=           1  read in
    real space projection operators read in
  non local Contribution for L=           1  read in
    real space projection operators read in
    PAW grid and wavefunctions read in
 
   number of l-projection  operators is LMAX  =           6
   number of lm-projection operators is LMMAX =          18
 
  PAW_PBE Co 02Aug2007                  :
 energy of atom  1       EATOM= -813.3670
 kinetic energy error for atom=    0.0149 (will be added to EATOM!!)
 
 
 POSCAR: Co
  positions in cartesian coordinates
  No initial velocities read in
 exchange correlation table for  LEXCH =        8
   RHO(1)=    0.500       N(1)  =     2000
   RHO(2)=  100.500       N(2)  =     4000
 


--------------------------------------------------------------------------------------------------------


 ion  position               nearest neighbor table
   1  0.000  0.000  0.000-
   2  0.333  0.667  0.500-
 
  LATTYP: Found a hexagonal cell.
 ALAT       =     2.4700000000
 C/A-ratio  =     3.2753036437
  
  Lattice vectors:
  
 A1 = (   2.4700000000,   0.0000000000,   0.0000000000)
 A2 = (  -1.2350000000,   2.1390827473,   0.0000000000)
 A3 = (   0.0000000000,   0.0000000000,   8.0900000000)


Analysis of symmetry for initial positions (statically):
=====================================================================
 Subroutine PRICEL returns:
 Original cell was already a primitive cell.
 

 Routine SETGRP: Setting up the symmetry group for a 
 hexagonal supercell.


 Subroutine GETGRP returns: Found 24 space group operations
 (whereof 12 operations were pure point group operations)
 out of a pool of 24 trial point group operations.


The static configuration has the point symmetry D_3h.
 The point group associated with its full space group is D_6h.


Analysis of symmetry for dynamics (positions and initial velocities):
=====================================================================
 Subroutine PRICEL returns:
 Original cell was already a primitive cell.
 

 Routine SETGRP: Setting up the symmetry group for a 
 hexagonal supercell.


 Subroutine GETGRP returns: Found 24 space group operations
 (whereof 12 operations were pure point group operations)
 out of a pool of 24 trial point group operations.


The dynamic configuration has the point symmetry D_3h.
 The point group associated with its full space group is D_6h.


Analysis of structural, dynamic, and magnetic symmetry:
=====================================================================
 Subroutine PRICEL returns:
 Original cell was already a primitive cell.
 

 Routine SETGRP: Setting up the symmetry group for a 
 hexagonal supercell.


 Subroutine GETGRP returns: Found 24 space group operations
 (whereof 12 operations were pure point group operations)
 out of a pool of 24 trial point group operations.


The overall configuration has the point symmetry D_3h.
 The point group associated with its full space group is D_6h.


 Subroutine INISYM returns: Found 24 space group operations
 (whereof 12 operations are pure point group operations),
 and found     1 'primitive' translations


----------------------------------------------------------------------------------------

                                     Primitive cell                                     

  volume of cell :      42.7438

  direct lattice vectors                    reciprocal lattice vectors
     2.470000000  0.000000000  0.000000000     0.404858300  0.233745048  0.000000000
    -1.235000000  2.139082747  0.000000000     0.000000000  0.467490097  0.000000000
     0.000000000  0.000000000  8.090000000     0.000000000  0.000000000  0.123609394

  length of vectors
     2.470000000  2.470000000  8.090000000     0.467490097  0.467490097  0.123609394

  position of ions in fractional coordinates (direct lattice)
     0.000000000  0.000000000  0.000000000
     0.333333333  0.666666667  0.500000000

  ion indices of the primitive-cell ions
   primitive index   ion index
                 1           1
                 2           2

----------------------------------------------------------------------------------------

 
 
 KPOINTS: Automatic mesh                          

Automatic generation of k-mesh.
 Grid dimensions read from file:
 generate k-points for:    6    6    4

 Generating k-lattice:

  Cartesian coordinates                     Fractional coordinates (reciprocal lattice)
     0.067476383  0.038957508  0.000000000     0.166666667  0.000000000  0.000000000
     0.000000000  0.077915016  0.000000000     0.000000000  0.166666667  0.000000000
     0.000000000  0.000000000  0.030902349     0.000000000  0.000000000  0.250000000

  Length of vectors
     0.077915016  0.077915016  0.030902349

  Shift w.r.t. Gamma in fractional coordinates (k-lattice)
     0.000000000  0.000000000  0.000000000

 
 Subroutine IBZKPT returns following result:
 ===========================================
 
 Found     21 irreducible k-points:
 
 Following reciprocal coordinates:
            Coordinates               Weight
  0.000000  0.000000  0.000000      1.000000
  0.166667 -0.000000  0.000000      6.000000
  0.333333 -0.000000  0.000000      6.000000
  0.500000 -0.000000  0.000000      3.000000
  0.166667  0.166667  0.000000      6.000000
  0.333333  0.166667  0.000000     12.000000
  0.333333  0.333333  0.000000      2.000000
  0.000000  0.000000  0.250000      2.000000
  0.166667 -0.000000  0.250000     12.000000
  0.333333 -0.000000  0.250000     12.000000
  0.500000 -0.000000  0.250000      6.000000
  0.166667  0.166667  0.250000     12.000000
  0.333333  0.166667  0.250000     24.000000
  0.333333  0.333333  0.250000      4.000000
  0.000000  0.000000  0.500000      1.000000
  0.166667 -0.000000  0.500000      6.000000
  0.333333 -0.000000  0.500000      6.000000
  0.500000 -0.000000  0.500000      3.000000
  0.166667  0.166667  0.500000      6.000000
  0.333333  0.166667  0.500000     12.000000
  0.333333  0.333333  0.500000      2.000000
 
 Following cartesian coordinates:
            Coordinates               Weight
  0.000000  0.000000  0.000000      1.000000
  0.067476  0.038958  0.000000      6.000000
  0.134953  0.077915  0.000000      6.000000
  0.202429  0.116873  0.000000      3.000000
  0.067476  0.116873  0.000000      6.000000
  0.134953  0.155830  0.000000     12.000000
  0.134953  0.233745  0.000000      2.000000
  0.000000  0.000000  0.030902      2.000000
  0.067476  0.038958  0.030902     12.000000
  0.134953  0.077915  0.030902     12.000000
  0.202429  0.116873  0.030902      6.000000
  0.067476  0.116873  0.030902     12.000000
  0.134953  0.155830  0.030902     24.000000
  0.134953  0.233745  0.030902      4.000000
  0.000000  0.000000  0.061805      1.000000
  0.067476  0.038958  0.061805      6.000000
  0.134953  0.077915  0.061805      6.000000
  0.202429  0.116873  0.061805      3.000000
  0.067476  0.116873  0.061805      6.000000
  0.134953  0.155830  0.061805     12.000000
  0.134953  0.233745  0.061805      2.000000
 


--------------------------------------------------------------------------------------------------------




 Dimension of arrays:
   k-points           NKPTS =     21   k-points in BZ     NKDIM =     21   number of bands    NBANDS=     16
   number of dos      NEDOS =    301   number of ions     NIONS =      2
   non local maximal  LDIM  =      6   non local SUM 2l+1 LMDIM =     18
   total plane-waves  NPLWV =  13824
   max r-space proj   IRMAX =      1   max aug-charges    IRDMAX=  12953
   dimension x,y,z NGX =    16 NGY =   16 NGZ =   54
   dimension x,y,z NGXF=    32 NGYF=   32 NGZF=  108
   support grid    NGXF=    32 NGYF=   32 NGZF=  108
   ions per type =               2
   NGX,Y,Z   is equivalent  to a cutoff of  10.77, 10.77, 11.10 a.u.
   NGXF,Y,Z  is equivalent  to a cutoff of  21.54, 21.54, 22.19 a.u.

 SYSTEM =  Co fcc                                  
 POSCAR =  Co                                      

 Startparameter for this run:
   NWRITE =      2    write-flag & timer
   PREC   = accura    normal or accurate (medium, high low for compatibility)
   ISTART =      0    job   : 0-new  1-cont  2-samecut
   ICHARG =      2    charge: 1-file 2-atom 10-const
   ISPIN  =      2    spin polarized calculation?
   LNONCOLLINEAR =      F non collinear calculations
   LSORBIT =      F    spin-orbit coupling
   INIWAV =      1    electr: 0-lowe 1-rand  2-diag
   LASPH  =      F    aspherical Exc in radial PAW
 Electronic Relaxation 1
   ENCUT  =  375.0 eV  27.56 Ry    5.25 a.u.   3.90  3.90 12.77*2*pi/ulx,y,z
   ENINI  =  375.0     initial cutoff
   ENAUG  =  477.8 eV  augmentation charge cutoff
   NELM   =    100;   NELMIN=  2; NELMDL= -5     # of ELM steps 
   EDIFF  = 0.1E-05   stopping-criterion for ELM
   LREAL  =      F    real-space projection
   NLSPLINE    = F    spline interpolate recip. space projectors
   LCOMPAT=      F    compatible to vasp.4.4
   GGA_COMPAT  = T    GGA compatible to vasp.4.4-vasp.4.6
   LMAXPAW     = -100 max onsite density
   LMAXMIX     =    2 max onsite mixed and CHGCAR
   VOSKOWN=      0    Vosko Wilk Nusair interpolation
   ROPT   =    0.00000
 Ionic relaxation
   EDIFFG = -.2E-01   stopping-criterion for IOM
   NSW    =      0    number of steps for IOM
   NBLOCK =      1;   KBLOCK =      1    inner block; outer block 
   IBRION =     -1    ionic relax: 0-MD 1-quasi-New 2-CG
   NFREE  =      0    steps in history (QN), initial steepest desc. (CG)
   ISIF   =      2    stress and relaxation
   IWAVPR =     10    prediction:  0-non 1-charg 2-wave 3-comb
   ISYM   =      1    0-nonsym 1-usesym 2-fastsym
   LCORR  =      T    Harris-Foulkes like correction to forces

   POTIM  = 0.5000    time-step for ionic-motion
   TEIN   =    0.0    initial temperature
   TEBEG  =    0.0;   TEEND  =   0.0 temperature during run
   SMASS  =  -3.00    Nose mass-parameter (am)
   estimated Nose-frequenzy (Omega)   =  0.10E-29 period in steps = 0.13E+47 mass=  -0.139E-27a.u.
   SCALEE = 1.0000    scale energy and forces
   NPACO  =    256;   APACO  = 10.0  distance and # of slots for P.C.
   PSTRESS=    0.0 pullay stress

  Mass of Ions in am
   POMASS =  58.93
  Ionic Valenz
   ZVAL   =   9.00
  Atomic Wigner-Seitz radii
   RWIGS  =  -1.00
  virtual crystal weights 
   VCA    =   1.00
   NELECT =      18.0000    total number of electrons
   NUPDOWN=      -1.0000    fix difference up-down

 DOS related values:
   EMIN   =  10.00;   EMAX   =-10.00  energy-range for DOS
   EFERMI =   0.00
   ISMEAR =     1;   SIGMA  =   0.20  broadening in eV -4-tet -1-fermi 0-gaus

 Electronic relaxation 2 (details)
   IALGO  =     38    algorithm
   LDIAG  =      T    sub-space diagonalisation (order eigenvalues)
   LSUBROT=      F    optimize rotation matrix (better conditioning)
   TURBO    =      0    0=normal 1=particle mesh
   IRESTART =      0    0=no restart 2=restart with 2 vectors
   NREBOOT  =      0    no. of reboots
   NMIN     =      0    reboot dimension
   EREF     =   0.00    reference energy to select bands
   IMIX   =      4    mixing-type and parameters
     AMIX     =   0.40;   BMIX     =  1.00
     AMIX_MAG =   1.60;   BMIX_MAG =  1.00
     AMIN     =   0.10
     WC   =   100.;   INIMIX=   1;  MIXPRE=   1;  MAXMIX= -45

 Intra band minimization:
   WEIMIN = 0.0000     energy-eigenvalue tresh-hold
   EBREAK =  0.16E-07  absolut break condition
   DEPER  =   0.30     relativ break condition  

   TIME   =   0.40     timestep for ELM

  volume/ion in A,a.u.               =      21.37       144.22
  Fermi-wavevector in a.u.,A,eV,Ry     =   1.227085  2.318854 20.486804  1.505738
  Thomas-Fermi vector in A             =   2.362062
 
 Write flags
   LWAVE        =      F    write WAVECAR
   LDOWNSAMPLE  =      F    k-point downsampling of WAVECAR
   LCHARG       =      F    write CHGCAR
   LVTOT        =      F    write LOCPOT, total local potential
   LVHAR        =      F    write LOCPOT, Hartree potential only
   LELF         =      F    write electronic localiz. function (ELF)
   LORBIT       =      0    0 simple, 1 ext, 2 COOP (PROOUT), +10 PAW based schemes


 Dipole corrections
   LMONO  =      F    monopole corrections only (constant potential shift)
   LDIPOL =      F    correct potential (dipole corrections)
   IDIPOL =      0    1-x, 2-y, 3-z, 4-all directions 
   EPSILON=  1.0000000 bulk dielectric constant

 Exchange correlation treatment:
   GGA     =    --    GGA type
   LEXCH   =     8    internal setting for exchange type
   LIBXC   =     F    Libxc                    
   VOSKOWN =     0    Vosko Wilk Nusair interpolation
   LHFCALC =     F    Hartree Fock is set to
   LHFONE  =     F    Hartree Fock one center treatment
   AEXX    =    0.0000 exact exchange contribution

 Linear response parameters
   LEPSILON=     F    determine dielectric tensor
   LRPA    =     F    only Hartree local field effects (RPA)
   LNABLA  =     F    use nabla operator in PAW spheres
   LVEL    =     F    velocity operator in full k-point grid
   CSHIFT  =0.1000    complex shift for real part using Kramers Kronig
   OMEGAMAX=  -1.0    maximum frequency
   DEG_THRESHOLD= 0.2000000E-02 threshold for treating states as degnerate
   RTIME   =   -0.100 relaxation time in fs
  (WPLASMAI=    0.000 imaginary part of plasma frequency in eV, 0.658/RTIME)
   DFIELD  = 0.0000000 0.0000000 0.0000000 field for delta impulse in time
 
  Optional k-point grid parameters
   LKPOINTS_OPT  =     F    use optional k-point grid
   KPOINTS_OPT_MODE=     1    mode for optional k-point grid
 
 Orbital magnetization related:
   ORBITALMAG=     F  switch on orbital magnetization
   LCHIMAG   =     F  perturbation theory with respect to B field
   DQ        =  0.001000  dq finite difference perturbation B field
   LLRAUG    =     F  two centre corrections for induced B field



--------------------------------------------------------------------------------------------------------


 Static calculation
 charge density and potential will be updated during run
 spin polarized calculation
 Variant of blocked Davidson
 Davidson routine will perform the subspace rotation
 perform sub-space diagonalisation
    after iterative eigenvector-optimisation
 modified Broyden-mixing scheme, WC =      100.0
 initial mixing is a Kerker type mixing with AMIX =  0.4000 and BMIX =      1.0000
 Hartree-type preconditioning will be used
 using additional bands            7
 reciprocal scheme for non local part
 use partial core corrections
 calculate Harris-corrections to forces 
   (improved forces if not selfconsistent)
 use gradient corrections 
 use of overlap-Matrix (Vanderbilt PP)
 Methfessel and Paxton  Order N= 1 SIGMA  =   0.20


--------------------------------------------------------------------------------------------------------


  energy-cutoff  :      375.00
  volume of cell :       42.74
      direct lattice vectors                 reciprocal lattice vectors
     2.470000000  0.000000000  0.000000000     0.404858300  0.233745048  0.000000000
    -1.235000000  2.139082747  0.000000000     0.000000000  0.467490097  0.000000000
     0.000000000  0.000000000  8.090000000     0.000000000  0.000000000  0.123609394

  length of vectors
     2.470000000  2.470000000  8.090000000     0.467490097  0.467490097  0.123609394


 
 k-points in units of 2pi/SCALE and weight: Automatic mesh                          
   0.00000000  0.00000000  0.00000000       0.007
   0.06747638  0.03895751  0.00000000       0.042
   0.13495277  0.07791502  0.00000000       0.042
   0.20242915  0.11687252  0.00000000       0.021
   0.06747638  0.11687252  0.00000000       0.042
   0.13495277  0.15583003  0.00000000       0.083
   0.13495277  0.23374505  0.00000000       0.014
   0.00000000  0.00000000  0.03090235       0.014
   0.06747638  0.03895751  0.03090235       0.083
   0.13495277  0.07791502  0.03090235       0.083
   0.20242915  0.11687252  0.03090235       0.042
   0.06747638  0.11687252  0.03090235       0.083
   0.13495277  0.15583003  0.03090235       0.167
   0.13495277  0.23374505  0.03090235       0.028
   0.00000000  0.00000000  0.06180470       0.007
   0.06747638  0.03895751  0.06180470       0.042
   0.13495277  0.07791502  0.06180470       0.042
   0.20242915  0.11687252  0.06180470       0.021
   0.06747638  0.11687252  0.06180470       0.042
   0.13495277  0.15583003  0.06180470       0.083
   0.13495277  0.23374505  0.06180470       0.014
 
 k-points in reciprocal lattice and weights: Automatic mesh                          
   0.00000000  0.00000000  0.00000000       0.007
   0.16666667 -0.00000000  0.00000000       0.042
   0.33333333 -0.00000000  0.00000000       0.042
   0.50000000 -0.00000000  0.00000000       0.021
   0.16666667  0.16666667  0.00000000       0.042
   0.33333333  0.16666667  0.00000000       0.083
   0.33333333  0.33333333  0.00000000       0.014
   0.00000000  0.00000000  0.25000000       0.014
   0.16666667 -0.00000000  0.25000000       0.083
   0.33333333 -0.00000000  0.25000000       0.083
   0.50000000 -0.00000000  0.25000000       0.042
   0.16666667  0.16666667  0.25000000       0.083
   0.33333333  0.16666667  0.25000000       0.167
   0.33333333  0.33333333  0.25000000       0.028
   0.00000000  0.00000000  0.50000000       0.007
   0.16666667 -0.00000000  0.50000000       0.042
   0.33333333 -0.00000000  0.50000000       0.042
   0.50000000 -0.00000000  0.50000000       0.021
   0.16666667  0.16666667  0.50000000       0.042
   0.33333333  0.16666667  0.50000000       0.083
   0.33333333  0.33333333  0.50000000       0.014
 
 position of ions in fractional coordinates (direct lattice) 
   0.00000000  0.00000000  0.00000000
   0.33333333  0.66666667  0.50000000
 
 position of ions in cartesian coordinates  (Angst):
   0.00000000  0.00000000  0.00000000
   0.00000000  1.42605516  4.04500000
 


--------------------------------------------------------------------------------------------------------


 k-point   1 :   0.0000 0.0000 0.0000  plane waves:     673
 k-point   2 :   0.1667-0.0000 0.0000  plane waves:     699
 k-point   3 :   0.3333-0.0000 0.0000  plane waves:     705
 k-point   4 :   0.5000-0.0000 0.0000  plane waves:     710
 k-point   5 :   0.1667 0.1667 0.0000  plane waves:     708
 k-point   6 :   0.3333 0.1667 0.0000  plane waves:     707
 k-point   7 :   0.3333 0.3333 0.0000  plane waves:     720
 k-point   8 :   0.0000 0.0000 0.2500  plane waves:     692
 k-point   9 :   0.1667-0.0000 0.2500  plane waves:     697
 k-point  10 :   0.3333-0.0000 0.2500  plane waves:     701
 k-point  11 :   0.5000-0.0000 0.2500  plane waves:     716
 k-point  12 :   0.1667 0.1667 0.2500  plane waves:     703
 k-point  13 :   0.3333 0.1667 0.2500  plane waves:     709
 k-point  14 :   0.3333 0.3333 0.2500  plane waves:     717
 k-point  15 :   0.0000 0.0000 0.5000  plane waves:     686
 k-point  16 :   0.1667-0.0000 0.5000  plane waves:     690
 k-point  17 :   0.3333-0.0000 0.5000  plane waves:     708
 k-point  18 :   0.5000-0.0000 0.5000  plane waves:     716
 k-point  19 :   0.1667 0.1667 0.5000  plane waves:     698
 k-point  20 :   0.3333 0.1667 0.5000  plane waves:     714
 k-point  21 :   0.3333 0.3333 0.5000  plane waves:     714

 maximum and minimum number of plane-waves per node :       126      104

 maximum number of plane-waves:       720
 maximum index in each direction: 
   IXMAX=    3   IYMAX=    3   IZMAX=   12
   IXMIN=   -4   IYMIN=   -4   IZMIN=  -13


 parallel 3D FFT for wavefunctions:
    minimum data exchange during FFTs selected (reduces bandwidth)
 parallel 3D FFT for charge:
    minimum data exchange during FFTs selected (reduces bandwidth)


 total amount of memory used by VASP MPI-rank0    31823. kBytes
=======================================================================

   base      :      30000. kBytes
   nonl-proj :        391. kBytes
   fftplans  :        291. kBytes
   grid      :        713. kBytes
   one-center:         31. kBytes
   wavefun   :        397. kBytes
 
     INWAV:  cpu time      0.0000: real time      0.0001
 Broyden mixing: mesh for mixing (old mesh)
   NGX =  7   NGY =  7   NGZ = 25
  (NGX  = 32   NGY  = 32   NGZ  =108)
  gives a total of   1225 points

 initial charge density was supplied:
 charge density of overlapping atoms calculated
 number of electron      18.0000000 magnetization       6.0000000
 keeping initial charge density in first step


--------------------------------------------------------------------------------------------------------


 Maximum index for augmentation-charges         1022 (set IRDMAX)


--------------------------------------------------------------------------------------------------------


 First call to EWALD:  gamma=   0.507
 Maximum number of real-space cells 4x 4x 1
 Maximum number of reciprocal cells 2x 2x 6

    FEWALD:  cpu time      0.0015: real time      0.0015


--------------------------------------- Iteration      1(   1)  ---------------------------------------


    POTLOK:  cpu time      0.0091: real time      0.0092
    SETDIJ:  cpu time      0.0054: real time      0.0055
     EDDAV:  cpu time      0.1404: real time      0.1413
       DOS:  cpu time      0.0012: real time      0.0012
    --------------------------------------------
      LOOP:  cpu time      0.1561: real time      0.1571

 eigenvalue-minimisations  :  1344
 total energy-change (2. order) : 0.7747058E+02  (-0.6432646E+03)
 number of electron      18.0000000 magnetization       6.0000000
 augmentation part       18.0000000 magnetization       6.0000000

 Free energy of the ion-electron system (eV)
  ---------------------------------------------------
  alpha Z        PSCENC =        39.63868225
  Ewald energy   TEWEN  =     -1054.56880693
  -Hartree energ DENC   =      -595.60964206
  -exchange      EXHF   =         0.00000000
  -V(xc)+E(xc)   XCENC  =        33.36921587
  PAW double counting   =      1439.98163886    -1545.88690193
  entropy T*S    EENTRO =        -0.01665564
  eigenvalues    EBANDS =       133.85890461
  atomic energy  EATOM  =      1626.70414741
  Solvation  Ediel_sol  =         0.00000000
  ---------------------------------------------------
  free energy    TOTEN  =        77.47058243 eV

  energy without entropy =       77.48723807  energy(sigma->0) =       77.47613431


--------------------------------------------------------------------------------------------------------




--------------------------------------- Iteration      1(   2)  ---------------------------------------


     EDDAV:  cpu time      0.1359: real time      0.1376
       DOS:  cpu time      0.0008: real time      0.0008
    --------------------------------------------
      LOOP:  cpu time      0.1367: real time      0.1385

 eigenvalue-minimisations  :  1368
 total energy-change (2. order) :-0.8813191E+02  (-0.8133658E+02)
 number of electron      18.0000000 magnetization       6.0000000
 augmentation part       18.0000000 magnetization       6.0000000

 Free energy of the ion-electron system (eV)
  ---------------------------------------------------
  alpha Z        PSCENC =        39.63868225
  Ewald energy   TEWEN  =     -1054.56880693
  -Hartree energ DENC   =      -595.60964206
  -exchange      EXHF   =         0.00000000
  -V(xc)+E(xc)   XCENC  =        33.36921587
  PAW double counting   =      1439.98163886    -1545.88690193
  entropy T*S    EENTRO =        -0.00241851
  eigenvalues    EBANDS =        45.71275707
  atomic energy  EATOM  =      1626.70414741
  Solvation  Ediel_sol  =         0.00000000
  ---------------------------------------------------
  free energy    TOTEN  =       -10.66132797 eV

  energy without entropy =      -10.65890946  energy(sigma->0) =      -10.66052180


--------------------------------------------------------------------------------------------------------




--------------------------------------- Iteration      1(   3)  ---------------------------------------


     EDDAV:  cpu time      0.1528: real time      0.1539
       DOS:  cpu time      0.0008: real time      0.0008
    --------------------------------------------
      LOOP:  cpu time      0.1537: real time      0.1547

 eigenvalue-minimisations  :  1584
 total energy-change (2. order) :-0.2064012E+01  (-0.2030377E+01)
 number of electron      18.0000000 magnetization       6.0000000
 augmentation part       18.0000000 magnetization       6.0000000

 Free energy of the ion-electron system (eV)
  ---------------------------------------------------
  alpha Z        PSCENC =        39.63868225
  Ewald energy   TEWEN  =     -1054.56880693
  -Hartree energ DENC   =      -595.60964206
  -exchange      EXHF   =         0.00000000
  -V(xc)+E(xc)   XCENC  =        33.36921587
  PAW double counting   =      1439.98163886    -1545.88690193
  entropy T*S    EENTRO =        -0.00765160
  eigenvalues    EBANDS =        43.65397771
  atomic energy  EATOM  =      1626.70414741
  Solvation  Ediel_sol  =         0.00000000
  ---------------------------------------------------
  free energy    TOTEN  =       -12.72534042 eV

  energy without entropy =      -12.71768882  energy(sigma->0) =      -12.72278989


--------------------------------------------------------------------------------------------------------




--------------------------------------- Iteration      1(   4)  ---------------------------------------


     EDDAV:  cpu time      0.1723: real time      0.1734
       DOS:  cpu time      0.0009: real time      0.0009
    --------------------------------------------
      LOOP:  cpu time      0.1732: real time      0.1742

 eigenvalue-minimisations  :  1880
 total energy-change (2. order) :-0.3395909E-01  (-0.3394576E-01)
 number of electron      18.0000000 magnetization       6.0000000
 augmentation part       18.0000000 magnetization       6.0000000

 Free energy of the ion-electron system (eV)
  ---------------------------------------------------
  alpha Z        PSCENC =        39.63868225
  Ewald energy   TEWEN  =     -1054.56880693
  -Hartree energ DENC   =      -595.60964206
  -exchange      EXHF   =         0.00000000
  -V(xc)+E(xc)   XCENC  =        33.36921587
  PAW double counting   =      1439.98163886    -1545.88690193
  entropy T*S    EENTRO =        -0.00774323
  eigenvalues    EBANDS =        43.62011026
  atomic energy  EATOM  =      1626.70414741
  Solvation  Ediel_sol  =         0.00000000
  ---------------------------------------------------
  free energy    TOTEN  =       -12.75929951 eV

  energy without entropy =      -12.75155628  energy(sigma->0) =      -12.75671843


--------------------------------------------------------------------------------------------------------




--------------------------------------- Iteration      1(   5)  ---------------------------------------


     EDDAV:  cpu time      0.1490: real time      0.1499
       DOS:  cpu time      0.0009: real time      0.0009
    CHARGE:  cpu time      0.0248: real time      0.0249
    MIXING:  cpu time      0.0004: real time      0.0004
    --------------------------------------------
      LOOP:  cpu time      0.1750: real time      0.1760

 eigenvalue-minimisations  :  1584
 total energy-change (2. order) :-0.2608391E-03  (-0.2608080E-03)
 number of electron      17.9999992 magnetization       5.2040185
 augmentation part        9.0486396 magnetization       4.0109635

 Broyden mixing:
  rms(total) = 0.12729E+01    rms(broyden)= 0.12728E+01
  rms(prec ) = 0.17295E+01
  weight for this iteration     100.00

 Free energy of the ion-electron system (eV)
  ---------------------------------------------------
  alpha Z        PSCENC =        39.63868225
  Ewald energy   TEWEN  =     -1054.56880693
  -Hartree energ DENC   =      -595.60964206
  -exchange      EXHF   =         0.00000000
  -V(xc)+E(xc)   XCENC  =        33.36921587
  PAW double counting   =      1439.98163886    -1545.88690193
  entropy T*S    EENTRO =        -0.00775851
  eigenvalues    EBANDS =        43.61986470
  atomic energy  EATOM  =      1626.70414741
  Solvation  Ediel_sol  =         0.00000000
  ---------------------------------------------------
  free energy    TOTEN  =       -12.75956035 eV

  energy without entropy =      -12.75180184  energy(sigma->0) =      -12.75697418


--------------------------------------------------------------------------------------------------------




--------------------------------------- Iteration      1(   6)  ---------------------------------------


    POTLOK:  cpu time      0.0077: real time      0.0078
    SETDIJ:  cpu time      0.0052: real time      0.0052
     EDDAV:  cpu time      0.1426: real time      0.1434
       DOS:  cpu time      0.0009: real time      0.0009
    CHARGE:  cpu time      0.0240: real time      0.0241
    MIXING:  cpu time      0.0005: real time      0.0005
    --------------------------------------------
      LOOP:  cpu time      0.1808: real time      0.1818

 eigenvalue-minimisations  :  1504
 total energy-change (2. order) : 0.8536310E-01  (-0.2285413E+01)
 number of electron      17.9999990 magnetization       4.7938844
 augmentation part       11.3296947 magnetization       3.8748813

 Broyden mixing:
  rms(total) = 0.13156E+01    rms(broyden)= 0.13153E+01
  rms(prec ) = 0.15659E+01
  weight for this iteration     100.00

 eigenvalues of (default mixing * dielectric matrix)
  average eigenvalue GAMMA=   0.4109
  0.4109

 Free energy of the ion-electron system (eV)
  ---------------------------------------------------
  alpha Z        PSCENC =        39.63868225
  Ewald energy   TEWEN  =     -1054.56880693
  -Hartree energ DENC   =      -548.97762903
  -exchange      EXHF   =         0.00000000
  -V(xc)+E(xc)   XCENC  =        30.99410834
  PAW double counting   =      1469.40331937    -1563.57399015
  entropy T*S    EENTRO =         0.00792206
  eigenvalues    EBANDS =       -12.30195055
  atomic energy  EATOM  =      1626.70414741
  Solvation  Ediel_sol  =         0.00000000
  ---------------------------------------------------
  free energy    TOTEN  =       -12.67419725 eV

  energy without entropy =      -12.68211931  energy(sigma->0) =      -12.67683794


--------------------------------------------------------------------------------------------------------




--------------------------------------- Iteration      1(   7)  ---------------------------------------


    POTLOK:  cpu time      0.0074: real time      0.0076
    SETDIJ:  cpu time      0.0047: real time      0.0048
     EDDAV:  cpu time      0.1471: real time      0.1478
       DOS:  cpu time      0.0009: real time      0.0009
    CHARGE:  cpu time      0.0228: real time      0.0229
    MIXING:  cpu time      0.0004: real time      0.0004
    --------------------------------------------
      LOOP:  cpu time      0.1833: real time      0.1844

 eigenvalue-minimisations  :  1568
 total energy-change (2. order) : 0.1478851E+01  (-0.4358386E+00)
 number of electron      17.9999991 magnetization       4.4358764
 augmentation part       10.3488659 magnetization       3.5426502

 Broyden mixing:
  rms(total) = 0.34350E+00    rms(broyden)= 0.34336E+00
  rms(prec ) = 0.38641E+00
  weight for this iteration     100.00

 eigenvalues of (default mixing * dielectric matrix)
  average eigenvalue GAMMA=   0.6424
  0.7919  0.4929

 Free energy of the ion-electron system (eV)
  ---------------------------------------------------
  alpha Z        PSCENC =        39.63868225
  Ewald energy   TEWEN  =     -1054.56880693
  -Hartree energ DENC   =      -568.08372087
  -exchange      EXHF   =         0.00000000
  -V(xc)+E(xc)   XCENC  =        31.45271122
  PAW double counting   =      1528.71089197    -1630.76425237
  entropy T*S    EENTRO =        -0.00818019
  eigenvalues    EBANDS =        15.72318093
  atomic energy  EATOM  =      1626.70414741
  Solvation  Ediel_sol  =         0.00000000
  ---------------------------------------------------
  free energy    TOTEN  =       -11.19534659 eV

  energy without entropy =      -11.18716639  energy(sigma->0) =      -11.19261986


--------------------------------------------------------------------------------------------------------




--------------------------------------- Iteration      1(   8)  ---------------------------------------


    POTLOK:  cpu time      0.0074: real time      0.0075
    SETDIJ:  cpu time      0.0047: real time      0.0047
     EDDAV:  cpu time      0.1571: real time      0.1579
       DOS:  cpu time      0.0009: real time      0.0009
    CHARGE:  cpu time      0.0229: real time      0.0230
    MIXING:  cpu time      0.0005: real time      0.0005
    --------------------------------------------
      LOOP:  cpu time      0.1935: real time      0.1946

 eigenvalue-minimisations  :  1688
 total energy-change (2. order) :-0.2793047E-01  (-0.1749006E-01)
 number of electron      17.9999991 magnetization       4.1298504
 augmentation part       10.2057121 magnetization       3.3502991

 Broyden mixing:
  rms(total) = 0.18924E+00    rms(broyden)= 0.18909E+00
  rms(prec ) = 0.22887E+00
  weight for this iteration     100.00

 eigenvalues of (default mixing * dielectric matrix)
  average eigenvalue GAMMA=   0.8366
  1.3735  0.5681  0.5681

 Free energy of the ion-electron system (eV)
  ---------------------------------------------------
  alpha Z        PSCENC =        39.63868225
  Ewald energy   TEWEN  =     -1054.56880693
  -Hartree energ DENC   =      -570.25437667
  -exchange      EXHF   =         0.00000000
  -V(xc)+E(xc)   XCENC  =        31.57279049
  PAW double counting   =      1565.37697326    -1669.42763494
  entropy T*S    EENTRO =        -0.01122160
  eigenvalues    EBANDS =        19.74616967
  atomic energy  EATOM  =      1626.70414741
  Solvation  Ediel_sol  =         0.00000000
  ---------------------------------------------------
  free energy    TOTEN  =       -11.22327706 eV

  energy without entropy =      -11.21205546  energy(sigma->0) =      -11.21953652


--------------------------------------------------------------------------------------------------------




--------------------------------------- Iteration      1(   9)  ---------------------------------------


    POTLOK:  cpu time      0.0073: real time      0.0075
    SETDIJ:  cpu time      0.0047: real time      0.0047
     EDDAV:  cpu time      0.1713: real time      0.1722
       DOS:  cpu time      0.0009: real time      0.0009
    CHARGE:  cpu time      0.0237: real time      0.0237
    MIXING:  cpu time      0.0004: real time      0.0004
    --------------------------------------------
      LOOP:  cpu time      0.2084: real time      0.2095

 eigenvalue-minimisations  :  1632
 total energy-change (2. order) :-0.2024712E-01  (-0.8341167E-02)
 number of electron      17.9999991 magnetization       4.1154574
 augmentation part       10.2180872 magnetization       3.4252099

 Broyden mixing:
  rms(total) = 0.10588E+00    rms(broyden)= 0.10560E+00
  rms(prec ) = 0.12613E+00
  weight for this iteration     100.00

 eigenvalues of (default mixing * dielectric matrix)
  average eigenvalue GAMMA=   0.9116
  1.5529  0.9108  0.5913  0.5913

 Free energy of the ion-electron system (eV)
  ---------------------------------------------------
  alpha Z        PSCENC =        39.63868225
  Ewald energy   TEWEN  =     -1054.56880693
  -Hartree energ DENC   =      -569.01482015
  -exchange      EXHF   =         0.00000000
  -V(xc)+E(xc)   XCENC  =        31.53767618
  PAW double counting   =      1598.95617875    -1704.11037495
  entropy T*S    EENTRO =        -0.00655751
  eigenvalues    EBANDS =        19.62035077
  atomic energy  EATOM  =      1626.70414741
  Solvation  Ediel_sol  =         0.00000000
  ---------------------------------------------------
  free energy    TOTEN  =       -11.24352418 eV

  energy without entropy =      -11.23696667  energy(sigma->0) =      -11.24133834


--------------------------------------------------------------------------------------------------------




--------------------------------------- Iteration      1(  10)  ---------------------------------------


    POTLOK:  cpu time      0.0076: real time      0.0078
    SETDIJ:  cpu time      0.0051: real time      0.0051
     EDDAV:  cpu time      0.1505: real time      0.1513
       DOS:  cpu time      0.0009: real time      0.0009
    CHARGE:  cpu time      0.0231: real time      0.0232
    MIXING:  cpu time      0.0004: real time      0.0004
    --------------------------------------------
      LOOP:  cpu time      0.1876: real time      0.1886

 eigenvalue-minimisations  :  1608
 total energy-change (2. order) :-0.2162182E-02  (-0.1752281E-02)
 number of electron      17.9999991 magnetization       4.1416405
 augmentation part       10.2506210 magnetization       3.4571540

 Broyden mixing:
  rms(total) = 0.72772E-01    rms(broyden)= 0.72627E-01
  rms(prec ) = 0.85314E-01
  weight for this iteration     100.00

 eigenvalues of (default mixing * dielectric matrix)
  average eigenvalue GAMMA=   0.9932
  1.8650  0.9668  0.9668  0.5837  0.5837

 Free energy of the ion-electron system (eV)
  ---------------------------------------------------
  alpha Z        PSCENC =        39.63868225
  Ewald energy   TEWEN  =     -1054.56880693
  -Hartree energ DENC   =      -567.87310579
  -exchange      EXHF   =         0.00000000
  -V(xc)+E(xc)   XCENC  =        31.49942782
  PAW double counting   =      1604.95294190    -1710.29750797
  entropy T*S    EENTRO =        -0.00276846
  eigenvalues    EBANDS =        18.70130342
  atomic energy  EATOM  =      1626.70414741
  Solvation  Ediel_sol  =         0.00000000
  ---------------------------------------------------
  free energy    TOTEN  =       -11.24568636 eV

  energy without entropy =      -11.24291790  energy(sigma->0) =      -11.24476354


--------------------------------------------------------------------------------------------------------




--------------------------------------- Iteration      1(  11)  ---------------------------------------


    POTLOK:  cpu time      0.0073: real time      0.0075
    SETDIJ:  cpu time      0.0047: real time      0.0048
     EDDAV:  cpu time      0.1526: real time      0.1534
       DOS:  cpu time      0.0009: real time      0.0009
    CHARGE:  cpu time      0.0230: real time      0.0231
    MIXING:  cpu time      0.0004: real time      0.0004
    --------------------------------------------
      LOOP:  cpu time      0.1891: real time      0.1901

 eigenvalue-minimisations  :  1640
 total energy-change (2. order) : 0.4123248E-02  (-0.3445673E-03)
 number of electron      17.9999991 magnetization       4.1277482
 augmentation part       10.2538888 magnetization       3.4409559

 Broyden mixing:
  rms(total) = 0.33774E-01    rms(broyden)= 0.33665E-01
  rms(prec ) = 0.41467E-01
  weight for this iteration     100.00

 eigenvalues of (default mixing * dielectric matrix)
  average eigenvalue GAMMA=   1.0747
  2.2789  1.0919  1.0919  0.5681  0.7088  0.7088

 Free energy of the ion-electron system (eV)
  ---------------------------------------------------
  alpha Z        PSCENC =        39.63868225
  Ewald energy   TEWEN  =     -1054.56880693
  -Hartree energ DENC   =      -567.34010453
  -exchange      EXHF   =         0.00000000
  -V(xc)+E(xc)   XCENC  =        31.48477798
  PAW double counting   =      1607.42995112    -1713.05847297
  entropy T*S    EENTRO =        -0.00556120
  eigenvalues    EBANDS =        18.47382377
  atomic energy  EATOM  =      1626.70414741
  Solvation  Ediel_sol  =         0.00000000
  ---------------------------------------------------
  free energy    TOTEN  =       -11.24156311 eV

  energy without entropy =      -11.23600191  energy(sigma->0) =      -11.23970938


--------------------------------------------------------------------------------------------------------




--------------------------------------- Iteration      1(  12)  ---------------------------------------


    POTLOK:  cpu time      0.0074: real time      0.0075
    SETDIJ:  cpu time      0.0047: real time      0.0047
     EDDAV:  cpu time      0.1490: real time      0.1498
       DOS:  cpu time      0.0009: real time      0.0009
    CHARGE:  cpu time      0.0233: real time      0.0234
    MIXING:  cpu time      0.0005: real time      0.0005
    --------------------------------------------
      LOOP:  cpu time      0.1857: real time      0.1867

 eigenvalue-minimisations  :  1592
 total energy-change (2. order) : 0.2239358E-03  (-0.2463747E-03)
 number of electron      17.9999991 magnetization       4.1449540
 augmentation part       10.2698021 magnetization       3.4596024

 Broyden mixing:
  rms(total) = 0.11548E-01    rms(broyden)= 0.11522E-01
  rms(prec ) = 0.12627E-01
  weight for this iteration     100.00

 eigenvalues of (default mixing * dielectric matrix)
  average eigenvalue GAMMA=   1.0678
  2.3410  1.1683  1.1683  0.5860  0.6125  0.7993  0.7993

 Free energy of the ion-electron system (eV)
  ---------------------------------------------------
  alpha Z        PSCENC =        39.63868225
  Ewald energy   TEWEN  =     -1054.56880693
  -Hartree energ DENC   =      -566.65196534
  -exchange      EXHF   =         0.00000000
  -V(xc)+E(xc)   XCENC  =        31.47010657
  PAW double counting   =      1612.81122118    -1718.69990957
  entropy T*S    EENTRO =        -0.00534832
  eigenvalues    EBANDS =        18.06053357
  atomic energy  EATOM  =      1626.70414741
  Solvation  Ediel_sol  =         0.00000000
  ---------------------------------------------------
  free energy    TOTEN  =       -11.24133918 eV

  energy without entropy =      -11.23599085  energy(sigma->0) =      -11.23955640


--------------------------------------------------------------------------------------------------------




--------------------------------------- Iteration      1(  13)  ---------------------------------------


    POTLOK:  cpu time      0.0073: real time      0.0075
    SETDIJ:  cpu time      0.0047: real time      0.0047
     EDDAV:  cpu time      0.1418: real time      0.1425
       DOS:  cpu time      0.0009: real time      0.0009
    CHARGE:  cpu time      0.0234: real time      0.0235
    MIXING:  cpu time      0.0005: real time      0.0005
    --------------------------------------------
      LOOP:  cpu time      0.1786: real time      0.1796

 eigenvalue-minimisations  :  1496
 total energy-change (2. order) :-0.3235796E-03  (-0.2568470E-04)
 number of electron      17.9999991 magnetization       4.1596812
 augmentation part       10.2720449 magnetization       3.4701007

 Broyden mixing:
  rms(total) = 0.65912E-02    rms(broyden)= 0.65517E-02
  rms(prec ) = 0.72389E-02
  weight for this iteration     100.00

 eigenvalues of (default mixing * dielectric matrix)
  average eigenvalue GAMMA=   1.1058
  2.3453  1.5869  1.0200  1.0200  0.9677  0.5750  0.6720  0.6592

 Free energy of the ion-electron system (eV)
  ---------------------------------------------------
  alpha Z        PSCENC =        39.63868225
  Ewald energy   TEWEN  =     -1054.56880693
  -Hartree energ DENC   =      -566.53895949
  -exchange      EXHF   =         0.00000000
  -V(xc)+E(xc)   XCENC  =        31.45891977
  PAW double counting   =      1612.88306890    -1718.83559777
  entropy T*S    EENTRO =        -0.00500445
  eigenvalues    EBANDS =        18.02188756
  atomic energy  EATOM  =      1626.70414741
  Solvation  Ediel_sol  =         0.00000000
  ---------------------------------------------------
  free energy    TOTEN  =       -11.24166275 eV

  energy without entropy =      -11.23665831  energy(sigma->0) =      -11.23999461


--------------------------------------------------------------------------------------------------------




--------------------------------------- Iteration      1(  14)  ---------------------------------------


    POTLOK:  cpu time      0.0074: real time      0.0075
    SETDIJ:  cpu time      0.0047: real time      0.0047
     EDDAV:  cpu time      0.1522: real time      0.1530
       DOS:  cpu time      0.0009: real time      0.0009
    CHARGE:  cpu time      0.0234: real time      0.0235
    MIXING:  cpu time      0.0005: real time      0.0005
    --------------------------------------------
      LOOP:  cpu time      0.1890: real time      0.1901

 eigenvalue-minimisations  :  1624
 total energy-change (2. order) :-0.1776125E-03  (-0.1955134E-04)
 number of electron      17.9999991 magnetization       4.1601920
 augmentation part       10.2743719 magnetization       3.4657534

 Broyden mixing:
  rms(total) = 0.31285E-02    rms(broyden)= 0.30824E-02
  rms(prec ) = 0.34223E-02
  weight for this iteration     100.00

 eigenvalues of (default mixing * dielectric matrix)
  average eigenvalue GAMMA=   1.1373
  2.2327  2.2327  1.0481  1.0481  0.9085  0.9085  0.5753  0.6408  0.6408

 Free energy of the ion-electron system (eV)
  ---------------------------------------------------
  alpha Z        PSCENC =        39.63868225
  Ewald energy   TEWEN  =     -1054.56880693
  -Hartree energ DENC   =      -566.45595991
  -exchange      EXHF   =         0.00000000
  -V(xc)+E(xc)   XCENC  =        31.45178249
  PAW double counting   =      1612.49094819    -1718.48107807
  entropy T*S    EENTRO =        -0.00480210
  eigenvalues    EBANDS =        17.98324631
  atomic energy  EATOM  =      1626.70414741
  Solvation  Ediel_sol  =         0.00000000
  ---------------------------------------------------
  free energy    TOTEN  =       -11.24184037 eV

  energy without entropy =      -11.23703827  energy(sigma->0) =      -11.24023967


--------------------------------------------------------------------------------------------------------




--------------------------------------- Iteration      1(  15)  ---------------------------------------


    POTLOK:  cpu time      0.0073: real time      0.0075
    SETDIJ:  cpu time      0.0049: real time      0.0049
     EDDAV:  cpu time      0.1401: real time      0.1408
       DOS:  cpu time      0.0009: real time      0.0009
    CHARGE:  cpu time      0.0233: real time      0.0234
    MIXING:  cpu time      0.0005: real time      0.0005
    --------------------------------------------
      LOOP:  cpu time      0.1770: real time      0.1780

 eigenvalue-minimisations  :  1480
 total energy-change (2. order) :-0.1992381E-04  (-0.1836731E-05)
 number of electron      17.9999991 magnetization       4.1570273
 augmentation part       10.2738149 magnetization       3.4621792

 Broyden mixing:
  rms(total) = 0.18342E-02    rms(broyden)= 0.18212E-02
  rms(prec ) = 0.19675E-02
  weight for this iteration     100.00

 eigenvalues of (default mixing * dielectric matrix)
  average eigenvalue GAMMA=   1.2317
  2.8756  2.2596  1.0562  1.0562  1.2263  1.2263  0.7738  0.5729  0.6353  0.6353

 Free energy of the ion-electron system (eV)
  ---------------------------------------------------
  alpha Z        PSCENC =        39.63868225
  Ewald energy   TEWEN  =     -1054.56880693
  -Hartree energ DENC   =      -566.46289668
  -exchange      EXHF   =         0.00000000
  -V(xc)+E(xc)   XCENC  =        31.45033535
  PAW double counting   =      1612.35702773    -1718.35442992
  entropy T*S    EENTRO =        -0.00473904
  eigenvalues    EBANDS =        17.99881954
  atomic energy  EATOM  =      1626.70414741
  Solvation  Ediel_sol  =         0.00000000
  ---------------------------------------------------
  free energy    TOTEN  =       -11.24186029 eV

  energy without entropy =      -11.23712125  energy(sigma->0) =      -11.24028061


--------------------------------------------------------------------------------------------------------




--------------------------------------- Iteration      1(  16)  ---------------------------------------


    POTLOK:  cpu time      0.0073: real time      0.0076
    SETDIJ:  cpu time      0.0047: real time      0.0047
     EDDAV:  cpu time      0.1410: real time      0.1418
       DOS:  cpu time      0.0009: real time      0.0009
    CHARGE:  cpu time      0.0238: real time      0.0238
    MIXING:  cpu time      0.0006: real time      0.0006
    --------------------------------------------
      LOOP:  cpu time      0.1783: real time      0.1794

 eigenvalue-minimisations  :  1464
 total energy-change (2. order) :-0.2028555E-04  (-0.7727950E-06)
 number of electron      17.9999991 magnetization       4.1565881
 augmentation part       10.2738774 magnetization       3.4623655

 Broyden mixing:
  rms(total) = 0.67947E-03    rms(broyden)= 0.64319E-03
  rms(prec ) = 0.72869E-03
  weight for this iteration     100.00

 eigenvalues of (default mixing * dielectric matrix)
  average eigenvalue GAMMA=   1.2511
  3.1821  2.2872  1.3785  1.3785  1.0497  1.0497  0.8035  0.8035  0.5713  0.6289
  0.6289

 Free energy of the ion-electron system (eV)
  ---------------------------------------------------
  alpha Z        PSCENC =        39.63868225
  Ewald energy   TEWEN  =     -1054.56880693
  -Hartree energ DENC   =      -566.45996292
  -exchange      EXHF   =         0.00000000
  -V(xc)+E(xc)   XCENC  =        31.45090128
  PAW double counting   =      1612.41032287    -1718.40840371
  entropy T*S    EENTRO =        -0.00461322
  eigenvalues    EBANDS =        17.99585240
  atomic energy  EATOM  =      1626.70414741
  Solvation  Ediel_sol  =         0.00000000
  ---------------------------------------------------
  free energy    TOTEN  =       -11.24188058 eV

  energy without entropy =      -11.23726735  energy(sigma->0) =      -11.24034284


--------------------------------------------------------------------------------------------------------




--------------------------------------- Iteration      1(  17)  ---------------------------------------


    POTLOK:  cpu time      0.0075: real time      0.0077
    SETDIJ:  cpu time      0.0049: real time      0.0049
     EDDAV:  cpu time      0.1226: real time      0.1232
       DOS:  cpu time      0.0009: real time      0.0009
    CHARGE:  cpu time      0.0235: real time      0.0236
    MIXING:  cpu time      0.0005: real time      0.0005
    --------------------------------------------
      LOOP:  cpu time      0.1599: real time      0.1608

 eigenvalue-minimisations  :  1208
 total energy-change (2. order) :-0.3106268E-05  (-0.9606098E-07)
 number of electron      17.9999991 magnetization       4.1564035
 augmentation part       10.2737043 magnetization       3.4624727

 Broyden mixing:
  rms(total) = 0.27708E-03    rms(broyden)= 0.25560E-03
  rms(prec ) = 0.29501E-03
  weight for this iteration     100.00

 eigenvalues of (default mixing * dielectric matrix)
  average eigenvalue GAMMA=   1.2757
  3.5555  2.3454  1.7029  1.0517  1.0517  1.2617  0.9102  0.9102  0.5719  0.6859
  0.6307  0.6307

 Free energy of the ion-electron system (eV)
  ---------------------------------------------------
  alpha Z        PSCENC =        39.63868225
  Ewald energy   TEWEN  =     -1054.56880693
  -Hartree energ DENC   =      -566.46785031
  -exchange      EXHF   =         0.00000000
  -V(xc)+E(xc)   XCENC  =        31.45151947
  PAW double counting   =      1612.38258887    -1718.37634753
  entropy T*S    EENTRO =        -0.00457662
  eigenvalues    EBANDS =        17.99875972
  atomic energy  EATOM  =      1626.70414741
  Solvation  Ediel_sol  =         0.00000000
  ---------------------------------------------------
  free energy    TOTEN  =       -11.24188368 eV

  energy without entropy =      -11.23730706  energy(sigma->0) =      -11.24035814


--------------------------------------------------------------------------------------------------------




--------------------------------------- Iteration      1(  18)  ---------------------------------------


    POTLOK:  cpu time      0.0073: real time      0.0075
    SETDIJ:  cpu time      0.0048: real time      0.0048
     EDDAV:  cpu time      0.0984: real time      0.0989
       DOS:  cpu time      0.0009: real time      0.0009
    --------------------------------------------
      LOOP:  cpu time      0.1113: real time      0.1120

 eigenvalue-minimisations  :   816
 total energy-change (2. order) :-0.3116020E-06  (-0.3191310E-07)
 number of electron      17.9999991 magnetization       4.1564035
 augmentation part       10.2737043 magnetization       3.4624727

 Free energy of the ion-electron system (eV)
  ---------------------------------------------------
  alpha Z        PSCENC =        39.63868225
  Ewald energy   TEWEN  =     -1054.56880693
  -Hartree energ DENC   =      -566.47090045
  -exchange      EXHF   =         0.00000000
  -V(xc)+E(xc)   XCENC  =        31.45178840
  PAW double counting   =      1612.37939532    -1718.37106195
  entropy T*S    EENTRO =        -0.00455062
  eigenvalues    EBANDS =        17.99942259
  atomic energy  EATOM  =      1626.70414741
  Solvation  Ediel_sol  =         0.00000000
  ---------------------------------------------------
  free energy    TOTEN  =       -11.24188399 eV

  energy without entropy =      -11.23733337  energy(sigma->0) =      -11.24036712


--------------------------------------------------------------------------------------------------------




 average (electrostatic) potential at core
  the test charge radii are     1.0452
  (the norm of the test charge is              1.0000)
       1 -85.5606       2 -85.5606
 
 
 
 E-fermi :   3.0218     XC(G=0):  -9.3951     alpha+bet : -8.9999

 Fermi energy:         3.0218185729

 spin component 1

 k-point     1 :       0.0000    0.0000    0.0000
  band No.  band energies     occupation 
      1      -3.0059      1.00000
      2      -2.5459      1.00000
      3      -0.2924      1.00000
      4       0.7184      1.00000
      5       0.7184      1.00000
      6       0.7192      1.00000
      7       0.7192      1.00000
      8       0.7310      1.00000
      9       1.4245      1.00000
     10       1.4245      1.00000
     11       1.4277      1.00000
     12       1.4277      1.00000
     13       2.1362      1.00000
     14       6.4122     -0.00000
     15      10.8444      0.00000
     16      18.8002      0.00000

 k-point     2 :       0.1667   -0.0000    0.0000
  band No.  band energies     occupation 
      1      -2.0404      1.00000
      2      -1.6496      1.00000
      3      -0.0006      1.00000
      4       0.4799      1.00000
      5       0.4890      1.00000
      6       0.5236      1.00000
      7       0.8033      1.00000
      8       0.9953      1.00000
      9       1.1281      1.00000
     10       1.1290      1.00000
     11       1.3440      1.00000
     12       1.3501      1.00000
     13       3.7280     -0.00000
     14       7.8471     -0.00000
     15      11.4701      0.00000
     16      19.9425      0.00000

 k-point     3 :       0.3333   -0.0000    0.0000
  band No.  band energies     occupation 
      1      -0.9042      1.00000
      2      -0.8550      1.00000
      3      -0.1990      1.00000
      4      -0.0392      1.00000
      5       0.6209      1.00000
      6       0.7860      1.00000
      7       1.1861      1.00000
      8       1.1968      1.00000
      9       1.7698      1.00000
     10       2.0265      1.00000
     11       2.0270      1.00000
     12       2.7015      1.02298
     13       6.7000     -0.00000
     14      11.0729      0.00000
     15      13.0117      0.00000
     16      14.2162      0.00000

 k-point     4 :       0.5000   -0.0000    0.0000
  band No.  band energies     occupation 
      1      -1.0433      1.00000
      2      -1.0404      1.00000
      3      -0.4413      1.00000
      4      -0.3747      1.00000
      5       0.9369      1.00000
      6       1.0315      1.00000
      7       1.1082      1.00000
      8       1.1208      1.00000
      9       2.5253      1.00125
     10       2.5253      1.00125
     11       5.2367     -0.00000
     12       5.5901     -0.00000
     13       9.2187      0.00000
     14      10.0373      0.00000
     15      10.4413      0.00000
     16      11.5777      0.00000

 k-point     5 :       0.1667    0.1667    0.0000
  band No.  band energies     occupation 
      1      -0.5302      1.00000
      2      -0.3934      1.00000
      3       0.0158      1.00000
      4       0.1068      1.00000
      5       0.1108      1.00000
      6       0.2246      1.00000
      7       0.5160      1.00000
      8       1.1298      1.00000
      9       1.1375      1.00000
     10       1.2213      1.00000
     11       2.1880      1.00000
     12       2.5769      1.00363
     13       5.8029     -0.00000
     14      10.1497      0.00000
     15      12.7765      0.00000
     16      18.2686      0.00000

 k-point     6 :       0.3333    0.1667    0.0000
  band No.  band energies     occupation 
      1      -0.4733      1.00000
      2      -0.4669      1.00000
      3      -0.2401      1.00000
      4      -0.1518      1.00000
      5       0.8283      1.00000
      6       0.8405      1.00000
      7       0.8541      1.00000
      8       0.8778      1.00000
      9       1.3610      1.00000
     10       1.5234      1.00000
     11       5.1584     -0.00000
     12       5.9776     -0.00000
     13       9.4012      0.00000
     14      11.3244      0.00000
     15      12.3486      0.00000
     16      13.4045      0.00000

 k-point     7 :       0.3333    0.3333    0.0000
  band No.  band energies     occupation 
      1       0.1757      1.00000
      2       0.2123      1.00000
      3       0.2123      1.00000
      4       0.2511      1.00000
      5       0.4450      1.00000
      6       0.4602      1.00000
      7       0.4602      1.00000
      8       0.4813      1.00000
      9       0.9658      1.00000
     10       0.9658      1.00000
     11       9.6829      0.00000
     12       9.9379      0.00000
     13       9.9379      0.00000
     14      10.5889      0.00000
     15      12.0406      0.00000
     16      12.0406      0.00000

 k-point     8 :       0.0000    0.0000    0.2500
  band No.  band energies     occupation 
      1      -2.9411      1.00000
      2      -2.6151      1.00000
      3      -0.2270      1.00000
      4       0.3892      1.00000
      5       0.7184      1.00000
      6       0.7184      1.00000
      7       0.7190      1.00000
      8       0.7190      1.00000
      9       1.4249      1.00000
     10       1.4249      1.00000
     11       1.4270      1.00000
     12       1.4270      1.00000
     13       2.8067      1.03130
     14       5.5797     -0.00000
     15      11.9454      0.00000
     16      16.8522      0.00000

 k-point     9 :       0.1667   -0.0000    0.2500
  band No.  band energies     occupation 
      1      -1.9826      1.00000
      2      -1.7050      1.00000
      3       0.0502      1.00000
      4       0.4162      1.00000
      5       0.4887      1.00000
      6       0.4907      1.00000
      7       0.8102      1.00000
      8       0.9119      1.00000
      9       1.1283      1.00000
     10       1.1288      1.00000
     11       1.3448      1.00000
     12       1.3493      1.00000
     13       4.2296     -0.00000
     14       6.9134     -0.00000
     15      12.6903      0.00000
     16      17.7624      0.00000

 k-point    10 :       0.3333   -0.0000    0.2500
  band No.  band energies     occupation 
      1      -0.8969      1.00000
      2      -0.8622      1.00000
      3      -0.1817      1.00000
      4      -0.0715      1.00000
      5       0.6612      1.00000
      6       0.7734      1.00000
      7       1.1876      1.00000
      8       1.1952      1.00000
      9       1.8633      1.00000
     10       2.0266      1.00000
     11       2.0269      1.00000
     12       2.5062      1.00081
     13       7.1687     -0.00000
     14       9.9007      0.00000
     15      13.9198      0.00000
     16      14.3963      0.00000

 k-point    11 :       0.5000   -0.0000    0.2500
  band No.  band energies     occupation 
      1      -1.0431      1.00000
      2      -1.0409      1.00000
      3      -0.4329      1.00000
      4      -0.3861      1.00000
      5       0.9536      1.00000
      6       1.0208      1.00000
      7       1.1100      1.00000
      8       1.1190      1.00000
      9       2.5253      1.00125
     10       2.5254      1.00125
     11       5.2791     -0.00000
     12       5.5287     -0.00000
     13       9.2212      0.00000
     14       9.6284      0.00000
     15      11.0727      0.00000
     16      11.7727      0.00000

 k-point    12 :       0.1667    0.1667    0.2500
  band No.  band energies     occupation 
      1      -0.5085      1.00000
      2      -0.4120      1.00000
      3       0.0338      1.00000
      4       0.1073      1.00000
      5       0.1104      1.00000
      6       0.1657      1.00000
      7       0.6400      1.00000
      8       1.1238      1.00000
      9       1.1341      1.00000
     10       1.1365      1.00000
     11       2.2121      1.00000
     12       2.4618      1.00027
     13       6.2851     -0.00000
     14       9.0375      0.00000
     15      14.1642      0.00000
     16      18.3528      0.00000

 k-point    13 :       0.3333    0.1667    0.2500
  band No.  band energies     occupation 
      1      -0.4727      1.00000
      2      -0.4683      1.00000
      3      -0.2287      1.00000
      4      -0.1666      1.00000
      5       0.8296      1.00000
      6       0.8463      1.00000
      7       0.8540      1.00000
      8       0.8775      1.00000
      9       1.3843      1.00000
     10       1.4996      1.00000
     11       5.2417     -0.00000
     12       5.8021     -0.00000
     13       9.8337      0.00000
     14      11.3644      0.00000
     15      12.1045      0.00000
     16      12.6660      0.00000

 k-point    14 :       0.3333    0.3333    0.2500
  band No.  band energies     occupation 
      1       0.1856      1.00000
      2       0.2109      1.00000
      3       0.2109      1.00000
      4       0.2384      1.00000
      5       0.4519      1.00000
      6       0.4614      1.00000
      7       0.4614      1.00000
      8       0.4771      1.00000
      9       0.9666      1.00000
     10       0.9666      1.00000
     11       9.7873      0.00000
     12       9.9631      0.00000
     13       9.9631      0.00000
     14      10.4157      0.00000
     15      11.7918      0.00000
     16      11.7918      0.00000

 k-point    15 :       0.0000    0.0000    0.5000
  band No.  band energies     occupation 
      1      -2.7805      1.00000
      2      -2.7805      1.00000
      3      -0.0099      1.00000
      4      -0.0099      1.00000
      5       0.7187      1.00000
      6       0.7187      1.00000
      7       0.7187      1.00000
      8       0.7187      1.00000
      9       1.4260      1.00000
     10       1.4260      1.00000
     11       1.4260      1.00000
     12       1.4260      1.00000
     13       4.1198     -0.00000
     14       4.1198     -0.00000
     15      14.2114      0.00000
     16      14.2114      0.00000

 k-point    16 :       0.1667   -0.0000    0.5000
  band No.  band energies     occupation 
      1      -1.8426      1.00000
      2      -1.8426      1.00000
      3       0.2058      1.00000
      4       0.2058      1.00000
      5       0.4885      1.00000
      6       0.4885      1.00000
      7       0.8370      1.00000
      8       0.8370      1.00000
      9       1.1286      1.00000
     10       1.1286      1.00000
     11       1.3471      1.00000
     12       1.3471      1.00000
     13       5.4309     -0.00000
     14       5.4309     -0.00000
     15      15.0474      0.00000
     16      15.0474      0.00000

 k-point    17 :       0.3333   -0.0000    0.5000
  band No.  band energies     occupation 
      1      -0.8796      1.00000
      2      -0.8796      1.00000
      3      -0.1336      1.00000
      4      -0.1336      1.00000
      5       0.7303      1.00000
      6       0.7303      1.00000
      7       1.1913      1.00000
      8       1.1913      1.00000
      9       2.0268      1.00000
     10       2.0268      1.00000
     11       2.1382      1.00000
     12       2.1382      1.00000
     13       8.3477     -0.00000
     14       8.3477     -0.00000
     15      14.3843      0.00000
     16      14.3843      0.00000

 k-point    18 :       0.5000   -0.0000    0.5000
  band No.  band energies     occupation 
      1      -1.0422      1.00000
      2      -1.0422      1.00000
      3      -0.4108      1.00000
      4      -0.4108      1.00000
      5       0.9902      1.00000
      6       0.9902      1.00000
      7       1.1146      1.00000
      8       1.1146      1.00000
      9       2.5253      1.00125
     10       2.5253      1.00125
     11       5.3945     -0.00000
     12       5.3945     -0.00000
     13       9.3211      0.00000
     14       9.3211      0.00000
     15      11.7841      0.00000
     16      11.7841      0.00000

 k-point    19 :       0.1667    0.1667    0.5000
  band No.  band energies     occupation 
      1      -0.4587      1.00000
      2      -0.4587      1.00000
      3       0.0857      1.00000
      4       0.0857      1.00000
      5       0.1095      1.00000
      6       0.1095      1.00000
      7       0.8902      1.00000
      8       0.8902      1.00000
      9       1.1338      1.00000
     10       1.1338      1.00000
     11       2.2982      1.00000
     12       2.2982      1.00000
     13       7.4822     -0.00000
     14       7.4822     -0.00000
     15      16.5247      0.00000
     16      16.5247      0.00000

 k-point    20 :       0.3333    0.1667    0.5000
  band No.  band energies     occupation 
      1      -0.4709      1.00000
      2      -0.4709      1.00000
      3      -0.1993      1.00000
      4      -0.1993      1.00000
      5       0.8372      1.00000
      6       0.8372      1.00000
      7       0.8696      1.00000
      8       0.8696      1.00000
      9       1.4418      1.00000
     10       1.4418      1.00000
     11       5.4805     -0.00000
     12       5.4805     -0.00000
     13      10.8342      0.00000
     14      10.8342      0.00000
     15      11.9627      0.00000
     16      11.9627      0.00000

 k-point    21 :       0.3333    0.3333    0.5000
  band No.  band energies     occupation 
      1       0.2094      1.00000
      2       0.2094      1.00000
      3       0.2106      1.00000
      4       0.2106      1.00000
      5       0.4625      1.00000
      6       0.4625      1.00000
      7       0.4659      1.00000
      8       0.4659      1.00000
      9       0.9673      1.00000
     10       0.9673      1.00000
     11       9.9907      0.00000
     12       9.9907      0.00000
     13      10.0697      0.00000
     14      10.0697      0.00000
     15      11.6068      0.00000
     16      11.6068      0.00000
 Fermi energy:         3.0218185729

 spin component 2

 k-point     1 :       0.0000    0.0000    0.0000
  band No.  band energies     occupation 
      1      -2.7767      1.00000
      2      -2.1332      1.00000
      3       1.4949      1.00000
      4       2.1814      1.00000
      5       2.5696      1.00315
      6       2.5696      1.00315
      7       2.5707      1.00322
      8       2.5707      1.00322
      9       2.7044      1.02366
     10       3.8497     -0.00000
     11       3.8497     -0.00000
     12       3.8539     -0.00000
     13       3.8539     -0.00000
     14       6.6996     -0.00000
     15      11.1984      0.00000
     16      18.7858      0.00000

 k-point     2 :       0.1667   -0.0000    0.0000
  band No.  band energies     occupation 
      1      -1.7827      1.00000
      2      -1.1451      1.00000
      3       1.8494      1.00000
      4       1.9876      1.00000
      5       2.2510      1.00000
      6       2.2675      1.00000
      7       2.9156      0.88672
      8       2.9486      0.78794
      9       3.0269      0.47837
     10       3.0282      0.47301
     11       3.7534     -0.00000
     12       3.7620     -0.00000
     13       4.6751     -0.00000
     14       8.3927     -0.00000
     15      11.7384      0.00000
     16      19.9762      0.00000

 k-point     3 :       0.3333   -0.0000    0.0000
  band No.  band energies     occupation 
      1       0.1786      1.00000
      2       0.4045      1.00000
      3       1.6266      1.00000
      4       1.9709      1.00000
      5       2.3893      1.00004
      6       2.7647      1.03493
      7       2.8452      1.00835
      8       3.5378     -0.00080
      9       3.5655     -0.00041
     10       3.5808     -0.00028
     11       4.0453     -0.00000
     12       4.0460     -0.00000
     13       7.1704     -0.00000
     14      11.6866      0.00000
     15      13.1942      0.00000
     16      14.7122      0.00000

 k-point     4 :       0.5000   -0.0000    0.0000
  band No.  band energies     occupation 
      1       0.3522      1.00000
      2       0.3666      1.00000
      3       1.4849      1.00000
      4       1.5985      1.00000
      5       3.1897      0.00049
      6       3.3309     -0.02559
      7       3.4732     -0.00320
      8       3.4912     -0.00223
      9       4.6221     -0.00000
     10       4.6222     -0.00000
     11       5.2647     -0.00000
     12       5.6427     -0.00000
     13      10.0952      0.00000
     14      10.7394      0.00000
     15      10.9641      0.00000
     16      11.8505      0.00000

 k-point     5 :       0.1667    0.1667    0.0000
  band No.  band energies     occupation 
      1      -0.0355      1.00000
      2       0.4915      1.00000
      3       1.7654      1.00000
      4       1.7718      1.00000
      5       1.7779      1.00000
      6       2.2683      1.00000
      7       2.4448      1.00017
      8       3.2295     -0.02867
      9       3.4895     -0.00231
     10       3.5012     -0.00181
     11       4.0086     -0.00000
     12       4.1426     -0.00000
     13       6.3904     -0.00000
     14      10.7845      0.00000
     15      12.9137      0.00000
     16      18.5968      0.00000

 k-point     6 :       0.3333    0.1667    0.0000
  band No.  band energies     occupation 
      1       0.9490      1.00000
      2       0.9839      1.00000
      3       1.7038      1.00000
      4       1.8709      1.00000
      5       2.6595      1.01399
      6       2.7307      1.02958
      7       3.1260      0.11858
      8       3.1308      0.10635
      9       3.1453      0.07225
     10       3.4550     -0.00451
     11       6.1098     -0.00000
     12       6.7841     -0.00000
     13       9.7607      0.00000
     14      11.9469      0.00000
     15      12.9928      0.00000
     16      13.9721      0.00000

 k-point     7 :       0.3333    0.3333    0.0000
  band No.  band energies     occupation 
      1       1.9101      1.00000
      2       1.9410      1.00000
      3       1.9410      1.00000
      4       1.9788      1.00000
      5       2.2685      1.00000
      6       2.3301      1.00001
      7       2.3301      1.00001
      8       2.3967      1.00005
      9       3.3223     -0.02754
     10       3.3223     -0.02754
     11      10.2107      0.00000
     12      10.5086      0.00000
     13      10.5086      0.00000
     14      11.2048      0.00000
     15      12.7969      0.00000
     16      12.7969      0.00000

 k-point     8 :       0.0000    0.0000    0.2500
  band No.  band energies     occupation 
      1      -2.6957      1.00000
      2      -2.2436      1.00000
      3       1.5248      1.00000
      4       1.8705      1.00000
      5       2.5696      1.00315
      6       2.5696      1.00315
      7       2.5704      1.00320
      8       2.5704      1.00320
      9       3.3769     -0.01539
     10       3.8502     -0.00000
     11       3.8502     -0.00000
     12       3.8530     -0.00000
     13       3.8530     -0.00000
     14       5.9315     -0.00000
     15      12.2461      0.00000
     16      16.9880      0.00000

 k-point     9 :       0.1667   -0.0000    0.2500
  band No.  band energies     occupation 
      1      -1.7027      1.00000
      2      -1.2549      1.00000
      3       1.8586      1.00000
      4       1.9479      1.00000
      5       2.2559      1.00000
      6       2.2663      1.00000
      7       2.9295      0.84818
      8       2.9490      0.78670
      9       3.0272      0.47732
     10       3.0280      0.47373
     11       3.7546     -0.00000
     12       3.7608     -0.00000
     13       5.0663     -0.00000
     14       7.4829     -0.00000
     15      12.9561      0.00000
     16      17.9374      0.00000

 k-point    10 :       0.3333   -0.0000    0.2500
  band No.  band energies     occupation 
      1       0.2108      1.00000
      2       0.3704      1.00000
      3       1.6597      1.00000
      4       1.8813      1.00000
      5       2.5412      1.00176
      6       2.7663      1.03506
      7       2.8530      1.00045
      8       3.3442     -0.02251
      9       3.5677     -0.00039
     10       3.5785     -0.00030
     11       4.0454     -0.00000
     12       4.0459     -0.00000
     13       7.6372     -0.00000
     14      10.3842      0.00000
     15      14.3851      0.00000
     16      14.8739      0.00000

 k-point    11 :       0.5000   -0.0000    0.2500
[...]
      2       0.3642      1.00000
      3       1.4992      1.00000
      4       1.5789      1.00000
      5       3.2193     -0.02376
      6       3.3216     -0.02770
      7       3.4758     -0.00304
      8       3.4887     -0.00235
      9       4.6222     -0.00000
     10       4.6223     -0.00000
     11       5.2990     -0.00000
     12       5.5677     -0.00000
     13      10.0863      0.00000
     14      10.3731      0.00000
     15      11.5517      0.00000
     16      12.0532      0.00000

 k-point    12 :       0.1667    0.1667    0.2500
  band No.  band energies     occupation 
      1       0.0314      1.00000
      2       0.4008      1.00000
      3       1.7664      1.00000
      4       1.7706      1.00000
      5       1.8357      1.00000
      6       2.1383      1.00000
      7       2.6045      1.00598
      8       3.1116      0.15922
      9       3.4913     -0.00223
     10       3.4996     -0.00188
     11       4.0146     -0.00000
     12       4.0930     -0.00000
     13       6.8617     -0.00000
     14       9.5848      0.00000
     15      14.3999      0.00000
     16      18.6977      0.00000

 k-point    13 :       0.3333    0.1667    0.2500
  band No.  band energies     occupation 
      1       0.9536      1.00000
      2       0.9783      1.00000
      3       1.7237      1.00000
      4       1.8401      1.00000
      5       2.6803      1.01823
      6       2.7276      1.02891
      7       3.1216      0.13037
      8       3.1402      0.08372
      9       3.1829      0.00861
     10       3.4084     -0.00986
     11       6.1697     -0.00000
     12       6.6240     -0.00000
     13      10.2033      0.00000
     14      11.9528      0.00000
     15      12.6908      0.00000
     16      13.2186      0.00000

 k-point    14 :       0.3333    0.3333    0.2500
  band No.  band energies     occupation 
      1       1.9179      1.00000
      2       1.9419      1.00000
      3       1.9419      1.00000
      4       1.9654      1.00000
      5       2.2904      1.00000
      6       2.3275      1.00001
      7       2.3275      1.00001
      8       2.3800      1.00003
      9       3.3250     -0.02694
     10       3.3250     -0.02694
     11      10.3217      0.00000
     12      10.5262      0.00000
     13      10.5262      0.00000
     14      11.0067      0.00000
     15      12.4912      0.00000
     16      12.4912      0.00000

 k-point    15 :       0.0000    0.0000    0.5000
  band No.  band energies     occupation 
      1      -2.4840      1.00000
      2      -2.4840      1.00000
      3       1.6318      1.00000
      4       1.6318      1.00000
      5       2.5700      1.00317
      6       2.5700      1.00317
      7       2.5700      1.00317
      8       2.5700      1.00318
      9       3.8517     -0.00000
     10       3.8517     -0.00000
     11       3.8517     -0.00000
     12       3.8517     -0.00000
     13       4.5788     -0.00000
     14       4.5788     -0.00000
     15      14.4368      0.00000
     16      14.4368      0.00000

 k-point    16 :       0.1667   -0.0000    0.5000
  band No.  band energies     occupation 
      1      -1.4933      1.00000
      2      -1.4933      1.00000
      3       1.8905      1.00000
      4       1.8905      1.00000
      5       2.2624      1.00000
      6       2.2624      1.00000
      7       2.9449      0.80032
      8       2.9449      0.80032
      9       3.0277      0.47508
     10       3.0277      0.47506
     11       3.7578     -0.00000
     12       3.7578     -0.00000
     13       6.1034     -0.00000
     14       6.1034     -0.00000
     15      15.2791      0.00000
     16      15.2791      0.00000

 k-point    17 :       0.3333   -0.0000    0.5000
  band No.  band energies     occupation 
      1       0.2895      1.00000
      2       0.2895      1.00000
      3       1.7512      1.00000
      4       1.7512      1.00000
      5       2.7413      1.03168
      6       2.7413      1.03168
      7       2.9904      0.63100
      8       2.9904      0.63099
      9       3.5730     -0.00034
     10       3.5730     -0.00034
     11       4.0457     -0.00000
     12       4.0457     -0.00000
     13       8.8112      0.00000
     14       8.8112      0.00000
     15      14.9396      0.00000
     16      14.9396      0.00000

 k-point    18 :       0.5000   -0.0000    0.5000
  band No.  band energies     occupation 
      1       0.3587      1.00000
      2       0.3587      1.00000
      3       1.5365      1.00000
      4       1.5365      1.00000
      5       3.2806     -0.03479
      6       3.2806     -0.03479
      7       3.4823     -0.00268
      8       3.4823     -0.00268
      9       4.6222     -0.00000
     10       4.6222     -0.00000
     11       5.4132     -0.00000
     12       5.4133     -0.00000
     13      10.1447      0.00000
     14      10.1448      0.00000
     15      12.1458      0.00000
     16      12.1458      0.00000

 k-point    19 :       0.1667    0.1667    0.5000
  band No.  band energies     occupation 
      1       0.2047      1.00000
      2       0.2047      1.00000
      3       1.7686      1.00000
      4       1.7686      1.00000
      5       1.9714      1.00000
      6       1.9714      1.00000
      7       2.8583      0.99443
      8       2.8583      0.99443
      9       3.4954     -0.00205
     10       3.4954     -0.00205
     11       4.0380     -0.00000
     12       4.0380     -0.00000
     13       8.0318     -0.00000
     14       8.0318     -0.00000
     15      16.8086      0.00000
     16      16.8086      0.00000

 k-point    20 :       0.3333    0.1667    0.5000
  band No.  band energies     occupation 
      1       0.9655      1.00000
      2       0.9655      1.00000
      3       1.7768      1.00000
      4       1.7768      1.00000
      5       2.7120      1.02542
      6       2.7120      1.02542
      7       3.1303      0.10754
      8       3.1303      0.10754
      9       3.2947     -0.03300
     10       3.2947     -0.03299
     11       6.3527     -0.00000
     12       6.3527     -0.00000
     13      11.2364      0.00000
     14      11.2364      0.00000
     15      12.5876      0.00000
     16      12.5876      0.00000

 k-point    21 :       0.3333    0.3333    0.5000
  band No.  band energies     occupation 
      1       1.9392      1.00000
      2       1.9392      1.00000
      3       1.9429      1.00000
      4       1.9429      1.00000
      5       2.3249      1.00000
      6       2.3249      1.00000
      7       2.3375      1.00001
      8       2.3375      1.00001
      9       3.3275     -0.02636
     10       3.3275     -0.02636
     11      10.5453      0.00000
     12      10.5453      0.00000
     13      10.6250      0.00000
     14      10.6250      0.00000
     15      12.2918      0.00000
     16      12.2918      0.00000


--------------------------------------------------------------------------------------------------------


 soft charge-density along one line, spin component           1
         0         1         2         3         4         5         6         7         8         9
 total charge-density along one line
 
 soft charge-density along one line, spin component           2
         0         1         2         3         4         5         6         7         8         9
 total charge-density along one line
 
 pseudopotential strength for first ion, spin component:           1
 -5.508   0.000   0.000  -0.000   0.000  -5.965   0.000   0.000
  0.000  -5.814   0.000  -0.000   0.000   0.000  -6.260   0.000
  0.000   0.000  -5.864   0.000  -0.000   0.000   0.000  -6.309
 -0.000  -0.000   0.000  -5.814  -0.000  -0.000  -0.000   0.000
  0.000   0.000  -0.000  -0.000  -5.508   0.000   0.000  -0.000
 -5.965   0.000   0.000  -0.000   0.000  -6.368   0.000   0.000
  0.000  -6.260   0.000  -0.000   0.000   0.000  -6.653   0.000
  0.000   0.000  -6.309   0.000  -0.000   0.000   0.000  -6.700
 -0.000  -0.000   0.000  -6.260  -0.000  -0.000  -0.000   0.000
  0.000   0.000  -0.000  -0.000  -5.965   0.000   0.000  -0.000
  0.000   0.000   0.040   0.000  -0.000   0.000   0.000   0.040
  0.000   0.000   0.071   0.000  -0.000   0.000   0.000   0.070
 -0.000  -0.000  -0.000   0.000  -0.000  -0.000  -0.000  -0.000
  0.000   0.000  -0.000  -0.000   0.000   0.000   0.000  -0.000
 -0.000   0.000   0.000   0.000  -0.000  -0.000   0.000   0.000
 -0.000  -0.000  -0.000   0.000  -0.000  -0.000  -0.000  -0.000
  0.000   0.000  -0.000  -0.000   0.000   0.000   0.000  -0.000
 -0.000   0.000   0.000   0.000  -0.000  -0.000   0.000   0.000
 pseudopotential strength for first ion, spin component:           2
 -4.034  -0.000   0.000   0.000   0.000  -4.554  -0.000   0.000
 -0.000  -4.097  -0.000  -0.000  -0.000  -0.000  -4.614  -0.000
  0.000  -0.000  -4.164  -0.000  -0.000   0.000  -0.000  -4.678
  0.000  -0.000  -0.000  -4.097   0.000   0.000  -0.000  -0.000
  0.000  -0.000  -0.000   0.000  -4.034   0.000  -0.000  -0.000
 -4.554  -0.000   0.000   0.000   0.000  -5.018  -0.000   0.000
 -0.000  -4.614  -0.000  -0.000  -0.000  -0.000  -5.076  -0.000
  0.000  -0.000  -4.678  -0.000  -0.000   0.000  -0.000  -5.138
  0.000  -0.000  -0.000  -4.614   0.000   0.000   0.000  -0.000
  0.000  -0.000  -0.000   0.000  -4.554   0.000  -0.000  -0.000
  0.000  -0.000   0.010  -0.000  -0.000   0.000  -0.000   0.009
  0.000  -0.000   0.017  -0.000  -0.000   0.000  -0.000   0.015
  0.000  -0.000   0.000   0.000   0.000   0.000  -0.000   0.000
  0.000  -0.000  -0.000   0.000   0.000   0.000  -0.000  -0.000
  0.000   0.000  -0.000   0.000   0.000   0.000   0.000  -0.000
  0.000  -0.000   0.000   0.000   0.000   0.000  -0.000   0.000
  0.000  -0.000  -0.000   0.000   0.000   0.000  -0.000  -0.000
  0.000   0.000  -0.000   0.000   0.000   0.000   0.000  -0.000
 total augmentation occupancy for first ion, spin component:           1
  2.672  -0.000   0.000   0.000   0.000  -1.174   0.000  -0.000   0.000  -0.000   0.000   0.000   0.000   0.000   0.000  -0.000
  0.000   2.736  -0.000  -0.000   0.000  -0.000  -0.949   0.000   0.000  -0.000  -0.000   0.000   0.000   0.000   0.000  -0.000
  0.000   0.000   3.147   0.000  -0.000  -0.000  -0.000  -1.287   0.000   0.000   0.574   0.085   0.000   0.000   0.000  -0.000
  0.000   0.000   0.000   2.736   0.000   0.000   0.000   0.000  -0.949   0.000   0.000   0.000   0.000   0.000  -0.000   0.000
  0.000   0.000  -0.000  -0.000   2.672  -0.000  -0.000   0.000   0.000  -1.174  -0.000  -0.000   0.000  -0.000  -0.000  -0.000
 -1.174   0.000  -0.000   0.000  -0.000   1.289  -0.000   0.000   0.000   0.000  -0.000   0.000  -0.000   0.000  -0.000   0.000
  0.000  -0.949   0.000   0.000  -0.000   0.000   0.630  -0.000  -0.000   0.000   0.000  -0.000  -0.000   0.000   0.000   0.000
 -0.000  -0.000  -1.287   0.000   0.000   0.000   0.000   0.910  -0.000  -0.000  -0.857   0.016   0.000   0.000  -0.000   0.000
  0.000   0.000   0.000  -0.949   0.000  -0.000  -0.000   0.000   0.630   0.000   0.000   0.000   0.000  -0.000   0.000   0.000
 -0.000  -0.000   0.000   0.000  -1.174   0.000   0.000  -0.000   0.000   1.289   0.000  -0.000  -0.000   0.000  -0.000   0.000
  0.000   0.000   0.574   0.000  -0.000  -0.000   0.000  -0.857   0.000   0.000   1.747  -0.088   0.000   0.000   0.000   0.000
  0.000   0.000   0.085   0.000  -0.000   0.000  -0.000   0.016   0.000  -0.000  -0.088   0.021  -0.000   0.000   0.000   0.000
  0.000   0.000   0.000  -0.000   0.000  -0.000   0.000   0.000  -0.000  -0.000  -0.000   0.000   0.249   0.000  -0.000  -0.017
  0.000   0.000   0.000   0.000  -0.000  -0.000   0.000   0.000   0.000   0.000   0.000   0.000   0.000   0.061  -0.000   0.000
  0.000  -0.000   0.000  -0.000  -0.000  -0.000   0.000   0.000   0.000  -0.000   0.000   0.000   0.000   0.000   0.249   0.000
 -0.000   0.000  -0.000  -0.000  -0.000   0.000   0.000  -0.000   0.000   0.000   0.000   0.000  -0.017   0.000   0.000   0.001
  0.000   0.000   0.000   0.000   0.000   0.000   0.000   0.000   0.000  -0.000   0.000   0.000   0.000  -0.004   0.000   0.000
 -0.000  -0.000  -0.000   0.000   0.000   0.000   0.000   0.000   0.000   0.000  -0.000  -0.000  -0.000   0.000  -0.017  -0.000
 total augmentation occupancy for first ion, spin component:           2
  1.977   0.000   0.000   0.000   0.000  -0.943   0.000   0.000   0.000  -0.000  -0.000   0.000  -0.000   0.000  -0.000   0.000
  0.000   2.327   0.000  -0.000   0.000  -0.000  -1.068   0.000   0.000   0.000   0.000  -0.000   0.000  -0.000   0.000   0.000
  0.000   0.000   2.107   0.000  -0.000   0.000   0.000  -0.924   0.000   0.000   0.016   0.141   0.000   0.000   0.000  -0.000
  0.000  -0.000   0.000   2.327   0.000  -0.000   0.000   0.000  -1.068   0.000   0.000   0.000   0.000  -0.000   0.000  -0.000
  0.000   0.000  -0.000   0.000   1.977  -0.000  -0.000   0.000   0.000  -0.943   0.000  -0.000  -0.000   0.000   0.000   0.000
 -0.943   0.000   0.000   0.000  -0.000   0.239  -0.000  -0.000  -0.000   0.000   0.000  -0.000   0.000   0.000   0.000  -0.000
  0.000  -1.068   0.000   0.000   0.000   0.000   0.359   0.000  -0.000   0.000   0.000  -0.000  -0.000   0.000   0.000   0.000
  0.000  -0.000  -0.924   0.000   0.000  -0.000   0.000   0.286   0.000   0.000   0.094  -0.080   0.000   0.000   0.000   0.000
  0.000   0.000   0.000  -1.068  -0.000   0.000  -0.000   0.000   0.359   0.000   0.000   0.000   0.000   0.000  -0.000   0.000
 -0.000  -0.000   0.000   0.000  -0.943   0.000   0.000   0.000   0.000   0.239   0.000   0.000   0.000   0.000  -0.000  -0.000
 -0.000  -0.000   0.016   0.000   0.000   0.000   0.000   0.094   0.000  -0.000  -0.190   0.081   0.000   0.000   0.000   0.000
  0.000   0.000   0.141   0.000  -0.000  -0.000  -0.000  -0.080   0.000   0.000   0.081   0.002  -0.000   0.000  -0.000   0.000
 -0.000   0.000   0.000   0.000  -0.000   0.000  -0.000  -0.000  -0.000   0.000  -0.000   0.000  -0.025   0.000   0.000   0.003
 -0.000  -0.000   0.000   0.000   0.000  -0.000   0.000   0.000   0.000   0.000   0.000   0.000   0.000  -0.017   0.000   0.000
 -0.000   0.000   0.000   0.000   0.000   0.000  -0.000   0.000  -0.000  -0.000   0.000  -0.000   0.000   0.000  -0.025   0.000
  0.000   0.000   0.000   0.000   0.000  -0.000   0.000   0.000  -0.000  -0.000  -0.000   0.000   0.003   0.000   0.000  -0.000
  0.000   0.000   0.000   0.000   0.000   0.000  -0.000   0.000   0.000   0.000   0.000   0.000  -0.000   0.001   0.000  -0.000
  0.000  -0.000   0.000   0.000  -0.000  -0.000  -0.000   0.000   0.000  -0.000   0.000   0.000   0.000  -0.000   0.003   0.000


------------------------ aborting loop because EDIFF is reached ----------------------------------------


    CHARGE:  cpu time      0.0234: real time      0.0235
    FORLOC:  cpu time      0.0002: real time      0.0002
    FORNL :  cpu time      0.0102: real time      0.0102
    STRESS:  cpu time      0.0278: real time      0.0279
    FORCOR:  cpu time      0.0070: real time      0.0070
    FORHAR:  cpu time      0.0007: real time      0.0007
    MIXING:  cpu time      0.0004: real time      0.0004
    OFIELD:  cpu time      0.0000: real time      0.0000

  FORCE on cell =-STRESS in cart. coord.  units (eV):
  Direction    XX          YY          ZZ          XY          YZ          ZX
  --------------------------------------------------------------------------------------
  Alpha Z    39.63868    39.63868    39.63868
  Ewald     -59.61202   -59.61202  -935.34508    -0.00000     0.00000     0.00000
  Hartree   385.09528   385.09528  -203.72152    -0.00000    -0.00000    -0.00000
  E(xc)     -91.03229   -91.03229   -91.11558    -0.00000    -0.00000    -0.00000
  Local    -727.48426  -727.48437   748.19946    -0.00010    -0.00000    -0.00000
  n-local    -8.56179    -8.62012   -14.66817    -9.22775    -0.00408    -0.01262
  augment   314.10558   314.10566   307.93400     0.00007    -0.00000    -0.00000
  Kinetic   148.87031   141.00231   147.72468    10.15385     0.00833     0.05440
  Fock        0.00000     0.00000     0.00000     0.00000     0.00000     0.00000
  -------------------------------------------------------------------------------------
  Total      -2.94368    -2.94368    -1.35352     0.00000     0.00000     0.00000
  in kB    -110.33885  -110.33885   -50.73441     0.00000     0.00000     0.00000
  external pressure =      -90.47 kB  Pullay stress =        0.00 kB


 VOLUME and BASIS-vectors are now :
 -----------------------------------------------------------------------------
  energy-cutoff  :      375.00
  volume of cell :       42.74
      direct lattice vectors                 reciprocal lattice vectors
     2.470000000  0.000000000  0.000000000     0.404858300  0.233745048  0.000000000
    -1.235000000  2.139082747  0.000000000     0.000000000  0.467490097  0.000000000
     0.000000000  0.000000000  8.090000000     0.000000000  0.000000000  0.123609394

  length of vectors
     2.470000000  2.470000000  8.090000000     0.467490097  0.467490097  0.123609394


 FORCES acting on ions
    electron-ion (+dipol)            ewald-force                    non-local-force                 convergence-correction
 -----------------------------------------------------------------------------------------------
   -.478E-05 0.276E-05 0.146E-13   -.208E-13 0.254E-14 -.503E-13   0.136E-18 0.217E-18 0.000E+00   0.284E-08 -.164E-08 -.105E-12
   -.380E-05 0.219E-05 -.662E-12   -.268E-13 0.108E-13 0.503E-13   -.271E-18 -.217E-18 0.000E+00   -.267E-08 0.154E-08 0.135E-12
 -----------------------------------------------------------------------------------------------
   -.858E-05 0.495E-05 -.647E-12   -.476E-13 0.133E-13 0.000E+00   -.136E-18 0.000E+00 0.000E+00   0.171E-09 -.985E-10 0.299E-13
 
 
 POSITION                                       TOTAL-FORCE (eV/Angst)
 -----------------------------------------------------------------------------------
      0.00000      0.00000      0.00000         0.000000     -0.000000      0.000000
      0.00000      1.42606      4.04500        -0.000000      0.000000      0.000000
 -----------------------------------------------------------------------------------
    total drift:                               -0.000009      0.000005     -0.000000


--------------------------------------------------------------------------------------------------------



  FREE ENERGIE OF THE ION-ELECTRON SYSTEM (eV)
  ---------------------------------------------------
  free  energy   TOTEN  =       -11.24188399 eV

  energy  without entropy=      -11.23733337  energy(sigma->0) =      -11.24036712
 


--------------------------------------------------------------------------------------------------------


    POTLOK:  cpu time      0.0125: real time      0.0126


--------------------------------------------------------------------------------------------------------


     LOOP+:  cpu time      3.2076: real time      3.2316
    4ORBIT:  cpu time      0.0000: real time      0.0000

 total amount of memory used by VASP MPI-rank0    31823. kBytes
=======================================================================

   base      :      30000. kBytes
   nonl-proj :        391. kBytes
   fftplans  :        291. kBytes
   grid      :        713. kBytes
   one-center:         31. kBytes
   wavefun   :        397. kBytes
 
  
  
 General timing and accounting informations for this job:
 ========================================================
  
                  Total CPU time used (sec):        3.917
                            User time (sec):        3.430
                          System time (sec):        0.487
                         Elapsed time (sec):        5.616
  
                   Maximum memory used (kb):      223284.
                   Average memory used (kb):          N/A
  
                          Minor page faults:        19548
                          Major page faults:           81
                 Voluntary context switches:         2194
