Co fcc                                  
           1
     2.470000    0.000000    0.000000
    -1.235000    2.139083    0.000000
     0.000000    0.000000    8.090000
   Co
     2
Direct configuration=     1
   0.00000000  0.00000000  0.00000000
   0.33333333  0.66666667  0.50000000
