PROCAR lm decomposed
# of k-points:   95         # of bands:   24         # of ions:    2

 k-point     1 :    0.00000000 0.00000000 0.00000000     weight = 0.00086806

band     1 # energy    1.82052430 # occ.  1.00000000
 
ion      s     py     pz     px    dxy    dyz    dz2    dxz  x2-y2    tot
    1  0.386  0.000  0.000  0.000  0.000  0.000  0.000  0.000  0.000  0.386
    2  0.386  0.000  0.000  0.000  0.000  0.000  0.000  0.000  0.000  0.386
tot    0.772  0.000  0.000  0.000  0.000  0.000  0.000  0.000  0.000  0.772
 
band     2 # energy    5.65900592 # occ.  1.00000000
 
ion      s     py     pz     px    dxy    dyz    dz2    dxz  x2-y2    tot
    1  0.084  0.000  0.000  0.000  0.000  0.000  0.372  0.000  0.000  0.457
    2  0.084  0.000  0.000  0.000  0.000  0.000  0.372  0.000  0.000  0.457
tot    0.169  0.000  0.000  0.000  0.000  0.000  0.745  0.000  0.000  0.913
 
band     3 # energy    8.37105978 # occ.  1.00000000
 
ion      s     py     pz     px    dxy    dyz    dz2    dxz  x2-y2    tot
    1  0.000  0.000  0.000  0.000  0.000  0.000  0.488  0.000  0.000  0.488
    2  0.000  0.000  0.000  0.000  0.000  0.000  0.488  0.000  0.000  0.488
tot    0.000  0.000  0.000  0.000  0.000  0.000  0.977  0.000  0.000  0.977
 
band     4 # energy    8.38130671 # occ.  1.00000000
 
ion      s     py     pz     px    dxy    dyz    dz2    dxz  x2-y2    tot
    1  0.000  0.001  0.000  0.000  0.000  0.000  0.000  0.000  0.484  0.485
    2  0.000  0.001  0.000  0.000  0.000  0.000  0.000  0.000  0.484  0.485
tot    0.000  0.001  0.000  0.000  0.000  0.000  0.000  0.000  0.968  0.970
 
band     5 # energy    8.38130720 # occ.  1.00000000
 
ion      s     py     pz     px    dxy    dyz    dz2    dxz  x2-y2    tot
    1  0.000  0.000  0.000  0.001  0.484  0.000  0.000  0.000  0.000  0.485
    2  0.000  0.000  0.000  0.001  0.484  0.000  0.000  0.000  0.000  0.485
tot    0.000  0.000  0.000  0.001  0.968  0.000  0.000  0.000  0.000  0.970
 
band     6 # energy    8.72643307 # occ.  1.00000000
 
ion      s     py     pz     px    dxy    dyz    dz2    dxz  x2-y2    tot
    1  0.000  0.001  0.000  0.000  0.000  0.000  0.000  0.000  0.488  0.489
    2  0.000  0.001  0.000  0.000  0.000  0.000  0.000  0.000  0.488  0.489
tot    0.000  0.002  0.000  0.000  0.000  0.000  0.000  0.000  0.977  0.978
 
band     7 # energy    8.72643361 # occ.  1.00000000
 
ion      s     py     pz     px    dxy    dyz    dz2    dxz  x2-y2    tot
    1  0.000  0.000  0.000  0.001  0.488  0.000  0.000  0.000  0.000  0.489
    2  0.000  0.000  0.000  0.001  0.488  0.000  0.000  0.000  0.000  0.489
tot    0.000  0.000  0.000  0.002  0.977  0.000  0.000  0.000  0.000  0.978
 
band     8 # energy    9.09925043 # occ.  1.00000000
 
ion      s     py     pz     px    dxy    dyz    dz2    dxz  x2-y2    tot
    1  0.000  0.000  0.000  0.000  0.000  0.000  0.000  0.491  0.000  0.491
    2  0.000  0.000  0.000  0.000  0.000  0.000  0.000  0.491  0.000  0.491
tot    0.000  0.000  0.000  0.000  0.000  0.000  0.000  0.982  0.000  0.982
 
band     9 # energy    9.09925061 # occ.  1.00000000
 
ion      s     py     pz     px    dxy    dyz    dz2    dxz  x2-y2    tot
    1  0.000  0.000  0.000  0.000  0.000  0.491  0.000  0.000  0.000  0.491
    2  0.000  0.000  0.000  0.000  0.000  0.491  0.000  0.000  0.000  0.491
tot    0.000  0.000  0.000  0.000  0.000  0.982  0.000  0.000  0.000  0.982
 
band    10 # energy   10.30535041 # occ.  1.00000000
 
ion      s     py     pz     px    dxy    dyz    dz2    dxz  x2-y2    tot
    1  0.000  0.000  0.000  0.000  0.000  0.000  0.000  0.493  0.000  0.493
    2  0.000  0.000  0.000  0.000  0.000  0.000  0.000  0.493  0.000  0.493
tot    0.000  0.000  0.000  0.000  0.000  0.000  0.000  0.985  0.000  0.985
 
band    11 # energy   10.30535072 # occ.  1.00000000
 
ion      s     py     pz     px    dxy    dyz    dz2    dxz  x2-y2    tot
    1  0.000  0.000  0.000  0.000  0.000  0.493  0.000  0.000  0.000  0.493
    2  0.000  0.000  0.000  0.000  0.000  0.493  0.000  0.000  0.000  0.493
tot    0.000  0.000  0.000  0.000  0.000  0.985  0.000  0.000  0.000  0.985
 
band    12 # energy   10.98231367 # occ.  0.95217875
 
ion      s     py     pz     px    dxy    dyz    dz2    dxz  x2-y2    tot
    1  0.000  0.000  0.370  0.000  0.000  0.000  0.000  0.000  0.000  0.370
    2  0.000  0.000  0.370  0.000  0.000  0.000  0.000  0.000  0.000  0.370
tot    0.000  0.000  0.739  0.000  0.000  0.000  0.000  0.000  0.000  0.739
 
band    13 # energy   17.94391744 # occ.  0.00000000
 
ion      s     py     pz     px    dxy    dyz    dz2    dxz  x2-y2    tot
    1  0.228  0.000  0.000  0.000  0.000  0.000  0.240  0.000  0.000  0.467
    2  0.228  0.000  0.000  0.000  0.000  0.000  0.240  0.000  0.000  0.467
tot    0.455  0.000  0.000  0.000  0.000  0.000  0.480  0.000  0.000  0.935
 
band    14 # energy   33.46072269 # occ.  0.00000000
 
ion      s     py     pz     px    dxy    dyz    dz2    dxz  x2-y2    tot
    1  0.007  0.000  0.000  0.000  0.000  0.000  0.033  0.000  0.000  0.040
    2  0.007  0.000  0.000  0.000  0.000  0.000  0.033  0.000  0.000  0.040
tot    0.014  0.000  0.000  0.000  0.000  0.000  0.066  0.000  0.000  0.080
 
band    15 # energy   36.56160288 # occ.  0.00000000
 
ion      s     py     pz     px    dxy    dyz    dz2    dxz  x2-y2    tot
    1  0.000  0.268  0.000  0.000  0.000  0.000  0.000  0.000  0.135  0.403
    2  0.000  0.268  0.000  0.000  0.000  0.000  0.000  0.000  0.135  0.403
tot    0.000  0.537  0.000  0.000  0.000  0.000  0.000  0.000  0.270  0.807
 
band    16 # energy   36.56160659 # occ.  0.00000000
 
ion      s     py     pz     px    dxy    dyz    dz2    dxz  x2-y2    tot
    1  0.000  0.000  0.000  0.268  0.135  0.000  0.000  0.000  0.000  0.403
    2  0.000  0.000  0.000  0.268  0.135  0.000  0.000  0.000  0.000  0.403
tot    0.000  0.000  0.000  0.537  0.270  0.000  0.000  0.000  0.000  0.807
 
band    17 # energy   36.75194309 # occ.  0.00000000
 
ion      s     py     pz     px    dxy    dyz    dz2    dxz  x2-y2    tot
    1  0.023  0.000  0.000  0.000  0.000  0.000  0.076  0.000  0.000  0.098
    2  0.023  0.000  0.000  0.000  0.000  0.000  0.076  0.000  0.000  0.098
tot    0.045  0.000  0.000  0.000  0.000  0.000  0.152  0.000  0.000  0.197
 
band    18 # energy   37.16467594 # occ.  0.00000000
 
ion      s     py     pz     px    dxy    dyz    dz2    dxz  x2-y2    tot
    1  0.000  0.000  0.025  0.000  0.000  0.000  0.000  0.000  0.000  0.025
    2  0.000  0.000  0.025  0.000  0.000  0.000  0.000  0.000  0.000  0.025
tot    0.000  0.000  0.050  0.000  0.000  0.000  0.000  0.000  0.000  0.050
 
band    19 # energy   37.85826548 # occ.  0.00000000
 
ion      s     py     pz     px    dxy    dyz    dz2    dxz  x2-y2    tot
    1  0.000  0.085  0.000  0.000  0.000  0.000  0.000  0.000  0.414  0.499
    2  0.000  0.085  0.000  0.000  0.000  0.000  0.000  0.000  0.414  0.499
tot    0.000  0.169  0.000  0.000  0.000  0.000  0.000  0.000  0.829  0.998
 
band    20 # energy   37.85826842 # occ.  0.00000000
 
ion      s     py     pz     px    dxy    dyz    dz2    dxz  x2-y2    tot
    1  0.000  0.000  0.000  0.085  0.414  0.000  0.000  0.000  0.000  0.499
    2  0.000  0.000  0.000  0.085  0.414  0.000  0.000  0.000  0.000  0.499
tot    0.000  0.000  0.000  0.169  0.829  0.000  0.000  0.000  0.000  0.998
 
band    21 # energy   42.32902524 # occ.  0.00000000
 
ion      s     py     pz     px    dxy    dyz    dz2    dxz  x2-y2    tot
    1  0.000  0.000  0.000  0.000  0.000  0.143  0.000  0.000  0.000  0.143
    2  0.000  0.000  0.000  0.000  0.000  0.143  0.000  0.000  0.000  0.143
tot    0.000  0.000  0.000  0.000  0.000  0.286  0.000  0.000  0.000  0.286
 
band    22 # energy   42.32902576 # occ.  0.00000000
 
ion      s     py     pz     px    dxy    dyz    dz2    dxz  x2-y2    tot
    1  0.000  0.000  0.000  0.000  0.000  0.000  0.000  0.143  0.000  0.143
    2  0.000  0.000  0.000  0.000  0.000  0.000  0.000  0.143  0.000  0.143
tot    0.000  0.000  0.000  0.000  0.000  0.000  0.000  0.286  0.000  0.286
 
band    23 # energy   43.54718465 # occ.  0.00000000
 
ion      s     py     pz     px    dxy    dyz    dz2    dxz  x2-y2    tot
    1  0.005  0.000  0.000  0.000  0.000  0.000  0.665  0.000  0.000  0.670
    2  0.005  0.000  0.000  0.000  0.000  0.000  0.665  0.000  0.000  0.670
tot    0.011  0.000  0.000  0.000  0.000  0.000  1.329  0.000  0.000  1.340
 
band    24 # energy   43.79678759 # occ.  0.00000000
 
ion      s     py     pz     px    dxy    dyz    dz2    dxz  x2-y2    tot
    1  0.000  0.000  0.049  0.000  0.000  0.000  0.000  0.000  0.000  0.049
    2  0.000  0.000  0.049  0.000  0.000  0.000  0.000  0.000  0.000  0.049
tot    0.000  0.000  0.099  0.000  0.000  0.000  0.000  0.000  0.000  0.099
 

 k-point     2 :    0.08333333 0.00000000 0.00000000     weight = 0.00520833

band     1 # energy    2.07365891 # occ.  1.00000000
 
ion      s     py     pz     px    dxy    dyz    dz2    dxz  x2-y2    tot
    1  0.377  0.002  0.000  0.007  0.000  0.000  0.000  0.000  0.000  0.386
    2  0.377  0.002  0.000  0.007  0.000  0.000  0.000  0.000  0.000  0.386
tot    0.754  0.005  0.000  0.014  0.000  0.000  0.000  0.000  0.000  0.772
 
band     2 # energy    5.81173148 # occ.  1.00000000
 
ion      s     py     pz     px    dxy    dyz    dz2    dxz  x2-y2    tot
    1  0.077  0.001  0.000  0.004  0.002  0.000  0.373  0.000  0.001  0.457
    2  0.077  0.001  0.000  0.004  0.002  0.000  0.373  0.000  0.001  0.457
tot    0.153  0.003  0.000  0.008  0.004  0.000  0.745  0.000  0.001  0.915
 
band     3 # energy    8.12704956 # occ.  1.00000000
 
ion      s     py     pz     px    dxy    dyz    dz2    dxz  x2-y2    tot
    1  0.000  0.000  0.000  0.001  0.238  0.000  0.164  0.000  0.079  0.483
    2  0.000  0.000  0.000  0.001  0.238  0.000  0.164  0.000  0.079  0.483
tot    0.000  0.001  0.000  0.002  0.477  0.000  0.328  0.000  0.159  0.967
 
band     4 # energy    8.50386540 # occ.  1.00000000
 
ion      s     py     pz     px    dxy    dyz    dz2    dxz  x2-y2    tot
    1  0.000  0.001  0.000  0.000  0.121  0.000  0.000  0.000  0.363  0.485
    2  0.000  0.001  0.000  0.000  0.121  0.000  0.000  0.000  0.363  0.485
tot    0.000  0.002  0.000  0.001  0.242  0.000  0.000  0.000  0.726  0.970
 
band     5 # energy    8.58297708 # occ.  1.00000000
 
ion      s     py     pz     px    dxy    dyz    dz2    dxz  x2-y2    tot
    1  0.000  0.000  0.000  0.000  0.151  0.000  0.286  0.000  0.050  0.488
    2  0.000  0.000  0.000  0.000  0.151  0.000  0.286  0.000  0.050  0.488
tot    0.000  0.000  0.000  0.001  0.301  0.000  0.573  0.000  0.100  0.976
 
band     6 # energy    8.67657300 # occ.  1.00000000
 
ion      s     py     pz     px    dxy    dyz    dz2    dxz  x2-y2    tot
    1  0.001  0.000  0.000  0.001  0.335  0.000  0.040  0.000  0.112  0.488
    2  0.001  0.000  0.000  0.001  0.335  0.000  0.040  0.000  0.112  0.488
tot    0.002  0.000  0.000  0.001  0.669  0.000  0.079  0.000  0.223  0.976
 
band     7 # energy    8.83446550 # occ.  1.00000000
 
ion      s     py     pz     px    dxy    dyz    dz2    dxz  x2-y2    tot
    1  0.000  0.001  0.000  0.000  0.122  0.000  0.000  0.000  0.366  0.489
    2  0.000  0.001  0.000  0.000  0.122  0.000  0.000  0.000  0.366  0.489
tot    0.000  0.002  0.000  0.001  0.244  0.000  0.000  0.000  0.732  0.978
 
band     8 # energy    8.93318847 # occ.  1.00000000
 
ion      s     py     pz     px    dxy    dyz    dz2    dxz  x2-y2    tot
    1  0.000  0.000  0.014  0.000  0.000  0.117  0.000  0.352  0.000  0.483
    2  0.000  0.000  0.014  0.000  0.000  0.117  0.000  0.352  0.000  0.483
tot    0.000  0.000  0.029  0.000  0.000  0.234  0.000  0.703  0.000  0.966
 
band     9 # energy    9.02168969 # occ.  1.00000000
 
ion      s     py     pz     px    dxy    dyz    dz2    dxz  x2-y2    tot
    1  0.000  0.000  0.000  0.000  0.000  0.368  0.000  0.123  0.000  0.490
    2  0.000  0.000  0.000  0.000  0.000  0.368  0.000  0.123  0.000  0.490
tot    0.000  0.000  0.000  0.000  0.000  0.735  0.000  0.245  0.000  0.980
 
band    10 # energy    9.45543598 # occ.  1.00000000
 
ion      s     py     pz     px    dxy    dyz    dz2    dxz  x2-y2    tot
    1  0.000  0.000  0.100  0.000  0.000  0.089  0.000  0.266  0.000  0.455
    2  0.000  0.000  0.100  0.000  0.000  0.089  0.000  0.266  0.000  0.455
tot    0.000  0.000  0.200  0.000  0.000  0.177  0.000  0.532  0.000  0.910
 
band    11 # energy   10.33886913 # occ.  1.00000000
 
ion      s     py     pz     px    dxy    dyz    dz2    dxz  x2-y2    tot
    1  0.000  0.000  0.000  0.000  0.000  0.370  0.000  0.123  0.000  0.493
    2  0.000  0.000  0.000  0.000  0.000  0.370  0.000  0.123  0.000  0.493
tot    0.000  0.000  0.000  0.000  0.000  0.740  0.000  0.247  0.000  0.987
 
band    12 # energy   12.16476915 # occ.  0.00000000
 
ion      s     py     pz     px    dxy    dyz    dz2    dxz  x2-y2    tot
    1  0.000  0.000  0.251  0.000  0.000  0.041  0.000  0.123  0.000  0.416
    2  0.000  0.000  0.251  0.000  0.000  0.041  0.000  0.123  0.000  0.416
tot    0.000  0.000  0.503  0.000  0.000  0.082  0.000  0.246  0.000  0.831
 
band    13 # energy   17.98269946 # occ.  0.00000000
 
ion      s     py     pz     px    dxy    dyz    dz2    dxz  x2-y2    tot
    1  0.224  0.002  0.000  0.006  0.000  0.000  0.234  0.000  0.000  0.465
    2  0.224  0.002  0.000  0.006  0.000  0.000  0.234  0.000  0.000  0.465
tot    0.447  0.004  0.000  0.011  0.000  0.000  0.467  0.000  0.000  0.930
 
band    14 # energy   31.77666768 # occ.  0.00000000
 
ion      s     py     pz     px    dxy    dyz    dz2    dxz  x2-y2    tot
    1  0.013  0.021  0.000  0.062  0.116  0.000  0.026  0.000  0.039  0.276
    2  0.013  0.021  0.000  0.062  0.116  0.000  0.026  0.000  0.039  0.276
tot    0.027  0.041  0.000  0.124  0.231  0.000  0.051  0.000  0.077  0.552
 
band    15 # energy   34.18581512 # occ.  0.00000000
 
ion      s     py     pz     px    dxy    dyz    dz2    dxz  x2-y2    tot
    1  0.023  0.023  0.000  0.070  0.070  0.000  0.042  0.000  0.023  0.251
    2  0.023  0.023  0.000  0.070  0.070  0.000  0.042  0.000  0.023  0.251
tot    0.045  0.047  0.000  0.140  0.140  0.000  0.084  0.000  0.047  0.503
 
band    16 # energy   34.33477337 # occ.  0.00000000
 
ion      s     py     pz     px    dxy    dyz    dz2    dxz  x2-y2    tot
    1  0.000  0.175  0.000  0.058  0.046  0.000  0.000  0.000  0.139  0.418
    2  0.000  0.175  0.000  0.058  0.046  0.000  0.000  0.000  0.139  0.418
tot    0.000  0.349  0.000  0.116  0.093  0.000  0.000  0.000  0.278  0.836
 
band    17 # energy   37.18054088 # occ.  0.00000000
 
ion      s     py     pz     px    dxy    dyz    dz2    dxz  x2-y2    tot
    1  0.000  0.000  0.009  0.000  0.000  0.013  0.000  0.038  0.000  0.059
    2  0.000  0.000  0.009  0.000  0.000  0.013  0.000  0.038  0.000  0.059
tot    0.000  0.000  0.019  0.000  0.000  0.025  0.000  0.075  0.000  0.119
 
band    18 # energy   37.72116552 # occ.  0.00000000
 
ion      s     py     pz     px    dxy    dyz    dz2    dxz  x2-y2    tot
    1  0.003  0.017  0.000  0.051  0.041  0.000  0.034  0.000  0.014  0.160
    2  0.003  0.017  0.000  0.051  0.041  0.000  0.034  0.000  0.014  0.160
tot    0.006  0.034  0.000  0.102  0.083  0.000  0.068  0.000  0.028  0.320
 
band    19 # energy   39.12006995 # occ.  0.00000000
 
ion      s     py     pz     px    dxy    dyz    dz2    dxz  x2-y2    tot
    1  0.000  0.000  0.029  0.000  0.000  0.030  0.000  0.089  0.000  0.147
    2  0.000  0.000  0.029  0.000  0.000  0.030  0.000  0.089  0.000  0.147
tot    0.000  0.000  0.058  0.000  0.000  0.059  0.000  0.178  0.000  0.295
 
band    20 # energy   40.29890057 # occ.  0.00000000
 
ion      s     py     pz     px    dxy    dyz    dz2    dxz  x2-y2    tot
    1  0.000  0.079  0.000  0.026  0.096  0.000  0.000  0.000  0.287  0.487
    2  0.000  0.079  0.000  0.026  0.096  0.000  0.000  0.000  0.287  0.487
tot    0.000  0.157  0.000  0.052  0.191  0.000  0.000  0.000  0.574  0.975
 
band    21 # energy   41.06872733 # occ.  0.00000000
 
ion      s     py     pz     px    dxy    dyz    dz2    dxz  x2-y2    tot
    1  0.007  0.035  0.000  0.106  0.154  0.000  0.005  0.000  0.051  0.360
    2  0.007  0.035  0.000  0.106  0.154  0.000  0.005  0.000  0.051  0.360
tot    0.014  0.071  0.000  0.212  0.309  0.000  0.010  0.000  0.103  0.719
 
band    22 # energy   41.85509433 # occ.  0.00000000
 
ion      s     py     pz     px    dxy    dyz    dz2    dxz  x2-y2    tot
    1  0.000  0.000  0.000  0.000  0.000  0.193  0.000  0.064  0.000  0.258
    2  0.000  0.000  0.000  0.000  0.000  0.193  0.000  0.064  0.000  0.258
tot    0.000  0.000  0.000  0.000  0.000  0.387  0.000  0.129  0.000  0.516
 
band    23 # energy   43.12008198 # occ.  0.00000000
 
ion      s     py     pz     px    dxy    dyz    dz2    dxz  x2-y2    tot
    1  0.002  0.008  0.000  0.023  0.046  0.000  0.538  0.000  0.015  0.632
    2  0.002  0.008  0.000  0.023  0.046  0.000  0.538  0.000  0.015  0.632
tot    0.004  0.015  0.000  0.046  0.092  0.000  1.076  0.000  0.031  1.264
 
band    24 # energy   43.39192056 # occ.  0.00000000
 
ion      s     py     pz     px    dxy    dyz    dz2    dxz  x2-y2    tot
    1  0.000  0.000  0.186  0.000  0.000  0.049  0.000  0.148  0.000  0.383
    2  0.000  0.000  0.186  0.000  0.000  0.049  0.000  0.148  0.000  0.383
tot    0.000  0.000  0.371  0.000  0.000  0.099  0.000  0.296  0.000  0.766
 

 k-point     3 :    0.16666667-0.00000000 0.00000000     weight = 0.00520833

band     1 # energy    2.80417584 # occ.  1.00000000
 
ion      s     py     pz     px    dxy    dyz    dz2    dxz  x2-y2    tot
    1  0.349  0.009  0.000  0.026  0.002  0.000  0.001  0.000  0.001  0.387
    2  0.349  0.009  0.000  0.026  0.002  0.000  0.001  0.000  0.001  0.387
tot    0.699  0.017  0.000  0.051  0.004  0.000  0.002  0.000  0.001  0.775
 
band     2 # energy    6.18774896 # occ.  1.00000000
 
ion      s     py     pz     px    dxy    dyz    dz2    dxz  x2-y2    tot
    1  0.055  0.004  0.000  0.013  0.020  0.000  0.362  0.000  0.007  0.460
    2  0.055  0.004  0.000  0.013  0.020  0.000  0.362  0.000  0.007  0.460
tot    0.109  0.009  0.000  0.026  0.039  0.000  0.724  0.000  0.013  0.920
 
band     3 # energy    7.82765434 # occ.  1.00000000
 
ion      s     py     pz     px    dxy    dyz    dz2    dxz  x2-y2    tot
    1  0.000  0.002  0.000  0.005  0.266  0.000  0.116  0.000  0.089  0.477
    2  0.000  0.002  0.000  0.005  0.266  0.000  0.116  0.000  0.089  0.477
tot    0.001  0.003  0.000  0.010  0.532  0.000  0.232  0.000  0.177  0.954
 
band     4 # energy    8.16381358 # occ.  1.00000000
 
ion      s     py     pz     px    dxy    dyz    dz2    dxz  x2-y2    tot
    1  0.000  0.000  0.068  0.000  0.000  0.097  0.000  0.290  0.000  0.455
    2  0.000  0.000  0.068  0.000  0.000  0.097  0.000  0.290  0.000  0.455
tot    0.000  0.000  0.137  0.000  0.000  0.194  0.000  0.581  0.000  0.911
 
band     5 # energy    8.49101731 # occ.  1.00000000
 
ion      s     py     pz     px    dxy    dyz    dz2    dxz  x2-y2    tot
    1  0.005  0.001  0.000  0.002  0.315  0.000  0.057  0.000  0.105  0.485
    2  0.005  0.001  0.000  0.002  0.315  0.000  0.057  0.000  0.105  0.485
tot    0.009  0.001  0.000  0.003  0.631  0.000  0.115  0.000  0.210  0.970
 
band     6 # energy    8.83073826 # occ.  1.00000000
 
ion      s     py     pz     px    dxy    dyz    dz2    dxz  x2-y2    tot
    1  0.000  0.000  0.000  0.000  0.000  0.366  0.000  0.122  0.000  0.488
    2  0.000  0.000  0.000  0.000  0.000  0.366  0.000  0.122  0.000  0.488
tot    0.000  0.000  0.000  0.000  0.000  0.733  0.000  0.244  0.000  0.977
 
band     7 # energy    8.84993755 # occ.  1.00000000
 
ion      s     py     pz     px    dxy    dyz    dz2    dxz  x2-y2    tot
    1  0.000  0.002  0.000  0.001  0.121  0.000  0.000  0.000  0.362  0.485
    2  0.000  0.002  0.000  0.001  0.121  0.000  0.000  0.000  0.362  0.485
tot    0.000  0.003  0.000  0.001  0.241  0.000  0.000  0.000  0.724  0.970
 
band     8 # energy    8.91295604 # occ.  1.00000000
 
ion      s     py     pz     px    dxy    dyz    dz2    dxz  x2-y2    tot
    1  0.002  0.000  0.000  0.001  0.114  0.000  0.333  0.000  0.038  0.488
    2  0.002  0.000  0.000  0.001  0.114  0.000  0.333  0.000  0.038  0.488
tot    0.003  0.001  0.000  0.002  0.227  0.000  0.666  0.000  0.076  0.976
 
band     9 # energy    9.05960063 # occ.  1.00000000
 
ion      s     py     pz     px    dxy    dyz    dz2    dxz  x2-y2    tot
    1  0.000  0.000  0.039  0.000  0.000  0.109  0.000  0.328  0.000  0.477
    2  0.000  0.000  0.039  0.000  0.000  0.109  0.000  0.328  0.000  0.477
tot    0.000  0.000  0.079  0.000  0.000  0.219  0.000  0.656  0.000  0.953
 
band    10 # energy    9.13791887 # occ.  1.00000000
 
ion      s     py     pz     px    dxy    dyz    dz2    dxz  x2-y2    tot
    1  0.000  0.002  0.000  0.001  0.122  0.000  0.000  0.000  0.365  0.490
    2  0.000  0.002  0.000  0.001  0.122  0.000  0.000  0.000  0.365  0.490
tot    0.000  0.003  0.000  0.001  0.244  0.000  0.000  0.000  0.731  0.979
 
band    11 # energy   10.41029961 # occ.  1.00000000
 
ion      s     py     pz     px    dxy    dyz    dz2    dxz  x2-y2    tot
    1  0.000  0.000  0.000  0.000  0.000  0.371  0.000  0.124  0.000  0.495
    2  0.000  0.000  0.000  0.000  0.000  0.371  0.000  0.124  0.000  0.495
tot    0.000  0.000  0.000  0.000  0.000  0.742  0.000  0.247  0.000  0.989
 
band    12 # energy   13.84069557 # occ.  0.00000000
 
ion      s     py     pz     px    dxy    dyz    dz2    dxz  x2-y2    tot
    1  0.000  0.000  0.248  0.000  0.000  0.044  0.000  0.132  0.000  0.423
    2  0.000  0.000  0.248  0.000  0.000  0.044  0.000  0.132  0.000  0.423
tot    0.000  0.000  0.495  0.000  0.000  0.088  0.000  0.263  0.000  0.846
 
band    13 # energy   18.11975171 # occ.  0.00000000
 
ion      s     py     pz     px    dxy    dyz    dz2    dxz  x2-y2    tot
    1  0.208  0.008  0.000  0.025  0.001  0.000  0.215  0.000  0.000  0.458
    2  0.208  0.008  0.000  0.025  0.001  0.000  0.215  0.000  0.000  0.458
tot    0.417  0.017  0.000  0.050  0.001  0.000  0.431  0.000  0.000  0.916
 
band    14 # energy   27.97258605 # occ.  0.00000000
 
ion      s     py     pz     px    dxy    dyz    dz2    dxz  x2-y2    tot
    1  0.042  0.037  0.000  0.110  0.130  0.000  0.024  0.000  0.043  0.386
    2  0.042  0.037  0.000  0.110  0.130  0.000  0.024  0.000  0.043  0.386
tot    0.085  0.073  0.000  0.220  0.259  0.000  0.048  0.000  0.086  0.771
 
band    15 # energy   31.84811122 # occ.  0.00000000
 
ion      s     py     pz     px    dxy    dyz    dz2    dxz  x2-y2    tot
    1  0.000  0.192  0.000  0.064  0.036  0.000  0.000  0.000  0.107  0.399
    2  0.000  0.192  0.000  0.064  0.036  0.000  0.000  0.000  0.107  0.399
tot    0.000  0.385  0.000  0.128  0.071  0.000  0.000  0.000  0.214  0.798
 
band    16 # energy   33.20193739 # occ.  0.00000000
 
ion      s     py     pz     px    dxy    dyz    dz2    dxz  x2-y2    tot
    1  0.023  0.006  0.000  0.018  0.151  0.000  0.050  0.000  0.050  0.299
    2  0.023  0.006  0.000  0.018  0.151  0.000  0.050  0.000  0.050  0.299
tot    0.045  0.012  0.000  0.036  0.302  0.000  0.101  0.000  0.101  0.597
 
band    17 # energy   35.13378722 # occ.  0.00000000
 
ion      s     py     pz     px    dxy    dyz    dz2    dxz  x2-y2    tot
    1  0.000  0.000  0.039  0.000  0.000  0.057  0.000  0.171  0.000  0.266
    2  0.000  0.000  0.039  0.000  0.000  0.057  0.000  0.171  0.000  0.266
tot    0.000  0.000  0.077  0.000  0.000  0.114  0.000  0.341  0.000  0.532
 
band    18 # energy   37.29281507 # occ.  0.00000000
 
ion      s     py     pz     px    dxy    dyz    dz2    dxz  x2-y2    tot
    1  0.000  0.000  0.009  0.000  0.000  0.014  0.000  0.042  0.000  0.065
    2  0.000  0.000  0.009  0.000  0.000  0.014  0.000  0.042  0.000  0.065
tot    0.000  0.000  0.017  0.000  0.000  0.028  0.000  0.084  0.000  0.130
 
band    19 # energy   38.38805665 # occ.  0.00000000
 
ion      s     py     pz     px    dxy    dyz    dz2    dxz  x2-y2    tot
    1  0.026  0.034  0.000  0.101  0.051  0.000  0.027  0.000  0.017  0.256
    2  0.026  0.034  0.000  0.101  0.051  0.000  0.027  0.000  0.017  0.256
tot    0.052  0.067  0.000  0.202  0.103  0.000  0.054  0.000  0.034  0.512
 
band    20 # energy   40.73726381 # occ.  0.00000000
 
ion      s     py     pz     px    dxy    dyz    dz2    dxz  x2-y2    tot
    1  0.054  0.044  0.000  0.131  0.000  0.000  0.146  0.000  0.000  0.375
    2  0.054  0.044  0.000  0.131  0.000  0.000  0.146  0.000  0.000  0.375
tot    0.107  0.087  0.000  0.261  0.001  0.000  0.292  0.000  0.000  0.749
 
band    21 # energy   41.07834015 # occ.  0.00000000
 
ion      s     py     pz     px    dxy    dyz    dz2    dxz  x2-y2    tot
    1  0.000  0.000  0.000  0.000  0.000  0.296  0.000  0.099  0.000  0.394
    2  0.000  0.000  0.000  0.000  0.000  0.296  0.000  0.099  0.000  0.394
tot    0.000  0.000  0.000  0.000  0.000  0.591  0.000  0.197  0.000  0.789
 
band    22 # energy   41.98881271 # occ.  0.00000000
 
ion      s     py     pz     px    dxy    dyz    dz2    dxz  x2-y2    tot
    1  0.000  0.000  0.232  0.000  0.000  0.011  0.000  0.032  0.000  0.274
    2  0.000  0.000  0.232  0.000  0.000  0.011  0.000  0.032  0.000  0.274
tot    0.000  0.000  0.463  0.000  0.000  0.021  0.000  0.064  0.000  0.548
 
band    23 # energy   42.47017352 # occ.  0.00000000
 
ion      s     py     pz     px    dxy    dyz    dz2    dxz  x2-y2    tot
    1  0.000  0.038  0.000  0.013  0.122  0.000  0.000  0.000  0.366  0.538
    2  0.000  0.038  0.000  0.013  0.122  0.000  0.000  0.000  0.366  0.538
tot    0.000  0.076  0.000  0.025  0.244  0.000  0.000  0.000  0.731  1.076
 
band    24 # energy   44.30403962 # occ.  0.00000000
 
ion      s     py     pz     px    dxy    dyz    dz2    dxz  x2-y2    tot
    1  0.000  0.245  0.000  0.082  0.022  0.000  0.000  0.000  0.065  0.414
    2  0.000  0.245  0.000  0.082  0.022  0.000  0.000  0.000  0.065  0.414
tot    0.000  0.490  0.000  0.163  0.044  0.000  0.000  0.000  0.131  0.828
 

 k-point     4 :    0.25000000 0.00000000 0.00000000     weight = 0.00520833

band     1 # energy    3.90226974 # occ.  1.00000000
 
ion      s     py     pz     px    dxy    dyz    dz2    dxz  x2-y2    tot
    1  0.301  0.016  0.000  0.049  0.015  0.000  0.006  0.000  0.005  0.392
    2  0.301  0.016  0.000  0.049  0.015  0.000  0.006  0.000  0.005  0.392
tot    0.601  0.033  0.000  0.098  0.030  0.000  0.011  0.000  0.010  0.784
 
band     2 # energy    6.48227240 # occ.  1.00000000
 
ion      s     py     pz     px    dxy    dyz    dz2    dxz  x2-y2    tot
    1  0.027  0.004  0.000  0.013  0.106  0.000  0.280  0.000  0.035  0.466
    2  0.027  0.004  0.000  0.013  0.106  0.000  0.280  0.000  0.035  0.466
tot    0.054  0.009  0.000  0.026  0.213  0.000  0.560  0.000  0.071  0.931
 
band     3 # energy    7.38279459 # occ.  1.00000000
 
ion      s     py     pz     px    dxy    dyz    dz2    dxz  x2-y2    tot
    1  0.000  0.000  0.057  0.000  0.000  0.099  0.000  0.296  0.000  0.452
    2  0.000  0.000  0.057  0.000  0.000  0.099  0.000  0.296  0.000  0.452
tot    0.000  0.000  0.114  0.000  0.000  0.198  0.000  0.593  0.000  0.904
 
band     4 # energy    7.64778562 # occ.  1.00000000
 
ion      s     py     pz     px    dxy    dyz    dz2    dxz  x2-y2    tot
    1  0.001  0.007  0.000  0.022  0.230  0.000  0.130  0.000  0.077  0.467
    2  0.001  0.007  0.000  0.022  0.230  0.000  0.130  0.000  0.077  0.467
tot    0.002  0.015  0.000  0.045  0.460  0.000  0.260  0.000  0.153  0.935
 
band     5 # energy    8.39414826 # occ.  1.00000000
 
ion      s     py     pz     px    dxy    dyz    dz2    dxz  x2-y2    tot
    1  0.011  0.002  0.000  0.005  0.251  0.000  0.130  0.000  0.084  0.482
    2  0.011  0.002  0.000  0.005  0.251  0.000  0.130  0.000  0.084  0.482
tot    0.022  0.003  0.000  0.009  0.502  0.000  0.259  0.000  0.167  0.963
 
band     6 # energy    8.60156506 # occ.  1.00000000
 
ion      s     py     pz     px    dxy    dyz    dz2    dxz  x2-y2    tot
    1  0.000  0.000  0.000  0.000  0.000  0.365  0.000  0.122  0.000  0.487
    2  0.000  0.000  0.000  0.000  0.000  0.365  0.000  0.122  0.000  0.487
tot    0.000  0.000  0.000  0.000  0.000  0.730  0.000  0.243  0.000  0.974
 
band     7 # energy    8.84588905 # occ.  1.00000000
 
ion      s     py     pz     px    dxy    dyz    dz2    dxz  x2-y2    tot
    1  0.000  0.000  0.031  0.000  0.000  0.112  0.000  0.336  0.000  0.479
    2  0.000  0.000  0.031  0.000  0.000  0.112  0.000  0.336  0.000  0.479
tot    0.000  0.000  0.062  0.000  0.000  0.224  0.000  0.671  0.000  0.957
 
band     8 # energy    9.35215915 # occ.  1.00000000
 
ion      s     py     pz     px    dxy    dyz    dz2    dxz  x2-y2    tot
    1  0.000  0.002  0.000  0.001  0.121  0.000  0.000  0.000  0.363  0.487
    2  0.000  0.002  0.000  0.001  0.121  0.000  0.000  0.000  0.363  0.487
tot    0.000  0.004  0.000  0.001  0.242  0.000  0.000  0.000  0.726  0.974
 
band     9 # energy    9.37543032 # occ.  1.00000000
 
ion      s     py     pz     px    dxy    dyz    dz2    dxz  x2-y2    tot
    1  0.006  0.002  0.000  0.006  0.101  0.000  0.338  0.000  0.034  0.487
    2  0.006  0.002  0.000  0.006  0.101  0.000  0.338  0.000  0.034  0.487
tot    0.012  0.004  0.000  0.011  0.203  0.000  0.677  0.000  0.068  0.974
 
band    10 # energy    9.57452846 # occ.  1.00000000
 
ion      s     py     pz     px    dxy    dyz    dz2    dxz  x2-y2    tot
    1  0.000  0.002  0.000  0.001  0.122  0.000  0.000  0.000  0.366  0.491
    2  0.000  0.002  0.000  0.001  0.122  0.000  0.000  0.000  0.366  0.491
tot    0.000  0.005  0.000  0.002  0.244  0.000  0.000  0.000  0.731  0.982
 
band    11 # energy   10.47795734 # occ.  1.00000000
 
ion      s     py     pz     px    dxy    dyz    dz2    dxz  x2-y2    tot