<?xml version="1.0" encoding="ISO-8859-1"?>
<modeling>
 <generator>
  <i name="program" type="string">vasp </i>
  <i name="version" type="string">6.3.2  </i>
  <i name="subversion" type="string">27Jun22 (build Aug 12 2022 00:53:59) complex                          parallel </i>
  <i name="platform" type="string">tv2STD </i>
  <i name="date" type="string">2024 12 02 </i>
  <i name="time" type="string">17:30:51 </i>
 </generator>
 <incar>
  <i type="string" name="SYSTEM">Co-hcc</i>
  <i type="int" name="ISTART">     0</i>
  <i type="string" name="PREC">Accurate      normal | accurate</i>
  <i type="string" name="ALGO">Normal     Normal, Fast, Very_Fast</i>
  <i type="logical" name="ADDGRID"> F  </i>
  <i type="int" name="ISPIN">     2</i>
  <i type="int" name="ICHARG">     2</i>
  <i type="int" name="INIWAV">     1</i>
  <i type="int" name="NELM">   100</i>
  <i type="int" name="IBRION">     2</i>
  <i name="EDIFF">      0.00000100</i>
  <i name="EDIFFG">     -0.02000000</i>
  <i type="int" name="NSW">   100</i>
  <i type="int" name="ISIF">     2</i>
  <i type="int" name="ISYM">     1</i>
  <i name="ENCUT">    425.00000000</i>
  <v name="MAGMOM">      3.00000000      3.00000000</v>
  <i type="logical" name="LREAL"> F  </i>
  <i type="int" name="ISMEAR">     0</i>
  <i name="SIGMA">      0.05000000</i>
  <i type="int" name="NWRITE">     2</i>
  <i type="logical" name="LWAVE"> F  </i>
  <i type="logical" name="LCHARG"> F  </i>
  <i type="int" name="LORBIT">    11</i>
 </incar>
 <primitive_cell>
  <structure name="primitive_cell" >
   <crystal>
    <varray name="basis" >
     <v>       1.22501274      -2.12178431       0.00000000 </v>
     <v>       1.22501274       2.12178431       0.00000000 </v>
     <v>       0.00000000       0.00000000       3.95200698 </v>
    </varray>
    <i name="volume">     20.54421446 </i>
    <varray name="rec_basis" >
     <v>       0.40815902      -0.23565072       0.00000000 </v>
     <v>       0.40815902       0.23565072       0.00000000 </v>
     <v>       0.00000000       0.00000000       0.25303599 </v>
    </varray>
   </crystal>
   <varray name="positions" >
    <v>       0.33333333       0.66666667       0.25000000 </v>
    <v>       0.66666667       0.33333333       0.75000000 </v>
   </varray>
  </structure>
  <varray name="primitive_index" >
   <v type="int" >        1 </v>
   <v type="int" >        2 </v>
  </varray>
 </primitive_cell>
 <kpoints>
  <generation param="Gamma">
   <v type="int" name="divisions">      12       12        8 </v>
   <v name="usershift">      0.00000000       0.00000000       0.00000000 </v>
   <v name="genvec1">      0.08333333       0.00000000       0.00000000 </v>
   <v name="genvec2">      0.00000000       0.08333333       0.00000000 </v>
   <v name="genvec3">      0.00000000       0.00000000       0.12500000 </v>
   <v name="shift">      0.00000000       0.00000000       0.00000000 </v>
  </generation>
  <varray name="kpointlist" >
   <v>       0.00000000       0.00000000       0.00000000 </v>
   <v>       0.08333333       0.00000000       0.00000000 </v>
   <v>       0.16666667      -0.00000000       0.00000000 </v>
   <v>       0.25000000       0.00000000       0.00000000 </v>
   <v>       0.33333333       0.00000000       0.00000000 </v>
   <v>       0.41666667       0.00000000       0.00000000 </v>
   <v>       0.50000000       0.00000000       0.00000000 </v>
   <v>       0.08333333       0.08333333       0.00000000 </v>
   <v>       0.16666667       0.08333333       0.00000000 </v>
   <v>       0.25000000       0.08333333       0.00000000 </v>
   <v>       0.33333333       0.08333333       0.00000000 </v>
   <v>       0.41666667       0.08333333       0.00000000 </v>
   <v>       0.16666667       0.16666667       0.00000000 </v>
   <v>       0.25000000       0.16666667       0.00000000 </v>
   <v>       0.33333333       0.16666667       0.00000000 </v>
   <v>       0.41666667       0.16666667       0.00000000 </v>
   <v>       0.25000000       0.25000000       0.00000000 </v>
   <v>       0.33333333       0.25000000       0.00000000 </v>
   <v>       0.33333333       0.33333333       0.00000000 </v>
   <v>       0.00000000       0.00000000       0.12500000 </v>
   <v>       0.08333333       0.00000000       0.12500000 </v>
   <v>       0.16666667      -0.00000000       0.12500000 </v>
   <v>       0.25000000       0.00000000       0.12500000 </v>
   <v>       0.33333333       0.00000000       0.12500000 </v>
   <v>       0.41666667       0.00000000       0.12500000 </v>
   <v>       0.50000000       0.00000000       0.12500000 </v>
   <v>       0.08333333       0.08333333       0.12500000 </v>
   <v>       0.16666667       0.08333333       0.12500000 </v>
   <v>       0.25000000       0.08333333       0.12500000 </v>
   <v>       0.33333333       0.08333333       0.12500000 </v>
   <v>       0.41666667       0.08333333       0.12500000 </v>
   <v>       0.16666667       0.16666667       0.12500000 </v>
   <v>       0.25000000       0.16666667       0.12500000 </v>
   <v>       0.33333333       0.16666667       0.12500000 </v>
   <v>       0.41666667       0.16666667       0.12500000 </v>
   <v>       0.25000000       0.25000000       0.12500000 </v>
   <v>       0.33333333       0.25000000       0.12500000 </v>
   <v>       0.33333333       0.33333333       0.12500000 </v>
   <v>       0.00000000       0.00000000       0.25000000 </v>
   <v>       0.08333333       0.00000000       0.25000000 </v>
   <v>       0.16666667      -0.00000000       0.25000000 </v>
   <v>       0.25000000       0.00000000       0.25000000 </v>
   <v>       0.33333333       0.00000000       0.25000000 </v>
   <v>       0.41666667       0.00000000       0.25000000 </v>
   <v>       0.50000000       0.00000000       0.25000000 </v>
   <v>       0.08333333       0.08333333       0.25000000 </v>
   <v>       0.16666667       0.08333333       0.25000000 </v>
   <v>       0.25000000       0.08333333       0.25000000 </v>
   <v>       0.33333333       0.08333333       0.25000000 </v>
   <v>       0.41666667       0.08333333       0.25000000 </v>
   <v>       0.16666667       0.16666667       0.25000000 </v>
   <v>       0.25000000       0.16666667       0.25000000 </v>
   <v>       0.33333333       0.16666667       0.25000000 </v>
   <v>       0.41666667       0.16666667       0.25000000 </v>
   <v>       0.25000000       0.25000000       0.25000000 </v>
   <v>       0.33333333       0.25000000       0.25000000 </v>
   <v>       0.33333333       0.33333333       0.25000000 </v>
   <v>       0.00000000       0.00000000       0.37500000 </v>
   <v>       0.08333333       0.00000000       0.37500000 </v>
   <v>       0.16666667      -0.00000000       0.37500000 </v>
   <v>       0.25000000       0.00000000       0.37500000 </v>
   <v>       0.33333333       0.00000000       0.37500000 </v>
   <v>       0.41666667       0.00000000       0.37500000 </v>
   <v>       0.50000000       0.00000000       0.37500000 </v>
   <v>       0.08333333       0.08333333       0.37500000 </v>
   <v>       0.16666667       0.08333333       0.37500000 </v>
   <v>       0.25000000       0.08333333       0.37500000 </v>
   <v>       0.33333333       0.08333333       0.37500000 </v>
   <v>       0.41666667       0.08333333       0.37500000 </v>
   <v>       0.16666667       0.16666667       0.37500000 </v>
   <v>       0.25000000       0.16666667       0.37500000 </v>
   <v>       0.33333333       0.16666667       0.37500000 </v>
   <v>       0.41666667       0.16666667       0.37500000 </v>
   <v>       0.25000000       0.25000000       0.37500000 </v>
   <v>       0.33333333       0.25000000       0.37500000 </v>
   <v>       0.33333333       0.33333333       0.37500000 </v>
   <v>       0.00000000       0.00000000       0.50000000 </v>
   <v>       0.08333333       0.00000000       0.50000000 </v>
   <v>       0.16666667      -0.00000000       0.50000000 </v>
   <v>       0.25000000       0.00000000       0.50000000 </v>
   <v>       0.33333333       0.00000000       0.50000000 </v>
   <v>       0.41666667       0.00000000       0.50000000 </v>
   <v>       0.50000000       0.00000000       0.50000000 </v>
   <v>       0.08333333       0.08333333       0.50000000 </v>
   <v>       0.16666667       0.08333333       0.50000000 </v>
   <v>       0.25000000       0.08333333       0.50000000 </v>
   <v>       0.33333333       0.08333333       0.50000000 </v>
   <v>       0.41666667       0.08333333       0.50000000 </v>
   <v>       0.16666667       0.16666667       0.50000000 </v>
   <v>       0.25000000       0.16666667       0.50000000 </v>
   <v>       0.33333333       0.16666667       0.50000000 </v>
   <v>       0.41666667       0.16666667       0.50000000 </v>
   <v>       0.25000000       0.25000000       0.50000000 </v>
   <v>       0.33333333       0.25000000       0.50000000 </v>
   <v>       0.33333333       0.33333333       0.50000000 </v>
  </varray>
  <varray name="weights" >
   <v>       0.00086806 </v>
   <v>       0.00520833 </v>
   <v>       0.00520833 </v>
   <v>       0.00520833 </v>
   <v>       0.00520833 </v>
   <v>       0.00520833 </v>
   <v>       0.00260417 </v>
   <v>       0.00520833 </v>
   <v>       0.01041667 </v>
   <v>       0.01041667 </v>
   <v>       0.01041667 </v>
   <v>       0.01041667 </v>
   <v>       0.00520833 </v>
   <v>       0.01041667 </v>
   <v>       0.01041667 </v>
   <v>       0.00520833 </v>
   <v>       0.00520833 </v>
   <v>       0.01041667 </v>
   <v>       0.00173611 </v>
   <v>       0.00173611 </v>
   <v>       0.01041667 </v>
   <v>       0.01041667 </v>
   <v>       0.01041667 </v>
   <v>       0.01041667 </v>
   <v>       0.01041667 </v>
   <v>       0.00520833 </v>
   <v>       0.01041667 </v>
   <v>       0.02083333 </v>
   <v>       0.02083333 </v>
   <v>       0.02083333 </v>
   <v>       0.02083333 </v>
   <v>       0.01041667 </v>
   <v>       0.02083333 </v>
   <v>       0.02083333 </v>
   <v>       0.01041667 </v>
   <v>       0.01041667 </v>
   <v>       0.02083333 </v>
   <v>       0.00347222 </v>
   <v>       0.00173611 </v>
   <v>       0.01041667 </v>
   <v>       0.01041667 </v>
   <v>       0.01041667 </v>
   <v>       0.01041667 </v>
   <v>       0.01041667 </v>
   <v>       0.00520833 </v>
   <v>       0.01041667 </v>
   <v>       0.02083333 </v>
   <v>       0.02083333 </v>
   <v>       0.02083333 </v>
   <v>       0.02083333 </v>
   <v>       0.01041667 </v>
   <v>       0.02083333 </v>
   <v>       0.02083333 </v>
   <v>       0.01041667 </v>
   <v>       0.01041667 </v>
   <v>       0.02083333 </v>
   <v>       0.00347222 </v>
   <v>       0.00173611 </v>
   <v>       0.01041667 </v>
   <v>       0.01041667 </v>
   <v>       0.01041667 </v>
   <v>       0.01041667 </v>
   <v>       0.01041667 </v>
   <v>       0.00520833 </v>
   <v>       0.01041667 </v>
   <v>       0.02083333 </v>
   <v>       0.02083333 </v>
   <v>       0.02083333 </v>
   <v>       0.02083333 </v>
   <v>       0.01041667 </v>
   <v>       0.02083333 </v>
   <v>       0.02083333 </v>
   <v>       0.01041667 </v>
   <v>       0.01041667 </v>
   <v>       0.02083333 </v>
   <v>       0.00347222 </v>
   <v>       0.00086806 </v>
   <v>       0.00520833 </v>
   <v>       0.00520833 </v>
   <v>       0.00520833 </v>
   <v>       0.00520833 </v>
   <v>       0.00520833 </v>
   <v>       0.00260417 </v>
   <v>       0.00520833 </v>
   <v>       0.01041667 </v>
   <v>       0.01041667 </v>
   <v>       0.01041667 </v>
   <v>       0.01041667 </v>
   <v>       0.00520833 </v>
   <v>       0.01041667 </v>
   <v>       0.01041667 </v>
   <v>       0.00520833 </v>
   <v>       0.00520833 </v>
   <v>       0.01041667 </v>
   <v>       0.00173611 </v>
  </varray>
 </kpoints>
 <parameters>
  <separator name="general" >
   <i type="string" name="SYSTEM">Co-hcc</i>
   <i type="logical" name="LCOMPAT"> F  </i>
  </separator>
  <separator name="electronic" >
   <i type="string" name="PREC">accura</i>
   <i name="ENMAX">    425.00000000</i>
   <i name="ENAUG">    477.81800000</i>
   <i name="EDIFF">      0.00000100</i>
   <i type="int" name="IALGO">    38</i>
   <i type="int" name="IWAVPR">    11</i>
   <i type="int" name="NBANDS">    24</i>
   <i type="int" name="NBANDSLOW">    -1</i>
   <i type="int" name="NBANDSHIGH">    -1</i>
   <i name="NELECT">     18.00000000</i>
   <i type="int" name="TURBO">     0</i>
   <i type="int" name="IRESTART">     0</i>
   <i type="int" name="NREBOOT">     0</i>
   <i type="int" name="NMIN">     0</i>
   <i name="EREF">      0.00000000</i>
   <separator name="electronic smearing" >
    <i type="int" name="ISMEAR">     0</i>
    <i name="SIGMA">      0.05000000</i>
    <i name="KSPACING">      0.50000000</i>
    <i type="logical" name="KGAMMA"> T  </i>
    <i type="logical" name="KBLOWUP"> T  </i>
   </separator>
   <separator name="electronic projectors" >
    <i type="logical" name="LREAL"> F  </i>
    <v name="ROPT">      0.00000000</v>
    <i type="int" name="LMAXPAW">  -100</i>
    <i type="int" name="LMAXMIX">     2</i>
    <i type="logical" name="NLSPLINE"> F  </i>
   </separator>
   <separator name="electronic startup" >
    <i type="int" name="ISTART">     0</i>
    <i type="int" name="ICHARG">     2</i>
    <i type="int" name="INIWAV">     1</i>
   </separator>
   <separator name="electronic spin" >
    <i type="int" name="ISPIN">     2</i>
    <i type="logical" name="LNONCOLLINEAR"> F  </i>
    <v name="MAGMOM">      3.00000000      3.00000000</v>
    <i name="NUPDOWN">     -1.00000000</i>
    <i type="logical" name="LSORBIT"> F  </i>
    <v name="SAXIS">      0.00000000      0.00000000      1.00000000</v>
    <i type="logical" name="LSPIRAL"> F  </i>
    <v name="QSPIRAL">      0.00000000      0.00000000      0.00000000</v>
    <i type="logical" name="LZEROZ"> F  </i>
   </separator>
   <separator name="electronic exchange-correlation" >
    <i type="logical" name="LASPH"> F  </i>
    <i type="logical" name="LMETAGGA"> F  </i>
   </separator>
   <separator name="electronic convergence" >
    <i type="int" name="NELM">   100</i>
    <i type="int" name="NELMDL">    -5</i>
    <i type="int" name="NELMIN">     2</i>
    <i name="ENINI">    425.00000000</i>
    <separator name="electronic convergence detail" >
     <i type="logical" name="LDIAG"> T  </i>
     <i type="logical" name="LSUBROT"> F  </i>
     <i name="WEIMIN">      0.00100000</i>
     <i name="EBREAK">      0.00000001</i>
     <i name="DEPER">      0.30000000</i>
     <i type="int" name="NRMM">     4</i>
     <i name="TIME">      0.40000000</i>
    </separator>
   </separator>
   <separator name="electronic mixer" >
    <i name="AMIX">      0.40000000</i>
    <i name="BMIX">      1.00000000</i>
    <i name="AMIN">      0.10000000</i>
    <i name="AMIX_MAG">      1.60000000</i>
    <i name="BMIX_MAG">      1.00000000</i>
    <separator name="electronic mixer details" >
     <i type="int" name="IMIX">     4</i>
     <i type="logical" name="MIXFIRST"> F  </i>
     <i type="int" name="MAXMIX">   -45</i>
     <i name="WC">    100.00000000</i>
     <i type="int" name="INIMIX">     1</i>
     <i type="int" name="MIXPRE">     1</i>
     <i type="int" name="MREMOVE">     5</i>
    </separator>
   </separator>
   <separator name="electronic dipolcorrection" >
    <i type="logical" name="LDIPOL"> F  </i>
    <i type="logical" name="LMONO"> F  </i>
    <i type="int" name="IDIPOL">     0</i>
    <i name="EPSILON">      1.00000000</i>
    <v name="DIPOL">   -100.00000000   -100.00000000   -100.00000000</v>
    <i name="EFIELD">      0.00000000</i>
   </separator>
  </separator>
  <separator name="grids" >
   <i type="int" name="NGX">    16</i>
   <i type="int" name="NGY">    16</i>
   <i type="int" name="NGZ">    28</i>
   <i type="int" name="NGXF">    32</i>
   <i type="int" name="NGYF">    32</i>
   <i type="int" name="NGZF">    56</i>
   <i type="logical" name="ADDGRID"> F  </i>
  </separator>
  <separator name="ionic" >
   <i type="int" name="NSW">   100</i>
   <i type="int" name="IBRION">     2</i>
   <i type="int" name="MDALGO">     0</i>
   <i type="int" name="ISIF">     2</i>
   <i name="PSTRESS">      0.00000000</i>
   <i name="EDIFFG">     -0.02000000</i>
   <i type="int" name="NFREE">     1</i>
   <i name="POTIM">      0.50000000</i>
   <i name="SMASS">     -3.00000000</i>
   <i name="SCALEE">      1.00000000</i>
  </separator>
  <separator name="ionic md" >
   <i name="TEBEG">      0.00010000</i>
   <i name="TEEND">      0.00010000</i>
   <i type="int" name="NBLOCK">     1</i>
   <i type="int" name="KBLOCK">   100</i>
   <i type="int" name="NPACO">   256</i>
   <i name="APACO">     10.00000000</i>
  </separator>
  <separator name="symmetry" >
   <i type="int" name="ISYM">     1</i>
   <i name="SYMPREC">      0.00001000</i>
  </separator>
  <separator name="dos" >
   <i type="int" name="LORBIT">    11</i>
   <v name="RWIGS">     -1.00000000</v>
   <i type="int" name="NEDOS">   301</i>
   <i name="EMIN">     10.00000000</i>
   <i name="EMAX">    -10.00000000</i>
   <i name="EFERMI">      0.00000000</i>
  </separator>
  <separator name="writing" >
   <i type="int" name="NWRITE">     2</i>
   <i type="logical" name="LWAVE"> F  </i>
   <i type="logical" name="LDOWNSAMPLE"> F  </i>
   <i type="logical" name="LCHARG"> F  </i>
   <i type="logical" name="LPARD"> F  </i>
   <i type="logical" name="LVTOT"> F  </i>
   <i type="logical" name="LVHAR"> F  </i>
   <i type="logical" name="LELF"> F  </i>
   <i type="logical" name="LOPTICS"> F  </i>
   <v name="STM">      0.00000000      0.00000000      0.00000000      0.00000000      0.00000000      0.00000000      0.00000000</v>
  </separator>
  <separator name="performance" >
   <i type="int" name="NPAR">    24</i>
   <i type="int" name="NSIM">     4</i>
   <i type="int" name="NBLK">    -1</i>
   <i type="logical" name="LPLANE"> T  </i>
   <i type="logical" name="LSCALAPACK"> T  </i>
   <i type="logical" name="LSCAAWARE"> T  </i>
   <i type="logical" name="LSCALU"> F  </i>
   <i type="logical" name="LASYNC"> F  </i>
   <i type="logical" name="LORBITALREAL"> F  </i>
  </separator>
  <separator name="miscellaneous" >
   <i type="int" name="IDIOT">     3</i>
   <i type="int" name="PHON_NSTRUCT">    -1</i>
   <i type="logical" name="LMUSIC"> F  </i>
   <v name="POMASS">     58.93300000</v>
   <v name="DARWINR">      0.00000000</v>
   <v name="DARWINV">      1.00000000</v>
   <i type="logical" name="LCORR"> T  </i>
  </separator>
  <i type="logical" name="GGA_COMPAT"> T  </i>
  <i type="logical" name="LBERRY"> F  </i>
  <i type="int" name="ICORELEVEL">     0</i>
  <i type="logical" name="LDAU"> F  </i>
  <i type="int" name="I_CONSTRAINED_M">     0</i>
  <separator name="electronic exchange-correlation" >
   <i type="string" name="GGA">--</i>
   <i type="int" name="VOSKOWN">     0</i>
   <i type="logical" name="LHFCALC"> F  </i>
   <i type="string" name="PRECFOCK"></i>
   <i type="logical" name="LSYMGRAD"> F  </i>
   <i type="logical" name="LHFONE"> F  </i>
   <i type="logical" name="LRHFCALC"> F  </i>
   <i type="logical" name="LTHOMAS"> F  </i>
   <i type="logical" name="LMODELHF"> F  </i>
   <i type="logical" name="LFOCKACE"> F  </i>
   <i name="ENCUT4O">     -1.00000000</i>
   <i type="int" name="EXXOEP">     0</i>
   <i type="int" name="FOURORBIT">     0</i>
   <i name="AEXX">      0.00000000</i>
   <i name="HFALPHA">      0.00000000</i>
   <i name="MCALPHA">      0.00000000</i>
   <i name="ALDAX">      1.00000000</i>
   <i name="AGGAX">      1.00000000</i>
   <i name="ALDAC">      1.00000000</i>
   <i name="AGGAC">      1.00000000</i>
   <i type="int" name="NKREDX">     1</i>
   <i type="int" name="NKREDY">     1</i>
   <i type="int" name="NKREDZ">     1</i>
   <i type="logical" name="SHIFTRED"> F  </i>
   <i type="logical" name="ODDONLY"> F  </i>
   <i type="logical" name="EVENONLY"> F  </i>
   <i type="int" name="LMAXFOCK">     0</i>
   <i type="int" name="NMAXFOCKAE">     0</i>
   <i type="logical" name="LFOCKAEDFT"> F  </i>
   <i name="HFSCREEN">      0.00000000</i>
   <i name="HFSCREENC">      0.00000000</i>
   <i type="int" name="NBANDSGWLOW">     0</i>
  </separator>
  <separator name="vdW DFT" >
   <i type="logical" name="LUSE_VDW"> F  </i>
   <i name="Zab_VDW">     -0.84910000</i>
   <i name="PARAM1">      0.12340000</i>
   <i name="PARAM2">      1.00000000</i>
   <i name="PARAM3">      0.00000000</i>
  </separator>
  <separator name="model GW" >
   <i type="int" name="MODEL_GW">     0</i>
   <i name="MODEL_EPS0">      6.16326434</i>
   <i name="MODEL_ALPHA">      1.00000000</i>
  </separator>
  <separator name="linear response parameters" >
   <i type="logical" name="LEPSILON"> F  </i>
   <i type="logical" name="LRPA"> F  </i>
   <i type="logical" name="LNABLA"> F  </i>
   <i type="logical" name="LVEL"> F  </i>
   <i name="CSHIFT">      0.10000000</i>
   <i name="OMEGAMAX">     -1.00000000</i>
   <i name="DEG_THRESHOLD">      0.00200000</i>
   <i name="RTIME">     -0.10000000</i>
   <i name="WPLASMAI">      0.00000000</i>
   <v name="DFIELD">      0.00000000      0.00000000      0.00000000</v>
   <v name="WPLASMA">      0.00000000      0.00000000      0.00000000      0.00000000      0.00000000      0.00000000      0.00000000      0.00000000      0.00000000</v>
  </separator>
  <separator name="orbital magnetization" >
   <i type="logical" name="NUCIND"> F  </i>
   <v name="MAGPOS">      0.00000000      0.00000000      0.00000000</v>
   <i type="logical" name="LNICSALL"> T  </i>
   <i type="logical" name="ORBITALMAG"> F  </i>
   <i type="logical" name="LMAGBLOCH"> F  </i>
   <i type="logical" name="LCHIMAG"> F  </i>
   <i type="logical" name="LGAUGE"> T  </i>
   <i type="int" name="MAGATOM">     0</i>
   <v name="MAGDIPOL">      0.00000000      0.00000000      0.00000000</v>
   <v name="AVECCONST">      0.00000000      0.00000000      0.00000000</v>
  </separator>
  <separator name="response functions" >
   <i type="logical" name="LFINITE_TEMPERATURE"> F  </i>
   <i type="logical" name="LADDER"> F  </i>
   <i type="logical" name="LRPAFORCE"> F  </i>
   <i type="logical" name="LFXC"> F  </i>
   <i type="logical" name="LHARTREE"> T  </i>
   <i type="int" name="IBSE">     0</i>
   <v type="int" name="KPOINT">    -1     0     0     0</v>
   <i type="logical" name="LTCTC"> F  </i>
   <i type="logical" name="LTCTE"> F  </i>
   <i type="logical" name="LTETE"> F  </i>
   <i type="logical" name="LTRIPLET"> F  </i>
   <i type="logical" name="LFXCEPS"> F  </i>
   <i type="logical" name="LFXHEG"> F  </i>
   <i type="int" name="NATURALO">     2</i>
   <i type="logical" name="LHOLEGF"> F  </i>
   <i type="logical" name="L2ORDER"> F  </i>
   <i type="logical" name="LDMP1"> F  </i>
   <i type="logical" name="LMP2LT"> F  </i>
   <i type="logical" name="LSMP2LT"> F  </i>
   <i type="logical" name="LGWLF"> F  </i>
   <i name="ENCUTGW">     -2.00000000</i>
   <i name="ENCUTGWSOFT">     -2.00000000</i>
   <i name="ENCUTLF">     -1.00000000</i>
   <i type="logical" name="LESF_SPLINES"> F  </i>
   <i type="int" name="LMAXMP2">    -1</i>
   <i name="SCISSOR">      0.00000000</i>
   <i type="int" name="NOMEGA">     0</i>
   <i type="int" name="NOMEGAR">     0</i>
   <i type="int" name="NBANDSGW">    -1</i>
   <i type="int" name="NBANDSO">    -1</i>
   <i type="int" name="NBANDSV">    -1</i>
   <i type="int" name="NELMGW">     1</i>
   <i type="int" name="NELMHF">     1</i>
   <i type="int" name="DIM">     3</i>
   <i type="int" name="IESPILON">     4</i>
   <i type="int" name="ANTIRES">     0</i>
   <i name="OMEGAMAX">    -30.00000000</i>
   <i name="OMEGAMIN">    -30.00000000</i>
   <i name="OMEGATL">   -200.00000000</i>
   <i type="int" name="OMEGAGRID">     0</i>
   <i name="CSHIFT">     -0.10000000</i>
   <i type="logical" name="LSELFENERGY"> F  </i>
   <i type="logical" name="LSPECTRAL"> F  </i>
   <i type="logical" name="LSPECTRALGW"> F  </i>
   <i type="logical" name="LSINGLES"> F  </i>
   <i type="logical" name="LFERMIGW"> F  </i>
   <i type="logical" name="ODDONLYGW"> F  </i>
   <i type="logical" name="EVENONLYGW"> F  </i>
   <i type="int" name="NKREDLFX">     1</i>
   <i type="int" name="NKREDLFY">     1</i>
   <i type="int" name="NKREDLFZ">     1</i>
   <i type="int" name="MAXMEM">  2800</i>
   <i type="int" name="TELESCOPE">     0</i>
   <i type="int" name="NTAUPAR">    -1</i>
   <i type="int" name="NOMEGAPAR">    -1</i>
   <i name="DAMP_NEWTON">      0.80000001</i>
   <i name="LAMBDA">      1.00000000</i>
  </separator>
  <separator name="External order field" >
   <i name="OFIELD_KAPPA">      0.00000000</i>
   <v name="OFIELD_K">      0.00000000      0.00000000      0.00000000</v>
   <i name="OFIELD_Q6_NEAR">      0.00000000</i>
   <i name="OFIELD_Q6_FAR">      0.00000000</i>
   <i name="OFIELD_A">      0.00000000</i>
  </separator>
  <separator name="optional k-points parameters" >
   <i type="int" name="KPOINTS_OPT_MODE">     1</i>
   <i type="logical" name="LKPOINTS_OPT"> F  </i>
  </separator>
 </parameters>
 <atominfo>
  <atoms>       2 </atoms>
  <types>       1 </types>
  <array name="atoms" >
   <dimension dim="1">ion</dimension>
   <field type="string">element</field>
   <field type="int">atomtype</field>
   <set>
    <rc><c>Co</c><c>   1</c></rc>
    <rc><c>Co</c><c>   1</c></rc>
   </set>
  </array>
  <array name="atomtypes" >
   <dimension dim="1">type</dimension>
   <field type="int">atomspertype</field>
   <field type="string">element</field>
   <field>mass</field>
   <field>valence</field>
   <field type="string">pseudopotential</field>
   <set>
    <rc><c>   2</c><c>Co</c><c>     58.93300000</c><c>      9.00000000</c><c>  PAW_PBE Co 02Aug2007                  </c></rc>
   </set>
  </array>
 </atominfo>
 <structure name="initialpos" >
  <crystal>
   <varray name="basis" >
    <v>       1.22501274      -2.12178431       0.00000000 </v>
    <v>       1.22501274       2.12178431       0.00000000 </v>
    <v>       0.00000000       0.00000000       3.95200698 </v>
   </varray>
   <i name="volume">     20.54421446 </i>
   <varray name="rec_basis" >
    <v>       0.40815902      -0.23565072       0.00000000 </v>
    <v>       0.40815902       0.23565072       0.00000000 </v>
    <v>       0.00000000       0.00000000       0.25303599 </v>
   </varray>
  </crystal>
  <varray name="positions" >
   <v>       0.33333333       0.66666667       0.25000000 </v>
   <v>       0.66666667       0.33333333       0.75000000 </v>
  </varray>
 </structure>
 <calculation>
  <scstep>
   <time name="dav">    0.70    0.71</time>
   <time name="total">    0.72    0.72</time>
   <energy>
    <i name="alphaZ">     82.47127868 </i>
    <i name="ewald">  -1549.64478593 </i>
    <i name="hartreedc">   -288.45706231 </i>
    <i name="XCdc">     35.99333828 </i>
    <i name="pawpsdc">   1439.98163886 </i>
    <i name="pawaedc">  -1545.88690193 </i>
    <i name="eentropy">     -0.00298176 </i>
    <i name="bandstr">    202.04218112 </i>
    <i name="atom">   1626.72322989 </i>
    <i name="e_fr_energy">      3.21993491 </i>
    <i name="e_wo_entrp">      3.22291666 </i>
    <i name="e_0_energy">      3.22142578 </i>
   </energy>
  </scstep>
  <scstep>
   <time name="dav">    0.95    0.95</time>
   <time name="total">    0.95    0.95</time>
   <energy>
    <i name="e_fr_energy">    -15.37512466 </i>
    <i name="e_wo_entrp">    -15.37318409 </i>
    <i name="e_0_energy">    -15.37415437 </i>
   </energy>
  </scstep>
  <scstep>
   <time name="dav">    1.13    1.14</time>
   <time name="total">    1.14    1.14</time>
   <energy>
    <i name="e_fr_energy">    -15.49862421 </i>
    <i name="e_wo_entrp">    -15.49665239 </i>
    <i name="e_0_energy">    -15.49763830 </i>
   </energy>
  </scstep>
  <scstep>
   <time name="dav">    1.29    1.29</time>
   <time name="total">    1.29    1.29</time>
   <energy>
    <i name="e_fr_energy">    -15.49902330 </i>
    <i name="e_wo_entrp">    -15.49705220 </i>
    <i name="e_0_energy">    -15.49803775 </i>
   </energy>
  </scstep>
  <scstep>
   <time name="dav">    1.41    1.41</time>
   <time name="total">    1.43    1.44</time>
   <energy>
    <i name="e_fr_energy">    -15.49902415 </i>
    <i name="e_wo_entrp">    -15.49705306 </i>
    <i name="e_0_energy">    -15.49803861 </i>
   </energy>
  </scstep>
  <scstep>
   <time name="dav">    1.87    1.88</time>
   <time name="total">    1.90    1.91</time>
   <energy>
    <i name="e_fr_energy">    -14.35175671 </i>
    <i name="e_wo_entrp">    -14.34914625 </i>
    <i name="e_0_energy">    -14.35045148 </i>
   </energy>
  </scstep>
  <scstep>
   <time name="dav">    1.86    1.87</time>
   <time name="total">    1.90    1.90</time>
   <energy>
    <i name="e_fr_energy">    -14.06917213 </i>
    <i name="e_wo_entrp">    -14.06689541 </i>
    <i name="e_0_energy">    -14.06803377 </i>
   </energy>
  </scstep>
  <scstep>
   <time name="dav">    1.96    1.97</time>
   <time name="total">    1.99    2.00</time>
   <energy>
    <i name="e_fr_energy">    -14.03883853 </i>
    <i name="e_wo_entrp">    -14.03669404 </i>
    <i name="e_0_energy">    -14.03776628 </i>
   </energy>
  </scstep>
  <scstep>
   <time name="dav">    2.14    2.15</time>
   <time name="total">    2.17    2.18</time>
   <energy>
    <i name="e_fr_energy">    -14.02519777 </i>
    <i name="e_wo_entrp">    -14.02302469 </i>
    <i name="e_0_energy">    -14.02411123 </i>
   </energy>
  </scstep>
  <scstep>
   <time name="dav">    2.05    2.05</time>
   <time name="total">    2.08    2.09</time>
   <energy>
    <i name="e_fr_energy">    -14.02410253 </i>
    <i name="e_wo_entrp">    -14.02193120 </i>
    <i name="e_0_energy">    -14.02301686 </i>
   </energy>
  </scstep>
  <scstep>
   <time name="dav">    1.51    1.51</time>
   <time name="total">    1.54    1.55</time>
   <energy>
    <i name="e_fr_energy">    -14.02410705 </i>
    <i name="e_wo_entrp">    -14.02190062 </i>
    <i name="e_0_energy">    -14.02300384 </i>
   </energy>
  </scstep>
  <scstep>
   <time name="dav">    1.32    1.33</time>
   <time name="total">    1.36    1.36</time>
   <energy>
    <i name="e_fr_energy">    -14.02410463 </i>
    <i name="e_wo_entrp">    -14.02189151 </i>
    <i name="e_0_energy">    -14.02299807 </i>
   </energy>
  </scstep>
  <scstep>
   <time name="dav">    2.04    2.05</time>
   <time name="total">    2.05    2.06</time>
   <energy>
    <i name="alphaZ">     82.47127868 </i>
    <i name="ewald">  -1549.64478593 </i>
    <i name="hartreedc">   -253.26590143 </i>
    <i name="XCdc">     33.12044566 </i>
    <i name="pawpsdc">   1870.19859429 </i>
    <i name="pawaedc">  -1976.68267831 </i>
    <i name="eentropy">     -0.00222035 </i>
    <i name="bandstr">    153.05793363 </i>
    <i name="atom">   1626.72322989 </i>
    <i name="e_fr_energy">    -14.02410387 </i>
    <i name="e_wo_entrp">    -14.02188352 </i>
    <i name="e_0_energy">    -14.02299370 </i>
   </energy>
  </scstep>
  <structure>
   <crystal>
    <varray name="basis" >
     <v>       1.22501274      -2.12178431       0.00000000 </v>
     <v>       1.22501274       2.12178431       0.00000000 </v>
     <v>       0.00000000       0.00000000       3.95200698 </v>
    </varray>
    <i name="volume">     20.54421446 </i>
    <varray name="rec_basis" >
     <v>       0.40815902      -0.23565072       0.00000000 </v>
     <v>       0.40815902       0.23565072       0.00000000 </v>
     <v>       0.00000000       0.00000000       0.25303599 </v>
    </varray>
   </crystal>
   <varray name="positions" >
    <v>       0.33333333       0.66666667       0.25000000 </v>
    <v>       0.66666667       0.33333333       0.75000000 </v>
   </varray>
  </structure>
  <varray name="forces" >
   <v>      -0.00000000      -0.00000000       0.00000000 </v>
   <v>       0.00000000       0.00000000      -0.00000000 </v>
  </varray>
  <varray name="stress" >
   <v>     120.42532245      -0.00000000      -0.00000000 </v>
   <v>      -0.00000000     120.42532245      -0.00000000 </v>
   <v>      -0.00000000       0.00000000     118.64591421 </v>
  </varray>
  <energy>
   <i name="e_fr_energy">    -14.02410387 </i>
   <i name="e_wo_entrp">    -14.02188352 </i>
   <i name="e_0_energy">    -14.02299370 </i>
  </energy>
  <time name="totalsc">   20.75   20.86</time>
  <eigenvalues>
   <array>
    <dimension dim="1">band</dimension>
    <dimension dim="2">kpoint</dimension>
    <dimension dim="3">spin</dimension>
    <field>eigene</field>
    <field>occ</field>
    <set>
     <set comment="spin 1">
      <set comment="kpoint 1">
       <r>    1.8205    1.0000 </r>
       <r>    5.6590    1.0000 </r>
       <r>    8.3711    1.0000 </r>
       <r>    8.3813    1.0000 </r>
       <r>    8.3813    1.0000 </r>
       <r>    8.7264    1.0000 </r>
       <r>    8.7264    1.0000 </r>
       <r>    9.0993    1.0000 </r>
       <r>    9.0993    1.0000 </r>
       <r>   10.3054    1.0000 </r>
       <r>   10.3054    1.0000 </r>
       <r>   10.9823    0.9522 </r>
       <r>   17.9439    0.0000 </r>
       <r>   33.4607    0.0000 </r>
       <r>   36.5616    0.0000 </r>
       <r>   36.5616    0.0000 </r>
       <r>   36.7519    0.0000 </r>
       <r>   37.1647    0.0000 </r>
       <r>   37.8583    0.0000 </r>
       <r>   37.8583    0.0000 </r>
       <r>   42.3290    0.0000 </r>
       <r>   42.3290    0.0000 </r>
       <r>   43.5472    0.0000 </r>
       <r>   43.7968    0.0000 </r>
      </set>
      <set comment="kpoint 2">
       <r>    2.0737    1.0000 </r>
       <r>    5.8117    1.0000 </r>
       <r>    8.1270    1.0000 </r>
       <r>    8.5039    1.0000 </r>
       <r>    8.5830    1.0000 </r>
       <r>    8.6766    1.0000 </r>
       <r>    8.8345    1.0000 </r>
       <r>    8.9332    1.0000 </r>
       <r>    9.0217    1.0000 </r>
       <r>    9.4554    1.0000 </r>
       <r>   10.3389    1.0000 </r>
       <r>   12.1648    0.0000 </r>
       <r>   17.9827    0.0000 </r>
       <r>   31.7767    0.0000 </r>
       <r>   34.1858    0.0000 </r>
       <r>   34.3348    0.0000 </r>
       <r>   37.1805    0.0000 </r>
       <r>   37.7212    0.0000 </r>
       <r>   39.1201    0.0000 </r>
       <r>   40.2989    0.0000 </r>
       <r>   41.0687    0.0000 </r>
       <r>   41.8551    0.0000 </r>
       <r>   43.1201    0.0000 </r>
       <r>   43.3919    0.0000 </r>
      </set>
      <set comment="kpoint 3">
       <r>    2.8042    1.0000 </r>
       <r>    6.1877    1.0000 </r>
       <r>    7.8277    1.0000 </r>
       <r>    8.1638    1.0000 </r>
       <r>    8.4910    1.0000 </r>
       <r>    8.8307    1.0000 </r>
       <r>    8.8499    1.0000 </r>
       <r>    8.9130    1.0000 </r>
       <r>    9.0596    1.0000 </r>
       <r>    9.1379    1.0000 </r>
       <r>   10.4103    1.0000 </r>
       <r>   13.8407    0.0000 </r>
       <r>   18.1198    0.0000 </r>
       <r>   27.9726    0.0000 </r>
       <r>   31.8481    0.0000 </r>
       <r>   33.2019    0.0000 </r>
       <r>   35.1338    0.0000 </r>
       <r>   37.2928    0.0000 </r>
       <r>   38.3881    0.0000 </r>
       <r>   40.7373    0.0000 </r>
       <r>   41.0783    0.0000 </r>
       <r>   41.9888    0.0000 </r>
       <r>   42.4702    0.0000 </r>
       <r>   44.3040    0.0000 </r>
      </set>
      <set comment="kpoint 4">
       <r>    3.9023    1.0000 </r>
       <r>    6.4823    1.0000 </r>
       <r>    7.3828    1.0000 </r>
       <r>    7.6478    1.0000 </r>
       <r>    8.3941    1.0000 </r>
       <r>    8.6016    1.0000 </r>
       <r>    8.8459    1.0000 </r>
       <r>    9.3522    1.0000 </r>
       <r>    9.3754    1.0000 </r>
       <r>    9.5745    1.0000 </r>
       <r>   10.4780    1.0000 </r>
       <r>   15.7176    0.0000 </r>
       <r>   18.3816    0.0000 </r>
       <r>   24.2067    0.0000 </r>
       <r>   29.6847    0.0000 </r>
       <r>   31.7392    0.0000 </r>
       <r>   32.0144    0.0000 </r>
       <r>   36.2908    0.0000 </r>
       <r>   36.3128    0.0000 </r>
       <r>   40.4422    0.0000 </r>
       <r>   40.5194    0.0000 </r>
       <r>   41.2262    0.0000 </r>
       <r>   42.5162    0.0000 </r>
       <r>   45.4080    0.0000 </r>
      </set>
      <set comment="kpoint 5">
       <r>    5.0805    1.0000 </r>
       <r>    6.4012    1.0000 </r>
       <r>    6.8118    1.0000 </r>
       <r>    7.7730    1.0000 </r>
       <r>    8.3956    1.0000 </r>
       <r>    8.5292    1.0000 </r>
       <r>    8.6572    1.0000 </r>
       <r>    9.8877    1.0000 </r>
       <r>   10.0483    1.0000 </r>
       <r>   10.1135    1.0000 </r>
       <r>   10.5244    1.0000 </r>
       <r>   17.7519    0.0000 </r>
       <r>   18.3770    0.0000 </r>
       <r>   21.3245    0.0000 </r>
       <r>   27.9616    0.0000 </r>
       <r>   28.6227    0.0000 </r>
       <r>   29.7973    0.0000 </r>
       <r>   34.7580    0.0000 </r>
       <r>   35.1393    0.0000 </r>
       <r>   38.6561    0.0000 </r>
       <r>   40.0078    0.0000 </r>
       <r>   42.0817    0.0000 </r>
       <r>   44.3360    0.0000 </r>
       <r>   46.3023    0.0000 </r>
      </set>
      <set comment="kpoint 6">
       <r>    5.8236    1.0000 </r>
       <r>    6.2041    1.0000 </r>
       <r>    6.4686    1.0000 </r>
       <r>    8.1703    1.0000 </r>
       <r>    8.2549    1.0000 </r>
       <r>    8.5244    1.0000 </r>
       <r>    8.7475    1.0000 </r>
       <r>   10.2891    1.0000 </r>
       <r>   10.4407    1.0000 </r>
       <r>   10.5493    1.0000 </r>
       <r>   11.3003    0.0000 </r>
       <r>   16.4246    0.0000 </r>
       <r>   19.8451    0.0000 </r>
       <r>   21.2269    0.0000 </r>
       <r>   25.8956    0.0000 </r>
       <r>   26.8243    0.0000 </r>
       <r>   27.1791    0.0000 </r>
       <r>   34.2192    0.0000 </r>
       <r>   34.3405    0.0000 </r>
       <r>   37.4357    0.0000 </r>
       <r>   39.7592    0.0000 </r>
       <r>   42.6256    0.0000 </r>
       <r>   46.7080    0.0000 </r>
       <r>   46.8351    0.0000 </r>
      </set>
      <set comment="kpoint 7">
       <r>    6.0326    1.0000 </r>
       <r>    6.0973    1.0000 </r>
       <r>    6.3542    1.0000 </r>
       <r>    8.2052    1.0000 </r>
       <r>    8.4344    1.0000 </r>
       <r>    8.4765    1.0000 </r>
       <r>    8.8305    1.0000 </r>
       <r>   10.4343    1.0000 </r>
       <r>   10.5569    1.0000 </r>
       <r>   10.5997    1.0000 </r>
       <r>   12.5070    0.0000 </r>
       <r>   14.6479    0.0000 </r>
       <r>   21.2083    0.0000 </r>
       <r>   21.9268    0.0000 </r>
       <r>   24.3243    0.0000 </r>
       <r>   25.7611    0.0000 </r>
       <r>   26.4225    0.0000 </r>
       <r>   34.0615    0.0000 </r>
       <r>   34.0896    0.0000 </r>
       <r>   37.0103    0.0000 </r>
       <r>   39.6787    0.0000 </r>
       <r>   42.8254    0.0000 </r>
       <r>   46.8226    0.0000 </r>
       <r>   47.6187    0.0000 </r>
      </set>
      <set comment="kpoint 8">
       <r>    2.5665    1.0000 </r>
       <r>    6.0825    1.0000 </r>
       <r>    7.8910    1.0000 </r>
       <r>    8.4286    1.0000 </r>
       <r>    8.5627    1.0000 </r>
       <r>    8.7531    1.0000 </r>
       <r>    8.7543    1.0000 </r>
       <r>    8.8012    1.0000 </r>
       <r>    9.0739    1.0000 </r>
       <r>    9.1882    1.0000 </r>
       <r>   10.3807    1.0000 </r>
       <r>   13.3722    0.0000 </r>
       <r>   18.0728    0.0000 </r>
       <r>   29.6941    0.0000 </r>
       <r>   30.5632    0.0000 </r>
       <r>   35.7936    0.0000 </r>
       <r>   36.6361    0.0000 </r>
       <r>   36.7924    0.0000 </r>
       <r>   37.0190    0.0000 </r>
       <r>   40.3600    0.0000 </r>
       <r>   41.5093    0.0000 </r>
       <r>   42.1087    0.0000 </r>
       <r>   44.0119    0.0000 </r>
       <r>   44.5009    0.0000 </r>
      </set>
      <set comment="kpoint 9">
       <r>    3.4905    1.0000 </r>
       <r>    6.4661    1.0000 </r>
       <r>    7.5951    1.0000 </r>
       <r>    7.6709    1.0000 </r>
       <r>    8.4349    1.0000 </r>
       <r>    8.5587    1.0000 </r>
       <r>    9.0233    1.0000 </r>
       <r>    9.0280    1.0000 </r>
       <r>    9.2111    1.0000 </r>
       <r>    9.5228    1.0000 </r>
       <r>   10.4323    1.0000 </r>
       <r>   15.0419    0.0000 </r>
       <r>   18.2959    0.0000 </r>
       <r>   26.1265    0.0000 </r>
       <r>   28.4121    0.0000 </r>
       <r>   33.4383    0.0000 </r>
       <r>   34.5411    0.0000 </r>
       <r>   35.5518    0.0000 </r>
       <r>   37.3163    0.0000 </r>
       <r>   38.9452    0.0000 </r>
       <r>   40.4924    0.0000 </r>
       <r>   42.7454    0.0000 </r>
       <r>   44.1052    0.0000 </r>
       <r>   44.5813    0.0000 </r>
      </set>
      <set comment="kpoint 10">
       <r>    4.6699    1.0000 </r>
       <r>    6.5826    1.0000 </r>
       <r>    7.0465    1.0000 </r>
       <r>    7.5218    1.0000 </r>
       <r>    8.3559    1.0000 </r>
       <r>    8.4508    1.0000 </r>
       <r>    8.8136    1.0000 </r>
       <r>    9.4611    1.0000 </r>
       <r>    9.7533    1.0000 </r>
       <r>   10.1330    1.0000 </r>
       <r>   10.4759    1.0000 </r>
       <r>   16.9569    0.0000 </r>
       <r>   18.6191    0.0000 </r>
       <r>   22.6239    0.0000 </r>
       <r>   26.8142    0.0000 </r>
       <r>   30.2480    0.0000 </r>
       <r>   31.8672    0.0000 </r>
       <r>   34.2595    0.0000 </r>
       <r>   36.7290    0.0000 </r>
       <r>   37.1920    0.0000 </r>
       <r>   41.1380    0.0000 </r>
       <r>   44.0087    0.0000 </r>
       <r>   44.2753    0.0000 </r>
       <r>   45.2423    0.0000 </r>
      </set>
      <set comment="kpoint 11">
       <r>    5.6801    1.0000 </r>
       <r>    6.3930    1.0000 </r>
       <r>    6.6210    1.0000 </r>
       <r>    7.7807    1.0000 </r>
       <r>    8.2249    1.0000 </r>
       <r>    8.6066    1.0000 </r>
       <r>    8.6586    1.0000 </r>
       <r>   10.0035    1.0000 </r>
       <r>   10.2172    1.0000 </r>
       <r>   10.5030    1.0000 </r>
       <r>   10.9913    0.9209 </r>
       <r>   17.8143    0.0000 </r>
       <r>   19.0279    0.0000 </r>
       <r>   21.0051    0.0000 </r>
       <r>   25.5648    0.0000 </r>
       <r>   27.3270    0.0000 </r>
       <r>   28.8806    0.0000 </r>
       <r>   33.3041    0.0000 </r>
       <r>   36.0151    0.0000 </r>
       <r>   36.1464    0.0000 </r>
       <r>   41.2312    0.0000 </r>
       <r>   44.3327    0.0000 </r>
       <r>   45.9492    0.0000 </r>
       <r>   46.5771    0.0000 </r>
      </set>
      <set comment="kpoint 12">
       <r>    6.0988    1.0000 </r>
       <r>    6.2345    1.0000 </r>
       <r>    6.4071    1.0000 </r>
       <r>    8.1727    1.0000 </r>
       <r>    8.1769    1.0000 </r>
       <r>    8.4693    1.0000 </r>
       <r>    8.8261    1.0000 </r>
       <r>   10.3917    1.0000 </r>
       <r>   10.4688    1.0000 </r>
       <r>   10.5149    1.0000 </r>
       <r>   12.3346    0.0000 </r>
       <r>   15.4351    0.0000 </r>
       <r>   21.0047    0.0000 </r>
       <r>   21.8378    0.0000 </r>
       <r>   24.7377    0.0000 </r>
       <r>   24.9311    0.0000 </r>
       <r>   26.6145    0.0000 </r>
       <r>   32.8041    0.0000 </r>
       <r>   35.4047    0.0000 </r>
       <r>   35.8356    0.0000 </r>
       <r>   41.1452    0.0000 </r>
       <r>   44.5598    0.0000 </r>
       <r>   46.8600    0.0000 </r>
       <r>   47.6817    0.0000 </r>
      </set>
      <set comment="kpoint 13">
       <r>    4.5254    1.0000 </r>
       <r>    6.7772    1.0000 </r>
       <r>    7.1698    1.0000 </r>
       <r>    7.2771    1.0000 </r>
       <r>    8.2801    1.0000 </r>
       <r>    8.4466    1.0000 </r>
       <r>    8.9142    1.0000 </r>
       <r>    9.2085    1.0000 </r>
       <r>    9.7405    1.0000 </r>
       <r>   10.1556    1.0000 </r>
       <r>   10.4341    1.0000 </r>
       <r>   16.6881    0.0000 </r>
       <r>   18.6759    0.0000 </r>
       <r>   24.3128    0.0000 </r>
       <r>   24.8750    0.0000 </r>
       <r>   31.7226    0.0000 </r>
       <r>   32.7547    0.0000 </r>
       <r>   33.9626    0.0000 </r>
       <r>   34.7808    0.0000 </r>
       <r>   39.6119    0.0000 </r>
       <r>   41.5080    0.0000 </r>
       <r>   42.3718    0.0000 </r>
       <r>   45.7625    0.0000 </r>
       <r>   47.0485    0.0000 </r>
      </set>
      <set comment="kpoint 14">
       <r>    5.6447    1.0000 </r>
       <r>    6.7538    1.0000 </r>
       <r>    6.7728    1.0000 </r>
       <r>    7.2549    1.0000 </r>
       <r>    8.1130    1.0000 </r>
       <r>    8.6026    1.0000 </r>
       <r>    8.7080    1.0000 </r>
       <r>    9.5403    1.0000 </r>
       <r>   10.2185    1.0000 </r>
       <r>   10.4318    1.0000 </r>
       <r>   11.0173    0.7504 </r>
       <r>   18.6188    0.0000 </r>
       <r>   19.0067    0.0000 </r>
       <r>   21.4722    0.0000 </r>
       <r>   23.3884    0.0000 </r>
       <r>   29.1018    0.0000 </r>
       <r>   30.9004    0.0000 </r>
       <r>   31.2635    0.0000 </r>
       <r>   33.4830    0.0000 </r>
       <r>   39.7772    0.0000 </r>
       <r>   42.8857    0.0000 </r>
       <r>   44.6100    0.0000 </r>
       <r>   46.3704    0.0000 </r>
       <r>   47.0337    0.0000 </r>
      </set>
      <set comment="kpoint 15">
       <r>    6.3222    1.0000 </r>
       <r>    6.5257    1.0000 </r>
       <r>    6.5398    1.0000 </r>
       <r>    7.6019    1.0000 </r>
       <r>    8.0679    1.0000 </r>
       <r>    8.4841    1.0000 </r>
       <r>    8.8199    1.0000 </r>
       <r>    9.9791    1.0000 </r>
       <r>   10.4289    1.0000 </r>
       <r>   10.4567    1.0000 </r>
       <r>   12.2614    0.0000 </r>
       <r>   17.1454    0.0000 </r>
       <r>   20.7055    0.0000 </r>
       <r>   21.3839    0.0000 </r>
       <r>   22.6009    0.0000 </r>
       <r>   26.3972    0.0000 </r>
       <r>   27.9719    0.0000 </r>
       <r>   30.5636    0.0000 </r>
       <r>   32.7111    0.0000 </r>
       <r>   39.4405    0.0000 </r>
       <r>   43.7173    0.0000 </r>
       <r>   46.4535    0.0000 </r>
       <r>   47.4100    0.0000 </r>
       <r>   47.8057    0.0000 </r>
      </set>
      <set comment="kpoint 16">
       <r>    6.4313    1.0000 </r>
       <r>    6.4423    1.0000 </r>
       <r>    6.4884    1.0000 </r>
       <r>    7.8402    1.0000 </r>
       <r>    8.0866    1.0000 </r>
       <r>    8.3675    1.0000 </r>
       <r>    8.9126    1.0000 </r>
       <r>   10.2762    1.0000 </r>
       <r>   10.4274    1.0000 </r>
       <r>   10.4338    1.0000 </r>
       <r>   13.5655    0.0000 </r>
       <r>   15.2544    0.0000 </r>
       <r>   21.8546    0.0000 </r>
       <r>   22.1886    0.0000 </r>
       <r>   22.6307    0.0000 </r>
       <r>   24.7025    0.0000 </r>
       <r>   26.4821    0.0000 </r>
       <r>   30.3361    0.0000 </r>
       <r>   32.4350    0.0000 </r>
       <r>   39.3049    0.0000 </r>
       <r>   43.8907    0.0000 </r>
       <r>   46.9764    0.0000 </r>
       <r>   47.2830    0.0000 </r>
       <r>   47.9791    0.0000 </r>
      </set>
      <set comment="kpoint 17">
       <r>    6.4760    1.0000 </r>
       <r>    6.5937    1.0000 </r>
       <r>    6.9714    1.0000 </r>
       <r>    7.0216    1.0000 </r>
       <r>    7.9986    1.0000 </r>
       <r>    8.5010    1.0000 </r>
       <r>    8.8257    1.0000 </r>
       <r>    9.7343    1.0000 </r>
       <r>   10.3846    1.0000 </r>
       <r>   10.4633    1.0000 </r>
       <r>   12.2722    0.0000 </r>
       <r>   18.9729    0.0000 </r>
       <r>   19.7271    0.0000 </r>
       <r>   20.5875    0.0000 </r>
       <r>   22.0756    0.0000 </r>
       <r>   28.3155    0.0000 </r>
       <r>   28.3676    0.0000 </r>
       <r>   29.6360    0.0000 </r>
       <r>   30.5717    0.0000 </r>
       <r>   42.7835    0.0000 </r>
       <r>   44.6871    0.0000 </r>
       <r>   44.9355    0.0000 </r>
       <r>   47.1599    0.0000 </r>
       <r>   48.0708    0.0000 </r>
      </set>
      <set comment="kpoint 18">
       <r>    6.5077    1.0000 </r>
       <r>    6.7449    1.0000 </r>
       <r>    6.8286    1.0000 </r>
       <r>    7.3689    1.0000 </r>
       <r>    8.0201    1.0000 </r>
       <r>    8.2865    1.0000 </r>
       <r>    9.0059    1.0000 </r>
       <r>   10.0304    1.0000 </r>
       <r>   10.3568    1.0000 </r>
       <r>   10.4044    1.0000 </r>
       <r>   13.9967    0.0000 </r>
       <r>   16.6801    0.0000 </r>
       <r>   19.0686    0.0000 </r>
       <r>   22.6880    0.0000 </r>
       <r>   23.1075    0.0000 </r>
       <r>   25.7791    0.0000 </r>
       <r>   27.4386    0.0000 </r>
       <r>   27.9499    0.0000 </r>
       <r>   29.7510    0.0000 </r>
       <r>   43.2330    0.0000 </r>
       <r>   46.5742    0.0000 </r>
       <r>   46.7357    0.0000 </r>
       <r>   47.4823    0.0000 </r>
       <r>   48.3426    0.0000 </r>
      </set>
      <set comment="kpoint 19">
       <r>    6.5123    1.0000 </r>
       <r>    6.9454    1.0000 </r>
       <r>    6.9454    1.0000 </r>
       <r>    7.2322    1.0000 </r>
       <r>    8.1034    1.0000 </r>
       <r>    8.1034    1.0000 </r>
       <r>    9.1110    1.0000 </r>
       <r>   10.1877    1.0000 </r>
       <r>   10.1877    1.0000 </r>
       <r>   10.3282    1.0000 </r>
       <r>   15.7630    0.0000 </r>
       <r>   16.6913    0.0000 </r>
       <r>   16.6913    0.0000 </r>
       <r>   23.9630    0.0000 </r>
       <r>   24.7499    0.0000 </r>
       <r>   24.7499    0.0000 </r>
       <r>   26.5010    0.0000 </r>
       <r>   27.7811    0.0000 </r>
       <r>   27.7811    0.0000 </r>
       <r>   45.6559    0.0000 </r>
       <r>   47.1676    0.0000 </r>
       <r>   47.1676    0.0000 </r>
       <r>   48.8206    0.0000 </r>
       <r>   48.8206    0.0000 </r>
      </set>
      <set comment="kpoint 20">
       <r>    1.9856    1.0000 </r>
       <r>    5.6325    1.0000 </r>
       <r>    8.3262    1.0000 </r>
       <r>    8.3351    1.0000 </r>
       <r>    8.3351    1.0000 </r>
       <r>    8.6789    1.0000 </r>
       <r>    8.6789    1.0000 </r>
       <r>    9.2069    1.0000 </r>
       <r>    9.2069    1.0000 </r>
       <r>   10.2971    1.0000 </r>
       <r>   10.2971    1.0000 </r>
       <r>   10.3613    1.0000 </r>
       <r>   18.8790    0.0000 </r>
       <r>   33.3875    0.0000 </r>
       <r>   35.9917    0.0000 </r>
       <r>   36.4093    0.0000 </r>
       <r>   36.7045    0.0000 </r>
       <r>   36.7045    0.0000 </r>
       <r>   37.9060    0.0000 </r>
       <r>   37.9060    0.0000 </r>
       <r>   41.9754    0.0000 </r>
       <r>   41.9754    0.0000 </r>
       <r>   43.8478    0.0000 </r>
       <r>   44.1862    0.0000 </r>
      </set>
      <set comment="kpoint 21">
       <r>    2.2361    1.0000 </r>
       <r>    5.7938    1.0000 </r>
       <r>    8.1242    1.0000 </r>
       <r>    8.4444    1.0000 </r>
       <r>    8.4623    1.0000 </r>
       <r>    8.5592    1.0000 </r>
       <r>    8.7817    1.0000 </r>
       <r>    9.0729    1.0000 </r>
       <r>    9.1508    1.0000 </r>
       <r>    9.3681    1.0000 </r>
       <r>   10.3258    1.0000 </r>
       <r>   11.6354    0.0000 </r>
       <r>   18.9675    0.0000 </r>
       <r>   31.8453    0.0000 </r>
       <r>   34.1479    0.0000 </r>
       <r>   34.4899    0.0000 </r>
       <r>   36.0067    0.0000 </r>
       <r>   37.0320    0.0000 </r>
       <r>   39.1596    0.0000 </r>
       <r>   40.2156    0.0000 </r>
       <r>   41.2925    0.0000 </r>
       <r>   41.6074    0.0000 </r>
       <r>   42.2284    0.0000 </r>
       <r>   44.2304    0.0000 </r>
      </set>
      <set comment="kpoint 22">
       <r>    2.9563    1.0000 </r>
       <r>    6.1958    1.0000 </r>
       <r>    7.8458    1.0000 </r>
       <r>    7.9897    1.0000 </r>
       <r>    8.4295    1.0000 </r>
       <r>    8.6774    1.0000 </r>
       <r>    8.8182    1.0000 </r>
       <r>    9.0148    1.0000 </r>
       <r>    9.1480    1.0000 </r>
       <r>    9.2354    1.0000 </r>
       <r>   10.3865    1.0000 </r>
       <r>   13.0745    0.0000 </r>
       <r>   19.2656    0.0000 </r>
       <r>   28.1032    0.0000 </r>
       <r>   32.0351    0.0000 </r>
       <r>   32.9002    0.0000 </r>
       <r>   34.7689    0.0000 </r>
       <r>   36.1833    0.0000 </r>
       <r>   38.7803    0.0000 </r>
       <r>   39.7727    0.0000 </r>
       <r>   40.6721    0.0000 </r>
       <r>   41.7026    0.0000 </r>
       <r>   42.9560    0.0000 </r>
       <r>   45.4040    0.0000 </r>
      </set>
      <set comment="kpoint 23">
       <r>    4.0271    1.0000 </r>
       <r>    6.5198    1.0000 </r>
       <r>    7.2926    1.0000 </r>
       <r>    7.6816    1.0000 </r>
       <r>    8.2889    1.0000 </r>
       <r>    8.6237    1.0000 </r>
       <r>    8.8583    1.0000 </r>
       <r>    9.3896    1.0000 </r>
       <r>    9.4482    1.0000 </r>
       <r>    9.5379    1.0000 </r>
       <r>   10.4437    1.0000 </r>
       <r>   14.5652    0.0000 </r>
       <r>   19.8299    0.0000 </r>
       <r>   24.3545    0.0000 </r>
       <r>   29.8995    0.0000 </r>
       <r>   30.4271    0.0000 </r>
       <r>   32.9218    0.0000 </r>
       <r>   35.7366    0.0000 </r>
       <r>   36.8227    0.0000 </r>
       <r>   38.3658    0.0000 </r>
       <r>   40.2112    0.0000 </r>
       <r>   42.2718    0.0000 </r>
       <r>   42.5687    0.0000 </r>
       <r>   46.9610    0.0000 </r>
      </set>
      <set comment="kpoint 24">
       <r>    5.1317    1.0000 </r>
       <r>    6.4316    1.0000 </r>
       <r>    6.8415    1.0000 </r>
       <r>    7.6652    1.0000 </r>
       <r>    8.4523    1.0000 </r>
       <r>    8.4536    1.0000 </r>
       <r>    8.9062    1.0000 </r>
       <r>    9.9065    1.0000 </r>
       <r>    9.9879    1.0000 </r>
       <r>   10.0706    1.0000 </r>
       <r>   10.4873    1.0000 </r>
       <r>   15.9548    0.0000 </r>
       <r>   20.0851    0.0000 </r>
       <r>   21.7463    0.0000 </r>
       <r>   27.4156    0.0000 </r>
       <r>   28.1998    0.0000 </r>
       <r>   31.0191    0.0000 </r>
       <r>   34.8304    0.0000 </r>
       <r>   35.0214    0.0000 </r>
       <r>   37.0380    0.0000 </r>
       <r>   41.1173    0.0000 </r>
       <r>   41.6962    0.0000 </r>
       <r>   43.4365    0.0000 </r>
       <r>   47.5255    0.0000 </r>
      </set>
      <set comment="kpoint 25">
       <r>    5.7350    1.0000 </r>
       <r>    6.1892    1.0000 </r>
       <r>    6.7087    1.0000 </r>
       <r>    7.6830    1.0000 </r>
       <r>    8.3246    1.0000 </r>
       <r>    8.7387    1.0000 </r>
       <r>    9.1364    1.0000 </r>
       <r>   10.2822    1.0000 </r>
       <r>   10.3584    1.0000 </r>
       <r>   10.5374    1.0000 </r>
       <r>   11.2030    0.0000 </r>
       <r>   15.9561    0.0000 </r>
       <r>   19.2843    0.0000 </r>
       <r>   22.0773    0.0000 </r>
       <r>   25.2245    0.0000 </r>
       <r>   27.0794    0.0000 </r>
       <r>   28.4994    0.0000 </r>
       <r>   34.1897    0.0000 </r>
       <r>   34.3047    0.0000 </r>
       <r>   36.0818    0.0000 </r>
       <r>   41.2071    0.0000 </r>
       <r>   42.3649    0.0000 </r>
       <r>   44.1730    0.0000 </r>
       <r>   47.4200    0.0000 </r>
      </set>
      <set comment="kpoint 26">
       <r>    5.8577    1.0000 </r>
       <r>    6.0685    1.0000 </r>
       <r>    6.7049    1.0000 </r>
       <r>    7.7082    1.0000 </r>
       <r>    8.2786    1.0000 </r>
       <r>    8.8288    1.0000 </r>
       <r>    9.3167    1.0000 </r>
       <r>   10.3829    1.0000 </r>
       <r>   10.5043    1.0000 </r>
       <r>   10.5949    1.0000 </r>
       <r>   12.3774    0.0000 </r>
       <r>   14.5420    0.0000 </r>
       <r>   20.6408    0.0000 </r>
       <r>   21.0323    0.0000 </r>
       <r>   25.5227    0.0000 </r>
       <r>   26.6551    0.0000 </r>
       <r>   26.6839    0.0000 </r>
       <r>   33.9446    0.0000 </r>
       <r>   34.1454    0.0000 </r>
       <r>   35.7341    0.0000 </r>
       <r>   41.0544    0.0000 </r>
       <r>   43.0587    0.0000 </r>
       <r>   44.3701    0.0000 </r>
       <r>   47.1053    0.0000 </r>
      </set>
      <set comment="kpoint 27">
       <r>    2.7225    1.0000 </r>
       <r>    6.0823    1.0000 </r>
       <r>    7.9060    1.0000 </r>
       <r>    8.1884    1.0000 </r>
       <r>    8.5070    1.0000 </r>
       <r>    8.6184    1.0000 </r>
       <r>    8.7560    1.0000 </r>
       <r>    8.9385    1.0000 </r>
       <r>    9.1527    1.0000 </r>
       <r>    9.2533    1.0000 </r>
       <r>   10.3621    1.0000 </r>
       <r>   12.6834    0.0000 </r>
       <r>   19.1629    0.0000 </r>
       <r>   29.8015    0.0000 </r>
       <r>   30.7070    0.0000 </r>
       <r>   35.2126    0.0000 </r>
       <r>   35.3389    0.0000 </r>
       <r>   36.5555    0.0000 </r>
       <r>   38.0571    0.0000 </r>
       <r>   38.8296    0.0000 </r>
       <r>   41.9092    0.0000 </r>
       <r>   42.5577    0.0000 </r>
       <r>   43.8442    0.0000 </r>
       <r>   44.0751    0.0000 </r>
      </set>
      <set comment="kpoint 28">
       <r>    3.6291    1.0000 </r>
       <r>    6.4992    1.0000 </r>
       <r>    7.5315    1.0000 </r>
       <r>    7.6310    1.0000 </r>
       <r>    8.3612    1.0000 </r>
       <r>    8.5769    1.0000 </r>
       <r>    8.8688    1.0000 </r>
       <r>    9.1171    1.0000 </r>
       <r>    9.3609    1.0000 </r>
       <r>    9.5046    1.0000 </r>
       <r>   10.4093    1.0000 </r>
       <r>   14.0510    0.0000 </r>
       <r>   19.6166    0.0000 </r>
       <r>   26.2688    0.0000 </r>
       <r>   28.5663    0.0000 </r>
       <r>   32.3387    0.0000 </r>
       <r>   34.5041    0.0000 </r>
       <r>   35.4814    0.0000 </r>
       <r>   37.9943    0.0000 </r>
       <r>   38.6075    0.0000 </r>
       <r>   39.7602    0.0000 </r>
       <r>   41.8963    0.0000 </r>
       <r>   44.5688    0.0000 </r>
       <r>   45.4367    0.0000 </r>
      </set>
      <set comment="kpoint 29">
       <r>    4.7634    1.0000 </r>
       <r>    6.6325    1.0000 </r>
       <r>    6.9893    1.0000 </r>
       <r>    7.5512    1.0000 </r>
       <r>    8.2578    1.0000 </r>
       <r>    8.5547    1.0000 </r>
       <r>    8.8010    1.0000 </r>
       <r>    9.4718    1.0000 </r>
       <r>    9.8122    1.0000 </r>
       <r>   10.0467    1.0000 </r>
       <r>   10.4797    1.0000 </r>
       <r>   15.4944    0.0000 </r>
       <r>   20.3070    0.0000 </r>
       <r>   22.7982    0.0000 </r>
       <r>   26.9783    0.0000 </r>
       <r>   29.1422    0.0000 </r>
       <r>   32.9722    0.0000 </r>
       <r>   33.4979    0.0000 </r>
       <r>   36.9647    0.0000 </r>
       <r>   37.8889    0.0000 </r>
       <r>   39.5954    0.0000 </r>
       <r>   42.5110    0.0000 </r>
       <r>   45.2754    0.0000 </r>
       <r>   46.4601    0.0000 </r>
      </set>
      <set comment="kpoint 30">
       <r>    5.6599    1.0000 </r>
       <r>    6.4121    1.0000 </r>
       <r>    6.7390    1.0000 </r>
       <r>    7.5903    1.0000 </r>
       <r>    8.2931    1.0000 </r>
       <r>    8.6479    1.0000 </r>
       <r>    8.8494    1.0000 </r>
       <r>    9.9728    1.0000 </r>
       <r>   10.2555    1.0000 </r>
       <r>   10.3804    1.0000 </r>
       <r>   10.9954    0.9027 </r>
       <r>   16.5606    0.0000 </r>
       <r>   19.5064    0.0000 </r>
       <r>   21.9948    0.0000 </r>
       <r>   25.6175    0.0000 </r>
       <r>   26.4574    0.0000 </r>
       <r>   30.1945    0.0000 </r>
       <r>   32.5379    0.0000 </r>
       <r>   36.2169    0.0000 </r>
       <r>   36.6749    0.0000 </r>
       <r>   40.3669    0.0000 </r>
       <r>   43.2012    0.0000 </r>
       <r>   45.6205    0.0000 </r>
       <r>   47.5183    0.0000 </r>
      </set>
      <set comment="kpoint 31">
       <r>    5.9352    1.0000 </r>
       <r>    6.2113    1.0000 </r>
       <r>    6.7460    1.0000 </r>
       <r>    7.6525    1.0000 </r>
       <r>    8.2124    1.0000 </r>
       <r>    8.8492    1.0000 </r>
       <r>    9.0360    1.0000 </r>
       <r>   10.3345    1.0000 </r>
       <r>   10.4479    1.0000 </r>
       <r>   10.4886    1.0000 </r>
       <r>   12.2892    0.0000 </r>
       <r>   15.2827    0.0000 </r>
       <r>   20.0637    0.0000 </r>
       <r>   21.9008    0.0000 </r>
       <r>   24.8634    0.0000 </r>
       <r>   25.5331    0.0000 </r>
       <r>   27.6765    0.0000 </r>
       <r>   32.0489    0.0000 </r>
       <r>   35.9043    0.0000 </r>
       <r>   36.0003    0.0000 </r>
       <r>   40.7044    0.0000 </r>
       <r>   44.1790    0.0000 </r>
       <r>   45.4708    0.0000 </r>
       <r>   47.3025    0.0000 </r>
      </set>
      <set comment="kpoint 32">
       <r>    4.6331    1.0000 </r>
       <r>    6.8355    1.0000 </r>
       <r>    7.0919    1.0000 </r>
       <r>    7.3094    1.0000 </r>
       <r>    8.2686    1.0000 </r>
       <r>    8.4539    1.0000 </r>
       <r>    8.8275    1.0000 </r>
       <r>    9.2547    1.0000 </r>
       <r>    9.8216    1.0000 </r>
       <r>   10.0457    1.0000 </r>
       <r>   10.4743    1.0000 </r>
       <r>   15.3320    0.0000 </r>
       <r>   20.2999    0.0000 </r>
       <r>   24.4611    0.0000 </r>
       <r>   25.0491    0.0000 </r>
       <r>   30.7139    0.0000 </r>
       <r>   31.6519    0.0000 </r>
       <r>   35.1901    0.0000 </r>
       <r>   35.8777    0.0000 </r>
       <r>   39.2125    0.0000 </r>
       <r>   40.1580    0.0000 </r>
       <r>   42.3400    0.0000 </r>
       <r>   45.9427    0.0000 </r>
       <r>   46.1571    0.0000 </r>
      </set>
      <set comment="kpoint 33">
       <r>    5.6836    1.0000 </r>
       <r>    6.7267    1.0000 </r>
       <r>    6.8274    1.0000 </r>
       <r>    7.3029    1.0000 </r>
       <r>    8.1586    1.0000 </r>
       <r>    8.6129    1.0000 </r>
       <r>    8.6496    1.0000 </r>
       <r>    9.5563    1.0000 </r>
       <r>   10.2774    1.0000 </r>
       <r>   10.2841    1.0000 </r>
       <r>   11.0811    0.1295 </r>
       <r>   16.7228    0.0000 </r>
       <r>   20.7468    0.0000 </r>
       <r>   21.9610    0.0000 </r>
       <r>   23.5734    0.0000 </r>
       <r>   27.9862    0.0000 </r>
       <r>   30.1973    0.0000 </r>
       <r>   32.2493    0.0000 </r>
       <r>   34.7165    0.0000 </r>
       <r>   39.7334    0.0000 </r>
       <r>   41.1203    0.0000 </r>
       <r>   44.2256    0.0000 </r>
       <r>   45.9834    0.0000 </r>
       <r>   47.7176    0.0000 </r>
      </set>
      <set comment="kpoint 34">
       <r>    6.1766    1.0000 </r>
       <r>    6.5768    1.0000 </r>
       <r>    6.7539    1.0000 </r>
       <r>    7.4484    1.0000 </r>
       <r>    8.1278    1.0000 </r>
       <r>    8.5689    1.0000 </r>
       <r>    8.8571    1.0000 </r>
       <r>    9.9713    1.0000 </r>
       <r>   10.2975    1.0000 </r>
       <r>   10.4990    1.0000 </r>
       <r>   12.3115    0.0000 </r>
       <r>   16.8373    0.0000 </r>
       <r>   19.7062    0.0000 </r>
       <r>   22.4537    0.0000 </r>
       <r>   22.8794    0.0000 </r>
       <r>   25.7485    0.0000 </r>
       <r>   29.2889    0.0000 </r>
       <r>   29.5389    0.0000 </r>
       <r>   33.9964    0.0000 </r>
       <r>   39.4844    0.0000 </r>
       <r>   42.2558    0.0000 </r>
       <r>   44.8068    0.0000 </r>
       <r>   47.3540    0.0000 </r>
       <r>   47.9100    0.0000 </r>
      </set>
      <set comment="kpoint 35">
       <r>    6.1966    1.0000 </r>
       <r>    6.4803    1.0000 </r>
       <r>    6.8546    1.0000 </r>
       <r>    7.5347    1.0000 </r>
       <r>    8.0613    1.0000 </r>
       <r>    8.6384    1.0000 </r>
       <r>    8.9543    1.0000 </r>
       <r>   10.2737    1.0000 </r>
       <r>   10.2800    1.0000 </r>
       <r>   10.4743    1.0000 </r>
       <r>   13.6236    0.0000 </r>
       <r>   15.2230    0.0000 </r>
       <r>   21.1870    0.0000 </r>
       <r>   21.6000    0.0000 </r>
       <r>   22.4108    0.0000 </r>
       <r>   25.9944    0.0000 </r>
       <r>   27.4475    0.0000 </r>
       <r>   29.2688    0.0000 </r>
       <r>   33.7391    0.0000 </r>
       <r>   39.3593    0.0000 </r>
       <r>   42.8115    0.0000 </r>
       <r>   44.7883    0.0000 </r>
       <r>   47.3980    0.0000 </r>
       <r>   47.9657    0.0000 </r>
      </set>
      <set comment="kpoint 36">
       <r>    6.4767    1.0000 </r>
       <r>    6.5606    1.0000 </r>
       <r>    7.0181    1.0000 </r>
       <r>    7.0884    1.0000 </r>
       <r>    8.1058    1.0000 </r>
       <r>    8.4078    1.0000 </r>
       <r>    8.8198    1.0000 </r>
       <r>    9.7545    1.0000 </r>
       <r>   10.2468    1.0000 </r>
       <r>   10.5073    1.0000 </r>
       <r>   12.3506    0.0000 </r>
       <r>   17.9416    0.0000 </r>
       <r>   19.8949    0.0000 </r>
       <r>   20.7305    0.0000 </r>
       <r>   23.1665    0.0000 </r>
       <r>   27.2223    0.0000 </r>
       <r>   27.2350    0.0000 </r>
       <r>   31.1678    0.0000 </r>
       <r>   31.8914    0.0000 </r>
       <r>   42.0986    0.0000 </r>
       <r>   43.6085    0.0000 </r>
       <r>   44.6946    0.0000 </r>
       <r>   47.0530    0.0000 </r>
       <r>   47.8991    0.0000 </r>
      </set>
      <set comment="kpoint 37">
       <r>    6.4713    1.0000 </r>
       <r>    6.8211    1.0000 </r>
       <r>    6.9143    1.0000 </r>
       <r>    7.2916    1.0000 </r>
       <r>    8.0529    1.0000 </r>
       <r>    8.2797    1.0000 </r>
       <r>    9.0078    1.0000 </r>
       <r>   10.0444    1.0000 </r>
       <r>   10.2121    1.0000 </r>
       <r>   10.4352    1.0000 </r>
       <r>   14.1127    0.0000 </r>
       <r>   16.6974    0.0000 </r>
       <r>   19.1024    0.0000 </r>
       <r>   21.4989    0.0000 </r>
       <r>   23.3573    0.0000 </r>
       <r>   25.7397    0.0000 </r>
       <r>   27.1138    0.0000 </r>
       <r>   28.8140    0.0000 </r>
       <r>   31.1670    0.0000 </r>
       <r>   43.0187    0.0000 </r>
       <r>   44.6793    0.0000 </r>
       <r>   46.0170    0.0000 </r>
       <r>   47.3439    0.0000 </r>
       <r>   47.9021    0.0000 </r>
      </set>
      <set comment="kpoint 38">
       <r>    6.5719    1.0000 </r>
       <r>    6.9586    1.0000 </r>
       <r>    6.9586    1.0000 </r>
       <r>    7.2450    1.0000 </r>
       <r>    8.0865    1.0000 </r>
       <r>    8.0865    1.0000 </r>
       <r>    9.0926    1.0000 </r>
       <r>   10.1757    1.0000 </r>
       <r>   10.2138    1.0000 </r>
       <r>   10.2138    1.0000 </r>
       <r>   16.0071    0.0000 </r>
       <r>   16.7337    0.0000 </r>
       <r>   16.7337    0.0000 </r>
       <r>   22.9643    0.0000 </r>
       <r>   23.8402    0.0000 </r>
       <r>   23.8402    0.0000 </r>
       <r>   27.7350    0.0000 </r>
       <r>   29.0007    0.0000 </r>
       <r>   29.0007    0.0000 </r>
       <r>   44.6653    0.0000 </r>
       <r>   46.7143    0.0000 </r>
       <r>   46.7143    0.0000 </r>
       <r>   47.2660    0.0000 </r>
       <r>   47.2660    0.0000 </r>
      </set>
      <set comment="kpoint 39">
       <r>    2.4685    1.0000 </r>
       <r>    5.4797    1.0000 </r>
       <r>    8.2082    1.0000 </r>
       <r>    8.2675    1.0000 </r>
       <r>    8.2675    1.0000 </r>
       <r>    8.5599    1.0000 </r>
       <r>    8.5599    1.0000 </r>
       <r>    9.1938    1.0000 </r>
       <r>    9.4486    1.0000 </r>
       <r>    9.4486    1.0000 </r>
       <r>   10.2556    1.0000 </r>
       <r>   10.2556    1.0000 </r>
       <r>   21.0516    0.0000 </r>
       <r>   32.6292    0.0000 </r>
       <r>   34.0871    0.0000 </r>
       <r>   35.6456    0.0000 </r>
       <r>   37.1155    0.0000 </r>
       <r>   37.1155    0.0000 </r>
       <r>   38.0386    0.0000 </r>
       <r>   38.0386    0.0000 </r>
       <r>   41.2652    0.0000 </r>
       <r>   41.2652    0.0000 </r>
       <r>   43.0927    0.0000 </r>
       <r>   43.0927    0.0000 </r>
      </set>
      <set comment="kpoint 40">
       <r>    2.7110    1.0000 </r>
       <r>    5.6632    1.0000 </r>
       <r>    8.1347    1.0000 </r>
       <r>    8.2351    1.0000 </r>
       <r>    8.2800    1.0000 </r>
       <r>    8.3661    1.0000 </r>
       <r>    8.6609    1.0000 </r>
       <r>    8.9146    1.0000 </r>
       <r>    9.4121    1.0000 </r>
       <r>    9.4574    1.0000 </r>
       <r>   10.2722    1.0000 </r>
       <r>   10.8591    1.0000 </r>
       <r>   21.1906    0.0000 </r>
       <r>   31.9862    0.0000 </r>
       <r>   33.2043    0.0000 </r>
       <r>   34.3329    0.0000 </r>
       <r>   34.9516    0.0000 </r>
       <r>   36.1353    0.0000 </r>
       <r>   38.3862    0.0000 </r>
       <r>   39.3141    0.0000 </r>
       <r>   41.0985    0.0000 </r>
       <r>   42.1638    0.0000 </r>
       <r>   42.2799    0.0000 </r>
       <r>   44.5460    0.0000 </r>
      </set>
      <set comment="kpoint 41">
       <r>    3.4003    1.0000 </r>
       <r>    6.1335    1.0000 </r>
       <r>    7.6418    1.0000 </r>
       <r>    7.9115    1.0000 </r>
       <r>    8.1984    1.0000 </r>
       <r>    8.5930    1.0000 </r>
       <r>    8.7174    1.0000 </r>
       <r>    8.9401    1.0000 </r>
       <r>    9.3815    1.0000 </r>
       <r>    9.5214    1.0000 </r>
       <r>   10.3064    1.0000 </r>
       <r>   11.8726    0.0000 </r>
       <r>   21.6207    0.0000 </r>
       <r>   28.4914    0.0000 </r>
       <r>   31.9319    0.0000 </r>
       <r>   32.5891    0.0000 </r>
       <r>   33.8509    0.0000 </r>
       <r>   34.5592    0.0000 </r>
       <r>   37.4328    0.0000 </r>
       <r>   37.9249    0.0000 </r>
       <r>   41.8066    0.0000 </r>
       <r>   43.3728    0.0000 </r>
       <r>   43.4213    0.0000 </r>
       <r>   45.6896    0.0000 </r>
      </set>
      <set comment="kpoint 42">
       <r>    4.3862    1.0000 </r>
       <r>    6.5352    1.0000 </r>
       <r>    7.1070    1.0000 </r>
       <r>    7.7582    1.0000 </r>
       <r>    8.1163    1.0000 </r>
       <r>    8.6941    1.0000 </r>
       <r>    8.7876    1.0000 </r>
       <r>    9.3528    1.0000 </r>
       <r>    9.5784    1.0000 </r>
       <r>    9.6815    1.0000 </r>
       <r>   10.3422    1.0000 </r>
       <r>   12.9653    0.0000 </r>
       <r>   22.3078    0.0000 </r>
       <r>   24.8002    0.0000 </r>
       <r>   28.9506    0.0000 </r>
       <r>   30.5306    0.0000 </r>
       <r>   33.3877    0.0000 </r>
       <r>   34.2901    0.0000 </r>
       <r>   36.3499    0.0000 </r>
       <r>   36.5816    0.0000 </r>
       <r>   39.6927    0.0000 </r>
       <r>   43.8131    0.0000 </r>
       <r>   44.4091    0.0000 </r>
       <r>   47.2822    0.0000 </r>
      </set>
      <set comment="kpoint 43">
       <r>    5.2833    1.0000 </r>
       <r>    6.4219    1.0000 </r>
       <r>    6.8948    1.0000 </r>
       <r>    7.5727    1.0000 </r>
       <r>    8.4427    1.0000 </r>
       <r>    8.6168    1.0000 </r>
       <r>    9.2735    1.0000 </r>
       <r>    9.7965    1.0000 </r>
       <r>    9.9711    1.0000 </r>
       <r>   10.0165    1.0000 </r>
       <r>   10.3966    1.0000 </r>
       <r>   14.0825    0.0000 </r>
       <r>   21.1899    0.0000 </r>
       <r>   23.3369    0.0000 </r>
       <r>   26.1587    0.0000 </r>
       <r>   28.8934    0.0000 </r>
       <r>   32.2443    0.0000 </r>
       <r>   34.1756    0.0000 </r>
       <r>   35.0101    0.0000 </r>
       <r>   35.4343    0.0000 </r>
       <r>   38.8588    0.0000 </r>
       <r>   43.9244    0.0000 </r>
       <r>   44.6379    0.0000 </r>
       <r>   47.2343    0.0000 </r>
      </set>
      <set comment="kpoint 44">
       <r>    5.6409    1.0000 </r>
       <r>    6.2070    1.0000 </r>
       <r>    6.9715    1.0000 </r>
       <r>    7.3363    1.0000 </r>
       <r>    8.5271    1.0000 </r>
       <r>    8.8062    1.0000 </r>
       <r>    9.9716    1.0000 </r>
       <r>   10.0520    1.0000 </r>
       <r>   10.3389    1.0000 </r>
       <r>   10.5093    1.0000 </r>
       <r>   10.9223    0.9996 </r>
       <r>   14.7556    0.0000 </r>
       <r>   19.1117    0.0000 </r>
       <r>   21.9575    0.0000 </r>
       <r>   26.1581    0.0000 </r>
       <r>   27.8169    0.0000 </r>
       <r>   30.3286    0.0000 </r>
       <r>   33.8197    0.0000 </r>
       <r>   34.0979    0.0000 </r>
       <r>   34.5414    0.0000 </r>
       <r>   39.9099    0.0000 </r>
       <r>   43.4766    0.0000 </r>
       <r>   44.0591    0.0000 </r>
       <r>   46.3105    0.0000 </r>
      </set>
      <set comment="kpoint 45">
       <r>    5.6807    1.0000 </r>
       <r>    6.1243    1.0000 </r>
       <r>    7.1160    1.0000 </r>
       <r>    7.1671    1.0000 </r>
       <r>    8.4921    1.0000 </r>
       <r>    8.9234    1.0000 </r>
       <r>   10.1095    1.0000 </r>
       <r>   10.1823    1.0000 </r>
       <r>   10.4939    1.0000 </r>
       <r>   10.5810    1.0000 </r>
       <r>   12.0489    0.0000 </r>
       <r>   14.1973    0.0000 </r>
       <r>   19.7039    0.0000 </r>
       <r>   19.8513    0.0000 </r>
       <r>   27.4378    0.0000 </r>
       <r>   27.6297    0.0000 </r>
       <r>   28.4992    0.0000 </r>
       <r>   33.6512    0.0000 </r>
       <r>   33.7726    0.0000 </r>
       <r>   34.3114    0.0000 </r>
       <r>   41.0863    0.0000 </r>
       <r>   42.7744    0.0000 </r>
       <r>   43.3202    0.0000 </r>
       <r>   46.1692    0.0000 </r>
      </set>
      <set comment="kpoint 46">
       <r>    3.1784    1.0000 </r>
       <r>    5.9977    1.0000 </r>
       <r>    7.8126    1.0000 </r>
       <r>    7.9594    1.0000 </r>
       <r>    8.2249    1.0000 </r>
       <r>    8.5488    1.0000 </r>
       <r>    8.7171    1.0000 </r>
       <r>    8.8497    1.0000 </r>
       <r>    9.4390    1.0000 </r>
       <r>    9.4543    1.0000 </r>
       <r>   10.2951    1.0000 </r>
       <r>   11.5931    0.0000 </r>
       <r>   21.4776    0.0000 </r>
       <r>   30.1178    0.0000 </r>
       <r>   31.1131    0.0000 </r>
       <r>   33.2493    0.0000 </r>
       <r>   33.9788    0.0000 </r>
       <r>   36.0064    0.0000 </r>
       <r>   37.1448    0.0000 </r>
       <r>   38.5583    0.0000 </r>
       <r>   42.0627    0.0000 </r>
       <r>   42.6025    0.0000 </r>
       <r>   44.0156    0.0000 </r>
       <r>   44.8088    0.0000 </r>
      </set>
      <set comment="kpoint 47">
       <r>    4.0313    1.0000 </r>
       <r>    6.5051    1.0000 </r>
       <r>    7.2592    1.0000 </r>
       <r>    7.7098    1.0000 </r>
       <r>    8.1626    1.0000 </r>
       <r>    8.5871    1.0000 </r>
       <r>    8.7252    1.0000 </r>
       <r>    9.1710    1.0000 </r>
       <r>    9.5546    1.0000 </r>
       <r>    9.6166    1.0000 </r>
       <r>   10.3350    1.0000 </r>
       <r>   12.5911    0.0000 </r>
       <r>   22.0693    0.0000 </r>
       <r>   26.6887    0.0000 </r>
       <r>   28.9858    0.0000 </r>
       <r>   30.9261    0.0000 </r>
       <r>   32.9605    0.0000 </r>
       <r>   35.3335    0.0000 </r>
       <r>   36.2933    0.0000 </r>
       <r>   39.3819    0.0000 </r>
       <r>   40.3634    0.0000 </r>
       <r>   41.7535    0.0000 </r>
       <r>   45.2188    0.0000 </r>
       <r>   45.9239    0.0000 </r>
      </set>
      <set comment="kpoint 48">
       <r>    5.0278    1.0000 </r>
       <r>    6.6482    1.0000 </r>
       <r>    6.9172    1.0000 </r>
       <r>    7.6418    1.0000 </r>
       <r>    8.1369    1.0000 </r>
       <r>    8.6819    1.0000 </r>
       <r>    8.7668    1.0000 </r>
       <r>    9.5218    1.0000 </r>
       <r>    9.8941    1.0000 </r>
       <r>    9.9665    1.0000 </r>
       <r>   10.4587    1.0000 </r>
       <r>   13.7094    0.0000 </r>
       <r>   22.5408    0.0000 </r>
       <r>   23.5119    0.0000 </r>
       <r>   27.1686    0.0000 </r>
       <r>   28.0248    0.0000 </r>
       <r>   32.0042    0.0000 </r>
       <r>   34.2992    0.0000 </r>
       <r>   36.1386    0.0000 </r>
       <r>   38.2714    0.0000 </r>
       <r>   38.9184    0.0000 </r>
       <r>   41.9500    0.0000 </r>
       <r>   46.7863    0.0000 </r>
       <r>   47.2975    0.0000 </r>
      </set>
      <set comment="kpoint 49">
       <r>    5.6640    1.0000 </r>
       <r>    6.4167    1.0000 </r>
       <r>    6.8889    1.0000 </r>
       <r>    7.4809    1.0000 </r>
       <r>    8.3336    1.0000 </r>
       <r>    8.7573    1.0000 </r>
       <r>    9.2482    1.0000 </r>
       <r>    9.8640    1.0000 </r>
       <r>   10.1425    1.0000 </r>
       <r>   10.3713    1.0000 </r>
       <r>   10.9956    0.9017 </r>
       <r>   14.8086    0.0000 </r>
       <r>   19.9993    0.0000 </r>
       <r>   23.1647    0.0000 </r>
       <r>   25.6050    0.0000 </r>
       <r>   26.6801    0.0000 </r>
       <r>   31.1556    0.0000 </r>
       <r>   32.0516    0.0000 </r>
       <r>   36.2654    0.0000 </r>
       <r>   37.0791    0.0000 </r>
       <r>   38.8656    0.0000 </r>
       <r>   42.0864    0.0000 </r>
       <r>   46.6791    0.0000 </r>
       <r>   47.2400    0.0000 </r>
      </set>
      <set comment="kpoint 50">
       <r>    5.7829    1.0000 </r>
       <r>    6.2676    1.0000 </r>
       <r>    7.0749    1.0000 </r>
       <r>    7.2757    1.0000 </r>
       <r>    8.2806    1.0000 </r>
       <r>    9.0041    1.0000 </r>
       <r>    9.6221    1.0000 </r>
       <r>   10.0437    1.0000 </r>
       <r>   10.4020    1.0000 </r>
       <r>   10.5579    1.0000 </r>
       <r>   12.2215    0.0000 </r>
       <r>   14.7780    0.0000 </r>
       <r>   19.1902    0.0000 </r>
       <r>   20.9408    0.0000 </r>
       <r>   25.7280    0.0000 </r>
       <r>   27.2112    0.0000 </r>
       <r>   29.6515    0.0000 </r>
       <r>   30.7052    0.0000 </r>
       <r>   36.0690    0.0000 </r>
       <r>   36.4396    0.0000 </r>
       <r>   40.0729    0.0000 </r>
       <r>   41.5293    0.0000 </r>
       <r>   45.2543    0.0000 </r>
       <r>   47.1674    0.0000 </r>
      </set>
      <set comment="kpoint 51">
       <r>    4.9399    1.0000 </r>
       <r>    6.8402    1.0000 </r>
       <r>    7.0076    1.0000 </r>
       <r>    7.4092    1.0000 </r>
       <r>    8.1791    1.0000 </r>
       <r>    8.4305    1.0000 </r>
       <r>    8.7134    1.0000 </r>
       <r>    9.4027    1.0000 </r>
       <r>    9.8786    1.0000 </r>
       <r>    9.9848    1.0000 </r>
       <r>   10.5073    1.0000 </r>
       <r>   13.5990    0.0000 </r>
       <r>   22.8196    0.0000 </r>
       <r>   24.8911    0.0000 </r>
       <r>   25.5613    0.0000 </r>
       <r>   29.2893    0.0000 </r>
       <r>   30.0627    0.0000 </r>
       <r>   35.5078    0.0000 </r>
       <r>   37.2333    0.0000 </r>
       <r>   38.3691    0.0000 </r>
       <r>   40.2866    0.0000 </r>
       <r>   42.1681    0.0000 </r>
       <r>   44.9096    0.0000 </r>
       <r>   45.4527    0.0000 </r>
      </set>
      <set comment="kpoint 52">
       <r>    5.7967    1.0000 </r>
       <r>    6.6219    1.0000 </r>
       <r>    6.9786    1.0000 </r>
       <r>    7.4714    1.0000 </r>
       <r>    8.1583    1.0000 </r>
       <r>    8.5003    1.0000 </r>
       <r>    8.7098    1.0000 </r>
       <r>    9.6313    1.0000 </r>
       <r>   10.0207    1.0000 </r>
       <r>   10.4060    1.0000 </r>
       <r>   11.1965    0.0000 </r>
       <r>   14.8495    0.0000 </r>
       <r>   21.6429    0.0000 </r>
       <r>   23.6816    0.0000 </r>
       <r>   24.1628    0.0000 </r>
       <r>   26.7503    0.0000 </r>
       <r>   28.6716    0.0000 </r>
       <r>   34.1148    0.0000 </r>
       <r>   36.3810    0.0000 </r>
       <r>   38.2783    0.0000 </r>
       <r>   40.4704    0.0000 </r>
       <r>   43.1529    0.0000 </r>
       <r>   45.5997    0.0000 </r>
       <r>   46.8944    0.0000 </r>
      </set>
      <set comment="kpoint 53">
       <r>    6.0756    1.0000 </r>
       <r>    6.6409    1.0000 </r>
       <r>    6.9193    1.0000 </r>
       <r>    7.4605    1.0000 </r>
       <r>    8.0554    1.0000 </r>
       <r>    8.7213    1.0000 </r>
[...]
       </set>
       <set comment="band 12">
        <r>  0.0051  0.0475  0.0442  0.1382  0.0577  0.0156  0.0082  0.0178  0.1370 </r>
        <r>  0.0040  0.0375  0.0560  0.1092  0.0456  0.0197  0.0065  0.0226  0.1082 </r>
       </set>
       <set comment="band 13">
        <r>  0.2927  0.0446  0.0027  0.0278  0.1621  0.0048  0.0143  0.0143  0.0567 </r>
        <r>  0.0274  0.0042  0.0293  0.0026  0.0152  0.0513  0.0013  0.1521  0.0053 </r>
       </set>
       <set comment="band 14">
        <r>  0.0274  0.0042  0.0293  0.0026  0.0152  0.0513  0.0013  0.1521  0.0053 </r>
        <r>  0.2927  0.0446  0.0027  0.0278  0.1621  0.0048  0.0143  0.0143  0.0567 </r>
       </set>
       <set comment="band 15">
        <r>  0.1530  0.2119  0.0014  0.0706  0.0736  0.0092  0.0399  0.0036  0.0245 </r>
        <r>  0.0118  0.0163  0.0184  0.0054  0.0057  0.1191  0.0031  0.0474  0.0019 </r>
       </set>
       <set comment="band 16">
        <r>  0.0118  0.0163  0.0184  0.0054  0.0057  0.1191  0.0031  0.0474  0.0019 </r>
        <r>  0.1530  0.2119  0.0014  0.0706  0.0736  0.0092  0.0399  0.0036  0.0245 </r>
       </set>
       <set comment="band 17">
        <r>  0.0031  0.0324  0.0046  0.0911  0.0097  0.0007  0.0072  0.0013  0.0154 </r>
        <r>  0.0001  0.0006  0.2556  0.0016  0.0002  0.0372  0.0001  0.0755  0.0003 </r>
       </set>
       <set comment="band 18">
        <r>  0.0001  0.0006  0.2556  0.0016  0.0002  0.0372  0.0001  0.0755  0.0003 </r>
        <r>  0.0031  0.0324  0.0046  0.0911  0.0097  0.0007  0.0072  0.0013  0.0154 </r>
       </set>
       <set comment="band 19">
        <r>  0.0466  0.0014  0.0007  0.0019  0.1485  0.0020  0.2986  0.0048  0.0495 </r>
        <r>  0.0009  0.0000  0.0322  0.0000  0.0030  0.0975  0.0061  0.2357  0.0010 </r>
       </set>
       <set comment="band 20">
        <r>  0.0009  0.0000  0.0322  0.0000  0.0030  0.0975  0.0061  0.2357  0.0010 </r>
        <r>  0.0466  0.0014  0.0007  0.0019  0.1485  0.0020  0.2986  0.0048  0.0495 </r>
       </set>
       <set comment="band 21">
        <r>  0.0210  0.1439  0.0187  0.0487  0.0077  0.0014  0.0423  0.0011  0.0035 </r>
        <r>  0.0022  0.0153  0.1761  0.0052  0.0008  0.0129  0.0045  0.0103  0.0004 </r>
       </set>
       <set comment="band 22">
        <r>  0.0022  0.0153  0.1761  0.0052  0.0008  0.0129  0.0045  0.0103  0.0004 </r>
        <r>  0.0210  0.1439  0.0187  0.0487  0.0077  0.0014  0.0423  0.0011  0.0035 </r>
       </set>
       <set comment="band 23">
        <r>  0.1210  0.0038  0.0015  0.0014  0.0663  0.1602  0.0305  0.0623  0.0221 </r>
        <r>  0.1647  0.0052  0.0011  0.0019  0.0902  0.1177  0.0416  0.0458  0.0301 </r>
       </set>
       <set comment="band 24">
        <r>  0.1647  0.0052  0.0011  0.0019  0.0902  0.1177  0.0416  0.0458  0.0301 </r>
        <r>  0.1210  0.0038  0.0015  0.0014  0.0663  0.1602  0.0305  0.0623  0.0221 </r>
       </set>
      </set>
      <set comment="kpoint 93">
       <set comment="band 1">
        <r>  0.0806  0.0089  0.0072  0.0464  0.0353  0.0001  0.0380  0.1458  0.0435 </r>
        <r>  0.0352  0.0039  0.0166  0.0203  0.0154  0.0002  0.0166  0.3334  0.0190 </r>
       </set>
       <set comment="band 2">
        <r>  0.0352  0.0039  0.0166  0.0203  0.0154  0.0002  0.0166  0.3334  0.0190 </r>
        <r>  0.0806  0.0089  0.0072  0.0464  0.0353  0.0001  0.0380  0.1458  0.0435 </r>
       </set>
       <set comment="band 3">
        <r>  0.0010  0.0023  0.0345  0.0005  0.0235  0.0771  0.0004  0.0008  0.0014 </r>
        <r>  0.0256  0.0616  0.0013  0.0126  0.6302  0.0029  0.0102  0.0000  0.0366 </r>
       </set>
       <set comment="band 4">
        <r>  0.0256  0.0616  0.0013  0.0126  0.6302  0.0029  0.0102  0.0000  0.0366 </r>
        <r>  0.0010  0.0023  0.0345  0.0005  0.0235  0.0771  0.0004  0.0008  0.0014 </r>
       </set>
       <set comment="band 5">
        <r>  0.0004  0.0000  0.0095  0.0217  0.0009  0.1993  0.0680  0.0194  0.0349 </r>
        <r>  0.0017  0.0000  0.0023  0.0882  0.0035  0.0492  0.2759  0.0048  0.1417 </r>
       </set>
       <set comment="band 6">
        <r>  0.0017  0.0000  0.0023  0.0882  0.0035  0.0492  0.2759  0.0048  0.1417 </r>
        <r>  0.0004  0.0000  0.0095  0.0217  0.0009  0.1993  0.0680  0.0194  0.0349 </r>
       </set>
       <set comment="band 7">
        <r>  0.0100  0.0000  0.0000  0.0015  0.1231  0.0058  0.0407  0.0010  0.2020 </r>
        <r>  0.0001  0.0000  0.0000  0.0000  0.0015  0.4896  0.0005  0.0881  0.0024 </r>
       </set>
       <set comment="band 8">
        <r>  0.0001  0.0000  0.0000  0.0000  0.0015  0.4896  0.0005  0.0881  0.0024 </r>
        <r>  0.0100  0.0000  0.0000  0.0015  0.1231  0.0058  0.0407  0.0010  0.2020 </r>
       </set>
       <set comment="band 9">
        <r>  0.0000  0.0000  0.0025  0.0011  0.0029  0.0623  0.1592  0.1447  0.0514 </r>
        <r>  0.0000  0.0000  0.0011  0.0024  0.0063  0.0284  0.3489  0.0660  0.1126 </r>
       </set>
       <set comment="band 10">
        <r>  0.0000  0.0000  0.0011  0.0024  0.0063  0.0284  0.3489  0.0660  0.1126 </r>
        <r>  0.0000  0.0000  0.0025  0.0011  0.0029  0.0623  0.1592  0.1447  0.0514 </r>
       </set>
       <set comment="band 11">
        <r>  0.0636  0.0030  0.0173  0.1569  0.0152  0.0016  0.0010  0.0311  0.2932 </r>
        <r>  0.0173  0.0008  0.0636  0.0428  0.0042  0.0059  0.0003  0.1140  0.0799 </r>
       </set>
       <set comment="band 12">
        <r>  0.0173  0.0008  0.0636  0.0428  0.0042  0.0059  0.0003  0.1140  0.0799 </r>
        <r>  0.0636  0.0030  0.0173  0.1569  0.0152  0.0016  0.0010  0.0311  0.2932 </r>
       </set>
       <set comment="band 13">
        <r>  0.0001  0.1516  0.0358  0.0039  0.1614  0.0243  0.0012  0.0376  0.0007 </r>
        <r>  0.0001  0.1685  0.0322  0.0044  0.1793  0.0219  0.0013  0.0338  0.0007 </r>
       </set>
       <set comment="band 14">
        <r>  0.0001  0.1685  0.0322  0.0044  0.1793  0.0219  0.0013  0.0338  0.0007 </r>
        <r>  0.0001  0.1516  0.0358  0.0039  0.1614  0.0243  0.0012  0.0376  0.0007 </r>
       </set>
       <set comment="band 15">
        <r>  0.3715  0.0018  0.0001  0.1668  0.0015  0.0019  0.0656  0.0014  0.0002 </r>
        <r>  0.0053  0.0000  0.0045  0.0024  0.0000  0.1305  0.0009  0.0965  0.0000 </r>
       </set>
       <set comment="band 16">
        <r>  0.0053  0.0000  0.0045  0.0024  0.0000  0.1305  0.0009  0.0965  0.0000 </r>
        <r>  0.3715  0.0018  0.0001  0.1668  0.0015  0.0019  0.0656  0.0014  0.0002 </r>
       </set>
       <set comment="band 17">
        <r>  0.0399  0.0000  0.0256  0.0662  0.0021  0.0032  0.0893  0.0100  0.0255 </r>
        <r>  0.0043  0.0000  0.2358  0.0072  0.0002  0.0297  0.0097  0.0920  0.0028 </r>
       </set>
       <set comment="band 18">
        <r>  0.0043  0.0000  0.2358  0.0072  0.0002  0.0297  0.0097  0.0920  0.0028 </r>
        <r>  0.0399  0.0000  0.0256  0.0662  0.0021  0.0032  0.0893  0.0100  0.0255 </r>
       </set>
       <set comment="band 19">
        <r>  0.0095  0.0576  0.0020  0.0163  0.1211  0.0030  0.0704  0.0023  0.0165 </r>
        <r>  0.0002  0.0014  0.0816  0.0004  0.0029  0.1246  0.0017  0.0957  0.0004 </r>
       </set>
       <set comment="band 20">
        <r>  0.0002  0.0014  0.0816  0.0004  0.0029  0.1246  0.0017  0.0957  0.0004 </r>
        <r>  0.0095  0.0576  0.0020  0.0163  0.1211  0.0030  0.0704  0.0023  0.0165 </r>
       </set>
       <set comment="band 21">
        <r>  0.0314  0.0085  0.0001  0.0483  0.0490  0.0000  0.2730  0.0003  0.0395 </r>
        <r>  0.0000  0.0000  0.0822  0.0001  0.0001  0.0037  0.0003  0.2211  0.0000 </r>
       </set>
       <set comment="band 22">
        <r>  0.0000  0.0000  0.0822  0.0001  0.0001  0.0037  0.0003  0.2211  0.0000 </r>
        <r>  0.0314  0.0085  0.0001  0.0483  0.0490  0.0000  0.2730  0.0003  0.0395 </r>
       </set>
       <set comment="band 23">
        <r>  0.0003  0.0492  0.0529  0.0002  0.0361  0.0259  0.0000  0.0109  0.0000 </r>
        <r>  0.0013  0.2238  0.0116  0.0011  0.1644  0.0057  0.0001  0.0024  0.0000 </r>
       </set>
       <set comment="band 24">
        <r>  0.0013  0.2238  0.0116  0.0011  0.1644  0.0057  0.0001  0.0024  0.0000 </r>
        <r>  0.0003  0.0492  0.0529  0.0002  0.0361  0.0259  0.0000  0.0109  0.0000 </r>
       </set>
      </set>
      <set comment="kpoint 94">
       <set comment="band 1">
        <r>  0.0598  0.0255  0.0004  0.0351  0.1051  0.0041  0.0669  0.0446  0.0557 </r>
        <r>  0.0065  0.0028  0.0033  0.0038  0.0115  0.0378  0.0073  0.4086  0.0061 </r>
       </set>
       <set comment="band 2">
        <r>  0.0065  0.0028  0.0033  0.0038  0.0115  0.0378  0.0073  0.4086  0.0061 </r>
        <r>  0.0598  0.0255  0.0004  0.0351  0.1051  0.0041  0.0669  0.0446  0.0557 </r>
       </set>
       <set comment="band 3">
        <r>  0.0054  0.0163  0.0053  0.0010  0.0997  0.1747  0.0569  0.0512  0.0060 </r>
        <r>  0.0117  0.0355  0.0024  0.0021  0.2168  0.0803  0.1238  0.0235  0.0131 </r>
       </set>
       <set comment="band 4">
        <r>  0.0117  0.0355  0.0024  0.0021  0.2168  0.0803  0.1238  0.0235  0.0131 </r>
        <r>  0.0054  0.0163  0.0053  0.0010  0.0997  0.1747  0.0569  0.0512  0.0060 </r>
       </set>
       <set comment="band 5">
        <r>  0.0025  0.0081  0.0303  0.0392  0.0619  0.1153  0.0167  0.0051  0.0878 </r>
        <r>  0.0054  0.0177  0.0139  0.0854  0.1349  0.0529  0.0365  0.0024  0.1913 </r>
       </set>
       <set comment="band 6">
        <r>  0.0054  0.0177  0.0139  0.0854  0.1349  0.0529  0.0365  0.0024  0.1913 </r>
        <r>  0.0025  0.0081  0.0303  0.0392  0.0619  0.1153  0.0167  0.0051  0.0878 </r>
       </set>
       <set comment="band 7">
        <r>  0.0002  0.0002  0.0014  0.0009  0.0120  0.2990  0.0015  0.1210  0.0221 </r>
        <r>  0.0032  0.0027  0.0001  0.0116  0.1535  0.0233  0.0198  0.0094  0.2840 </r>
       </set>
       <set comment="band 8">
        <r>  0.0032  0.0027  0.0001  0.0116  0.1535  0.0233  0.0198  0.0094  0.2840 </r>
        <r>  0.0002  0.0002  0.0014  0.0009  0.0120  0.2990  0.0015  0.1210  0.0221 </r>
       </set>
       <set comment="band 9">
        <r>  0.0012  0.0002  0.0002  0.0016  0.0085  0.0169  0.5332  0.0292  0.0414 </r>
        <r>  0.0002  0.0000  0.0011  0.0003  0.0016  0.0889  0.1014  0.1537  0.0079 </r>
       </set>
       <set comment="band 10">
        <r>  0.0002  0.0000  0.0011  0.0003  0.0016  0.0889  0.1014  0.1537  0.0079 </r>
        <r>  0.0012  0.0002  0.0002  0.0016  0.0085  0.0169  0.5332  0.0292  0.0414 </r>
       </set>
       <set comment="band 11">
        <r>  0.0249  0.0218  0.0311  0.2019  0.0300  0.0030  0.0012  0.0178  0.2293 </r>
        <r>  0.0093  0.0082  0.0828  0.0758  0.0113  0.0079  0.0005  0.0474  0.0861 </r>
       </set>
       <set comment="band 12">
        <r>  0.0093  0.0082  0.0828  0.0758  0.0113  0.0079  0.0005  0.0474  0.0861 </r>
        <r>  0.0249  0.0218  0.0311  0.2019  0.0300  0.0030  0.0012  0.0178  0.2293 </r>
       </set>
       <set comment="band 13">
        <r>  0.1011  0.1855  0.0089  0.0137  0.2059  0.0121  0.0055  0.0234  0.0137 </r>
        <r>  0.0264  0.0484  0.0341  0.0036  0.0537  0.0462  0.0014  0.0898  0.0036 </r>
       </set>
       <set comment="band 14">
        <r>  0.0264  0.0484  0.0341  0.0036  0.0537  0.0462  0.0014  0.0898  0.0036 </r>
        <r>  0.1011  0.1855  0.0089  0.0137  0.2059  0.0121  0.0055  0.0234  0.0137 </r>
       </set>
       <set comment="band 15">
        <r>  0.1790  0.0421  0.0063  0.0348  0.0206  0.0724  0.0230  0.0418  0.0029 </r>
        <r>  0.1837  0.0432  0.0061  0.0358  0.0211  0.0706  0.0236  0.0407  0.0029 </r>
       </set>
       <set comment="band 16">
        <r>  0.1837  0.0432  0.0061  0.0358  0.0211  0.0706  0.0236  0.0407  0.0029 </r>
        <r>  0.1790  0.0421  0.0063  0.0348  0.0206  0.0724  0.0230  0.0418  0.0029 </r>
       </set>
       <set comment="band 17">
        <r>  0.0102  0.0076  0.0182  0.0932  0.0037  0.0036  0.0252  0.0075  0.0368 </r>
        <r>  0.0008  0.0006  0.2356  0.0072  0.0003  0.0470  0.0019  0.0970  0.0028 </r>
       </set>
       <set comment="band 18">
        <r>  0.0008  0.0006  0.2356  0.0072  0.0003  0.0470  0.0019  0.0970  0.0028 </r>
        <r>  0.0102  0.0076  0.0182  0.0932  0.0037  0.0036  0.0252  0.0075  0.0368 </r>
       </set>
       <set comment="band 19">
        <r>  0.0187  0.0621  0.0129  0.0015  0.1011  0.0100  0.0658  0.0148  0.0102 </r>
        <r>  0.0018  0.0059  0.1344  0.0001  0.0097  0.1043  0.0063  0.1545  0.0010 </r>
       </set>
       <set comment="band 20">
        <r>  0.0018  0.0059  0.1344  0.0001  0.0097  0.1043  0.0063  0.1545  0.0010 </r>
        <r>  0.0187  0.0621  0.0129  0.0015  0.1011  0.0100  0.0658  0.0148  0.0102 </r>
       </set>
       <set comment="band 21">
        <r>  0.0519  0.0350  0.0008  0.0286  0.0030  0.0011  0.3447  0.0017  0.0071 </r>
        <r>  0.0009  0.0006  0.0465  0.0005  0.0001  0.0607  0.0061  0.0932  0.0001 </r>
       </set>
       <set comment="band 22">
        <r>  0.0009  0.0006  0.0465  0.0005  0.0001  0.0607  0.0061  0.0932  0.0001 </r>
        <r>  0.0519  0.0350  0.0008  0.0286  0.0030  0.0011  0.3447  0.0017  0.0071 </r>
       </set>
       <set comment="band 23">
        <r>  0.0069  0.0053  0.0352  0.0003  0.0088  0.1185  0.0002  0.0495  0.0014 </r>
        <r>  0.1882  0.1458  0.0013  0.0086  0.2394  0.0043  0.0049  0.0018  0.0381 </r>
       </set>
       <set comment="band 24">
        <r>  0.1882  0.1458  0.0013  0.0086  0.2394  0.0043  0.0049  0.0018  0.0381 </r>
        <r>  0.0069  0.0053  0.0352  0.0003  0.0088  0.1185  0.0002  0.0495  0.0014 </r>
       </set>
      </set>
      <set comment="kpoint 95">
       <set comment="band 1">
        <r>  0.0000  0.0190  0.0000  0.0190  0.0408  0.1543  0.0000  0.1544  0.0408 </r>
        <r>  0.0000  0.0504  0.0000  0.0504  0.1082  0.0582  0.0000  0.0582  0.1082 </r>
       </set>
       <set comment="band 2">
        <r>  0.0000  0.0504  0.0000  0.0504  0.1082  0.0582  0.0000  0.0582  0.1082 </r>
        <r>  0.0000  0.0190  0.0000  0.0190  0.0408  0.1543  0.0000  0.1544  0.0408 </r>
       </set>
       <set comment="band 3">
        <r>  0.0662  0.0000  0.0000  0.0000  0.0000  0.0254  0.2471  0.0254  0.0000 </r>
        <r>  0.0062  0.0000  0.0000  0.0000  0.0000  0.2722  0.0230  0.2722  0.0000 </r>
       </set>
       <set comment="band 4">
        <r>  0.0062  0.0000  0.0000  0.0000  0.0000  0.2722  0.0230  0.2722  0.0000 </r>
        <r>  0.0662  0.0000  0.0000  0.0000  0.0000  0.0254  0.2471  0.0254  0.0000 </r>
       </set>
       <set comment="band 5">
        <r>  0.0000  0.0195  0.0379  0.0195  0.0939  0.0000  0.0000  0.0000  0.0939 </r>
        <r>  0.0000  0.0551  0.0134  0.0551  0.2654  0.0000  0.0000  0.0000  0.2654 </r>
       </set>
       <set comment="band 6">
        <r>  0.0000  0.0551  0.0134  0.0551  0.2654  0.0000  0.0000  0.0000  0.2654 </r>
        <r>  0.0000  0.0195  0.0379  0.0195  0.0939  0.0000  0.0000  0.0000  0.0939 </r>
       </set>
       <set comment="band 7">
        <r>  0.0000  0.0019  0.0000  0.0019  0.1152  0.1223  0.0000  0.1223  0.1152 </r>
        <r>  0.0000  0.0024  0.0000  0.0024  0.1446  0.0974  0.0000  0.0974  0.1446 </r>
       </set>
       <set comment="band 8">
        <r>  0.0000  0.0024  0.0000  0.0024  0.1446  0.0974  0.0000  0.0974  0.1446 </r>
        <r>  0.0000  0.0019  0.0000  0.0019  0.1152  0.1223  0.0000  0.1223  0.1152 </r>
       </set>
       <set comment="band 9">
        <r>  0.0006  0.0000  0.0000  0.0000  0.0000  0.1207  0.1074  0.1207  0.0000 </r>
        <r>  0.0034  0.0000  0.0000  0.0000  0.0000  0.0220  0.5891  0.0220  0.0000 </r>
       </set>
       <set comment="band 10">
        <r>  0.0034  0.0000  0.0000  0.0000  0.0000  0.0220  0.5891  0.0220  0.0000 </r>
        <r>  0.0006  0.0000  0.0000  0.0000  0.0000  0.1207  0.1074  0.1207  0.0000 </r>
       </set>
       <set comment="band 11">
        <r>  0.0000  0.0330  0.1438  0.0330  0.0354  0.0000  0.0000  0.0000  0.0354 </r>
        <r>  0.0000  0.1400  0.0338  0.1400  0.1505  0.0000  0.0000  0.0000  0.1505 </r>
       </set>
       <set comment="band 12">
        <r>  0.0000  0.1400  0.0338  0.1400  0.1505  0.0000  0.0000  0.0000  0.1505 </r>
        <r>  0.0000  0.0330  0.1438  0.0330  0.0354  0.0000  0.0000  0.0000  0.0354 </r>
       </set>
       <set comment="band 13">
        <r>  0.0000  0.0764  0.0000  0.0764  0.0589  0.0561  0.0000  0.0561  0.0589 </r>
        <r>  0.0000  0.1093  0.0000  0.1093  0.0842  0.0392  0.0000  0.0392  0.0842 </r>
       </set>
       <set comment="band 14">
        <r>  0.0000  0.1093  0.0000  0.1093  0.0842  0.0392  0.0000  0.0392  0.0842 </r>
        <r>  0.0000  0.0764  0.0000  0.0764  0.0589  0.0561  0.0000  0.0561  0.0589 </r>
       </set>
       <set comment="band 15">
        <r>  0.5134  0.0000  0.0000  0.0000  0.0000  0.0092  0.0458  0.0092  0.0000 </r>
        <r>  0.0363  0.0000  0.0000  0.0000  0.0000  0.1296  0.0032  0.1296  0.0000 </r>
       </set>
       <set comment="band 16">
        <r>  0.0363  0.0000  0.0000  0.0000  0.0000  0.1296  0.0032  0.1296  0.0000 </r>
        <r>  0.5134  0.0000  0.0000  0.0000  0.0000  0.0092  0.0458  0.0092  0.0000 </r>
       </set>
       <set comment="band 17">
        <r>  0.0000  0.0173  0.3027  0.0173  0.0153  0.0000  0.0000  0.0000  0.0153 </r>
        <r>  0.0000  0.0365  0.1432  0.0365  0.0323  0.0000  0.0000  0.0000  0.0323 </r>
       </set>
       <set comment="band 18">
        <r>  0.0000  0.0365  0.1432  0.0365  0.0323  0.0000  0.0000  0.0000  0.0323 </r>
        <r>  0.0000  0.0173  0.3027  0.0173  0.0153  0.0000  0.0000  0.0000  0.0153 </r>
       </set>
       <set comment="band 19">
        <r>  0.0000  0.0347  0.0000  0.0347  0.0157  0.0862  0.0000  0.0862  0.0157 </r>
        <r>  0.0000  0.0240  0.0000  0.0240  0.0109  0.1247  0.0000  0.1247  0.0109 </r>
       </set>
       <set comment="band 20">
        <r>  0.0000  0.0240  0.0000  0.0240  0.0109  0.1247  0.0000  0.1247  0.0109 </r>
        <r>  0.0000  0.0347  0.0000  0.0347  0.0157  0.0862  0.0000  0.0862  0.0157 </r>
       </set>
       <set comment="band 21">
        <r>  0.1007  0.0000  0.0000  0.0000  0.0000  0.0037  0.4500  0.0037  0.0000 </r>
        <r>  0.0037  0.0000  0.0000  0.0000  0.0000  0.1012  0.0165  0.1012  0.0000 </r>
       </set>
       <set comment="band 22">
        <r>  0.0037  0.0000  0.0000  0.0000  0.0000  0.1012  0.0165  0.1012  0.0000 </r>
        <r>  0.1007  0.0000  0.0000  0.0000  0.0000  0.0037  0.4500  0.0037  0.0000 </r>
       </set>
       <set comment="band 23">
        <r>  0.0000  0.0300  0.0000  0.0300  0.0755  0.0490  0.0000  0.0490  0.0754 </r>
        <r>  0.0000  0.0530  0.0000  0.0530  0.1332  0.0277  0.0000  0.0277  0.1331 </r>
       </set>
       <set comment="band 24">
        <r>  0.0000  0.0530  0.0000  0.0530  0.1331  0.0277  0.0000  0.0277  0.1332 </r>
        <r>  0.0000  0.0300  0.0000  0.0300  0.0754  0.0490  0.0000  0.0490  0.0755 </r>
       </set>
      </set>
     </set>
    </set>
   </array>
  </projected>
 </calculation>
 <structure name="finalpos" >
  <crystal>
   <varray name="basis" >
    <v>       1.22501274      -2.12178431       0.00000000 </v>
    <v>       1.22501274       2.12178431       0.00000000 </v>
    <v>       0.00000000       0.00000000       3.95200698 </v>
   </varray>
   <i name="volume">     20.54421446 </i>
   <varray name="rec_basis" >
    <v>       0.40815902      -0.23565072       0.00000000 </v>
    <v>       0.40815902       0.23565072       0.00000000 </v>
    <v>       0.00000000       0.00000000       0.25303599 </v>
   </varray>
  </crystal>
  <varray name="positions" >
   <v>       0.33333333       0.66666667       0.25000000 </v>
   <v>       0.66666667       0.33333333       0.75000000 </v>
  </varray>
 </structure>
</modeling>
