   1   1   0   0
  0.1529075E+02  0.2786001E-09  0.2786001E-09  0.2786001E-09  0.5000000E-15
  1.000000000000000E-004
  CAR 
 Pt-fcc                                  
     68.28429339    -46.33021610  301     11.79856570      1.00000000
    -46.330  0.0000E+00  0.0000E+00
    -45.948  0.0000E+00  0.0000E+00
    -45.566  0.0000E+00  0.0000E+00
    -45.184  0.0000E+00  0.0000E+00
    -44.802  0.0000E+00  0.0000E+00
    -44.420  0.0000E+00  0.0000E+00
    -44.038  0.0000E+00  0.0000E+00
    -43.656  0.0000E+00  0.0000E+00
    -43.274  0.0000E+00  0.0000E+00
    -42.892  0.0000E+00  0.0000E+00
    -42.510  0.0000E+00  0.0000E+00
    -42.128  0.0000E+00  0.0000E+00
    -41.746  0.0000E+00  0.0000E+00
    -41.364  0.4542E-12  0.1735E-12
    -40.982  0.4064E+01  0.1553E+01
    -40.599  0.1146E+02  0.6000E+01
    -40.217  0.0000E+00  0.6000E+01
    -39.835  0.0000E+00  0.6000E+01
    -39.453  0.0000E+00  0.6000E+01
    -39.071  0.0000E+00  0.6000E+01
    -38.689  0.0000E+00  0.6000E+01
    -38.307  0.0000E+00  0.6000E+01
    -37.925  0.0000E+00  0.6000E+01
    -37.543  0.0000E+00  0.6000E+01
    -37.161  0.0000E+00  0.6000E+01
    -36.779  0.0000E+00  0.6000E+01
    -36.397  0.0000E+00  0.6000E+01
    -36.015  0.0000E+00  0.6000E+01
    -35.633  0.0000E+00  0.6000E+01
    -35.251  0.0000E+00  0.6000E+01
    -34.869  0.0000E+00  0.6000E+01
    -34.487  0.0000E+00  0.6000E+01
    -34.105  0.0000E+00  0.6000E+01
    -33.723  0.0000E+00  0.6000E+01
    -33.341  0.0000E+00  0.6000E+01
    -32.959  0.0000E+00  0.6000E+01
    -32.576  0.0000E+00  0.6000E+01
    -32.194  0.0000E+00  0.6000E+01
    -31.812  0.0000E+00  0.6000E+01
    -31.430  0.0000E+00  0.6000E+01
    -31.048  0.0000E+00  0.6000E+01
    -30.666  0.0000E+00  0.6000E+01
    -30.284  0.0000E+00  0.6000E+01
    -29.902  0.0000E+00  0.6000E+01
    -29.520  0.0000E+00  0.6000E+01
    -29.138  0.0000E+00  0.6000E+01
    -28.756  0.0000E+00  0.6000E+01
    -28.374  0.0000E+00  0.6000E+01
    -27.992  0.0000E+00  0.6000E+01
    -27.610  0.0000E+00  0.6000E+01
    -27.228  0.0000E+00  0.6000E+01
    -26.846  0.0000E+00  0.6000E+01
    -26.464  0.0000E+00  0.6000E+01
    -26.082  0.0000E+00  0.6000E+01
    -25.700  0.0000E+00  0.6000E+01
    -25.318  0.0000E+00  0.6000E+01
    -24.936  0.0000E+00  0.6000E+01
    -24.553  0.0000E+00  0.6000E+01
    -24.171  0.0000E+00  0.6000E+01
    -23.789  0.0000E+00  0.6000E+01
    -23.407  0.0000E+00  0.6000E+01
    -23.025  0.0000E+00  0.6000E+01
    -22.643  0.0000E+00  0.6000E+01
    -22.261  0.0000E+00  0.6000E+01
    -21.879  0.0000E+00  0.6000E+01
    -21.497  0.0000E+00  0.6000E+01
    -21.115  0.0000E+00  0.6000E+01
    -20.733  0.0000E+00  0.6000E+01
    -20.351  0.0000E+00  0.6000E+01
    -19.969  0.0000E+00  0.6000E+01
    -19.587  0.0000E+00  0.6000E+01
    -19.205  0.0000E+00  0.6000E+01
    -18.823  0.0000E+00  0.6000E+01
    -18.441  0.0000E+00  0.6000E+01
    -18.059  0.0000E+00  0.6000E+01
    -17.677  0.0000E+00  0.6000E+01
    -17.295  0.0000E+00  0.6000E+01
    -16.912  0.0000E+00  0.6000E+01
    -16.530  0.0000E+00  0.6000E+01
    -16.148  0.0000E+00  0.6000E+01
    -15.766  0.0000E+00  0.6000E+01
    -15.384  0.0000E+00  0.6000E+01
    -15.002  0.0000E+00  0.6000E+01
    -14.620  0.0000E+00  0.6000E+01
    -14.238  0.0000E+00  0.6000E+01
    -13.856  0.0000E+00  0.6000E+01
    -13.474  0.0000E+00  0.6000E+01
    -13.092  0.0000E+00  0.6000E+01
    -12.710  0.0000E+00  0.6000E+01
    -12.328  0.0000E+00  0.6000E+01
    -11.946  0.0000E+00  0.6000E+01
    -11.564  0.0000E+00  0.6000E+01
    -11.182  0.0000E+00  0.6000E+01
    -10.800  0.0000E+00  0.6000E+01
    -10.418  0.0000E+00  0.6000E+01
    -10.036  0.0000E+00  0.6000E+01
     -9.654  0.0000E+00  0.6000E+01
     -9.272  0.0000E+00  0.6000E+01
     -8.889  0.0000E+00  0.6000E+01
     -8.507  0.0000E+00  0.6000E+01
     -8.125  0.0000E+00  0.6000E+01
     -7.743  0.0000E+00  0.6000E+01
     -7.361  0.0000E+00  0.6000E+01
     -6.979  0.0000E+00  0.6000E+01
     -6.597  0.0000E+00  0.6000E+01
     -6.215  0.0000E+00  0.6000E+01
     -5.833  0.0000E+00  0.6000E+01
     -5.451  0.0000E+00  0.6000E+01
     -5.069  0.0000E+00  0.6000E+01
     -4.687  0.0000E+00  0.6000E+01
     -4.305  0.0000E+00  0.6000E+01
     -3.923  0.0000E+00  0.6000E+01
     -3.541  0.0000E+00  0.6000E+01
     -3.159  0.0000E+00  0.6000E+01
     -2.777  0.0000E+00  0.6000E+01
     -2.395  0.0000E+00  0.6000E+01
     -2.013  0.0000E+00  0.6000E+01
     -1.631  0.0000E+00  0.6000E+01
     -1.249  0.0000E+00  0.6000E+01
     -0.866  0.0000E+00  0.6000E+01
     -0.484  0.0000E+00  0.6000E+01
     -0.102  0.0000E+00  0.6000E+01
      0.280  0.0000E+00  0.6000E+01
      0.662  0.0000E+00  0.6000E+01
      1.044  0.0000E+00  0.6000E+01
      1.426  0.0000E+00  0.6000E+01
      1.808  0.9566E-07  0.6000E+01
      2.190  0.4847E-01  0.6019E+01
      2.572  0.3354E-03  0.6019E+01
      2.954  0.1451E+00  0.6074E+01
      3.336  0.1300E+00  0.6124E+01
      3.718  0.1740E-01  0.6136E+01
      4.100  0.1765E+00  0.6204E+01
      4.482  0.3693E+00  0.6345E+01
      4.864  0.3959E+00  0.6496E+01
      5.246  0.8304E+00  0.6817E+01
      5.628  0.1044E+01  0.7254E+01
      6.010  0.1496E+01  0.7826E+01
      6.392  0.1279E+01  0.8322E+01
      6.775  0.8802E+00  0.8658E+01
      7.157  0.1284E+01  0.9173E+01
      7.539  0.1662E+01  0.9814E+01
      7.921  0.1089E+01  0.1025E+02
      8.303  0.1877E+01  0.1097E+02
      8.685  0.2420E+01  0.1190E+02
      9.067  0.1289E+01  0.1242E+02
      9.449  0.9327E+00  0.1278E+02
      9.831  0.1352E+01  0.1330E+02
     10.213  0.1582E+01  0.1391E+02
     10.595  0.9890E+00  0.1429E+02
     10.977  0.1568E+01  0.1490E+02
     11.359  0.6754E+00  0.1517E+02
     11.741  0.1936E+01  0.1593E+02
     12.123  0.1315E+01  0.1644E+02
     12.505  0.8471E+00  0.1678E+02
     12.887  0.1238E-10  0.1678E+02
     13.269  0.1454E+00  0.1683E+02
     13.651  0.4488E+00  0.1700E+02
     14.033  0.4101E+00  0.1716E+02
     14.415  0.1453E+00  0.1722E+02
     14.798  0.1410E+00  0.1728E+02
     15.180  0.2953E+00  0.1739E+02
     15.562  0.2908E+00  0.1750E+02
     15.944  0.2434E+00  0.1759E+02
     16.326  0.2903E+00  0.1772E+02
     16.708  0.2907E+00  0.1783E+02
     17.090  0.0000E+00  0.1783E+02
     17.472  0.1302E+00  0.1788E+02
     17.854  0.8639E+00  0.1822E+02
     18.236  0.1415E+00  0.1828E+02
     18.618  0.0000E+00  0.1828E+02
     19.000  0.3870E-02  0.1828E+02
     19.382  0.1063E+01  0.1869E+02
     19.764  0.2908E+00  0.1880E+02
     20.146  0.2009E+00  0.1887E+02
     20.528  0.2357E+00  0.1896E+02
     20.910  0.1451E+00  0.1902E+02
     21.292  0.2911E+00  0.1913E+02
     21.674  0.5410E+00  0.1934E+02
     22.056  0.2908E+00  0.1946E+02
     22.438  0.6346E-06  0.1946E+02
     22.821  0.7176E+00  0.1974E+02
     23.203  0.2668E+00  0.1984E+02
     23.585  0.5513E+00  0.2006E+02
     23.967  0.5816E+00  0.2030E+02
     24.349  0.9864E-01  0.2033E+02
     24.731  0.4845E+00  0.2052E+02
     25.113  0.3377E+00  0.2065E+02
     25.495  0.8603E+00  0.2098E+02
     25.877  0.1724E+00  0.2105E+02
     26.259  0.7036E+00  0.2132E+02
     26.641  0.7720E+00  0.2161E+02
     27.023  0.4031E+00  0.2177E+02
     27.405  0.1390E+01  0.2230E+02
     27.787  0.4593E+00  0.2247E+02
     28.169  0.3121E+00  0.2259E+02
     28.551  0.8890E+00  0.2293E+02
     28.933  0.8572E+00  0.2326E+02
     29.315  0.1476E+00  0.2332E+02
     29.697  0.4320E+00  0.2348E+02
     30.079  0.4808E-01  0.2350E+02
     30.462  0.7373E+00  0.2378E+02
     30.844  0.9627E+00  0.2415E+02
     31.226  0.2787E+00  0.2427E+02
     31.608  0.7642E+00  0.2459E+02
     31.990  0.6591E+00  0.2485E+02
     32.372  0.8551E+00  0.2518E+02
     32.754  0.5832E+00  0.2541E+02
     33.136  0.4813E+00  0.2562E+02
     33.518  0.5940E+00  0.2585E+02
     33.900  0.1415E+00  0.2591E+02
     34.282  0.1918E+00  0.2598E+02
     34.664  0.4201E+00  0.2616E+02
     35.046  0.5535E+00  0.2638E+02
     35.428  0.7755E+00  0.2669E+02
     35.810  0.2902E+00  0.2680E+02
     36.192  0.3895E+00  0.2695E+02
     36.574  0.2573E+00  0.2704E+02
     36.956  0.7488E+00  0.2735E+02
     37.338  0.6720E+00  0.2760E+02
     37.720  0.4329E+00  0.2778E+02
     38.102  0.4858E+00  0.2796E+02
     38.485  0.8338E+00  0.2828E+02
     38.867  0.6901E+00  0.2856E+02
     39.249  0.1160E+01  0.2902E+02
     39.631  0.1462E+01  0.2958E+02
     40.013  0.9182E+00  0.2996E+02
     40.395  0.3675E+00  0.3010E+02
     40.777  0.1084E+01  0.3052E+02
     41.159  0.4942E+00  0.3071E+02
     41.541  0.5787E+00  0.3094E+02
     41.923  0.8087E+00  0.3125E+02
     42.305  0.1218E+01  0.3172E+02
     42.687  0.4961E+00  0.3191E+02
     43.069  0.2821E+00  0.3202E+02
     43.451  0.8559E+00  0.3235E+02
     43.833  0.1495E+01  0.3292E+02
     44.215  0.6165E+00  0.3315E+02
     44.597  0.4659E+00  0.3333E+02
     44.979  0.6307E+00  0.3357E+02
     45.361  0.2908E+00  0.3369E+02
     45.743  0.2908E+00  0.3380E+02
     46.125  0.6402E+00  0.3404E+02
     46.508  0.5312E+00  0.3424E+02
     46.890  0.1006E+01  0.3463E+02
     47.272  0.1461E+01  0.3519E+02
     47.654  0.1193E+01  0.3565E+02
     48.036  0.1054E+01  0.3606E+02
     48.418  0.6782E+00  0.3633E+02
     48.800  0.4750E+00  0.3656E+02
     49.182  0.1066E+01  0.3696E+02
     49.564  0.1581E+01  0.3757E+02
     49.946  0.6248E+00  0.3783E+02
     50.328  0.1105E+01  0.3825E+02
     50.710  0.2899E+00  0.3836E+02
     51.092  0.4363E+00  0.3854E+02
     51.474  0.7325E+00  0.3882E+02
     51.856  0.1281E+01  0.3931E+02
     52.238  0.1053E+00  0.3936E+02
     52.620  0.4032E+01  0.4091E+02
     53.002  0.3038E+01  0.4213E+02
     53.384  0.6945E+00  0.4241E+02
     53.766  0.1085E+01  0.4283E+02
     54.149  0.7469E+00  0.4311E+02
     54.531  0.7666E+00  0.4340E+02
     54.913  0.1042E+01  0.4382E+02
     55.295  0.1011E+01  0.4420E+02
     55.677  0.2538E+00  0.4430E+02
     56.059  0.1103E+01  0.4472E+02
     56.441  0.1634E+00  0.4478E+02
     56.823  0.9555E+00  0.4515E+02
     57.205  0.1402E+01  0.4569E+02
     57.587  0.5268E+00  0.4589E+02
     57.969  0.8275E+00  0.4621E+02
     58.351  0.1193E+01  0.4666E+02
     58.733  0.6251E+00  0.4690E+02
     59.115  0.1031E+01  0.4730E+02
     59.497  0.3739E+00  0.4744E+02
     59.879  0.2344E+00  0.4755E+02
     60.261  0.1831E-02  0.4757E+02
     60.643  0.1921E+00  0.4765E+02
     61.025  0.2914E+00  0.4776E+02
     61.407  0.1385E+00  0.4781E+02
     61.789  0.2002E+00  0.4789E+02
     62.172  0.1454E+00  0.4794E+02
     62.554  0.0000E+00  0.4794E+02
     62.936  0.6191E-05  0.4794E+02
     63.318  0.1454E+00  0.4800E+02
     63.700  0.0000E+00  0.4800E+02
     64.082  0.0000E+00  0.4800E+02
     64.464  0.0000E+00  0.4800E+02
     64.846  0.0000E+00  0.4800E+02
     65.228  0.0000E+00  0.4800E+02
     65.610  0.0000E+00  0.4800E+02
     65.992  0.0000E+00  0.4800E+02
     66.374  0.0000E+00  0.4800E+02
     66.756  0.0000E+00  0.4800E+02
     67.138  0.0000E+00  0.4800E+02
     67.520  0.0000E+00  0.4800E+02
     67.902  0.0000E+00  0.4800E+02
     68.284  0.0000E+00  0.4800E+02
