    1    1    1    1
  0.1529075E+02  0.2786001E-09  0.2786001E-09  0.2786001E-09  0.5000000E-15
  1.000000000000000E-004
  CAR 
 Pt-fcc                                  
     16     28     24
 
  0.8333333E-01  0.8333333E-01  0.8333333E-01  0.9259259E-02
      1        -40.717129   1.000000
      2        -40.690560   1.000000
      3        -40.690560   1.000000
      4          1.971013   1.000000
      5          7.967633   1.000000
      6          8.192054   1.000000
      7          8.192054   1.000000
      8         10.145330   1.000000
      9         10.145330   1.000000
     10         26.857949   0.000000
     11         30.003505   0.000000
     12         31.739922   0.000000
     13         31.739922   0.000000
     14         37.966922   0.000000
     15         40.861859   0.000000
     16         41.946130   0.000000
     17         41.946130   0.000000
     18         46.247549   0.000000
     19         46.247549   0.000000
     20         47.944229   0.000000
     21         52.621003   0.000000
     22         52.829919   0.000000
     23         52.829919   0.000000
     24         60.324108   0.000000
 
  0.2500000E+00  0.8333333E-01  0.8333333E-01  0.2777778E-01
      1        -40.845783   1.000000
      2        -40.733047   1.000000
      3        -40.703068   1.000000
      4          3.291960   1.000000
      5          7.513108   1.000000
      6          8.508963   1.000000
      7          8.605436   1.000000
      8          9.723131   1.000000
      9         10.575341   1.000000
     10         26.890000   0.000000
     11         28.324572   0.000000
     12         31.723939   0.000000
     13         34.259059   0.000000
     14         34.618339   0.000000
     15         38.929205   0.000000
     16         39.357354   0.000000
     17         43.310780   0.000000
     18         43.874044   0.000000
     19         47.839701   0.000000
     20         50.082342   0.000000
     21         52.599610   0.000000
     22         53.250686   0.000000
     23         55.081404   0.000000
     24         61.396515   0.000000
 
  0.4166667E+00  0.8333333E-01  0.8333333E-01  0.2777778E-01
      1        -41.049352   1.000000
      2        -40.768350   1.000000
      3        -40.737854   1.000000
      4          4.746797   1.000000
      5          8.085287   1.000000
      6          8.358239   1.000000
      7          8.661714   1.000000
      8         10.832627   1.000000
      9         12.039180   0.000000
     10         21.062284   0.000000
     11         27.130058   0.000000
     12         30.358011   0.000000
     13         33.145782   0.000000
     14         36.175595   0.000000
     15         38.776525   0.000000
     16         39.623058   0.000000
     17         44.584327   0.000000
     18         47.390944   0.000000
     19         50.171502   0.000000
     20         51.437745   0.000000
     21         52.617461   0.000000
     22         54.378599   0.000000
     23         56.177496   0.000000
     24         58.092049   0.000000
 
 -0.4166667E+00  0.8333333E-01  0.8333333E-01  0.2777778E-01
      1        -41.120466   1.000000
      2        -40.770727   1.000000
      3        -40.758648   1.000000
      4          4.811078   1.000000
      5          7.851166   1.000000
      6          8.219046   1.000000
      7         10.024756   1.000000
      8         11.857126   0.048826
      9         13.113059   0.000000
     10         17.652990   0.000000
     11         26.406473   0.000000
     12         30.179345   0.000000
     13         30.281948   0.000000
     14         39.343660   0.000000
     15         39.863995   0.000000
     16         41.573370   0.000000
     17         45.216367   0.000000
     18         47.534000   0.000000
     19         47.956120   0.000000
     20         52.614591   0.000000
     21         52.974073   0.000000
     22         54.385389   0.000000
     23         56.832771   0.000000
     24         58.341547   0.000000
 
 -0.2500000E+00  0.8333333E-01  0.8333333E-01  0.2777778E-01
      1        -40.988434   1.000000
      2        -40.746589   1.000000
      3        -40.738541   1.000000
      4          4.478380   1.000000
      5          7.802905   1.000000
      6          8.237600   1.000000
      7          8.551151   1.000000
      8         10.735943   1.000000
      9         11.163565   1.000000
     10         23.151382   0.000000
     11         27.839230   0.000000
     12         31.574692   0.000000
     13         33.133540   0.000000
     14         36.675475   0.000000
     15         36.984532   0.000000
     16         38.269124   0.000000
     17         43.488498   0.000000
     18         48.954767   0.000000
     19         49.390891   0.000000
     20         50.914830   0.000000
     21         51.744892   0.000000
     22         52.612471   0.000000
     23         57.060185   0.000000
     24         59.354611   0.000000
 
 -0.8333333E-01  0.8333333E-01  0.8333333E-01  0.2777778E-01
      1        -40.779044   1.000000
      2        -40.712659   1.000000
      3        -40.706026   1.000000
      4          2.672133   1.000000
      5          7.588611   1.000000
      6          8.496166   1.000000
      7          8.510557   1.000000
      8          9.718837   1.000000
      9         10.384036   1.000000
     10         27.833892   0.000000
     11         28.652045   0.000000
     12         31.643876   0.000000
     13         32.326582   0.000000
     14         37.409354   0.000000
     15         38.845093   0.000000
     16         41.007237   0.000000
     17         41.845770   0.000000
     18         43.341611   0.000000
     19         49.071076   0.000000
     20         50.058353   0.000000
     21         50.661698   0.000000
     22         52.601557   0.000000
     23         54.904642   0.000000
     24         61.508035   0.000000
 
  0.2500000E+00  0.2500000E+00  0.8333333E-01  0.2777778E-01
      1        -40.870629   1.000000
      2        -40.750049   1.000000
      3        -40.746611   1.000000
      4          3.906519   1.000000
      5          6.942794   1.000000
      6          8.670668   1.000000
      7          9.129229   1.000000
      8          9.649563   1.000000
      9         10.810916   1.000000
     10         27.595427   0.000000
     11         29.382624   0.000000
     12         30.269706   0.000000
     13         31.245365   0.000000
     14         35.309193   0.000000
     15         37.916926   0.000000
     16         38.560864   0.000000
     17         43.727262   0.000000
     18         46.227238   0.000000
     19         46.710481   0.000000
     20         51.470314   0.000000
     21         52.421059   0.000000
     22         52.578648   0.000000
     23         55.719006   0.000000
     24         63.074543   0.000000
 
  0.4166667E+00  0.2500000E+00  0.8333333E-01  0.5555556E-01
      1        -40.996411   1.000000
      2        -40.820141   1.000000
      3        -40.774293   1.000000
      4          5.458681   1.000000
      5          6.672829   1.000000
      6          7.932587   1.000000
      7          9.691252   1.000000
      8         10.792719   1.000000
      9         12.327730   0.000000
     10         23.538094   0.000000
     11         27.031375   0.000000
     12         28.400900   0.000000
     13         32.118529   0.000000
     14         35.215435   0.000000
     15         38.631860   0.000000
     16         40.536995   0.000000
     17         43.592303   0.000000
     18         45.957361   0.000000
     19         49.285409   0.000000
     20         52.609663   0.000000
     21         52.862856   0.000000
     22         53.772547   0.000000
     23         56.672258   0.000000
     24         60.868438   0.000000
 
 -0.4166667E+00  0.2500000E+00  0.8333333E-01  0.5555556E-01
      1        -41.071879   1.000000
      2        -40.869118   1.000000
      3        -40.791412   1.000000
      4          5.816975   1.000000
      5          7.099488   1.000000
      6          8.328479   1.000000
      7          9.247373   1.000000
      8         11.689728   0.998959
      9         15.908946   0.000000
     10         17.532866   0.000000
     11         26.125911   0.000000
     12         27.156529   0.000000
     13         30.665006   0.000000
     14         37.941877   0.000000
     15         40.428637   0.000000
     16         42.241306   0.000000
     17         44.313068   0.000000
     18         47.032932   0.000000
     19         50.317964   0.000000
     20         50.934628   0.000000
     21         52.619295   0.000000
     22         53.506234   0.000000
     23         57.198350   0.000000
     24         58.612669   0.000000
 
 -0.2500000E+00  0.2500000E+00  0.8333333E-01  0.5555556E-01
      1        -41.023595   1.000000
      2        -40.863864   1.000000
      3        -40.762950   1.000000
      4          5.948917   1.000000
      5          7.372408   1.000000
      6          7.454422   1.000000
      7          9.381201   1.000000
      8         10.588426   1.000000
      9         13.647536   0.000000
     10         21.636009   0.000000
     11         25.430514   0.000000
     12         28.595170   0.000000
     13         32.734995   0.000000
     14         35.000104   0.000000
     15         39.923476   0.000000
     16         42.176454   0.000000
     17         43.721277   0.000000
     18         46.740141   0.000000
     19         48.826281   0.000000
     20         51.508089   0.000000
     21         52.626654   0.000000
     22         55.828677   0.000000
     23         56.495945   0.000000
     24         57.982816   0.000000
 
 -0.8333333E-01  0.2500000E+00  0.8333333E-01  0.5555556E-01
      1        -40.926233   1.000000
      2        -40.772525   1.000000
      3        -40.728785   1.000000
      4          4.381281   1.000000
      5          7.146349   1.000000
      6          8.309965   1.000000
      7          9.012871   1.000000
      8          9.861595   1.000000
      9         11.311916   1.000000
     10         25.378303   0.000000
     11         28.452608   0.000000
     12         30.597322   0.000000
     13         32.072775   0.000000
     14         36.759745   0.000000
     15         37.222576   0.000000
     16         39.607257   0.000000
     17         42.077503   0.000000
     18         46.928654   0.000000
     19         48.395408   0.000000
     20         49.429552   0.000000
     21         52.587730   0.000000
     22         54.580412   0.000000
     23         57.197215   0.000000
     24         59.848732   0.000000
 
  0.4166667E+00  0.4166667E+00  0.8333333E-01  0.2777778E-01
      1        -41.049495   1.000000
      2        -40.840122   1.000000
      3        -40.828424   1.000000
      4          5.222002   1.000000
      5          5.749461   1.000000
      6          9.869480   1.000000
      7         10.898353   1.000000
      8         11.823898   0.236841
      9         12.351864   0.000000
     10         23.274411   0.000000
     11         25.249751   0.000000
     12         25.417510   0.000000
     13         31.559858   0.000000
     14         33.831936   0.000000
     15         40.526423   0.000000
     16         42.539993   0.000000
     17         43.883793   0.000000
     18         47.200560   0.000000
     19         48.155065   0.000000
     20         52.613482   0.000000
     21         54.509510   0.000000
     22         55.020054   0.000000
     23         57.034596   0.000000
     24         57.685396   0.000000
 
 -0.4166667E+00  0.4166667E+00  0.8333333E-01  0.5555556E-01
      1        -41.067014   1.000000
      2        -40.900528   1.000000
      3        -40.845108   1.000000
      4          5.473596   1.000000
      5          5.942376   1.000000
      6          9.471867   1.000000
      7         10.910437   1.000000
      8         12.080704   0.000000
      9         16.223940   0.000000
     10         19.531158   0.000000
     11         22.658271   0.000000
     12         24.364002   0.000000
     13         33.272993   0.000000
     14         35.715399   0.000000
     15         39.086639   0.000000
     16         43.465882   0.000000
     17         46.575243   0.000000
     18         47.278413   0.000000
     19         49.598798   0.000000
     20         51.576297   0.000000
     21         52.609731   0.000000
     22         53.629602   0.000000
     23         55.796848   0.000000
     24         57.270326   0.000000
 
 -0.2500000E+00  0.4166667E+00  0.8333333E-01  0.5555556E-01
      1        -41.023803   1.000000
      2        -40.948997   1.000000
      3        -40.807305   1.000000
      4          6.204413   1.000000
      5          6.925580   1.000000
      6          7.990858   1.000000
      7          9.819570   1.000000
      8         11.451847   1.000000
      9         16.447796   0.000000
     10         19.137548   0.000000
     11         22.755328   0.000000
     12         27.043316   0.000000
     13         31.743743   0.000000
     14         37.291789   0.000000
     15         40.439222   0.000000
     16         41.144747   0.000000
     17         45.515433   0.000000
     18         47.461297   0.000000
     19         51.613324   0.000000
     20         52.370070   0.000000
     21         52.489754   0.000000
     22         52.610342   0.000000
     23         54.710171   0.000000
     24         58.967840   0.000000
 
 -0.8333333E-01  0.4166667E+00  0.8333333E-01  0.5555556E-01
      1        -41.080835   1.000000
      2        -40.806929   1.000000
      3        -40.762483   1.000000
      4          5.218933   1.000000
      5          7.639558   1.000000
      6          8.552136   1.000000
      7          8.786773   1.000000
      8         11.471327   1.000000
      9         13.468160   0.000000
     10         19.162218   0.000000
     11         27.090725   0.000000
     12         28.576809   0.000000
     13         31.194842   0.000000
     14         37.600306   0.000000
     15         39.955896   0.000000
     16         41.936810   0.000000
     17         43.302771   0.000000
     18         48.843686   0.000000
     19         49.352321   0.000000
     20         50.064239   0.000000
     21         52.620359   0.000000
     22         54.960589   0.000000
     23         56.859049   0.000000
     24         58.277900   0.000000
 
 -0.4166667E+00 -0.4166667E+00  0.8333333E-01  0.2777778E-01
      1        -41.095851   1.000000
      2        -40.865429   1.000000
      3        -40.848805   1.000000
      4          5.017605   1.000000
      5          5.462598   1.000000
      6         11.115669   1.000000
      7         11.524503   1.000000
      8         12.156300   0.000000
      9         14.299174   0.000000
     10         20.629828   0.000000
     11         23.159701   0.000000
     12         23.762735   0.000000
     13         32.134184   0.000000
     14         34.786330   0.000000
     15         40.086017   0.000000
     16         44.815161   0.000000
     17         46.770643   0.000000
     18         47.232956   0.000000
     19         49.403885   0.000000
     20         52.624011   0.000000
     21         52.698881   0.000000
     22         53.437698   0.000000
     23         54.027302   0.000000
     24         55.664981   0.000000
 
 -0.2500000E+00 -0.4166667E+00  0.8333333E-01  0.5555556E-01
      1        -41.044415   1.000000
      2        -40.867437   1.000000
      3        -40.819003   1.000000
      4          5.671239   1.000000
      5          6.216776   1.000000
      6          8.529168   1.000000
      7         10.507433   1.000000
      8         11.646332   0.999992
      9         13.974094   0.000000
     10         21.401267   0.000000
     11         24.821388   0.000000
     12         25.991853   0.000000
     13         32.494263   0.000000
     14         35.232616   0.000000
     15         39.393599   0.000000
     16         42.395899   0.000000
     17         44.754036   0.000000
     18         47.157301   0.000000
     19         48.591589   0.000000
     20         51.460308   0.000000
     21         52.629113   0.000000
     22         55.123619   0.000000
     23         58.113254   0.000000
     24         59.469190   0.000000
 
 -0.2500000E+00 -0.2500000E+00  0.8333333E-01  0.2777778E-01
      1        -40.967477   1.000000
      2        -40.796390   1.000000
      3        -40.791810   1.000000
      4          5.053314   1.000000
      5          6.275955   1.000000
      6          8.659668   1.000000
      7          9.982856   1.000000
      8         10.724670   1.000000
      9         11.332473   1.000000
     10         25.908687   0.000000
     11         27.687027   0.000000
     12         28.559136   0.000000
     13         31.383454   0.000000
     14         32.744315   0.000000
     15         39.276989   0.000000
     16         39.883064   0.000000
     17         44.221140   0.000000
     18         45.116976   0.000000
     19         49.522558   0.000000
     20         52.611926   0.000000
     21         53.501442   0.000000
     22         54.018984   0.000000
     23         54.901177   0.000000
     24         61.909278   0.000000
 
  0.2500000E+00  0.2500000E+00  0.2500000E+00  0.9259259E-02
      1        -40.914448   1.000000
      2        -40.719825   1.000000
      3        -40.719825   1.000000
      4          3.730885   1.000000
      5          7.741083   1.000000
      6          8.452605   1.000000
      7          8.452605   1.000000
      8         10.376509   1.000000
      9         10.376509   1.000000
     10         25.004661   0.000000
     11         28.117305   0.000000
     12         34.245990   0.000000
     13         34.245990   0.000000
     14         35.168390   0.000000
     15         36.544446   0.000000
     16         36.544446   0.000000
     17         45.896988   0.000000
     18         46.895054   0.000000
     19         46.895054   0.000000
     20         50.662691   0.000000
     21         52.582638   0.000000
     22         53.523079   0.000000
     23         53.523079   0.000000
     24         61.104807   0.000000
 
  0.4166667E+00  0.2500000E+00  0.2500000E+00  0.2777778E-01
      1        -40.984570   1.000000
      2        -40.814256   1.000000
      3        -40.732113   1.000000
      4          5.154096   1.000000
      5          7.355204   1.000000
      6          8.065886   1.000000
      7          8.959985   1.000000
      8          9.893657   1.000000
      9         12.386057   0.000000
     10         23.403669   0.000000
     11         27.142214   0.000000
     12         29.579138   0.000000
     13         33.330925   0.000000
     14         34.891879   0.000000
     15         39.341188   0.000000
     16         41.686594   0.000000
     17         41.755960   0.000000
     18         46.187339   0.000000
     19         47.745921   0.000000
     20         52.613546   0.000000
     21         52.927346   0.000000
     22         55.566474   0.000000
     23         56.676350   0.000000
     24         58.185572   0.000000
 
 -0.4166667E+00  0.2500000E+00  0.2500000E+00  0.2777778E-01
      1        -41.033231   1.000000
      2        -40.913090   1.000000
      3        -40.774775   1.000000
      4          6.146823   1.000000
      5          7.261230   1.000000
      6          7.914211   1.000000
      7          9.360748   1.000000
      8         10.831666   1.000000
      9         14.866444   0.000000
     10         20.300953   0.000000
     11         23.812090   0.000000
     12         29.489966   0.000000
     13         30.533426   0.000000
     14         36.537105   0.000000
     15         39.083851   0.000000
     16         42.742217   0.000000
     17         46.913877   0.000000
     18         48.002784   0.000000
     19         49.058755   0.000000
     20         50.217783   0.000000
     21         52.605672   0.000000
     22         53.022176   0.000000
     23         55.887788   0.000000
     24         58.741921   0.000000
 
 -0.2500000E+00  0.2500000E+00  0.2500000E+00  0.2777778E-01
      1        -41.059204   1.000000
      2        -40.869248   1.000000
      3        -40.804256   1.000000
      4          5.656772   1.000000
      5          6.799870   1.000000
      6          8.334248   1.000000
      7          9.648847   1.000000
      8         11.966760   0.000001
      9         14.801175   0.000000
     10         19.115258   0.000000
     11         25.754017   0.000000
     12         27.283668   0.000000
     13         30.518400   0.000000
     14         38.311262   0.000000
     15         39.063941   0.000000
     16         41.134177   0.000000
     17         44.906596   0.000000
     18         47.752763   0.000000
     19         48.426519   0.000000
     20         52.607605   0.000000
     21         52.818732   0.000000
     22         54.429919   0.000000
     23         56.965429   0.000000
     24         60.458584   0.000000
 
  0.4166667E+00  0.4166667E+00  0.2500000E+00  0.2777778E-01
      1        -41.041088   1.000000
      2        -40.794238   1.000000
      3        -40.777843   1.000000
      4          5.255304   1.000000
      5          7.435425   1.000000
      6          7.955103   1.000000
      7          8.969864   1.000000
      8         11.776453   0.734161
      9         12.330311   0.000000
     10         21.137386   0.000000
     11         27.690144   0.000000
     12         29.011592   0.000000
     13         30.825492   0.000000
     14         38.228380   0.000000
     15         38.455411   0.000000
     16         40.266499   0.000000
     17         42.292478   0.000000
     18         48.056232   0.000000
     19         49.935129   0.000000
     20         52.217736   0.000000
     21         52.603918   0.000000
     22         54.401041   0.000000
     23         55.829772   0.000000
     24         58.809300   0.000000
 
 -0.4166667E+00  0.4166667E+00  0.2500000E+00  0.5555556E-01
      1        -41.033378   1.000000
      2        -40.912193   1.000000
      3        -40.808761   1.000000
      4          6.402186   1.000000
      5          6.842008   1.000000
      6          7.488072   1.000000
      7          9.972233   1.000000
      8         11.430761   1.000000
      9         15.410869   0.000000
     10         20.128605   0.000000
     11         23.715299   0.000000
     12         26.397567   0.000000
     13         32.939576   0.000000
     14         35.916303   0.000000
     15         41.321703   0.000000
     16         41.535989   0.000000
     17         43.755402   0.000000
     18         47.534532   0.000000
     19         49.675702   0.000000
     20         51.213408   0.000000
     21         52.618028   0.000000
     22         53.912315   0.000000
     23         57.133468   0.000000
     24         59.003358   0.000000
 
 -0.2500000E+00  0.4166667E+00  0.2500000E+00  0.5555556E-01
      1        -41.018368   1.000000
      2        -40.950683   1.000000
      3        -40.843973   1.000000
      4          6.182428   1.000000
      5          6.747253   1.000000
      6          7.933746   1.000000
      7         10.053911   1.000000
      8         12.050147   0.000000
      9         17.740418   0.000000
     10         19.164676   0.000000
     11         21.804799   0.000000
     12         24.437002   0.000000
     13         34.369459   0.000000
     14         36.640453   0.000000
     15         39.242508   0.000000
     16         43.448296   0.000000
     17         44.027867   0.000000
     18         45.931827   0.000000
     19         49.529625   0.000000
     20         52.624486   0.000000
     21         53.106173   0.000000
     22         54.560862   0.000000
     23         57.786014   0.000000
     24         58.757587   0.000000
 
 -0.4166667E+00 -0.4166667E+00  0.2500000E+00  0.2777778E-01
      1        -41.044506   1.000000
      2        -40.936057   1.000000
      3        -40.819673   1.000000
      4          5.666169   1.000000
      5          6.472809   1.000000
      6          8.902065   1.000000
      7         10.361289   1.000000
      8         11.724212   0.982268
      9         17.440724   0.000000
     10         17.922059   0.000000
     11         22.595698   0.000000
     12         26.468710   0.000000
     13         31.460428   0.000000
     14         38.188279   0.000000
     15         39.167881   0.000000
     16         40.634876   0.000000
     17         47.954931   0.000000
     18         48.392754   0.000000
     19         48.956288   0.000000
     20         52.330094   0.000000
     21         52.620507   0.000000
     22         53.150252   0.000000
     23         56.530594   0.000000
     24         57.688670   0.000000
 
  0.4166667E+00  0.4166667E+00  0.4166667E+00  0.9259259E-02
      1        -41.102982   1.000000
      2        -40.747152   1.000000
      3        -40.747152   1.000000
      4          4.584970   1.000000
      5          8.096313   1.000000
      6          8.096313   1.000000
      7         10.252468   1.000000
      8         11.592709   1.000000
      9         11.592709   1.000000
     10         19.050250   0.000000
     11         26.310473   0.000000
     12         31.298636   0.000000
     13         31.298636   0.000000
     14         39.020924   0.000000
     15         39.020924   0.000000
     16         39.437087   0.000000
     17         46.913088   0.000000
     18         46.913088   0.000000
     19         48.087607   0.000000
     20         52.638472   0.000000
     21         54.913922   0.000000
     22         54.913922   0.000000
     23         55.813286   0.000000
     24         58.085740   0.000000
 
 -0.4166667E+00  0.4166667E+00  0.4166667E+00  0.2777778E-01
      1        -41.092753   1.000000
      2        -40.832796   1.000000
      3        -40.769073   1.000000
      4          5.401326   1.000000
      5          7.461452   1.000000
      6          8.696130   1.000000
      7          8.983588   1.000000
      8         11.512147   1.000000
      9         14.798855   0.000000
     10         17.721220   0.000000
     11         26.521560   0.000000
     12         28.623599   0.000000
     13         30.203052   0.000000
     14         38.432026   0.000000
     15         39.348309   0.000000
     16         42.797746   0.000000
     17         46.193556   0.000000
     18         47.615379   0.000000
     19         47.685527   0.000000
     20         51.615959   0.000000
     21         52.363534   0.000000
     22         52.618294   0.000000
     23         57.702104   0.000000
     24         58.601739   0.000000
