 vasp.6.3.2 27Jun22 (build Aug 12 2022 00:53:59) complex                        
  
 executed on               tv2STD date 2024.11.30  15:51:49
 running   24 mpi-ranks, with    1 threads/rank
 distrk:  each k-point on   24 cores,    1 groups
 distr:  one band on NCORE=   1 cores,   24 groups


--------------------------------------------------------------------------------------------------------


 INCAR:
   SYSTEM = Pt-fcc
   NWRITE = 2    write-flag
   ISTART = 0    job   : 0-new, 1-cont, 2-samecut
   ICHARG = 2    charge: 0-wave, 1-file, 2-atom, >10-const
   INIWAV = 1    electr: 0-lowe 1-rand  2-diag
   ENCUT = 400     energy cutoff in eV
   PREC = Accurate      normal | accurate
   ADDGRID = .FALSE.  (use fine grid)
   NELM = 100     number of ELM steps
   EDIFF = 1E-06    energy stopping-criterion for ELM
   LREAL = .FALSE.      real-space projection (.FALSE., .TRUE., On, Auto)
   ALGO = Normal     Normal, Fast, Very_Fast
   LWAVE = .FALSE.
   LCHARG = .FALSE.
   NSW = 0       max number of geometry steps
   IBRION = -1     ionic relax: 0-MD, 1-quasi-Newton, 2-CG, 3-Damped MD
   EDIFFG = -0.02  force (eV/A) stopping-criterion for geometry steps
   ISIF = 2     (1:force\=y stress\=trace only ions\=y shape\=n volume\=n)
   ISYM = 1     (1-use symmetry, 0-no symmetry)
   ISMEAR = 0     (-1-Fermi, 1-Methfessel/Paxton)
   SIGMA = 0.05   broadening in eV

 POTCAR:    PAW_PBE Pt_pv 12Dec2005               
 POTCAR:    PAW_PBE Pt_pv 12Dec2005               
   SHA256 =  e5abf7e8cd8db70d0153315afc5ad66b6e3eeee29cc2d5b91b16730957c1d208 Pt_pv/POTCAR          
   COPYR  = (c) Copyright 12Dec2005 Georg Kresse                                                    
   COPYR  = This file is part of the software VASP. Any use, copying, and all other rights are regul
   COPYR  = If you do not have a valid VASP license, you may not use, copy or distribute this file. 
   VRHFIN =Pt: 5ps1d9                                                                               
   LEXCH  = PE                                                                                      
   EATOM  =  2428.2504 eV,  178.4714 Ry                                                             
                                                                                                    
   TITEL  = PAW_PBE Pt_pv 12Dec2005                                                                 
   LULTRA =        F    use ultrasoft PP ?                                                          
   IUNSCR =        1    unscreen: 0-lin 1-nonlin 2-no                                               
   RPACOR =    2.000    partial core radius                                                         
   POMASS =  195.080; ZVAL   =   16.000    mass and valenz                                          
   RCORE  =    2.200    outmost cutoff radius                                                       
   RWIGS  =    2.200; RWIGS  =    1.164    wigner-seitz radius (au A)                               
   ENMAX  =  294.607; ENMIN  =  220.955 eV                                                          
   ICORE  =        3    local potential                                                             
   LCOR   =        T    correct aug charges                                                         
   LPAW   =        T    paw PP                                                                      
   EAUG   =  527.014                                                                                
   DEXC   =    0.000                                                                                
   RMAX   =    2.247    core radius for proj-oper                                                   
   RAUG   =    1.300    factor for augmentation sphere                                              
   RDEP   =    2.279    radius for radial grids                                                     
   RDEPT  =    1.878    core radius for aug-charge                                                  
                                                                                                    
   Atomic configuration                                                                             
   16 entries                                                                                       
     n  l   j            E        occ.                                                              
     1  0  0.50    -78401.1885   2.0000                                                             
     2  0  0.50    -13770.7750   2.0000                                                             
     2  1  1.50    -11931.0468   6.0000                                                             
     3  0  0.50     -3234.7234   2.0000                                                             
     3  1  1.50     -2699.2216   6.0000                                                             
     3  2  2.50     -2119.5714  10.0000                                                             
     4  0  0.50      -695.1528   2.0000                                                             
     4  1  1.50      -519.6034   6.0000                                                             
     4  2  2.50      -306.6786  10.0000                                                             
     4  3  3.50       -70.1041  14.0000                                                             
     5  0  0.50      -101.7747   2.0000                                                             
     5  1  1.50       -55.9873   6.0000                                                             
     6  1  1.50        -6.8029   0.0000                                                             
     5  2  2.50        -6.1423   9.0000                                                             
     6  0  0.50        -5.6573   1.0000                                                             
     5  3  2.50        -1.3606   0.0000                                                             
   Description                                                                                      
     l       E           TYP  RCUT    TYP  RCUT                                                     
     1    -55.9873477     23  2.000                                                                 
     1     27.2116520     23  2.000                                                                 
     2     -6.1423404     23  2.200                                                                 
     2     -4.6754623     23  2.200                                                                 
     0     -5.6573207     23  2.200                                                                 
     0     47.6203910     23  2.200                                                                 
     3      6.8029130     23  2.200                                                                 
  local pseudopotential read in
  partial core-charges read in
  partial kinetic energy density read in
  atomic valenz-charges read in
  non local Contribution for L=           1  read in
    real space projection operators read in
  non local Contribution for L=           1  read in
    real space projection operators read in
  non local Contribution for L=           2  read in
    real space projection operators read in
  non local Contribution for L=           2  read in
    real space projection operators read in
  non local Contribution for L=           0  read in
    real space projection operators read in
  non local Contribution for L=           0  read in
    real space projection operators read in
    PAW grid and wavefunctions read in
 
   number of l-projection  operators is LMAX  =           6
   number of lm-projection operators is LMMAX =          18
 
  PAW_PBE Pt_pv 12Dec2005               :
 energy of atom  1       EATOM=-2428.2504
 kinetic energy error for atom=    0.0827 (will be added to EATOM!!)
 
 
 POSCAR: Pt
  positions in cartesian coordinates
  No initial velocities read in
 exchange correlation table for  LEXCH =        8
   RHO(1)=    0.500       N(1)  =     2000
   RHO(2)=  100.500       N(2)  =     4000
 


--------------------------------------------------------------------------------------------------------


 ion  position               nearest neighbor table
   1  0.000  0.000  0.000-
 
  LATTYP: Found a face centered cubic cell.
 ALAT       =     3.9400000000
  
  Lattice vectors:
  
 A1 = (   0.0000000000,   1.9700000000,   1.9700000000)
 A2 = (   1.9700000000,   0.0000000000,   1.9700000000)
 A3 = (   1.9700000000,   1.9700000000,   0.0000000000)


Analysis of symmetry for initial positions (statically):
=====================================================================
 Subroutine PRICEL returns:
 Original cell was already a primitive cell.
 

 Routine SETGRP: Setting up the symmetry group for a 
 face centered cubic supercell.


 Subroutine GETGRP returns: Found 48 space group operations
 (whereof 48 operations were pure point group operations)
 out of a pool of 48 trial point group operations.


The static configuration has the point symmetry O_h .


Analysis of symmetry for dynamics (positions and initial velocities):
=====================================================================
 Subroutine PRICEL returns:
 Original cell was already a primitive cell.
 

 Routine SETGRP: Setting up the symmetry group for a 
 face centered cubic supercell.


 Subroutine GETGRP returns: Found 48 space group operations
 (whereof 48 operations were pure point group operations)
 out of a pool of 48 trial point group operations.


The dynamic configuration has the point symmetry O_h .


 Subroutine INISYM returns: Found 48 space group operations
 (whereof 48 operations are pure point group operations),
 and found     1 'primitive' translations


----------------------------------------------------------------------------------------

                                     Primitive cell                                     

  volume of cell :      15.2907

  direct lattice vectors                    reciprocal lattice vectors
     0.000000000  1.970000000  1.970000000    -0.253807107  0.253807107  0.253807107
     1.970000000  0.000000000  1.970000000     0.253807107 -0.253807107  0.253807107
     1.970000000  1.970000000  0.000000000     0.253807107  0.253807107 -0.253807107

  length of vectors
     2.786000718  2.786000718  2.786000718     0.439606804  0.439606804  0.439606804

  position of ions in fractional coordinates (direct lattice)
     0.000000000  0.000000000  0.000000000

  ion indices of the primitive-cell ions
   primitive index   ion index
                 1           1

----------------------------------------------------------------------------------------

 
 
 KPOINTS: Automatic mesh                          

Automatic generation of k-mesh.
 Grid dimensions read from file:
 generate k-points for:    6    6    6

 Generating k-lattice:

  Cartesian coordinates                     Fractional coordinates (reciprocal lattice)
    -0.042301184  0.042301184  0.042301184     0.166666667  0.000000000  0.000000000
     0.042301184 -0.042301184  0.042301184     0.000000000  0.166666667  0.000000000
     0.042301184  0.042301184 -0.042301184     0.000000000  0.000000000  0.166666667

  Length of vectors
     0.073267801  0.073267801  0.073267801

  Shift w.r.t. Gamma in fractional coordinates (k-lattice)
     0.500000000  0.500000000  0.500000000

 
 Subroutine IBZKPT returns following result:
 ===========================================
 
 Found     28 irreducible k-points:
 
 Following reciprocal coordinates:
            Coordinates               Weight
  0.083333  0.083333  0.083333      8.000000
  0.250000  0.083333  0.083333     24.000000
  0.416667  0.083333  0.083333     24.000000
 -0.416667  0.083333  0.083333     24.000000
 -0.250000  0.083333  0.083333     24.000000
 -0.083333  0.083333  0.083333     24.000000
  0.250000  0.250000  0.083333     24.000000
  0.416667  0.250000  0.083333     48.000000
 -0.416667  0.250000  0.083333     48.000000
 -0.250000  0.250000  0.083333     48.000000
 -0.083333  0.250000  0.083333     48.000000
  0.416667  0.416667  0.083333     24.000000
 -0.416667  0.416667  0.083333     48.000000
 -0.250000  0.416667  0.083333     48.000000
 -0.083333  0.416667  0.083333     48.000000
 -0.416667 -0.416667  0.083333     24.000000
 -0.250000 -0.416667  0.083333     48.000000
 -0.250000 -0.250000  0.083333     24.000000
  0.250000  0.250000  0.250000      8.000000
  0.416667  0.250000  0.250000     24.000000
 -0.416667  0.250000  0.250000     24.000000
 -0.250000  0.250000  0.250000     24.000000
  0.416667  0.416667  0.250000     24.000000
 -0.416667  0.416667  0.250000     48.000000
 -0.250000  0.416667  0.250000     48.000000
 -0.416667 -0.416667  0.250000     24.000000
  0.416667  0.416667  0.416667      8.000000
 -0.416667  0.416667  0.416667     24.000000
 
 Following cartesian coordinates:
            Coordinates               Weight
  0.021151  0.021151  0.021151      8.000000
 -0.021151  0.063452  0.063452     24.000000
 -0.063452  0.105753  0.105753     24.000000
  0.148054 -0.105753 -0.105753     24.000000
  0.105753 -0.063452 -0.063452     24.000000
  0.063452 -0.021151 -0.021151     24.000000
  0.021151  0.021151  0.105753     24.000000
 -0.021151  0.063452  0.148054     48.000000
  0.190355 -0.148054 -0.063452     48.000000
  0.148054 -0.105753 -0.021151     48.000000
  0.105753 -0.063452  0.021151     48.000000
  0.021151  0.021151  0.190355     24.000000
  0.232657 -0.190355 -0.021151     48.000000
  0.190355 -0.148054  0.021151     48.000000
  0.148054 -0.105753  0.063452     48.000000
  0.021151  0.021151 -0.232657     24.000000
 -0.021151  0.063452 -0.190355     48.000000
  0.021151  0.021151 -0.148054     24.000000
  0.063452  0.063452  0.063452      8.000000
  0.021151  0.105753  0.105753     24.000000
  0.232657 -0.105753 -0.105753     24.000000
  0.190355 -0.063452 -0.063452     24.000000
  0.063452  0.063452  0.148054     24.000000
  0.274958 -0.148054 -0.063452     48.000000
  0.232657 -0.105753 -0.021151     48.000000
  0.063452  0.063452 -0.274958     24.000000
  0.105753  0.105753  0.105753      8.000000
  0.317259 -0.105753 -0.105753     24.000000
 


--------------------------------------------------------------------------------------------------------




 Dimension of arrays:
   k-points           NKPTS =     28   k-points in BZ     NKDIM =     28   number of bands    NBANDS=     24
   number of dos      NEDOS =    301   number of ions     NIONS =      1
   non local maximal  LDIM  =      6   non local SUM 2l+1 LMDIM =     18
   total plane-waves  NPLWV =   5832
   max r-space proj   IRMAX =      1   max aug-charges    IRDMAX=  13184
   dimension x,y,z NGX =    18 NGY =   18 NGZ =   18
   dimension x,y,z NGXF=    36 NGYF=   36 NGZF=   36
   support grid    NGXF=    36 NGYF=   36 NGZF=   36
   ions per type =               1
   NGX,Y,Z   is equivalent  to a cutoff of  10.74, 10.74, 10.74 a.u.
   NGXF,Y,Z  is equivalent  to a cutoff of  21.48, 21.48, 21.48 a.u.

 SYSTEM =  Pt-fcc                                  
 POSCAR =  Pt                                      

 Startparameter for this run:
   NWRITE =      2    write-flag & timer
   PREC   = accura    normal or accurate (medium, high low for compatibility)
   ISTART =      0    job   : 0-new  1-cont  2-samecut
   ICHARG =      2    charge: 1-file 2-atom 10-const
   ISPIN  =      1    spin polarized calculation?
   LNONCOLLINEAR =      F non collinear calculations
   LSORBIT =      F    spin-orbit coupling
   INIWAV =      1    electr: 0-lowe 1-rand  2-diag
   LASPH  =      F    aspherical Exc in radial PAW
 Electronic Relaxation 1
   ENCUT  =  400.0 eV  29.40 Ry    5.42 a.u.   4.54  4.54  4.54*2*pi/ulx,y,z
   ENINI  =  400.0     initial cutoff
   ENAUG  =  527.0 eV  augmentation charge cutoff
   NELM   =    100;   NELMIN=  2; NELMDL= -5     # of ELM steps 
   EDIFF  = 0.1E-05   stopping-criterion for ELM
   LREAL  =      F    real-space projection
   NLSPLINE    = F    spline interpolate recip. space projectors
   LCOMPAT=      F    compatible to vasp.4.4
   GGA_COMPAT  = T    GGA compatible to vasp.4.4-vasp.4.6
   LMAXPAW     = -100 max onsite density
   LMAXMIX     =    2 max onsite mixed and CHGCAR
   VOSKOWN=      0    Vosko Wilk Nusair interpolation
   ROPT   =    0.00000
 Ionic relaxation
   EDIFFG = -.2E-01   stopping-criterion for IOM
   NSW    =      0    number of steps for IOM
   NBLOCK =      1;   KBLOCK =      1    inner block; outer block 
   IBRION =     -1    ionic relax: 0-MD 1-quasi-New 2-CG
   NFREE  =      0    steps in history (QN), initial steepest desc. (CG)
   ISIF   =      2    stress and relaxation
   IWAVPR =     10    prediction:  0-non 1-charg 2-wave 3-comb
   ISYM   =      1    0-nonsym 1-usesym 2-fastsym
   LCORR  =      T    Harris-Foulkes like correction to forces

   POTIM  = 0.5000    time-step for ionic-motion
   TEIN   =    0.0    initial temperature
   TEBEG  =    0.0;   TEEND  =   0.0 temperature during run
   SMASS  =  -3.00    Nose mass-parameter (am)
   estimated Nose-frequenzy (Omega)   =  0.10E-29 period in steps = 0.13E+47 mass=  -0.177E-27a.u.
   SCALEE = 1.0000    scale energy and forces
   NPACO  =    256;   APACO  = 10.0  distance and # of slots for P.C.
   PSTRESS=    0.0 pullay stress

  Mass of Ions in am
   POMASS = 195.08
  Ionic Valenz
   ZVAL   =  16.00
  Atomic Wigner-Seitz radii
   RWIGS  =  -1.00
  virtual crystal weights 
   VCA    =   1.00
   NELECT =      16.0000    total number of electrons
   NUPDOWN=      -1.0000    fix difference up-down

 DOS related values:
   EMIN   =  10.00;   EMAX   =-10.00  energy-range for DOS
   EFERMI =   0.00
   ISMEAR =     0;   SIGMA  =   0.05  broadening in eV -4-tet -1-fermi 0-gaus

 Electronic relaxation 2 (details)
   IALGO  =     38    algorithm
   LDIAG  =      T    sub-space diagonalisation (order eigenvalues)
   LSUBROT=      F    optimize rotation matrix (better conditioning)
   TURBO    =      0    0=normal 1=particle mesh
   IRESTART =      0    0=no restart 2=restart with 2 vectors
   NREBOOT  =      0    no. of reboots
   NMIN     =      0    reboot dimension
   EREF     =   0.00    reference energy to select bands
   IMIX   =      4    mixing-type and parameters
     AMIX     =   0.40;   BMIX     =  1.00
     AMIX_MAG =   1.60;   BMIX_MAG =  1.00
     AMIN     =   0.10
     WC   =   100.;   INIMIX=   1;  MIXPRE=   1;  MAXMIX= -45

 Intra band minimization:
   WEIMIN = 0.0000     energy-eigenvalue tresh-hold
   EBREAK =  0.10E-07  absolut break condition
   DEPER  =   0.30     relativ break condition  

   TIME   =   0.40     timestep for ELM

  volume/ion in A,a.u.               =      15.29       103.19
  Fermi-wavevector in a.u.,A,eV,Ry     =   1.662029  3.140779 37.583923  2.762340
  Thomas-Fermi vector in A             =   2.748990
 
 Write flags
   LWAVE        =      F    write WAVECAR
   LDOWNSAMPLE  =      F    k-point downsampling of WAVECAR
   LCHARG       =      F    write CHGCAR
   LVTOT        =      F    write LOCPOT, total local potential
   LVHAR        =      F    write LOCPOT, Hartree potential only
   LELF         =      F    write electronic localiz. function (ELF)
   LORBIT       =      0    0 simple, 1 ext, 2 COOP (PROOUT), +10 PAW based schemes


 Dipole corrections
   LMONO  =      F    monopole corrections only (constant potential shift)
   LDIPOL =      F    correct potential (dipole corrections)
   IDIPOL =      0    1-x, 2-y, 3-z, 4-all directions 
   EPSILON=  1.0000000 bulk dielectric constant

 Exchange correlation treatment:
   GGA     =    --    GGA type
   LEXCH   =     8    internal setting for exchange type
   LIBXC   =     F    Libxc                    
   VOSKOWN =     0    Vosko Wilk Nusair interpolation
   LHFCALC =     F    Hartree Fock is set to
   LHFONE  =     F    Hartree Fock one center treatment
   AEXX    =    0.0000 exact exchange contribution

 Linear response parameters
   LEPSILON=     F    determine dielectric tensor
   LRPA    =     F    only Hartree local field effects (RPA)
   LNABLA  =     F    use nabla operator in PAW spheres
   LVEL    =     F    velocity operator in full k-point grid
   CSHIFT  =0.1000    complex shift for real part using Kramers Kronig
   OMEGAMAX=  -1.0    maximum frequency
   DEG_THRESHOLD= 0.2000000E-02 threshold for treating states as degnerate
   RTIME   =   -0.100 relaxation time in fs
  (WPLASMAI=    0.000 imaginary part of plasma frequency in eV, 0.658/RTIME)
   DFIELD  = 0.0000000 0.0000000 0.0000000 field for delta impulse in time
 
  Optional k-point grid parameters
   LKPOINTS_OPT  =     F    use optional k-point grid
   KPOINTS_OPT_MODE=     1    mode for optional k-point grid
 
 Orbital magnetization related:
   ORBITALMAG=     F  switch on orbital magnetization
   LCHIMAG   =     F  perturbation theory with respect to B field
   DQ        =  0.001000  dq finite difference perturbation B field
   LLRAUG    =     F  two centre corrections for induced B field



--------------------------------------------------------------------------------------------------------


 Static calculation
 charge density and potential will be updated during run
 non-spin polarized calculation
 Variant of blocked Davidson
 Davidson routine will perform the subspace rotation
 perform sub-space diagonalisation
    after iterative eigenvector-optimisation
 modified Broyden-mixing scheme, WC =      100.0
 initial mixing is a Kerker type mixing with AMIX =  0.4000 and BMIX =      1.0000
 Hartree-type preconditioning will be used
 using additional bands           16
 reciprocal scheme for non local part
 use partial core corrections
 calculate Harris-corrections to forces 
   (improved forces if not selfconsistent)
 use gradient corrections 
 use of overlap-Matrix (Vanderbilt PP)
 Gauss-broadening in eV      SIGMA  =   0.05


--------------------------------------------------------------------------------------------------------


  energy-cutoff  :      400.00
  volume of cell :       15.29
      direct lattice vectors                 reciprocal lattice vectors
     0.000000000  1.970000000  1.970000000    -0.253807107  0.253807107  0.253807107
     1.970000000  0.000000000  1.970000000     0.253807107 -0.253807107  0.253807107
     1.970000000  1.970000000  0.000000000     0.253807107  0.253807107 -0.253807107

  length of vectors
     2.786000718  2.786000718  2.786000718     0.439606804  0.439606804  0.439606804


 
 k-points in units of 2pi/SCALE and weight: Automatic mesh                          
   0.02115059  0.02115059  0.02115059       0.009
  -0.02115059  0.06345178  0.06345178       0.028
  -0.06345178  0.10575296  0.10575296       0.028
   0.14805415 -0.10575296 -0.10575296       0.028
   0.10575296 -0.06345178 -0.06345178       0.028
   0.06345178 -0.02115059 -0.02115059       0.028
   0.02115059  0.02115059  0.10575296       0.028
  -0.02115059  0.06345178  0.14805415       0.056
   0.19035533 -0.14805415 -0.06345178       0.056
   0.14805415 -0.10575296 -0.02115059       0.056
   0.10575296 -0.06345178  0.02115059       0.056
   0.02115059  0.02115059  0.19035533       0.028
   0.23265651 -0.19035533 -0.02115059       0.056
   0.19035533 -0.14805415  0.02115059       0.056
   0.14805415 -0.10575296  0.06345178       0.056
   0.02115059  0.02115059 -0.23265651       0.028
  -0.02115059  0.06345178 -0.19035533       0.056
   0.02115059  0.02115059 -0.14805415       0.028
   0.06345178  0.06345178  0.06345178       0.009
   0.02115059  0.10575296  0.10575296       0.028
   0.23265651 -0.10575296 -0.10575296       0.028
   0.19035533 -0.06345178 -0.06345178       0.028
   0.06345178  0.06345178  0.14805415       0.028
   0.27495770 -0.14805415 -0.06345178       0.056
   0.23265651 -0.10575296 -0.02115059       0.056
   0.06345178  0.06345178 -0.27495770       0.028
   0.10575296  0.10575296  0.10575296       0.009
   0.31725888 -0.10575296 -0.10575296       0.028
 
 k-points in reciprocal lattice and weights: Automatic mesh                          
   0.08333333  0.08333333  0.08333333       0.009
   0.25000000  0.08333333  0.08333333       0.028
   0.41666667  0.08333333  0.08333333       0.028
  -0.41666667  0.08333333  0.08333333       0.028
  -0.25000000  0.08333333  0.08333333       0.028
  -0.08333333  0.08333333  0.08333333       0.028
   0.25000000  0.25000000  0.08333333       0.028
   0.41666667  0.25000000  0.08333333       0.056
  -0.41666667  0.25000000  0.08333333       0.056
  -0.25000000  0.25000000  0.08333333       0.056
  -0.08333333  0.25000000  0.08333333       0.056
   0.41666667  0.41666667  0.08333333       0.028
  -0.41666667  0.41666667  0.08333333       0.056
  -0.25000000  0.41666667  0.08333333       0.056
  -0.08333333  0.41666667  0.08333333       0.056
  -0.41666667 -0.41666667  0.08333333       0.028
  -0.25000000 -0.41666667  0.08333333       0.056
  -0.25000000 -0.25000000  0.08333333       0.028
   0.25000000  0.25000000  0.25000000       0.009
   0.41666667  0.25000000  0.25000000       0.028
  -0.41666667  0.25000000  0.25000000       0.028
  -0.25000000  0.25000000  0.25000000       0.028
   0.41666667  0.41666667  0.25000000       0.028
  -0.41666667  0.41666667  0.25000000       0.056
  -0.25000000  0.41666667  0.25000000       0.056
  -0.41666667 -0.41666667  0.25000000       0.028
   0.41666667  0.41666667  0.41666667       0.009
  -0.41666667  0.41666667  0.41666667       0.028
 
 position of ions in fractional coordinates (direct lattice) 
   0.00000000  0.00000000  0.00000000
 
 position of ions in cartesian coordinates  (Angst):
   0.00000000  0.00000000  0.00000000
 


--------------------------------------------------------------------------------------------------------


 k-point   1 :   0.0833 0.0833 0.0833  plane waves:     280
 k-point   2 :   0.2500 0.0833 0.0833  plane waves:     284
 k-point   3 :   0.4167 0.0833 0.0833  plane waves:     277
 k-point   4 :  -0.4167 0.0833 0.0833  plane waves:     275
 k-point   5 :  -0.2500 0.0833 0.0833  plane waves:     280
 k-point   6 :  -0.0833 0.0833 0.0833  plane waves:     285
 k-point   7 :   0.2500 0.2500 0.0833  plane waves:     291
 k-point   8 :   0.4167 0.2500 0.0833  plane waves:     280
 k-point   9 :  -0.4167 0.2500 0.0833  plane waves:     275
 k-point  10 :  -0.2500 0.2500 0.0833  plane waves:     274
 k-point  11 :  -0.0833 0.2500 0.0833  plane waves:     287
 k-point  12 :   0.4167 0.4167 0.0833  plane waves:     280
 k-point  13 :  -0.4167 0.4167 0.0833  plane waves:     278
 k-point  14 :  -0.2500 0.4167 0.0833  plane waves:     276
 k-point  15 :  -0.0833 0.4167 0.0833  plane waves:     275
 k-point  16 :  -0.4167-0.4167 0.0833  plane waves:     276
 k-point  17 :  -0.2500-0.4167 0.0833  plane waves:     275
 k-point  18 :  -0.2500-0.2500 0.0833  plane waves:     282
 k-point  19 :   0.2500 0.2500 0.2500  plane waves:     289
 k-point  20 :   0.4167 0.2500 0.2500  plane waves:     279
 k-point  21 :  -0.4167 0.2500 0.2500  plane waves:     278
 k-point  22 :  -0.2500 0.2500 0.2500  plane waves:     279
 k-point  23 :   0.4167 0.4167 0.2500  plane waves:     280
 k-point  24 :  -0.4167 0.4167 0.2500  plane waves:     275
 k-point  25 :  -0.2500 0.4167 0.2500  plane waves:     272
 k-point  26 :  -0.4167-0.4167 0.2500  plane waves:     274
 k-point  27 :   0.4167 0.4167 0.4167  plane waves:     269
 k-point  28 :  -0.4167 0.4167 0.4167  plane waves:     276

 maximum and minimum number of plane-waves per node :       291      269

 maximum number of plane-waves:       291
 maximum index in each direction: 
   IXMAX=    4   IYMAX=    4   IZMAX=    4
   IXMIN=   -4   IYMIN=   -4   IZMIN=   -4


 serial   3D FFT for wavefunctions
 parallel 3D FFT for charge:
    minimum data exchange during FFTs selected (reduces bandwidth)


 total amount of memory used by VASP MPI-rank0    31907. kBytes
=======================================================================

   base      :      30000. kBytes
   nonl-proj :       1262. kBytes
   fftplans  :        113. kBytes
   grid      :        367. kBytes
   one-center:         15. kBytes
   wavefun   :        150. kBytes
 
     INWAV:  cpu time      0.0000: real time      0.0004
 Broyden mixing: mesh for mixing (old mesh)
   NGX =  9   NGY =  9   NGZ =  9
  (NGX  = 36   NGY  = 36   NGZ  = 36)
  gives a total of    729 points

 initial charge density was supplied:
 charge density of overlapping atoms calculated
 number of electron      16.0000000 magnetization 
 keeping initial charge density in first step


--------------------------------------------------------------------------------------------------------


 Maximum index for augmentation-charges          848 (set IRDMAX)


--------------------------------------------------------------------------------------------------------


 First call to EWALD:  gamma=   0.714
 Maximum number of real-space cells 3x 3x 3
 Maximum number of reciprocal cells 3x 3x 3

    FEWALD:  cpu time      0.0014: real time      0.0015


--------------------------------------- Iteration      1(   1)  ---------------------------------------


    POTLOK:  cpu time      0.0030: real time      0.0031
    SETDIJ:  cpu time      0.0022: real time      0.0022
     EDDAV:  cpu time      0.1226: real time      0.1233
       DOS:  cpu time      0.0003: real time      0.0003
    --------------------------------------------
      LOOP:  cpu time      0.1281: real time      0.1289

 eigenvalue-minimisations  :  1512
 total energy-change (2. order) : 0.1378634E+02  (-0.1131218E+04)
 number of electron      16.0000000 magnetization 
 augmentation part       16.0000000 magnetization 

 Free energy of the ion-electron system (eV)
  ---------------------------------------------------
  alpha Z        PSCENC =       156.91311333
  Ewald energy   TEWEN  =     -2144.84590610
  -Hartree energ DENC   =      -397.82488156
  -exchange      EXHF   =         0.00000000
  -V(xc)+E(xc)   XCENC  =        63.81680517
  PAW double counting   =      2065.75261637    -2030.83594803
  entropy T*S    EENTRO =        -0.00107064
  eigenvalues    EBANDS =      -127.35605651
  atomic energy  EATOM  =      2428.16766516
  Solvation  Ediel_sol  =         0.00000000
  ---------------------------------------------------
  free energy    TOTEN  =        13.78633717 eV

  energy without entropy =       13.78740782  energy(sigma->0) =       13.78687249


--------------------------------------------------------------------------------------------------------




--------------------------------------- Iteration      1(   2)  ---------------------------------------


     EDDAV:  cpu time      0.1597: real time      0.1626
       DOS:  cpu time      0.0002: real time      0.0002
    --------------------------------------------
      LOOP:  cpu time      0.1599: real time      0.1628

 eigenvalue-minimisations  :  1776
 total energy-change (2. order) :-0.2020153E+02  (-0.2007123E+02)
 number of electron      16.0000000 magnetization 
 augmentation part       16.0000000 magnetization 

 Free energy of the ion-electron system (eV)
  ---------------------------------------------------
  alpha Z        PSCENC =       156.91311333
  Ewald energy   TEWEN  =     -2144.84590610
  -Hartree energ DENC   =      -397.82488156
  -exchange      EXHF   =         0.00000000
  -V(xc)+E(xc)   XCENC  =        63.81680517
  PAW double counting   =      2065.75261637    -2030.83594803
  entropy T*S    EENTRO =        -0.00153712
  eigenvalues    EBANDS =      -147.55712205
  atomic energy  EATOM  =      2428.16766516
  Solvation  Ediel_sol  =         0.00000000
  ---------------------------------------------------
  free energy    TOTEN  =        -6.41519484 eV

  energy without entropy =       -6.41365772  energy(sigma->0) =       -6.41442628


--------------------------------------------------------------------------------------------------------




--------------------------------------- Iteration      1(   3)  ---------------------------------------


     EDDAV:  cpu time      0.1816: real time      0.1826
       DOS:  cpu time      0.0002: real time      0.0002
    --------------------------------------------
      LOOP:  cpu time      0.1818: real time      0.1828

 eigenvalue-minimisations  :  1848
 total energy-change (2. order) :-0.2640337E-01  (-0.2640313E-01)
 number of electron      16.0000000 magnetization 
 augmentation part       16.0000000 magnetization 

 Free energy of the ion-electron system (eV)
  ---------------------------------------------------
  alpha Z        PSCENC =       156.91311333
  Ewald energy   TEWEN  =     -2144.84590610
  -Hartree energ DENC   =      -397.82488156
  -exchange      EXHF   =         0.00000000
  -V(xc)+E(xc)   XCENC  =        63.81680517
  PAW double counting   =      2065.75261637    -2030.83594803
  entropy T*S    EENTRO =        -0.00152519
  eigenvalues    EBANDS =      -147.58353735
  atomic energy  EATOM  =      2428.16766516
  Solvation  Ediel_sol  =         0.00000000
  ---------------------------------------------------
  free energy    TOTEN  =        -6.44159821 eV

  energy without entropy =       -6.44007302  energy(sigma->0) =       -6.44083561


--------------------------------------------------------------------------------------------------------




--------------------------------------- Iteration      1(   4)  ---------------------------------------


     EDDAV:  cpu time      0.2003: real time      0.2014
       DOS:  cpu time      0.0002: real time      0.0002
    --------------------------------------------
      LOOP:  cpu time      0.2005: real time      0.2016

 eigenvalue-minimisations  :  1992
 total energy-change (2. order) :-0.1394747E-04  (-0.1394633E-04)
 number of electron      16.0000000 magnetization 
 augmentation part       16.0000000 magnetization 

 Free energy of the ion-electron system (eV)
  ---------------------------------------------------
  alpha Z        PSCENC =       156.91311333
  Ewald energy   TEWEN  =     -2144.84590610
  -Hartree energ DENC   =      -397.82488156
  -exchange      EXHF   =         0.00000000
  -V(xc)+E(xc)   XCENC  =        63.81680517
  PAW double counting   =      2065.75261637    -2030.83594803
  entropy T*S    EENTRO =        -0.00152519
  eigenvalues    EBANDS =      -147.58355130
  atomic energy  EATOM  =      2428.16766516
  Solvation  Ediel_sol  =         0.00000000
  ---------------------------------------------------
  free energy    TOTEN  =        -6.44161216 eV

  energy without entropy =       -6.44008697  energy(sigma->0) =       -6.44084956


--------------------------------------------------------------------------------------------------------




--------------------------------------- Iteration      1(   5)  ---------------------------------------


     EDDAV:  cpu time      0.1722: real time      0.1731
       DOS:  cpu time      0.0002: real time      0.0002
    CHARGE:  cpu time      0.0069: real time      0.0069
    MIXING:  cpu time      0.0002: real time      0.0002
    --------------------------------------------
      LOOP:  cpu time      0.1795: real time      0.1805

 eigenvalue-minimisations  :  1800
 total energy-change (2. order) :-0.1472017E-08  (-0.2046527E-09)
 number of electron      15.9999992 magnetization 
 augmentation part        3.9801233 magnetization 

 Broyden mixing:
  rms(total) = 0.14842E+01    rms(broyden)= 0.14841E+01
  rms(prec ) = 0.20292E+01
  weight for this iteration     100.00

 Free energy of the ion-electron system (eV)
  ---------------------------------------------------
  alpha Z        PSCENC =       156.91311333
  Ewald energy   TEWEN  =     -2144.84590610
  -Hartree energ DENC   =      -397.82488156
  -exchange      EXHF   =         0.00000000
  -V(xc)+E(xc)   XCENC  =        63.81680517
  PAW double counting   =      2065.75261637    -2030.83594803
  entropy T*S    EENTRO =        -0.00152519
  eigenvalues    EBANDS =      -147.58355130
  atomic energy  EATOM  =      2428.16766516
  Solvation  Ediel_sol  =         0.00000000
  ---------------------------------------------------
  free energy    TOTEN  =        -6.44161216 eV

  energy without entropy =       -6.44008697  energy(sigma->0) =       -6.44084956


--------------------------------------------------------------------------------------------------------




--------------------------------------- Iteration      1(   6)  ---------------------------------------


    POTLOK:  cpu time      0.0023: real time      0.0025
    SETDIJ:  cpu time      0.0018: real time      0.0019
     EDDAV:  cpu time      0.1199: real time      0.1205
       DOS:  cpu time      0.0002: real time      0.0002
    CHARGE:  cpu time      0.0065: real time      0.0065
    MIXING:  cpu time      0.0002: real time      0.0002
    --------------------------------------------
      LOOP:  cpu time      0.1310: real time      0.1318

 eigenvalue-minimisations  :  1488
 total energy-change (2. order) : 0.3249508E+00  (-0.1194282E+00)
 number of electron      15.9999992 magnetization 
 augmentation part        4.0894991 magnetization 

 Broyden mixing:
  rms(total) = 0.48261E+00    rms(broyden)= 0.48260E+00
  rms(prec ) = 0.59388E+00
  weight for this iteration     100.00

 eigenvalues of (default mixing * dielectric matrix)
  average eigenvalue GAMMA=   1.4582
  1.4582

 Free energy of the ion-electron system (eV)
  ---------------------------------------------------
  alpha Z        PSCENC =       156.91311333
  Ewald energy   TEWEN  =     -2144.84590610
  -Hartree energ DENC   =      -382.78154546
  -exchange      EXHF   =         0.00000000
  -V(xc)+E(xc)   XCENC  =        63.16727001
  PAW double counting   =      2235.03446718    -2202.14820789
  entropy T*S    EENTRO =        -0.00154685
  eigenvalues    EBANDS =      -159.62197076
  atomic energy  EATOM  =      2428.16766516
  Solvation  Ediel_sol  =         0.00000000
  ---------------------------------------------------
  free energy    TOTEN  =        -6.11666138 eV

  energy without entropy =       -6.11511453  energy(sigma->0) =       -6.11588795


--------------------------------------------------------------------------------------------------------




--------------------------------------- Iteration      1(   7)  ---------------------------------------


    POTLOK:  cpu time      0.0022: real time      0.0023
    SETDIJ:  cpu time      0.0018: real time      0.0018
     EDDAV:  cpu time      0.1930: real time      0.1939
       DOS:  cpu time      0.0002: real time      0.0002
    CHARGE:  cpu time      0.0063: real time      0.0063
    MIXING:  cpu time      0.0002: real time      0.0002
    --------------------------------------------
      LOOP:  cpu time      0.2036: real time      0.2047

 eigenvalue-minimisations  :  1992
 total energy-change (2. order) : 0.1965960E-01  (-0.8032175E-02)
 number of electron      15.9999992 magnetization 
 augmentation part        4.1161420 magnetization 

 Broyden mixing:
  rms(total) = 0.14669E+00    rms(broyden)= 0.14669E+00
  rms(prec ) = 0.17827E+00
  weight for this iteration     100.00

 eigenvalues of (default mixing * dielectric matrix)
  average eigenvalue GAMMA=   1.9596
  1.2036  2.7157

 Free energy of the ion-electron system (eV)
  ---------------------------------------------------
  alpha Z        PSCENC =       156.91311333
  Ewald energy   TEWEN  =     -2144.84590610
  -Hartree energ DENC   =      -378.68712717
  -exchange      EXHF   =         0.00000000
  -V(xc)+E(xc)   XCENC  =        62.98021940
  PAW double counting   =      2308.90543902    -2276.61872983
  entropy T*S    EENTRO =        -0.00155800
  eigenvalues    EBANDS =      -162.91011759
  atomic energy  EATOM  =      2428.16766516
  Solvation  Ediel_sol  =         0.00000000
  ---------------------------------------------------
  free energy    TOTEN  =        -6.09700177 eV

  energy without entropy =       -6.09544377  energy(sigma->0) =       -6.09622277


--------------------------------------------------------------------------------------------------------




--------------------------------------- Iteration      1(   8)  ---------------------------------------


    POTLOK:  cpu time      0.0021: real time      0.0023
    SETDIJ:  cpu time      0.0017: real time      0.0017
     EDDAV:  cpu time      0.1228: real time      0.1234
       DOS:  cpu time      0.0002: real time      0.0002
    CHARGE:  cpu time      0.0063: real time      0.0063
    MIXING:  cpu time      0.0002: real time      0.0002
    --------------------------------------------
      LOOP:  cpu time      0.1334: real time      0.1341

 eigenvalue-minimisations  :  1512
 total energy-change (2. order) : 0.1697288E-02  (-0.3927716E-03)
 number of electron      15.9999992 magnetization 
 augmentation part        4.1120331 magnetization 

 Broyden mixing:
  rms(total) = 0.14705E-01    rms(broyden)= 0.14698E-01
  rms(prec ) = 0.18515E-01
  weight for this iteration     100.00

 eigenvalues of (default mixing * dielectric matrix)
  average eigenvalue GAMMA=   1.5766
  1.0764  1.2213  2.4321

 Free energy of the ion-electron system (eV)
  ---------------------------------------------------
  alpha Z        PSCENC =       156.91311333
  Ewald energy   TEWEN  =     -2144.84590610
  -Hartree energ DENC   =      -378.56589109
  -exchange      EXHF   =         0.00000000
  -V(xc)+E(xc)   XCENC  =        62.96147234
  PAW double counting   =      2351.47269336    -2319.23984806
  entropy T*S    EENTRO =        -0.00154737
  eigenvalues    EBANDS =      -162.95705605
  atomic energy  EATOM  =      2428.16766516
  Solvation  Ediel_sol  =         0.00000000
  ---------------------------------------------------
  free energy    TOTEN  =        -6.09530448 eV

  energy without entropy =       -6.09375711  energy(sigma->0) =       -6.09453080


--------------------------------------------------------------------------------------------------------




--------------------------------------- Iteration      1(   9)  ---------------------------------------


    POTLOK:  cpu time      0.0021: real time      0.0022
    SETDIJ:  cpu time      0.0017: real time      0.0017
     EDDAV:  cpu time      0.1693: real time      0.1701
       DOS:  cpu time      0.0002: real time      0.0002
    CHARGE:  cpu time      0.0067: real time      0.0068
    MIXING:  cpu time      0.0002: real time      0.0002
    --------------------------------------------
      LOOP:  cpu time      0.1803: real time      0.1813

 eigenvalue-minimisations  :  1752
 total energy-change (2. order) : 0.6242081E-04  (-0.4369037E-05)
 number of electron      15.9999992 magnetization 
 augmentation part        4.1123266 magnetization 

 Broyden mixing:
  rms(total) = 0.15629E-02    rms(broyden)= 0.15617E-02
  rms(prec ) = 0.30563E-02
  weight for this iteration     100.00

 eigenvalues of (default mixing * dielectric matrix)
  average eigenvalue GAMMA=   1.8321
  1.0129  1.2071  2.7344  2.3738

 Free energy of the ion-electron system (eV)
  ---------------------------------------------------
  alpha Z        PSCENC =       156.91311333
  Ewald energy   TEWEN  =     -2144.84590610
  -Hartree energ DENC   =      -378.61418043
  -exchange      EXHF   =         0.00000000
  -V(xc)+E(xc)   XCENC  =        62.96470574
  PAW double counting   =      2348.47449308    -2316.21593026
  entropy T*S    EENTRO =        -0.00154868
  eigenvalues    EBANDS =      -162.93765390
  atomic energy  EATOM  =      2428.16766516
  Solvation  Ediel_sol  =         0.00000000
  ---------------------------------------------------
  free energy    TOTEN  =        -6.09524206 eV

  energy without entropy =       -6.09369339  energy(sigma->0) =       -6.09446773


--------------------------------------------------------------------------------------------------------




--------------------------------------- Iteration      1(  10)  ---------------------------------------


    POTLOK:  cpu time      0.0021: real time      0.0023
    SETDIJ:  cpu time      0.0020: real time      0.0020
     EDDAV:  cpu time      0.1806: real time      0.1814
       DOS:  cpu time      0.0002: real time      0.0002
    CHARGE:  cpu time      0.0063: real time      0.0063
    MIXING:  cpu time      0.0002: real time      0.0002
    --------------------------------------------
      LOOP:  cpu time      0.1914: real time      0.1924

 eigenvalue-minimisations  :  1896
 total energy-change (2. order) :-0.5150904E-05  (-0.4425828E-06)
 number of electron      15.9999992 magnetization 
 augmentation part        4.1123686 magnetization 

 Broyden mixing:
  rms(total) = 0.51813E-03    rms(broyden)= 0.51793E-03
  rms(prec ) = 0.52619E-03
  weight for this iteration     100.00

 eigenvalues of (default mixing * dielectric matrix)
  average eigenvalue GAMMA=   1.7628
  2.6734  2.3407  0.9922  1.2120  1.5955

 Free energy of the ion-electron system (eV)
  ---------------------------------------------------
  alpha Z        PSCENC =       156.91311333
  Ewald energy   TEWEN  =     -2144.84590610
  -Hartree energ DENC   =      -378.64170472
  -exchange      EXHF   =         0.00000000
  -V(xc)+E(xc)   XCENC  =        62.96575195
  PAW double counting   =      2350.17908644    -2317.89471814
  entropy T*S    EENTRO =        -0.00154908
  eigenvalues    EBANDS =      -162.93698605
  atomic energy  EATOM  =      2428.16766516
  Solvation  Ediel_sol  =         0.00000000
  ---------------------------------------------------
  free energy    TOTEN  =        -6.09524721 eV

  energy without entropy =       -6.09369814  energy(sigma->0) =       -6.09447268


--------------------------------------------------------------------------------------------------------




--------------------------------------- Iteration      1(  11)  ---------------------------------------


    POTLOK:  cpu time      0.0020: real time      0.0021
    SETDIJ:  cpu time      0.0018: real time      0.0018
     EDDAV:  cpu time      0.0554: real time      0.0557
       DOS:  cpu time      0.0002: real time      0.0002
    --------------------------------------------
      LOOP:  cpu time      0.0594: real time      0.0598

 eigenvalue-minimisations  :   816
 total energy-change (2. order) : 0.4866206E-07  (-0.3220180E-09)
 number of electron      15.9999992 magnetization 
 augmentation part        4.1123686 magnetization 

 Free energy of the ion-electron system (eV)
  ---------------------------------------------------
  alpha Z        PSCENC =       156.91311333
  Ewald energy   TEWEN  =     -2144.84590610
  -Hartree energ DENC   =      -378.64128383
  -exchange      EXHF   =         0.00000000
  -V(xc)+E(xc)   XCENC  =        62.96573157
  PAW double counting   =      2350.02442314    -2317.74041011
  entropy T*S    EENTRO =        -0.00154908
  eigenvalues    EBANDS =      -162.93703124
  atomic energy  EATOM  =      2428.16766516
  Solvation  Ediel_sol  =         0.00000000
  ---------------------------------------------------
  free energy    TOTEN  =        -6.09524717 eV

  energy without entropy =       -6.09369809  energy(sigma->0) =       -6.09447263


--------------------------------------------------------------------------------------------------------




 average (electrostatic) potential at core
  the test charge radii are     0.9952
  (the norm of the test charge is              1.0000)
       1 -88.9477
 
 
 
 E-fermi :  11.7986     XC(G=0): -13.9144     alpha+bet :-17.1560

 Fermi energy:        11.7985656958

 k-point     1 :       0.0833    0.0833    0.0833
  band No.  band energies     occupation 
      1     -40.7171      2.00000
      2     -40.6906      2.00000
      3     -40.6906      2.00000
      4       1.9710      2.00000
      5       7.9676      2.00000
      6       8.1921      2.00000
      7       8.1921      2.00000
      8      10.1453      2.00000
      9      10.1453      2.00000
     10      26.8579      0.00000
     11      30.0035      0.00000
     12      31.7399      0.00000
     13      31.7399      0.00000
     14      37.9669      0.00000
     15      40.8619      0.00000
     16      41.9461      0.00000
     17      41.9461      0.00000
     18      46.2475      0.00000
     19      46.2475      0.00000
     20      47.9442      0.00000
     21      52.6210      0.00000
     22      52.8299      0.00000
     23      52.8299      0.00000
     24      60.3241      0.00000

 k-point     2 :       0.2500    0.0833    0.0833
  band No.  band energies     occupation 
      1     -40.8458      2.00000
      2     -40.7330      2.00000
      3     -40.7031      2.00000
      4       3.2920      2.00000
      5       7.5131      2.00000
      6       8.5090      2.00000
      7       8.6054      2.00000
      8       9.7231      2.00000
      9      10.5753      2.00000
     10      26.8900      0.00000
     11      28.3246      0.00000
     12      31.7239      0.00000
     13      34.2591      0.00000
     14      34.6183      0.00000
     15      38.9292      0.00000
     16      39.3574      0.00000
     17      43.3108      0.00000
     18      43.8740      0.00000
     19      47.8397      0.00000
     20      50.0823      0.00000
     21      52.5996      0.00000
     22      53.2507      0.00000
     23      55.0814      0.00000
     24      61.3965      0.00000

 k-point     3 :       0.4167    0.0833    0.0833
  band No.  band energies     occupation 
      1     -41.0494      2.00000
      2     -40.7684      2.00000
      3     -40.7379      2.00000
      4       4.7468      2.00000
      5       8.0853      2.00000
      6       8.3582      2.00000
      7       8.6617      2.00000
      8      10.8326      2.00000
      9      12.0392      0.00000
     10      21.0623      0.00000
     11      27.1301      0.00000
     12      30.3580      0.00000
     13      33.1458      0.00000
     14      36.1756      0.00000
     15      38.7765      0.00000
     16      39.6231      0.00000
     17      44.5843      0.00000
     18      47.3909      0.00000
     19      50.1715      0.00000
     20      51.4377      0.00000
     21      52.6175      0.00000
     22      54.3786      0.00000
     23      56.1775      0.00000
     24      58.0920      0.00000

 k-point     4 :      -0.4167    0.0833    0.0833
  band No.  band energies     occupation 
      1     -41.1205      2.00000
      2     -40.7707      2.00000
      3     -40.7586      2.00000
      4       4.8111      2.00000
      5       7.8512      2.00000
      6       8.2190      2.00000
      7      10.0248      2.00000
      8      11.8571      0.09765
      9      13.1131      0.00000
     10      17.6530      0.00000
     11      26.4065      0.00000
     12      30.1793      0.00000
     13      30.2819      0.00000
     14      39.3437      0.00000
     15      39.8640      0.00000
     16      41.5734      0.00000
     17      45.2164      0.00000
     18      47.5340      0.00000
     19      47.9561      0.00000
     20      52.6146      0.00000
     21      52.9741      0.00000
     22      54.3854      0.00000
     23      56.8328      0.00000
     24      58.3415      0.00000

 k-point     5 :      -0.2500    0.0833    0.0833
  band No.  band energies     occupation 
      1     -40.9884      2.00000
      2     -40.7466      2.00000
      3     -40.7385      2.00000
      4       4.4784      2.00000
      5       7.8029      2.00000
      6       8.2376      2.00000
      7       8.5512      2.00000
      8      10.7359      2.00000
      9      11.1636      2.00000
     10      23.1514      0.00000
     11      27.8392      0.00000
     12      31.5747      0.00000
     13      33.1335      0.00000
     14      36.6755      0.00000
     15      36.9845      0.00000
     16      38.2691      0.00000
     17      43.4885      0.00000
     18      48.9548      0.00000
     19      49.3909      0.00000
     20      50.9148      0.00000
     21      51.7449      0.00000
     22      52.6125      0.00000
     23      57.0602      0.00000
     24      59.3546      0.00000

 k-point     6 :      -0.0833    0.0833    0.0833
  band No.  band energies     occupation 
      1     -40.7790      2.00000
      2     -40.7127      2.00000
      3     -40.7060      2.00000
      4       2.6721      2.00000
      5       7.5886      2.00000
      6       8.4962      2.00000
      7       8.5106      2.00000
      8       9.7188      2.00000
      9      10.3840      2.00000
     10      27.8339      0.00000
     11      28.6520      0.00000
     12      31.6439      0.00000
     13      32.3266      0.00000
     14      37.4094      0.00000
     15      38.8451      0.00000
     16      41.0072      0.00000
     17      41.8458      0.00000
     18      43.3416      0.00000
     19      49.0711      0.00000
     20      50.0584      0.00000
     21      50.6617      0.00000
     22      52.6016      0.00000
     23      54.9046      0.00000
     24      61.5080      0.00000

 k-point     7 :       0.2500    0.2500    0.0833
  band No.  band energies     occupation 
      1     -40.8706      2.00000
      2     -40.7500      2.00000
      3     -40.7466      2.00000
      4       3.9065      2.00000
      5       6.9428      2.00000
      6       8.6707      2.00000
      7       9.1292      2.00000
      8       9.6496      2.00000
      9      10.8109      2.00000
     10      27.5954      0.00000
     11      29.3826      0.00000
     12      30.2697      0.00000
     13      31.2454      0.00000
     14      35.3092      0.00000
     15      37.9169      0.00000
     16      38.5609      0.00000
     17      43.7273      0.00000
     18      46.2272      0.00000
     19      46.7105      0.00000
     20      51.4703      0.00000
     21      52.4211      0.00000
     22      52.5786      0.00000
     23      55.7190      0.00000
     24      63.0745      0.00000

 k-point     8 :       0.4167    0.2500    0.0833
  band No.  band energies     occupation 
      1     -40.9964      2.00000
      2     -40.8201      2.00000
      3     -40.7743      2.00000
      4       5.4587      2.00000
      5       6.6728      2.00000
      6       7.9326      2.00000
      7       9.6913      2.00000
      8      10.7927      2.00000
      9      12.3277      0.00000
     10      23.5381      0.00000
     11      27.0314      0.00000
     12      28.4009      0.00000
     13      32.1185      0.00000
     14      35.2154      0.00000
     15      38.6319      0.00000
     16      40.5370      0.00000
     17      43.5923      0.00000
     18      45.9574      0.00000
     19      49.2854      0.00000
     20      52.6097      0.00000
     21      52.8629      0.00000
     22      53.7725      0.00000
     23      56.6723      0.00000
     24      60.8684      0.00000

 k-point     9 :      -0.4167    0.2500    0.0833
  band No.  band energies     occupation 
      1     -41.0719      2.00000
      2     -40.8691      2.00000
      3     -40.7914      2.00000
      4       5.8170      2.00000
      5       7.0995      2.00000
      6       8.3285      2.00000
      7       9.2474      2.00000
      8      11.6897      1.99792
      9      15.9089      0.00000
     10      17.5329      0.00000
     11      26.1259      0.00000
     12      27.1565      0.00000
     13      30.6650      0.00000
     14      37.9419      0.00000
     15      40.4286      0.00000
     16      42.2413      0.00000
     17      44.3131      0.00000
     18      47.0329      0.00000
     19      50.3180      0.00000
     20      50.9346      0.00000
     21      52.6193      0.00000
     22      53.5062      0.00000
     23      57.1984      0.00000
     24      58.6127      0.00000

 k-point    10 :      -0.2500    0.2500    0.0833
  band No.  band energies     occupation 
      1     -41.0236      2.00000
      2     -40.8639      2.00000
      3     -40.7629      2.00000
      4       5.9489      2.00000
      5       7.3724      2.00000
      6       7.4544      2.00000
      7       9.3812      2.00000
      8      10.5884      2.00000
      9      13.6475      0.00000
     10      21.6360      0.00000
     11      25.4305      0.00000
     12      28.5952      0.00000
     13      32.7350      0.00000
     14      35.0001      0.00000
     15      39.9235      0.00000
     16      42.1765      0.00000
     17      43.7213      0.00000
     18      46.7401      0.00000
     19      48.8263      0.00000
     20      51.5081      0.00000
     21      52.6267      0.00000
     22      55.8287      0.00000
     23      56.4959      0.00000
     24      57.9828      0.00000

 k-point    11 :      -0.0833    0.2500    0.0833
  band No.  band energies     occupation 
      1     -40.9262      2.00000
      2     -40.7725      2.00000
      3     -40.7288      2.00000
      4       4.3813      2.00000
      5       7.1463      2.00000
      6       8.3100      2.00000
      7       9.0129      2.00000
      8       9.8616      2.00000
      9      11.3119      2.00000
     10      25.3783      0.00000
     11      28.4526      0.00000
     12      30.5973      0.00000
     13      32.0728      0.00000
     14      36.7597      0.00000
     15      37.2226      0.00000
     16      39.6073      0.00000
     17      42.0775      0.00000
     18      46.9287      0.00000
     19      48.3954      0.00000
     20      49.4296      0.00000
     21      52.5877      0.00000
     22      54.5804      0.00000
     23      57.1972      0.00000
     24      59.8487      0.00000

 k-point    12 :       0.4167    0.4167    0.0833
  band No.  band energies     occupation 
      1     -41.0495      2.00000
      2     -40.8401      2.00000
      3     -40.8284      2.00000
      4       5.2220      2.00000
      5       5.7495      2.00000
      6       9.8695      2.00000
      7      10.8984      2.00000
      8      11.8239      0.47368
      9      12.3519      0.00000
     10      23.2744      0.00000
     11      25.2498      0.00000
     12      25.4175      0.00000
     13      31.5599      0.00000
     14      33.8319      0.00000
     15      40.5264      0.00000
     16      42.5400      0.00000
     17      43.8838      0.00000
     18      47.2006      0.00000
     19      48.1551      0.00000
     20      52.6135      0.00000
     21      54.5095      0.00000
     22      55.0201      0.00000
     23      57.0346      0.00000
     24      57.6854      0.00000

 k-point    13 :      -0.4167    0.4167    0.0833
  band No.  band energies     occupation 
      1     -41.0670      2.00000
      2     -40.9005      2.00000
      3     -40.8451      2.00000
      4       5.4736      2.00000
      5       5.9424      2.00000
      6       9.4719      2.00000
      7      10.9104      2.00000
      8      12.0807      0.00000
      9      16.2239      0.00000
     10      19.5312      0.00000
     11      22.6583      0.00000
     12      24.3640      0.00000
     13      33.2730      0.00000
     14      35.7154      0.00000
     15      39.0866      0.00000
     16      43.4659      0.00000
     17      46.5752      0.00000
     18      47.2784      0.00000
     19      49.5988      0.00000
     20      51.5763      0.00000
     21      52.6097      0.00000
     22      53.6296      0.00000
     23      55.7968      0.00000
     24      57.2703      0.00000

 k-point    14 :      -0.2500    0.4167    0.0833
  band No.  band energies     occupation 
      1     -41.0238      2.00000
      2     -40.9490      2.00000
      3     -40.8073      2.00000
      4       6.2044      2.00000
      5       6.9256      2.00000
      6       7.9909      2.00000
      7       9.8196      2.00000
      8      11.4518      2.00000
      9      16.4478      0.00000
     10      19.1375      0.00000
     11      22.7553      0.00000
     12      27.0433      0.00000
     13      31.7437      0.00000
     14      37.2918      0.00000
     15      40.4392      0.00000
     16      41.1447      0.00000
     17      45.5154      0.00000
     18      47.4613      0.00000
     19      51.6133      0.00000
     20      52.3701      0.00000
     21      52.4898      0.00000
     22      52.6103      0.00000
     23      54.7102      0.00000
     24      58.9678      0.00000

 k-point    15 :      -0.0833    0.4167    0.0833
  band No.  band energies     occupation 
      1     -41.0808      2.00000
      2     -40.8069      2.00000
      3     -40.7625      2.00000
      4       5.2189      2.00000
      5       7.6396      2.00000
      6       8.5521      2.00000
      7       8.7868      2.00000
      8      11.4713      2.00000
      9      13.4682      0.00000
     10      19.1622      0.00000
     11      27.0907      0.00000
     12      28.5768      0.00000
     13      31.1948      0.00000
     14      37.6003      0.00000
     15      39.9559      0.00000
     16      41.9368      0.00000
     17      43.3028      0.00000
     18      48.8437      0.00000
     19      49.3523      0.00000
     20      50.0642      0.00000
     21      52.6204      0.00000
     22      54.9606      0.00000
     23      56.8590      0.00000
     24      58.2779      0.00000

 k-point    16 :      -0.4167   -0.4167    0.0833
  band No.  band energies     occupation 
      1     -41.0959      2.00000
      2     -40.8654      2.00000
      3     -40.8488      2.00000
      4       5.0176      2.00000
      5       5.4626      2.00000
      6      11.1157      2.00000
      7      11.5245      2.00000
      8      12.1563      0.00000
      9      14.2992      0.00000
     10      20.6298      0.00000
     11      23.1597      0.00000
     12      23.7627      0.00000
     13      32.1342      0.00000
     14      34.7863      0.00000
     15      40.0860      0.00000
     16      44.8152      0.00000
     17      46.7706      0.00000
     18      47.2330      0.00000
     19      49.4039      0.00000
     20      52.6240      0.00000
     21      52.6989      0.00000
     22      53.4377      0.00000
     23      54.0273      0.00000
     24      55.6650      0.00000

 k-point    17 :      -0.2500   -0.4167    0.0833
  band No.  band energies     occupation 
      1     -41.0444      2.00000
      2     -40.8674      2.00000
      3     -40.8190      2.00000
      4       5.6712      2.00000
      5       6.2168      2.00000
      6       8.5292      2.00000
      7      10.5074      2.00000
      8      11.6463      1.99998
      9      13.9741      0.00000
     10      21.4013      0.00000
     11      24.8214      0.00000
     12      25.9919      0.00000
     13      32.4943      0.00000
     14      35.2326      0.00000
     15      39.3936      0.00000
     16      42.3959      0.00000
     17      44.7540      0.00000
     18      47.1573      0.00000
     19      48.5916      0.00000
     20      51.4603      0.00000
     21      52.6291      0.00000
     22      55.1236      0.00000
     23      58.1133      0.00000
     24      59.4692      0.00000

 k-point    18 :      -0.2500   -0.2500    0.0833
  band No.  band energies     occupation 
      1     -40.9675      2.00000
      2     -40.7964      2.00000
      3     -40.7918      2.00000
      4       5.0533      2.00000
      5       6.2760      2.00000
      6       8.6597      2.00000
      7       9.9829      2.00000
      8      10.7247      2.00000
      9      11.3325      2.00000
     10      25.9087      0.00000
     11      27.6870      0.00000
     12      28.5591      0.00000
     13      31.3835      0.00000
     14      32.7443      0.00000
     15      39.2770      0.00000
     16      39.8831      0.00000
     17      44.2211      0.00000
     18      45.1170      0.00000
     19      49.5226      0.00000
     20      52.6119      0.00000
     21      53.5014      0.00000
     22      54.0190      0.00000
     23      54.9012      0.00000
     24      61.9093      0.00000

 k-point    19 :       0.2500    0.2500    0.2500
  band No.  band energies     occupation 
      1     -40.9144      2.00000
      2     -40.7198      2.00000
      3     -40.7198      2.00000
      4       3.7309      2.00000
      5       7.7411      2.00000
      6       8.4526      2.00000
      7       8.4526      2.00000
      8      10.3765      2.00000
      9      10.3765      2.00000
     10      25.0047      0.00000
     11      28.1173      0.00000
     12      34.2460      0.00000
     13      34.2460      0.00000
     14      35.1684      0.00000
     15      36.5444      0.00000
     16      36.5444      0.00000
     17      45.8970      0.00000
     18      46.8951      0.00000
     19      46.8951      0.00000
     20      50.6627      0.00000
     21      52.5826      0.00000
     22      53.5231      0.00000
     23      53.5231      0.00000
     24      61.1048      0.00000

 k-point    20 :       0.4167    0.2500    0.2500
  band No.  band energies     occupation 
      1     -40.9846      2.00000
      2     -40.8143      2.00000
      3     -40.7321      2.00000
      4       5.1541      2.00000
      5       7.3552      2.00000
      6       8.0659      2.00000
      7       8.9600      2.00000
      8       9.8937      2.00000
      9      12.3861      0.00000
     10      23.4037      0.00000
     11      27.1422      0.00000
     12      29.5791      0.00000
     13      33.3309      0.00000
     14      34.8919      0.00000
     15      39.3412      0.00000
     16      41.6866      0.00000
     17      41.7560      0.00000
     18      46.1873      0.00000
     19      47.7459      0.00000
     20      52.6135      0.00000
     21      52.9273      0.00000
     22      55.5665      0.00000
     23      56.6764      0.00000
     24      58.1856      0.00000

 k-point    21 :      -0.4167    0.2500    0.2500
  band No.  band energies     occupation 
      1     -41.0332      2.00000
      2     -40.9131      2.00000
      3     -40.7748      2.00000
      4       6.1468      2.00000
      5       7.2612      2.00000
      6       7.9142      2.00000
      7       9.3607      2.00000
      8      10.8317      2.00000
      9      14.8664      0.00000
     10      20.3010      0.00000
     11      23.8121      0.00000
     12      29.4900      0.00000
     13      30.5334      0.00000
     14      36.5371      0.00000
     15      39.0839      0.00000
     16      42.7422      0.00000
     17      46.9139      0.00000
     18      48.0028      0.00000
     19      49.0588      0.00000
     20      50.2178      0.00000
     21      52.6057      0.00000
     22      53.0222      0.00000
     23      55.8878      0.00000
     24      58.7419      0.00000

 k-point    22 :      -0.2500    0.2500    0.2500
  band No.  band energies     occupation 
      1     -41.0592      2.00000
      2     -40.8692      2.00000
      3     -40.8043      2.00000
      4       5.6568      2.00000
      5       6.7999      2.00000
      6       8.3342      2.00000
      7       9.6488      2.00000
      8      11.9668      0.00000
      9      14.8012      0.00000
     10      19.1153      0.00000
     11      25.7540      0.00000
     12      27.2837      0.00000
     13      30.5184      0.00000
     14      38.3113      0.00000
     15      39.0639      0.00000
     16      41.1342      0.00000
     17      44.9066      0.00000
     18      47.7528      0.00000
     19      48.4265      0.00000
     20      52.6076      0.00000
     21      52.8187      0.00000
     22      54.4299      0.00000
     23      56.9654      0.00000
     24      60.4586      0.00000

 k-point    23 :       0.4167    0.4167    0.2500
  band No.  band energies     occupation 
      1     -41.0411      2.00000
      2     -40.7942      2.00000
      3     -40.7778      2.00000
      4       5.2553      2.00000
      5       7.4354      2.00000
      6       7.9551      2.00000
      7       8.9699      2.00000
      8      11.7765      1.46832
      9      12.3303      0.00000
     10      21.1374      0.00000
     11      27.6901      0.00000
     12      29.0116      0.00000
     13      30.8255      0.00000
     14      38.2284      0.00000
     15      38.4554      0.00000
     16      40.2665      0.00000
     17      42.2925      0.00000
     18      48.0562      0.00000
     19      49.9351      0.00000
     20      52.2177      0.00000
     21      52.6039      0.00000
     22      54.4010      0.00000
     23      55.8298      0.00000
     24      58.8093      0.00000

 k-point    24 :      -0.4167    0.4167    0.2500
  band No.  band energies     occupation 
      1     -41.0334      2.00000
      2     -40.9122      2.00000
      3     -40.8088      2.00000
      4       6.4022      2.00000
      5       6.8420      2.00000
      6       7.4881      2.00000
      7       9.9722      2.00000
      8      11.4308      2.00000
      9      15.4109      0.00000
     10      20.1286      0.00000
     11      23.7153      0.00000
     12      26.3976      0.00000
     13      32.9396      0.00000
     14      35.9163      0.00000
     15      41.3217      0.00000
     16      41.5360      0.00000
     17      43.7554      0.00000
     18      47.5345      0.00000
     19      49.6757      0.00000
     20      51.2134      0.00000
     21      52.6180      0.00000
     22      53.9123      0.00000
     23      57.1335      0.00000
     24      59.0034      0.00000

 k-point    25 :      -0.2500    0.4167    0.2500
  band No.  band energies     occupation 
      1     -41.0184      2.00000
      2     -40.9507      2.00000
      3     -40.8440      2.00000
      4       6.1824      2.00000
      5       6.7473      2.00000
      6       7.9337      2.00000
      7      10.0539      2.00000
      8      12.0501      0.00000
      9      17.7404      0.00000
     10      19.1647      0.00000
     11      21.8048      0.00000
     12      24.4370      0.00000
     13      34.3695      0.00000
     14      36.6405      0.00000
     15      39.2425      0.00000
     16      43.4483      0.00000
     17      44.0279      0.00000
     18      45.9318      0.00000
     19      49.5296      0.00000
     20      52.6245      0.00000
     21      53.1062      0.00000
     22      54.5609      0.00000
     23      57.7860      0.00000
     24      58.7576      0.00000

 k-point    26 :      -0.4167   -0.4167    0.2500
  band No.  band energies     occupation 
      1     -41.0445      2.00000
      2     -40.9361      2.00000
      3     -40.8197      2.00000
      4       5.6662      2.00000
      5       6.4728      2.00000
      6       8.9021      2.00000
      7      10.3613      2.00000
      8      11.7242      1.96454
      9      17.4407      0.00000
     10      17.9221      0.00000
     11      22.5957      0.00000
     12      26.4687      0.00000
     13      31.4604      0.00000
     14      38.1883      0.00000
     15      39.1679      0.00000
     16      40.6349      0.00000
     17      47.9549      0.00000
     18      48.3928      0.00000
     19      48.9563      0.00000
     20      52.3301      0.00000
     21      52.6205      0.00000
     22      53.1503      0.00000
     23      56.5306      0.00000
     24      57.6887      0.00000

 k-point    27 :       0.4167    0.4167    0.4167
  band No.  band energies     occupation 
      1     -41.1030      2.00000
      2     -40.7472      2.00000
      3     -40.7472      2.00000
      4       4.5850      2.00000
      5       8.0963      2.00000
      6       8.0963      2.00000
      7      10.2525      2.00000
      8      11.5927      2.00000
      9      11.5927      2.00000
     10      19.0502      0.00000
     11      26.3105      0.00000
     12      31.2986      0.00000
     13      31.2986      0.00000
     14      39.0209      0.00000
     15      39.0209      0.00000
     16      39.4371      0.00000
     17      46.9131      0.00000
     18      46.9131      0.00000
     19      48.0876      0.00000
     20      52.6385      0.00000
     21      54.9139      0.00000
     22      54.9139      0.00000
     23      55.8133      0.00000
     24      58.0857      0.00000

 k-point    28 :      -0.4167    0.4167    0.4167
  band No.  band energies     occupation 
      1     -41.0928      2.00000
      2     -40.8328      2.00000
      3     -40.7691      2.00000
      4       5.4013      2.00000
      5       7.4615      2.00000
      6       8.6961      2.00000
      7       8.9836      2.00000
      8      11.5121      2.00000
      9      14.7989      0.00000
     10      17.7212      0.00000
     11      26.5216      0.00000
     12      28.6236      0.00000
     13      30.2031      0.00000
     14      38.4320      0.00000
     15      39.3483      0.00000
     16      42.7977      0.00000
     17      46.1936      0.00000
     18      47.6154      0.00000
     19      47.6855      0.00000
     20      51.6160      0.00000
     21      52.3635      0.00000
     22      52.6183      0.00000
     23      57.7021      0.00000
     24      58.6017      0.00000


--------------------------------------------------------------------------------------------------------


 soft charge-density along one line, spin component           1
         0         1         2         3         4         5         6         7         8         9
 total charge-density along one line
 
 pseudopotential strength for first ion, spin component:           1
-31.471  -0.000  -0.000  10.523   0.000   0.000  -0.000  -0.000
 -0.000 -31.471  -0.000   0.000  10.523   0.000   0.000   0.000
 -0.000  -0.000 -31.471   0.000   0.000  10.523  -0.000   0.000
 10.523   0.000   0.000  16.332  -0.000  -0.000   0.000   0.000
  0.000  10.523   0.000  -0.000  16.332  -0.000  -0.000  -0.000
  0.000   0.000  10.523  -0.000  -0.000  16.332   0.000  -0.000
 -0.000   0.000  -0.000   0.000  -0.000   0.000  -3.577   0.000
 -0.000   0.000   0.000   0.000  -0.000  -0.000   0.000  -3.577
  0.000  -0.000   0.000  -0.000   0.000  -0.000   0.000  -0.000
  0.000  -0.000  -0.000  -0.000   0.000   0.000   0.000   0.000
  0.000  -0.000  -0.000  -0.000   0.000   0.000   0.000   0.000
 -0.000   0.000  -0.000   0.000  -0.000   0.000  -3.790   0.000
 -0.000   0.000   0.000   0.000  -0.000  -0.000   0.000  -3.790
  0.000  -0.000   0.000  -0.000   0.000  -0.000   0.000  -0.000
  0.000  -0.000  -0.000  -0.000   0.000   0.000   0.000   0.000
  0.000  -0.000  -0.000  -0.000   0.000   0.000   0.000   0.000
  0.000   0.000   0.000   0.000   0.000   0.000   0.000   0.000
 -0.000  -0.000  -0.000  -0.000  -0.000  -0.000  -0.000  -0.000
 total augmentation occupancy for first ion, spin component:           1
  2.002  -0.000   0.000  -0.021   0.000   0.000   0.000   0.000   0.000   0.000   0.000   0.000   0.000   0.000   0.000   0.000
 -0.000   2.002  -0.000   0.000  -0.021   0.000   0.000   0.000   0.000   0.000   0.000   0.000   0.000   0.000   0.000   0.000
  0.000   0.000   2.002   0.000   0.000  -0.021   0.000   0.000   0.000   0.000   0.000   0.000   0.000   0.000   0.000   0.000
 -0.021   0.000   0.000   0.050   0.000  -0.000   0.000   0.000   0.000   0.000   0.000   0.000   0.000   0.000   0.000   0.000
  0.000  -0.021   0.000   0.000   0.050  -0.000   0.000   0.000   0.000   0.000   0.000   0.000   0.000   0.000   0.000   0.000
  0.000  -0.000  -0.021  -0.000  -0.000   0.050   0.000   0.000   0.000   0.000   0.000   0.000   0.000   0.000   0.000   0.000
  0.000   0.000   0.000   0.000   0.000   0.000   5.389  -0.000  -0.000  -0.000   0.000  -3.062   0.000   0.000   0.000  -0.000
  0.000   0.000   0.000   0.000   0.000   0.000  -0.000   5.389   0.000  -0.000  -0.000   0.000  -3.062   0.000   0.000  -0.000
  0.000   0.000   0.000   0.000   0.000   0.000  -0.000   0.000   4.427   0.000   0.000   0.000  -0.000  -2.417   0.000   0.000
  0.000   0.000   0.000   0.000   0.000   0.000   0.000  -0.000   0.000   5.389   0.000   0.000   0.000  -0.000  -3.062  -0.000
  0.000   0.000   0.000   0.000   0.000   0.000   0.000   0.000  -0.000   0.000   4.427  -0.000   0.000   0.000   0.000  -2.417
  0.000   0.000   0.000   0.000   0.000   0.000  -3.062   0.000   0.000   0.000  -0.000   2.478  -0.000  -0.000  -0.000  -0.000
  0.000   0.000   0.000   0.000   0.000   0.000   0.000  -3.062   0.000   0.000   0.000  -0.000   2.478   0.000   0.000  -0.000
  0.000   0.000   0.000   0.000   0.000   0.000   0.000   0.000  -2.417   0.000   0.000  -0.000  -0.000   2.251   0.000   0.000
  0.000   0.000   0.000   0.000   0.000   0.000   0.000   0.000   0.000  -3.062  -0.000  -0.000  -0.000   0.000   2.478  -0.000
  0.000   0.000   0.000   0.000   0.000   0.000  -0.000   0.000   0.000  -0.000  -2.417   0.000   0.000   0.000  -0.000   2.251
  0.000   0.000   0.000   0.000   0.000   0.000  -0.000  -0.000   0.000  -0.000  -0.000   0.000   0.000  -0.000   0.000   0.000
  0.000   0.000   0.000   0.000   0.000   0.000   0.000  -0.000   0.000  -0.000   0.000  -0.000   0.000   0.000  -0.000   0.000


------------------------ aborting loop because EDIFF is reached ----------------------------------------


    CHARGE:  cpu time      0.0061: real time      0.0062
    FORLOC:  cpu time      0.0001: real time      0.0001
    FORNL :  cpu time      0.0023: real time      0.0023
    STRESS:  cpu time      0.0267: real time      0.0268
    FORCOR:  cpu time      0.0017: real time      0.0017
    FORHAR:  cpu time      0.0004: real time      0.0004
    MIXING:  cpu time      0.0002: real time      0.0002
    OFIELD:  cpu time      0.0000: real time      0.0000

  FORCE on cell =-STRESS in cart. coord.  units (eV):
  Direction    XX          YY          ZZ          XY          YZ          ZX
  --------------------------------------------------------------------------------------
  Alpha Z   156.91311   156.91311   156.91311
  Ewald    -714.94866  -714.94866  -714.94866    -0.00000     0.00000     0.00000
  Hartree   126.21315   126.21315   126.21315     0.00000     0.00000     0.00000
  E(xc)     -85.53331   -85.53331   -85.53331     0.00000     0.00000     0.00000
  Local     125.09807   125.09807   125.09807    -0.00004    -0.00004    -0.00004
  n-local   -29.89455   -27.25755   -33.12785     3.45859    -4.01435    -0.66834
  augment    73.28466    73.28466    73.28466     0.00005     0.00005     0.00005
  Kinetic   348.56084   353.26664   346.31261     4.12261    -4.47501     1.76741
  Fock        0.00000     0.00000     0.00000     0.00000     0.00000     0.00000
  -------------------------------------------------------------------------------------
  Total       0.31373     0.31373     0.31373     0.00000     0.00000    -0.00000
  in kB      32.87288    32.87288    32.87288     0.00000     0.00000    -0.00000
  external pressure =       32.87 kB  Pullay stress =        0.00 kB


 VOLUME and BASIS-vectors are now :
 -----------------------------------------------------------------------------
  energy-cutoff  :      400.00
  volume of cell :       15.29
      direct lattice vectors                 reciprocal lattice vectors
     0.000000000  1.970000000  1.970000000    -0.253807107  0.253807107  0.253807107
     1.970000000  0.000000000  1.970000000     0.253807107 -0.253807107  0.253807107
     1.970000000  1.970000000  0.000000000     0.253807107  0.253807107 -0.253807107

  length of vectors
     2.786000718  2.786000718  2.786000718     0.439606804  0.439606804  0.439606804


 FORCES acting on ions
    electron-ion (+dipol)            ewald-force                    non-local-force                 convergence-correction
 -----------------------------------------------------------------------------------------------
   -.280E-14 -.403E-14 -.302E-15   -.456E-14 -.897E-14 -.116E-13   -.103E-24 -.103E-24 -.103E-24   -.808E-14 -.400E-13 0.878E-14
 -----------------------------------------------------------------------------------------------
   -.280E-14 -.403E-14 -.302E-15   -.456E-14 -.897E-14 -.116E-13   -.103E-24 -.103E-24 -.103E-24   -.808E-14 -.400E-13 0.878E-14
 
 
 POSITION                                       TOTAL-FORCE (eV/Angst)
 -----------------------------------------------------------------------------------
      0.00000      0.00000      0.00000        -0.000000     -0.000000     -0.000000
 -----------------------------------------------------------------------------------
    total drift:                               -0.000000     -0.000000     -0.000000


--------------------------------------------------------------------------------------------------------



  FREE ENERGIE OF THE ION-ELECTRON SYSTEM (eV)
  ---------------------------------------------------
  free  energy   TOTEN  =        -6.09524717 eV

  energy  without entropy=       -6.09369809  energy(sigma->0) =       -6.09447263
 


--------------------------------------------------------------------------------------------------------


    POTLOK:  cpu time      0.0042: real time      0.0042


--------------------------------------------------------------------------------------------------------


     LOOP+:  cpu time      1.7953: real time      1.8112
    4ORBIT:  cpu time      0.0000: real time      0.0000

 total amount of memory used by VASP MPI-rank0    31907. kBytes
=======================================================================

   base      :      30000. kBytes
   nonl-proj :       1262. kBytes
   fftplans  :        113. kBytes
   grid      :        367. kBytes
   one-center:         15. kBytes
   wavefun   :        150. kBytes
 
  
  
 General timing and accounting informations for this job:
 ========================================================
  
                  Total CPU time used (sec):        2.515
                            User time (sec):        2.041
                          System time (sec):        0.474
                         Elapsed time (sec):        4.027
  
                   Maximum memory used (kb):      219576.
                   Average memory used (kb):          N/A
  
                          Minor page faults:        18052
                          Major page faults:           72
                 Voluntary context switches:         2214
