Co-fcc                                  
   1.00000000000000     
     0.000000    1.789353    1.789353
     1.789353    0.000000    1.789353
     1.789353    1.789353    0.000000
   Co
     1
Direct
  0.000000  0.000000  0.000000
 
   36   36   36
 0.10874494797E+03 0.10676075079E+03 0.10103437637E+03 0.92193930883E+02 0.81136729855E+02
 0.68861883212E+02 0.56321000243E+02 0.44321491373E+02 0.33486687533E+02 0.24252307269E+02
 0.16871968216E+02 0.11415936830E+02 0.77665503110E+01 0.56269481818E+01 0.45590373577E+01
 0.40540755786E+01 0.37304050672E+01 0.35390119323E+01 0.34761234168E+01 0.35390119323E+01
 0.37304050672E+01 0.40540755786E+01 0.45590373577E+01 0.56269481818E+01 0.77665503110E+01
 0.11415936830E+02 0.16871968216E+02 0.24252307269E+02 0.33486687533E+02 0.44321491373E+02
 0.56321000243E+02 0.68861883212E+02 0.81136729855E+02 0.92193930883E+02 0.10103437637E+03
 0.10676075079E+03 0.10676075079E+03 0.10290634691E+03 0.95629380650E+02 0.85699412108E+02
 0.74070088466E+02 0.61718195925E+02 0.49520419015E+02 0.38187038636E+02 0.28242974203E+02
 0.20030456961E+02 0.13710797937E+02 0.92595059714E+01 0.64662437409E+01 0.49573752985E+01
 0.42512015046E+01 0.38625569323E+01 0.36075456962E+01 0.34822873530E+01 0.34822872394E+01
 0.36075452047E+01 0.38625557503E+01 0.42511994825E+01 0.49573727474E+01 0.64662414763E+01
 0.92595050050E+01 0.13710798909E+02 0.20030459584E+02 0.28242977022E+02 0.38187039322E+02
 0.49520415155E+02 0.61718186054E+02 0.74070072914E+02 0.85699393257E+02 0.95629362443E+02
 0.10290633371E+03 0.10676074596E+03 0.10103437637E+03 0.95629380650E+02 0.87277673760E+02
 0.76819242876E+02 0.65193767682E+02 0.53302519427E+02 0.41917307162E+02 0.31640176059E+02
 0.22895454953E+02 0.15930169618E+02 0.10809717258E+02 0.74131889133E+01 0.54440514200E+01
 0.44702542504E+01 0.39963300496E+01 0.36838204249E+01 0.34997971048E+01 0.34394495928E+01
 0.34997966989E+01 0.36838191344E+01 0.39963273737E+01 0.44702502847E+01 0.54440472106E+01
 0.74131862289E+01 0.10809717768E+02 0.15930173807E+02 0.22895461337E+02 0.31640181184E+02
 0.41917306584E+02 0.53302509400E+02 0.65193746926E+02 0.76819213640E+02 0.87277641653E+02
 0.95629353152E+02 0.10103436051E+03 0.10290633371E+03 0.92193930883E+02 0.85699412108E+02
 0.76819242876E+02 0.66394207134E+02 0.55295477044E+02 0.44317486278E+02 0.34116227460E+02
 0.25185131430E+02 0.17848313331E+02 0.12254635892E+02 0.83703025860E+01 0.59812251142E+01
 0.47199300996E+01 0.41235689207E+01 0.37623613274E+01 0.35259253720E+01 0.34104732879E+01
 0.34104731744E+01 0.35259246741E+01 0.37623592897E+01 0.41235651451E+01 0.47199252469E+01
 0.59812210442E+01 0.83703016963E+01 0.12254639858E+02 0.17848321821E+02 0.25185141508E+02
 0.34116234129E+02 0.44317484147E+02 0.55295462556E+02 0.66394180430E+02 0.76819208451E+02
 0.85699377833E+02 0.92193905631E+02 0.95629353152E+02 0.95629362443E+02 0.81136729855E+02
 0.74070088466E+02 0.65193767682E+02 0.55295477044E+02 0.45145953717E+02 0.35421751282E+02
 0.26663894836E+02 0.19259500083E+02 0.13430643172E+02 0.92239164538E+01 0.65068696898E+01
 0.49842771150E+01 0.42433811710E+01 0.38372024144E+01 0.35567943962E+01 0.33935698503E+01
 0.33403375227E+01 0.33935698385E+01 0.35567936247E+01 0.38372000234E+01 0.42433770707E+01
 0.49842725471E+01 0.65068670287E+01 0.92239181978E+01 0.13430650531E+02 0.19259511852E+02
 0.26663907215E+02 0.35421758913E+02 0.45145951664E+02 0.55295462951E+02 0.65193743185E+02
 0.74070059155E+02 0.81136703666E+02 0.85699377833E+02 0.87277641653E+02 0.85699393257E+02
 0.68861883212E+02 0.61718195925E+02 0.53302519427E+02 0.44317486278E+02 0.35421751282E+02
 0.27175125918E+02 0.20007308802E+02 0.14198636047E+02 0.98651070470E+01 0.69498800799E+01
 0.52311629823E+01 0.43560429682E+01 0.39028635263E+01 0.35881730924E+01 0.33858440979E+01
 0.32880782072E+01 0.32880784616E+01 0.33858444074E+01 0.35881724267E+01 0.39028610778E+01
 0.43560389563E+01 0.52311589567E+01 0.69498784599E+01 0.98651100230E+01 0.14198644335E+02
 0.20007320878E+02 0.27175138198E+02 0.35421759301E+02 0.44317486449E+02 0.53302510649E+02
 0.61718180324E+02 0.68861865606E+02 0.74070059155E+02 0.76819208451E+02 0.76819213640E+02
 0.74070072914E+02 0.56321000243E+02 0.49520419015E+02 0.41917307162E+02 0.34116227460E+02
 0.26663894836E+02 0.20007308802E+02 0.14465535794E+02 0.10208908224E+02 0.72456908790E+01
 0.54231820276E+01 0.44517835375E+01 0.39550785940E+01 0.36162364920E+01 0.33840549326E+01
 0.32510876876E+01 0.32080651948E+01 0.32510883370E+01 0.33840554433E+01 0.36162357802E+01
 0.39550760047E+01 0.44517794106E+01 0.54231777786E+01 0.72456885027E+01 0.10208909417E+02
 0.14465541095E+02 0.20007317181E+02 0.26663903955E+02 0.34116234549E+02 0.41917310140E+02
 0.49520417371E+02 0.56320995272E+02 0.61718180324E+02 0.65193743185E+02 0.66394180430E+02
 0.65193746926E+02 0.61718186054E+02 0.44321491373E+02 0.38187038636E+02 0.31640176059E+02
 0.25185131430E+02 0.19259500083E+02 0.14198636047E+02 0.10208908224E+02 0.73496067125E+01
 0.55283274808E+01 0.45168431697E+01 0.39910950796E+01 0.36380673264E+01 0.33852661603E+01
 0.32262902338E+01 0.31504536378E+01 0.31504539594E+01 0.32262909031E+01 0.33852664291E+01
 0.36380663517E+01 0.39910923383E+01 0.45168387514E+01 0.55283221262E+01 0.73496015820E+01
 0.10208904496E+02 0.14198634510E+02 0.19259500895E+02 0.25185134120E+02 0.31640179759E+02
 0.38187042417E+02 0.44321494537E+02 0.49520417371E+02 0.53302510649E+02 0.55295462951E+02
 0.55295462556E+02 0.53302509400E+02 0.49520415155E+02 0.33486687533E+02 0.28242974203E+02
 0.22895454953E+02 0.17848313331E+02 0.13430643172E+02 0.98651070470E+01 0.72456908790E+01
 0.55283274808E+01 0.45399582632E+01 0.40095693099E+01 0.36517990136E+01 0.33872417105E+01
 0.32108196855E+01 0.31115267776E+01 0.30796753667E+01 0.31115268985E+01 0.32108198333E+01
 0.33872416386E+01 0.36517982646E+01 0.40095672386E+01 0.45399541926E+01 0.55283209714E+01
 0.72456820122E+01 0.98650965915E+01 0.13430632513E+02 0.17848304141E+02 0.22895448697E+02
 0.28242971632E+02 0.33486688398E+02 0.38187042417E+02 0.41917310140E+02 0.44317486449E+02
 0.45145951664E+02 0.44317484147E+02 0.41917306584E+02 0.38187039322E+02 0.24252307269E+02
 0.20030456961E+02 0.15930169618E+02 0.12254635892E+02 0.92239164538E+01 0.69498800799E+01
 0.54231820276E+01 0.45168431697E+01 0.40095693099E+01 0.36564711418E+01 0.33885622933E+01
 0.32024533542E+01 0.30877997023E+01 0.30337680440E+01 0.30337677555E+01 0.30877991113E+01
 0.32024530744E+01 0.33885627613E+01 0.36564720910E+01 0.40095695522E+01 0.45168408643E+01
 0.54231753784E+01 0.69498681684E+01 0.92238998293E+01 0.12254616608E+02 0.15930150649E+02
 0.20030441216E+02 0.24252296595E+02 0.28242971632E+02 0.31640179759E+02 0.34116234549E+02
 0.35421759301E+02 0.35421758913E+02 0.34116234129E+02 0.31640181184E+02 0.28242977022E+02
 0.16871968216E+02 0.13710797937E+02 0.10809717258E+02 0.83703025860E+01 0.65068696898E+01
 0.52311629823E+01 0.44517835375E+01 0.39910950796E+01 0.36517990136E+01 0.33885622933E+01
 0.31998181123E+01 0.30766385901E+01 0.30082659534E+01 0.29864841827E+01 0.30082649059E+01
 0.30766374915E+01 0.31998183427E+01 0.33885646988E+01 0.36518031484E+01 0.39910990190E+01
 0.44517843989E+01 0.52311579772E+01 0.65068572523E+01 0.83702830965E+01 0.10809693030E+02
 0.13710772470E+02 0.16871945048E+02 0.20030441216E+02 0.22895448697E+02 0.25185134120E+02
 0.26663903955E+02 0.27175138198E+02 0.26663907215E+02 0.25185141508E+02 0.22895461337E+02
 0.20030459584E+02 0.11415936830E+02 0.92595059714E+01 0.74131889133E+01 0.59812251142E+01
 0.49842771150E+01 0.43560429682E+01 0.39550785940E+01 0.36380673264E+01 0.33872417105E+01
 0.32024533542E+01 0.30766385901E+01 0.30001240629E+01 0.29643303351E+01 0.29643295809E+01
 0.30001224377E+01 0.30766376782E+01 0.32024548494E+01 0.33872464493E+01 0.36380746269E+01
 0.39550862156E+01 0.43560477262E+01 0.49842759242E+01 0.59812160388E+01 0.74131718255E+01
 0.92594825947E+01 0.11415910189E+02 0.13710772470E+02 0.15930150649E+02 0.17848304141E+02
 0.19259500895E+02 0.20007317181E+02 0.20007320878E+02 0.19259511852E+02 0.17848321821E+02
 0.15930173807E+02 0.13710798909E+02 0.77665503110E+01 0.64662437409E+01 0.54440514200E+01
 0.47199300996E+01 0.42433811710E+01 0.39028635263E+01 0.36162364920E+01 0.33852661603E+01
 0.32108196855E+01 0.30877997023E+01 0.30082659534E+01 0.29643303351E+01 0.29503605975E+01
 0.29643289453E+01 0.30082641404E+01 0.30877990154E+01 0.32108216217E+01 0.33852715065E+01
 0.36162448670E+01 0.39028732973E+01 0.42433897698E+01 0.47199346612E+01 0.54440495503E+01
 0.64662341896E+01 0.77665333832E+01 0.92594825947E+01 0.10809693030E+02 0.12254616608E+02
 0.13430632513E+02 0.14198634510E+02 0.14465541095E+02 0.14198644335E+02 0.13430650531E+02
 0.12254639858E+02 0.10809717768E+02 0.92595050050E+01 0.56269481818E+01 0.49573752985E+01
 0.44702542504E+01 0.41235689207E+01 0.38372024144E+01 0.35881730924E+01 0.33840549326E+01
 0.32262902338E+01 0.31115267776E+01 0.30337680440E+01 0.29864841827E+01 0.29643295809E+01
 0.29643289453E+01 0.29864824609E+01 0.30337658023E+01 0.31115249642E+01 0.32262900676E+01
 0.33840576172E+01 0.35881793610E+01 0.38372120531E+01 0.41235804809E+01 0.44702651504E+01
 0.49573824104E+01 0.56269487655E+01 0.64662341896E+01 0.74131718255E+01 0.83702830965E+01
 0.92238998293E+01 0.98650965915E+01 0.10208904496E+02 0.10208909417E+02 0.98651100230E+01
 0.92239181978E+01 0.83703016963E+01 0.74131862289E+01 0.64662414763E+01 0.45590373577E+01
 0.42512015046E+01 0.39963300496E+01 0.37623613274E+01 0.35567943962E+01 0.33858440979E+01
 0.32510876876E+01 0.31504536378E+01 0.30796753667E+01 0.30337677555E+01 0.30082649059E+01
 0.30001224377E+01 0.30082641404E+01 0.30337658023E+01 0.30796718264E+01 0.31504487522E+01
 0.32510827276E+01 0.33858412111E+01 0.35567958681E+01 0.37623685307E+01 0.39963425765E+01
 0.42512169268E+01 0.45590518523E+01 0.49573824104E+01 0.54440495503E+01 0.59812160388E+01
 0.65068572523E+01 0.69498681684E+01 0.72456820122E+01 0.73496015820E+01 0.72456885027E+01
 0.69498784599E+01 0.65068670287E+01 0.59812210442E+01 0.54440472106E+01 0.49573727474E+01
 0.40540755786E+01 0.38625569323E+01 0.36838204249E+01 0.35259253720E+01 0.33935698503E+01
 0.32880782072E+01 0.32080651948E+01 0.31504539594E+01 0.31115268985E+01 0.30877991113E+01
 0.30766374915E+01 0.30766376782E+01 0.30877990154E+01 0.31115249642E+01 0.31504487522E+01
 0.32080565033E+01 0.32880676297E+01 0.33935605087E+01 0.35259208131E+01 0.36838231620E+01
 0.38625672985E+01 0.40540914306E+01 0.42512169268E+01 0.44702651504E+01 0.47199346612E+01
 0.49842759242E+01 0.52311579772E+01 0.54231753784E+01 0.55283209714E+01 0.55283221262E+01
 0.54231777786E+01 0.52311589567E+01 0.49842725471E+01 0.47199252469E+01 0.44702502847E+01
 0.42511994825E+01 0.37304050672E+01 0.36075456962E+01 0.34997971048E+01 0.34104732879E+01
 0.33403375227E+01 0.32880784616E+01 0.32510883370E+01 0.32262909031E+01 0.32108198333E+01
 0.32024530744E+01 0.31998183427E+01 0.32024548494E+01 0.32108216217E+01 0.32262900676E+01
 0.32510827276E+01 0.32880676297E+01 0.33403232201E+01 0.34104590072E+01 0.34997868509E+01
 0.36075425078E+01 0.37304099214E+01 0.38625672985E+01 0.39963425765E+01 0.41235804809E+01
 0.42433897698E+01 0.43560477262E+01 0.44517843989E+01 0.45168408643E+01 0.45399541926E+01
 0.45168387514E+01 0.44517794106E+01 0.43560389563E+01 0.42433770707E+01 0.41235651451E+01
 0.39963273737E+01 0.38625557503E+01 0.35390119323E+01 0.34822873530E+01 0.34394495928E+01
 0.34104731744E+01 0.33935698385E+01 0.33858444074E+01 0.33840554433E+01 0.33852664291E+01
 0.33872416386E+01 0.33885627613E+01 0.33885646988E+01 0.33872464493E+01 0.33852715065E+01
 0.33840576172E+01 0.33858412111E+01 0.33935605087E+01 0.34104590072E+01 0.34394335395E+01
 0.34822730482E+01 0.35390025397E+01 0.36075425078E+01 0.36838231620E+01 0.37623685307E+01
 0.38372120531E+01 0.39028732973E+01 0.39550862156E+01 0.39910990190E+01 0.40095695522E+01
 0.40095672386E+01 0.39910923383E+01 0.39550760047E+01 0.39028610778E+01 0.38372000234E+01
 0.37623592897E+01 0.36838191344E+01 0.36075452047E+01 0.34761234168E+01 0.34822872394E+01
 0.34997966989E+01 0.35259246741E+01 0.35567936247E+01 0.35881724267E+01 0.36162357802E+01
 0.36380663517E+01 0.36517982646E+01 0.36564720910E+01 0.36518031484E+01 0.36380746269E+01
 0.36162448670E+01 0.35881793610E+01 0.35567958681E+01 0.35259208131E+01 0.34997868509E+01
 0.34822730482E+01 0.34761076418E+01 0.34822730482E+01 0.34997868509E+01 0.35259208131E+01
 0.35567958681E+01 0.35881793610E+01 0.36162448670E+01 0.36380746269E+01 0.36518031484E+01
 0.36564720910E+01 0.36517982646E+01 0.36380663517E+01 0.36162357802E+01 0.35881724267E+01
 0.35567936247E+01 0.35259246741E+01 0.34997966989E+01 0.34822872394E+01 0.35390119323E+01
 0.36075452047E+01 0.36838191344E+01 0.37623592897E+01 0.38372000234E+01 0.39028610778E+01
 0.39550760047E+01 0.39910923383E+01 0.40095672386E+01 0.40095695522E+01 0.39910990190E+01
 0.39550862156E+01 0.39028732973E+01 0.38372120531E+01 0.37623685307E+01 0.36838231620E+01
 0.36075425078E+01 0.35390025397E+01 0.34822730482E+01 0.34394335395E+01 0.34104590072E+01
 0.33935605087E+01 0.33858412111E+01 0.33840576172E+01 0.33852715065E+01 0.33872464493E+01
 0.33885646988E+01 0.33885627613E+01 0.33872416386E+01 0.33852664291E+01 0.33840554433E+01
 0.33858444074E+01 0.33935698385E+01 0.34104731744E+01 0.34394495928E+01 0.34822873530E+01
 0.37304050672E+01 0.38625557503E+01 0.39963273737E+01 0.41235651451E+01 0.42433770707E+01
 0.43560389563E+01 0.44517794106E+01 0.45168387514E+01 0.45399541926E+01 0.45168408643E+01
 0.44517843989E+01 0.43560477262E+01 0.42433897698E+01 0.41235804809E+01 0.39963425765E+01
 0.38625672985E+01 0.37304099214E+01 0.36075425078E+01 0.34997868509E+01 0.34104590072E+01
 0.33403232201E+01 0.32880676297E+01 0.32510827276E+01 0.32262900676E+01 0.32108216217E+01
 0.32024548494E+01 0.31998183427E+01 0.32024530744E+01 0.32108198333E+01 0.32262909031E+01
 0.32510883370E+01 0.32880784616E+01 0.33403375227E+01 0.34104732879E+01 0.34997971048E+01
 0.36075456962E+01 0.40540755786E+01 0.42511994825E+01 0.44702502847E+01 0.47199252469E+01
 0.49842725471E+01 0.52311589567E+01 0.54231777786E+01 0.55283221262E+01 0.55283209714E+01
 0.54231753784E+01 0.52311579772E+01 0.49842759242E+01 0.47199346612E+01 0.44702651504E+01
 0.42512169268E+01 0.40540914306E+01 0.38625672985E+01 0.36838231620E+01 0.35259208131E+01
 0.33935605087E+01 0.32880676297E+01 0.32080565033E+01 0.31504487522E+01 0.31115249642E+01
 0.30877990154E+01 0.30766376782E+01 0.30766374915E+01 0.30877991113E+01 0.31115268985E+01
 0.31504539594E+01 0.32080651948E+01 0.32880782072E+01 0.33935698503E+01 0.35259253720E+01
 0.36838204249E+01 0.38625569323E+01 0.45590373577E+01 0.49573727474E+01 0.54440472106E+01
 0.59812210442E+01 0.65068670287E+01 0.69498784599E+01 0.72456885027E+01 0.73496015820E+01
 0.72456820122E+01 0.69498681684E+01 0.65068572523E+01 0.59812160388E+01 0.54440495503E+01
 0.49573824104E+01 0.45590518523E+01 0.42512169268E+01 0.39963425765E+01 0.37623685307E+01
 0.35567958681E+01 0.33858412111E+01 0.32510827276E+01 0.31504487522E+01 0.30796718264E+01
 0.30337658023E+01 0.30082641404E+01 0.30001224377E+01 0.30082649059E+01 0.30337677555E+01
 0.30796753667E+01 0.31504536378E+01 0.32510876876E+01 0.33858440979E+01 0.35567943962E+01
 0.37623613274E+01 0.39963300496E+01 0.42512015046E+01 0.56269481818E+01 0.64662414763E+01
 0.74131862289E+01 0.83703016963E+01 0.92239181978E+01 0.98651100230E+01 0.10208909417E+02
 0.10208904496E+02 0.98650965915E+01 0.92238998293E+01 0.83702830965E+01 0.74131718255E+01
 0.64662341896E+01 0.56269487655E+01 0.49573824104E+01 0.44702651504E+01 0.41235804809E+01
 0.38372120531E+01 0.35881793610E+01 0.33840576172E+01 0.32262900676E+01 0.31115249642E+01
 0.30337658023E+01 0.29864824609E+01 0.29643289453E+01 0.29643295809E+01 0.29864841827E+01
 0.30337680440E+01 0.31115267776E+01 0.32262902338E+01 0.33840549326E+01 0.35881730924E+01
 0.38372024144E+01 0.41235689207E+01 0.44702542504E+01 0.49573752985E+01 0.77665503110E+01
 0.92595050050E+01 0.10809717768E+02 0.12254639858E+02 0.13430650531E+02 0.14198644335E+02
 0.14465541095E+02 0.14198634510E+02 0.13430632513E+02 0.12254616608E+02 0.10809693030E+02
 0.92594825947E+01 0.77665333832E+01 0.64662341896E+01 0.54440495503E+01 0.47199346612E+01
 0.42433897698E+01 0.39028732973E+01 0.36162448670E+01 0.33852715065E+01 0.32108216217E+01
 0.30877990154E+01 0.30082641404E+01 0.29643289453E+01 0.29503605975E+01 0.29643303351E+01
 0.30082659534E+01 0.30877997023E+01 0.32108196855E+01 0.33852661603E+01 0.36162364920E+01
 0.39028635263E+01 0.42433811710E+01 0.47199300996E+01 0.54440514200E+01 0.64662437409E+01
 0.11415936830E+02 0.13710798909E+02 0.15930173807E+02 0.17848321821E+02 0.19259511852E+02
 0.20007320878E+02 0.20007317181E+02 0.19259500895E+02 0.17848304141E+02 0.15930150649E+02
 0.13710772470E+02 0.11415910189E+02 0.92594825947E+01 0.74131718255E+01 0.59812160388E+01
 0.49842759242E+01 0.43560477262E+01 0.39550862156E+01 0.36380746269E+01 0.33872464493E+01
 0.32024548494E+01 0.30766376782E+01 0.30001224377E+01 0.29643295809E+01 0.29643303351E+01
 0.30001240629E+01 0.30766385901E+01 0.32024533542E+01 0.33872417105E+01 0.36380673264E+01
 0.39550785940E+01 0.43560429682E+01 0.49842771150E+01 0.59812251142E+01 0.74131889133E+01
 0.92595059714E+01 0.16871968216E+02 0.20030459584E+02 0.22895461337E+02 0.25185141508E+02
 0.26663907215E+02 0.27175138198E+02 0.26663903955E+02 0.25185134120E+02 0.22895448697E+02
 0.20030441216E+02 0.16871945048E+02 0.13710772470E+02 0.10809693030E+02 0.83702830965E+01
 0.65068572523E+01 0.52311579772E+01 0.44517843989E+01 0.39910990190E+01 0.36518031484E+01
 0.33885646988E+01 0.31998183427E+01 0.30766374915E+01 0.30082649059E+01 0.29864841827E+01
 0.30082659534E+01 0.30766385901E+01 0.31998181123E+01 0.33885622933E+01 0.36517990136E+01
 0.39910950796E+01 0.44517835375E+01 0.52311629823E+01 0.65068696898E+01 0.83703025860E+01
 0.10809717258E+02 0.13710797937E+02 0.24252307269E+02 0.28242977022E+02 0.31640181184E+02
 0.34116234129E+02 0.35421758913E+02 0.35421759301E+02 0.34116234549E+02 0.31640179759E+02
 0.28242971632E+02 0.24252296595E+02 0.20030441216E+02 0.15930150649E+02 0.12254616608E+02
 0.92238998293E+01 0.69498681684E+01 0.54231753784E+01 0.45168408643E+01 0.40095695522E+01
 0.36564720910E+01 0.33885627613E+01 0.32024530744E+01 0.30877991113E+01 0.30337677555E+01
 0.30337680440E+01 0.30877997023E+01 0.32024533542E+01 0.33885622933E+01 0.36564711418E+01
 0.40095693099E+01 0.45168431697E+01 0.54231820276E+01 0.69498800799E+01 0.92239164538E+01
 0.12254635892E+02 0.15930169618E+02 0.20030456961E+02 0.33486687533E+02 0.38187039322E+02
 0.41917306584E+02 0.44317484147E+02 0.45145951664E+02 0.44317486449E+02 0.41917310140E+02
 0.38187042417E+02 0.33486688398E+02 0.28242971632E+02 0.22895448697E+02 0.17848304141E+02
 0.13430632513E+02 0.98650965915E+01 0.72456820122E+01 0.55283209714E+01 0.45399541926E+01
 0.40095672386E+01 0.36517982646E+01 0.33872416386E+01 0.32108198333E+01 0.31115268985E+01
 0.30796753667E+01 0.31115267776E+01 0.32108196855E+01 0.33872417105E+01 0.36517990136E+01
 0.40095693099E+01 0.45399582632E+01 0.55283274808E+01 0.72456908790E+01 0.98651070470E+01
 0.13430643172E+02 0.17848313331E+02 0.22895454953E+02 0.28242974203E+02 0.44321491373E+02
 0.49520415155E+02 0.53302509400E+02 0.55295462556E+02 0.55295462951E+02 0.53302510649E+02
 0.49520417371E+02 0.44321494537E+02 0.38187042417E+02 0.31640179759E+02 0.25185134120E+02
 0.19259500895E+02 0.14198634510E+02 0.10208904496E+02 0.73496015820E+01 0.55283221262E+01
 0.45168387514E+01 0.39910923383E+01 0.36380663517E+01 0.33852664291E+01 0.32262909031E+01
 0.31504539594E+01 0.31504536378E+01 0.32262902338E+01 0.33852661603E+01 0.36380673264E+01
 0.39910950796E+01 0.45168431697E+01 0.55283274808E+01 0.73496067125E+01 0.10208908224E+02
 0.14198636047E+02 0.19259500083E+02 0.25185131430E+02 0.31640176059E+02 0.38187038636E+02
 0.56321000243E+02 0.61718186054E+02 0.65193746926E+02 0.66394180430E+02 0.65193743185E+02
 0.61718180324E+02 0.56320995272E+02 0.49520417371E+02 0.41917310140E+02 0.34116234549E+02
 0.26663903955E+02 0.20007317181E+02 0.14465541095E+02 0.10208909417E+02 0.72456885027E+01
 0.54231777786E+01 0.44517794106E+01 0.39550760047E+01 0.36162357802E+01 0.33840554433E+01
 0.32510883370E+01 0.32080651948E+01 0.32510876876E+01 0.33840549326E+01 0.36162364920E+01
 0.39550785940E+01 0.44517835375E+01 0.54231820276E+01 0.72456908790E+01 0.10208908224E+02
 0.14465535794E+02 0.20007308802E+02 0.26663894836E+02 0.34116227460E+02 0.41917307162E+02
 0.49520419015E+02 0.68861883212E+02 0.74070072914E+02 0.76819213640E+02 0.76819208451E+02
 0.74070059155E+02 0.68861865606E+02 0.61718180324E+02 0.53302510649E+02 0.44317486449E+02
 0.35421759301E+02 0.27175138198E+02 0.20007320878E+02 0.14198644335E+02 0.98651100229E+01
 0.69498784599E+01 0.52311589567E+01 0.43560389563E+01 0.39028610778E+01 0.35881724267E+01
 0.33858444074E+01 0.32880784616E+01 0.32880782072E+01 0.33858440979E+01 0.35881730924E+01
 0.39028635263E+01 0.43560429682E+01 0.52311629823E+01 0.69498800799E+01 0.98651070470E+01
 0.14198636047E+02 0.20007308802E+02 0.27175125918E+02 0.35421751282E+02 0.44317486278E+02
 0.53302519427E+02 0.61718195925E+02 0.81136729855E+02 0.85699393257E+02 0.87277641653E+02
 0.85699377833E+02 0.81136703666E+02 0.74070059155E+02 0.65193743185E+02 0.55295462951E+02
 0.45145951664E+02 0.35421758913E+02 0.26663907215E+02 0.19259511852E+02 0.13430650531E+02
 0.92239181978E+01 0.65068670287E+01 0.49842725471E+01 0.42433770707E+01 0.38372000234E+01
 0.35567936247E+01 0.33935698385E+01 0.33403375227E+01 0.33935698503E+01 0.35567943962E+01
 0.38372024144E+01 0.42433811710E+01 0.49842771150E+01 0.65068696898E+01 0.92239164538E+01
 0.13430643172E+02 0.19259500083E+02 0.26663894836E+02 0.35421751282E+02 0.45145953717E+02
 0.55295477044E+02 0.65193767682E+02 0.74070088466E+02 0.92193930883E+02 0.95629362443E+02
 0.95629353152E+02 0.92193905631E+02 0.85699377833E+02 0.76819208451E+02 0.66394180430E+02
 0.55295462556E+02 0.44317484147E+02 0.34116234129E+02 0.25185141508E+02 0.17848321821E+02
 0.12254639858E+02 0.83703016963E+01 0.59812210442E+01 0.47199252469E+01 0.41235651451E+01
 0.37623592897E+01 0.35259246741E+01 0.34104731744E+01 0.34104732879E+01 0.35259253720E+01
 0.37623613274E+01 0.41235689207E+01 0.47199300996E+01 0.59812251142E+01 0.83703025860E+01
 0.12254635892E+02 0.17848313331E+02 0.25185131430E+02 0.34116227460E+02 0.44317486278E+02
 0.55295477044E+02 0.66394207134E+02 0.76819242876E+02 0.85699412108E+02 0.10103437637E+03
 0.10290633371E+03 0.10103436051E+03 0.95629353152E+02 0.87277641653E+02 0.76819213640E+02
 0.65193746926E+02 0.53302509400E+02 0.41917306584E+02 0.31640181184E+02 0.22895461337E+02
 0.15930173807E+02 0.10809717768E+02 0.74131862289E+01 0.54440472106E+01 0.44702502847E+01
 0.39963273737E+01 0.36838191344E+01 0.34997966989E+01 0.34394495928E+01 0.34997971048E+01
 0.36838204249E+01 0.39963300496E+01 0.44702542504E+01 0.54440514200E+01 0.74131889133E+01
 0.10809717258E+02 0.15930169618E+02 0.22895454953E+02 0.31640176059E+02 0.41917307162E+02
 0.53302519427E+02 0.65193767682E+02 0.76819242876E+02 0.87277673760E+02 0.95629380650E+02
 0.10676075079E+03 0.10676074596E+03 0.10290633371E+03 0.95629362443E+02 0.85699393257E+02
 0.74070072914E+02 0.61718186054E+02 0.49520415155E+02 0.38187039322E+02 0.28242977022E+02
 0.20030459584E+02 0.13710798909E+02 0.92595050050E+01 0.64662414763E+01 0.49573727474E+01
 0.42511994825E+01 0.38625557503E+01 0.36075452047E+01 0.34822872394E+01 0.34822873530E+01
 0.36075456962E+01 0.38625569323E+01 0.42512015046E+01 0.49573752985E+01 0.64662437409E+01
 0.92595059714E+01 0.13710797937E+02 0.20030456961E+02 0.28242974203E+02 0.38187038636E+02
 0.49520419015E+02 0.61718195925E+02 0.74070088466E+02 0.85699412108E+02 0.95629380650E+02
 0.10290634691E+03 0.10676075079E+03 0.10290634691E+03 0.95629380650E+02 0.85699412108E+02
 0.74070088466E+02 0.61718195925E+02 0.49520419015E+02 0.38187038636E+02 0.28242974203E+02
 0.20030456961E+02 0.13710797937E+02 0.92595059714E+01 0.64662437409E+01 0.49573752985E+01
 0.42512015046E+01 0.38625569323E+01 0.36075456962E+01 0.34822873530E+01 0.34822872394E+01
 0.36075452047E+01 0.38625557503E+01 0.42511994825E+01 0.49573727474E+01 0.64662414763E+01
 0.92595050050E+01 0.13710798909E+02 0.20030459584E+02 0.28242977022E+02 0.38187039322E+02
 0.49520415155E+02 0.61718186054E+02 0.74070072914E+02 0.85699393257E+02 0.95629362443E+02
 0.10290633371E+03 0.10676074596E+03 0.10290634691E+03 0.97404335369E+02 0.88903805244E+02
 0.78260602135E+02 0.66431117389E+02 0.54331289719E+02 0.42744124514E+02 0.32279489250E+02
 0.23367175274E+02 0.16258325726E+02 0.11021514532E+02 0.75377228927E+01 0.55103377383E+01
 0.45047877007E+01 0.40204119988E+01 0.37037899006E+01 0.35170996058E+01 0.34558393337E+01
 0.35170993992E+01 0.37037889298E+01 0.40204096395E+01 0.45047839314E+01 0.55103335352E+01
 0.75377200091E+01 0.11021514648E+02 0.16258329317E+02 0.23367180786E+02 0.32279493096E+02
 0.42744122100E+02 0.54331277218E+02 0.66431093590E+02 0.78260569554E+02 0.88903769932E+02
 0.97404305332E+02 0.10290632964E+03 0.10481204099E+03 0.95629380650E+02 0.88903805244E+02
 0.79709874648E+02 0.68918704710E+02 0.57430650649E+02 0.46064252992E+02 0.35493446555E+02
 0.26224574736E+02 0.18591494224E+02 0.12750779666E+02 0.86740861861E+01 0.61493244033E+01
 0.48063783850E+01 0.41748794455E+01 0.38041808077E+01 0.35610667900E+01 0.34421352762E+01
 0.34421354587E+01 0.35610668749E+01 0.38041797707E+01 0.41748765672E+01 0.48063740733E+01
 0.61493203974E+01 0.86740848705E+01 0.12750782710E+02 0.18591501185E+02 0.26224582406E+02
 0.35493449558E+02 0.46064245628E+02 0.57430629331E+02 0.68918670005E+02 0.79709831960E+02
 0.88903763689E+02 0.95629350382E+02 0.99187650266E+02 0.99187661347E+02 0.85699412108E+02
 0.78260602135E+02 0.68918704710E+02 0.58501312255E+02 0.47815090635E+02 0.37565425890E+02
 0.28315259786E+02 0.20468655154E+02 0.14261353850E+02 0.97504493385E+01 0.68093949026E+01
 0.51424068026E+01 0.43288087234E+01 0.39020028809E+01 0.36101184071E+01 0.34396069843E+01
 0.33839033301E+01 0.34396080010E+01 0.36101193806E+01 0.39020024562E+01 0.43288063248E+01
 0.51424033471E+01 0.68093926385E+01 0.97504507385E+01 0.14261360026E+02 0.20468664593E+02
 0.28315268167E+02 0.37565427293E+02 0.47815079827E+02 0.58501287161E+02 0.68918667985E+02
 0.78260561039E+02 0.85699376551E+02 0.90503443893E+02 0.92165443413E+02 0.90503464517E+02
 0.74070088466E+02 0.66431117389E+02 0.57430650649E+02 0.47815090635E+02 0.38281247785E+02
 0.29419987341E+02 0.21686106171E+02 0.15380719772E+02 0.10636600831E+02 0.74081619219E+01
 0.54769571964E+01 0.44838777757E+01 0.39906191537E+01 0.36594594670E+01 0.34453367606E+01
 0.33415388156E+01 0.33415398355E+01 0.34453391578E+01 0.36594616684E+01 0.39906196883E+01
 0.44838763096E+01 0.54769549712E+01 0.74081612648E+01 0.10636603889E+02 0.15380727061E+02
 0.21686115705E+02 0.29419994890E+02 0.38281248335E+02 0.47815080514E+02 0.57430629433E+02
 0.66431088701E+02 0.74070059201E+02 0.79639833020E+02 0.82580222427E+02 0.82580230510E+02
 0.79639854864E+02 0.61718195925E+02 0.54331289719E+02 0.46064252992E+02 0.37565425890E+02
 0.29419987341E+02 0.22107849894E+02 0.15976357038E+02 0.11219570485E+02 0.78632841387E+01
 0.57633297487E+01 0.46273363457E+01 0.40645201983E+01 0.37044181127E+01 0.34557895906E+01
 0.33127003373E+01 0.32662918982E+01 0.33127027344E+01 0.34557931563E+01 0.37044210548E+01
 0.40645211465E+01 0.46273351425E+01 0.57633276132E+01 0.78632830796E+01 0.11219572217E+02
 0.15976361927E+02 0.22107856480E+02 0.29419992733E+02 0.37565426929E+02 0.46064247704E+02
 0.54331278392E+02 0.61718181305E+02 0.67578154121E+02 0.71351249870E+02 0.72654434424E+02
 0.71351258009E+02 0.67578167684E+02 0.49520419015E+02 0.42744124514E+02 0.35493446555E+02
 0.28315259786E+02 0.21686106171E+02 0.15976357038E+02 0.11422896227E+02 0.81090188703E+01
 0.59566450097E+01 0.47392944955E+01 0.41211396462E+01 0.37411329541E+01 0.34675412485E+01
 0.32943572391E+01 0.32114264786E+01 0.32114276615E+01 0.32943602683E+01 0.34675447905E+01
 0.37411354371E+01 0.41211399303E+01 0.47392923460E+01 0.59566411692E+01 0.81090147121E+01
 0.11422893153E+02 0.15976355897E+02 0.21686106954E+02 0.28315261713E+02 0.35493448503E+02
 0.42744125555E+02 0.49520418823E+02 0.55254504457E+02 0.59422499820E+02 0.61617971852E+02
 0.61617972340E+02 0.59422500975E+02 0.55254505524E+02 0.38187038636E+02 0.32279489250E+02
 0.26224574736E+02 0.20468655154E+02 0.15380719772E+02 0.11219570485E+02 0.81090188703E+01
 0.60249310221E+01 0.48008963345E+01 0.41576908130E+01 0.37668943313E+01 0.34778062146E+01
 0.32835079633E+01 0.31736044942E+01 0.31382620765E+01 0.31736057634E+01 0.32835100903E+01
 0.34778084245E+01 0.37668956031E+01 0.41576900877E+01 0.48008928041E+01 0.60249244355E+01
 0.81090097527E+01 0.11219560159E+02 0.15380710116E+02 0.20468648128E+02 0.26224571793E+02
 0.32279490837E+02 0.38187043971E+02 0.43464599158E+02 0.47644045294E+02 0.50329972164E+02
 0.51256564989E+02 0.50329968143E+02 0.47644038567E+02 0.43464591928E+02 0.28242974203E+02
 0.23367175274E+02 0.18591494224E+02 0.14261353850E+02 0.10636600831E+02 0.78632841387E+01
 0.59566450097E+01 0.48008963345E+01 0.41704219633E+01 0.37801196794E+01 0.34846698682E+01
 0.32776816711E+01 0.31494451851E+01 0.30888133983E+01 0.30888132736E+01 0.31494450386E+01
 0.32776819698E+01 0.34846707967E+01 0.37801206466E+01 0.41704214784E+01 0.48008924314E+01
 0.59566361021E+01 0.78632699416E+01 0.10636582887E+02 0.14261335329E+02 0.18591478981E+02
 0.23367166477E+02 0.28242973099E+02 0.32823794353E+02 0.36707064888E+02 0.39529787470E+02
 0.41015886476E+02 0.41015883573E+02 0.39529780074E+02 0.36707056421E+02 0.32823789004E+02
 0.20030456961E+02 0.16258325726E+02 0.12750779666E+02 0.97504493385E+01 0.74081619219E+01
 0.57633297487E+01 0.47392944955E+01 0.41576908130E+01 0.37801196794E+01 0.34870688888E+01