   1   1   1   0
  0.1145824E+02  0.2530527E-09  0.2530527E-09  0.2530527E-09  0.5000000E-15
  1.000000000000000E-004
  CAR 
 Co-fcc                                  
     52.78653678     -1.40758840  301      9.59952859      1.00000000
     -1.408  0.0000E+00  0.0000E+00  0.0000E+00  0.0000E+00
     -1.227  0.0000E+00  0.0000E+00  0.0000E+00  0.0000E+00
     -1.046  0.0000E+00  0.0000E+00  0.0000E+00  0.0000E+00
     -0.866  0.0000E+00  0.0000E+00  0.0000E+00  0.0000E+00
     -0.685  0.0000E+00  0.0000E+00  0.0000E+00  0.0000E+00
     -0.504  0.0000E+00  0.0000E+00  0.0000E+00  0.0000E+00
     -0.324  0.0000E+00  0.0000E+00  0.0000E+00  0.0000E+00
     -0.143  0.0000E+00  0.0000E+00  0.0000E+00  0.0000E+00
      0.038  0.0000E+00  0.0000E+00  0.0000E+00  0.0000E+00
      0.218  0.0000E+00  0.0000E+00  0.0000E+00  0.0000E+00
      0.399  0.0000E+00  0.0000E+00  0.0000E+00  0.0000E+00
      0.580  0.0000E+00  0.0000E+00  0.0000E+00  0.0000E+00
      0.760  0.1200E-19  0.0000E+00  0.2168E-20  0.0000E+00
      0.941  0.1241E-06  0.1146E-06  0.2242E-07  0.2070E-07
      1.121  0.2093E-03  0.2089E-03  0.3783E-04  0.3776E-04
      1.302  0.6844E-05  0.7194E-05  0.3907E-04  0.3906E-04
      1.483  0.5501E-03  0.5362E-03  0.1384E-03  0.1359E-03
      1.663  0.9856E-04  0.1125E-03  0.1563E-03  0.1563E-03
      1.844  0.4589E-03  0.4079E-03  0.2391E-03  0.2299E-03
      2.025  0.1898E-03  0.2409E-03  0.2734E-03  0.2734E-03
      2.205  0.5677E-03  0.4236E-03  0.3760E-03  0.3500E-03
      2.386  0.2973E-03  0.4414E-03  0.4297E-03  0.4297E-03
      2.567  0.9444E-03  0.6003E-03  0.6003E-03  0.5381E-03
      2.747  0.3533E-03  0.6971E-03  0.6641E-03  0.6641E-03
      2.928  0.6243E-03  0.4400E-03  0.7769E-03  0.7435E-03
      3.109  0.3098E-04  0.2088E-03  0.7825E-03  0.7813E-03
      3.289  0.1282E-02  0.1018E-02  0.1014E-02  0.9651E-03
      3.470  0.6710E-03  0.2837E-03  0.1135E-02  0.1016E-02
      3.651  0.1285E-02  0.1882E-02  0.1367E-02  0.1356E-02
      3.831  0.6624E-03  0.9787E-04  0.1487E-02  0.1374E-02
      4.012  0.2746E-03  0.6116E-03  0.1537E-02  0.1484E-02
      4.192  0.2528E-02  0.5973E-03  0.1993E-02  0.1592E-02
      4.373  0.1115E-02  0.1005E-02  0.2195E-02  0.1774E-02
      4.554  0.1756E-02  0.1856E-02  0.2512E-02  0.2109E-02
      4.734  0.4485E-02  0.7492E-03  0.3322E-02  0.2245E-02
      4.915  0.8013E-02  0.1242E-02  0.4770E-02  0.2469E-02
      5.096  0.4464E-02  0.1373E-02  0.5576E-02  0.2717E-02
      5.276  0.7283E-02  0.1870E-02  0.6892E-02  0.3055E-02
      5.457  0.1052E-01  0.2695E-02  0.8792E-02  0.3542E-02
      5.638  0.8987E-02  0.1592E-02  0.1042E-01  0.3829E-02
      5.818  0.1020E-01  0.3829E-02  0.1226E-01  0.4521E-02
      5.999  0.8991E-02  0.4161E-02  0.1388E-01  0.5273E-02
      6.180  0.9626E-02  0.5646E-02  0.1562E-01  0.6293E-02
      6.360  0.8220E-02  0.3091E-02  0.1711E-01  0.6851E-02
      6.541  0.1032E-01  0.5485E-02  0.1897E-01  0.7842E-02
      6.722  0.1338E-01  0.7397E-02  0.2139E-01  0.9178E-02
      6.902  0.1441E-01  0.7748E-02  0.2399E-01  0.1058E-01
      7.083  0.1706E-01  0.9334E-02  0.2707E-01  0.1226E-01
      7.263  0.1633E-01  0.5694E-02  0.3002E-01  0.1329E-01
      7.444  0.1121E-01  0.8681E-02  0.3205E-01  0.1486E-01
      7.625  0.1222E-01  0.6367E-02  0.3425E-01  0.1601E-01
      7.805  0.1407E-01  0.9989E-02  0.3680E-01  0.1782E-01
      7.986  0.1419E-01  0.1033E-01  0.3936E-01  0.1968E-01
      8.167  0.1316E-01  0.9305E-02  0.4174E-01  0.2136E-01
      8.347  0.9160E-02  0.1143E-01  0.4339E-01  0.2343E-01
      8.528  0.1473E-01  0.1005E-01  0.4605E-01  0.2524E-01
      8.709  0.1591E-01  0.1288E-01  0.4893E-01  0.2757E-01
      8.889  0.1592E-01  0.1301E-01  0.5180E-01  0.2992E-01
      9.070  0.5125E-02  0.1065E-01  0.5273E-01  0.3184E-01
      9.251  0.6803E-03  0.8048E-02  0.5285E-01  0.3330E-01
      9.431  0.5566E-03  0.7448E-02  0.5295E-01  0.3464E-01
      9.612  0.2889E-02  0.1173E-01  0.5347E-01  0.3676E-01
      9.793  0.1310E-02  0.1142E-01  0.5371E-01  0.3882E-01
      9.973  0.1477E-02  0.1071E-01  0.5398E-01  0.4076E-01
     10.154  0.3292E-03  0.1191E-01  0.5404E-01  0.4291E-01
     10.334  0.1957E-02  0.9342E-02  0.5439E-01  0.4460E-01
     10.515  0.2723E-02  0.1377E-01  0.5488E-01  0.4709E-01
     10.696  0.4450E-03  0.2163E-01  0.5496E-01  0.5099E-01
     10.876  0.1284E-02  0.1019E-01  0.5519E-01  0.5283E-01
     11.057  0.1861E-02  0.3719E-03  0.5553E-01  0.5290E-01
     11.238  0.8898E-04  0.4383E-02  0.5555E-01  0.5369E-01
     11.418  0.1717E-02  0.2633E-02  0.5586E-01  0.5417E-01
     11.599  0.1094E-02  0.1779E-02  0.5605E-01  0.5449E-01
     11.780  0.1694E-02  0.5460E-03  0.5636E-01  0.5459E-01
     11.960  0.2717E-02  0.1844E-02  0.5685E-01  0.5492E-01
     12.141  0.1207E-02  0.2277E-02  0.5707E-01  0.5533E-01
     12.322  0.3203E-05  0.2328E-02  0.5707E-01  0.5575E-01
     12.502  0.4929E-03  0.1453E-02  0.5716E-01  0.5602E-01
     12.683  0.8045E-03  0.1861E-02  0.5730E-01  0.5635E-01
     12.864  0.5535E-03  0.8081E-03  0.5740E-01  0.5650E-01
     13.044  0.3298E-02  0.3021E-02  0.5800E-01  0.5704E-01
     13.225  0.1237E-02  0.1502E-03  0.5822E-01  0.5707E-01
     13.405  0.7479E-03  0.4885E-03  0.5836E-01  0.5716E-01
     13.586  0.1301E-05  0.2102E-02  0.5836E-01  0.5754E-01
     13.767  0.1358E-02  0.1799E-02  0.5860E-01  0.5786E-01
     13.947  0.1885E-02  0.8004E-03  0.5895E-01  0.5801E-01
     14.128  0.4056E-07  0.1640E-02  0.5895E-01  0.5830E-01
     14.309  0.5015E-03  0.6509E-03  0.5904E-01  0.5842E-01
     14.489  0.7960E-03  0.3134E-03  0.5918E-01  0.5848E-01
     14.670  0.7022E-04  0.2561E-02  0.5919E-01  0.5894E-01
     14.851  0.8926E-03  0.1083E-03  0.5935E-01  0.5896E-01
     15.031  0.1002E-02  0.1213E-02  0.5953E-01  0.5918E-01
     15.212  0.1276E-02  0.2117E-06  0.5977E-01  0.5918E-01
     15.393  0.3748E-03  0.1573E-03  0.5983E-01  0.5921E-01
     15.573  0.1300E-02  0.1774E-02  0.6007E-01  0.5953E-01
     15.754  0.9430E-03  0.1471E-03  0.6024E-01  0.5956E-01
     15.935  0.2588E-02  0.1165E-02  0.6071E-01  0.5977E-01
     16.115  0.6757E-03  0.8047E-07  0.6083E-01  0.5977E-01
     16.296  0.2454E-02  0.4198E-05  0.6127E-01  0.5977E-01
     16.476  0.9872E-03  0.2791E-02  0.6145E-01  0.6027E-01
     16.657  0.1532E-02  0.1475E-02  0.6173E-01  0.6054E-01
     16.838  0.1066E-02  0.1900E-02  0.6192E-01  0.6088E-01
     17.018  0.2368E-02  0.1660E-02  0.6235E-01  0.6118E-01
     17.199  0.2012E-03  0.2461E-02  0.6238E-01  0.6162E-01
     17.380  0.8079E-04  0.4334E-03  0.6240E-01  0.6170E-01
     17.560  0.3100E-02  0.2165E-02  0.6296E-01  0.6209E-01
     17.741  0.1659E-02  0.1599E-02  0.6326E-01  0.6238E-01
     17.922  0.3643E-03  0.6756E-06  0.6332E-01  0.6238E-01
     18.102  0.2414E-02  0.2467E-02  0.6376E-01  0.6283E-01
     18.283  0.1663E-03  0.1875E-02  0.6379E-01  0.6317E-01
     18.464  0.7112E-03  0.7105E-03  0.6392E-01  0.6330E-01
     18.644  0.7621E-03  0.1609E-02  0.6406E-01  0.6359E-01
     18.825  0.1122E-02  0.1121E-02  0.6426E-01  0.6379E-01
     19.006  0.1596E-02  0.2489E-03  0.6455E-01  0.6383E-01
     19.186  0.3522E-02  0.1149E-02  0.6518E-01  0.6404E-01
     19.367  0.2240E-03  0.1196E-02  0.6522E-01  0.6426E-01
     19.547  0.1155E-02  0.1239E-02  0.6543E-01  0.6448E-01
     19.728  0.2487E-02  0.1580E-02  0.6588E-01  0.6477E-01
     19.909  0.3367E-02  0.2161E-02  0.6649E-01  0.6516E-01
     20.089  0.1299E-02  0.1511E-02  0.6672E-01  0.6543E-01
     20.270  0.1646E-02  0.2673E-02  0.6702E-01  0.6591E-01
     20.451  0.1926E-02  0.2194E-02  0.6737E-01  0.6631E-01
     20.631  0.4522E-03  0.2246E-02  0.6745E-01  0.6671E-01
     20.812  0.1273E-02  0.1561E-02  0.6768E-01  0.6700E-01
     20.993  0.6311E-03  0.1830E-02  0.6779E-01  0.6733E-01
     21.173  0.2115E-02  0.1581E-02  0.6818E-01  0.6761E-01
     21.354  0.5422E-02  0.3920E-03  0.6916E-01  0.6768E-01
     21.535  0.4101E-03  0.1336E-02  0.6923E-01  0.6793E-01
     21.715  0.1234E-02  0.2978E-02  0.6945E-01  0.6846E-01
     21.896  0.3585E-02  0.4146E-02  0.7010E-01  0.6921E-01
     22.077  0.2324E-02  0.6627E-03  0.7052E-01  0.6933E-01
     22.257  0.7848E-03  0.7517E-03  0.7066E-01  0.6947E-01
     22.438  0.2350E-02  0.5073E-02  0.7109E-01  0.7038E-01
     22.618  0.1282E-02  0.1336E-02  0.7132E-01  0.7063E-01
     22.799  0.5482E-03  0.2215E-02  0.7142E-01  0.7103E-01
     22.980  0.3013E-02  0.1530E-02  0.7196E-01  0.7130E-01
     23.160  0.4247E-02  0.1659E-03  0.7273E-01  0.7133E-01
     23.341  0.7937E-03  0.3003E-02  0.7287E-01  0.7187E-01
     23.522  0.1831E-02  0.4448E-02  0.7320E-01  0.7268E-01
     23.702  0.2321E-02  0.3898E-03  0.7362E-01  0.7275E-01
     23.883  0.2206E-02  0.3584E-02  0.7402E-01  0.7340E-01
     24.064  0.1318E-02  0.1049E-02  0.7426E-01  0.7359E-01
     24.244  0.2553E-02  0.2341E-02  0.7472E-01  0.7401E-01
     24.425  0.1388E-02  0.2411E-02  0.7497E-01  0.7444E-01
     24.606  0.2656E-02  0.1565E-02  0.7545E-01  0.7473E-01
     24.786  0.2823E-02  0.1076E-02  0.7596E-01  0.7492E-01
     24.967  0.2255E-02  0.3558E-02  0.7637E-01  0.7556E-01
     25.148  0.1827E-02  0.2913E-02  0.7670E-01  0.7609E-01
     25.328  0.2900E-02  0.1527E-02  0.7722E-01  0.7637E-01
     25.509  0.3207E-02  0.2007E-02  0.7780E-01  0.7673E-01
     25.689  0.1144E-02  0.3775E-02  0.7801E-01  0.7741E-01
     25.870  0.1101E-02  0.2739E-02  0.7821E-01  0.7790E-01
     26.051  0.3834E-02  0.5868E-03  0.7890E-01  0.7801E-01
     26.231  0.1603E-02  0.3138E-02  0.7919E-01  0.7858E-01
     26.412  0.1247E-02  0.2027E-02  0.7941E-01  0.7894E-01
     26.593  0.2242E-02  0.2313E-02  0.7982E-01  0.7936E-01
     26.773  0.1703E-02  0.2932E-03  0.8013E-01  0.7941E-01
     26.954  0.1287E-02  0.3104E-02  0.8036E-01  0.7998E-01
     27.135  0.8579E-03  0.1020E-02  0.8051E-01  0.8016E-01
     27.315  0.2948E-02  0.1867E-02  0.8105E-01  0.8050E-01
     27.496  0.1926E-02  0.1146E-02  0.8139E-01  0.8070E-01
     27.677  0.2705E-02  0.2200E-02  0.8188E-01  0.8110E-01
     27.857  0.1697E-02  0.2677E-02  0.8219E-01  0.8158E-01
     28.038  0.1075E-02  0.2505E-02  0.8238E-01  0.8204E-01
     28.219  0.8197E-03  0.1691E-02  0.8253E-01  0.8234E-01
     28.399  0.2084E-02  0.8711E-03  0.8291E-01  0.8250E-01
     28.580  0.9817E-03  0.1135E-02  0.8309E-01  0.8270E-01
     28.760  0.2359E-02  0.2179E-02  0.8351E-01  0.8310E-01
     28.941  0.2816E-02  0.2159E-02  0.8402E-01  0.8349E-01
     29.122  0.1573E-02  0.2365E-02  0.8430E-01  0.8392E-01
     29.302  0.1139E-02  0.1684E-02  0.8451E-01  0.8422E-01
     29.483  0.1536E-02  0.1475E-02  0.8479E-01  0.8449E-01
     29.664  0.1624E-02  0.1727E-03  0.8508E-01  0.8452E-01
     29.844  0.1869E-02  0.2963E-02  0.8542E-01  0.8505E-01
     30.025  0.1874E-02  0.2485E-02  0.8576E-01  0.8550E-01
     30.206  0.1631E-02  0.1441E-02  0.8605E-01  0.8576E-01
     30.386  0.3861E-02  0.1577E-02  0.8675E-01  0.8605E-01
     30.567  0.1346E-02  0.2707E-02  0.8699E-01  0.8654E-01
     30.748  0.3091E-02  0.3816E-02  0.8755E-01  0.8723E-01
     30.928  0.2872E-02  0.1504E-02  0.8807E-01  0.8750E-01
     31.109  0.1210E-02  0.2398E-02  0.8829E-01  0.8793E-01
     31.290  0.1330E-02  0.1609E-02  0.8853E-01  0.8822E-01
     31.470  0.1633E-02  0.2009E-02  0.8882E-01  0.8858E-01
     31.651  0.4919E-02  0.1826E-02  0.8971E-01  0.8891E-01
     31.831  0.3764E-02  0.6604E-02  0.9039E-01  0.9011E-01
     32.012  0.2895E-02  0.1359E-02  0.9092E-01  0.9035E-01
     32.193  0.4390E-03  0.2365E-02  0.9099E-01  0.9078E-01
     32.373  0.3965E-02  0.2165E-02  0.9171E-01  0.9117E-01
     32.554  0.3015E-02  0.2390E-02  0.9226E-01  0.9160E-01
     32.735  0.4933E-03  0.3353E-02  0.9234E-01  0.9221E-01
     32.915  0.3892E-02  0.1802E-02  0.9305E-01  0.9253E-01
     33.096  0.3246E-02  0.4282E-02  0.9363E-01  0.9331E-01
     33.277  0.2615E-02  0.1329E-02  0.9411E-01  0.9355E-01
     33.457  0.5980E-03  0.2644E-02  0.9421E-01  0.9402E-01
     33.638  0.4318E-02  0.1347E-02  0.9499E-01  0.9427E-01
     33.819  0.2163E-02  0.2658E-02  0.9539E-01  0.9475E-01
     33.999  0.4297E-02  0.4526E-02  0.9616E-01  0.9557E-01
     34.180  0.1858E-02  0.3089E-02  0.9650E-01  0.9612E-01
     34.361  0.1455E-02  0.9495E-03  0.9676E-01  0.9630E-01
     34.541  0.2965E-02  0.2869E-02  0.9730E-01  0.9681E-01
     34.722  0.3605E-02  0.2472E-02  0.9795E-01  0.9726E-01
     34.902  0.1827E-02  0.3884E-02  0.9828E-01  0.9796E-01
     35.083  0.2593E-02  0.2018E-02  0.9875E-01  0.9833E-01
     35.264  0.1918E-02  0.1698E-02  0.9909E-01  0.9863E-01
     35.444  0.5178E-04  0.1244E-02  0.9910E-01  0.9886E-01
     35.625  0.4009E-03  0.1273E-02  0.9917E-01  0.9909E-01
     35.806  0.3323E-02  0.1646E-02  0.9977E-01  0.9938E-01
     35.986  0.2527E-02  0.2049E-02  0.1002E+00  0.9975E-01
     36.167  0.6542E-03  0.2653E-02  0.1003E+00  0.1002E+00
     36.348  0.6794E-03  0.1894E-06  0.1005E+00  0.1002E+00
     36.528  0.1610E-02  0.2359E-04  0.1008E+00  0.1002E+00
     36.709  0.2018E-02  0.1160E-02  0.1011E+00  0.1004E+00
     36.890  0.2622E-02  0.3600E-02  0.1016E+00  0.1011E+00
     37.070  0.2001E-03  0.3242E-02  0.1016E+00  0.1017E+00
     37.251  0.1636E-02  0.2137E-03  0.1019E+00  0.1017E+00
     37.432  0.1435E-02  0.1269E-02  0.1022E+00  0.1020E+00
     37.612  0.2157E-02  0.6413E-03  0.1026E+00  0.1021E+00
     37.793  0.3825E-02  0.3249E-02  0.1033E+00  0.1027E+00
     37.973  0.2762E-02  0.1965E-02  0.1038E+00  0.1030E+00
     38.154  0.5534E-02  0.1438E-02  0.1048E+00  0.1033E+00
     38.335  0.2997E-02  0.6932E-02  0.1053E+00  0.1045E+00
     38.515  0.3399E-02  0.4832E-02  0.1059E+00  0.1054E+00
     38.696  0.1598E-02  0.4033E-02  0.1062E+00  0.1061E+00
     38.877  0.4738E-02  0.1379E-02  0.1071E+00  0.1064E+00
     39.057  0.2532E-02  0.2546E-02  0.1075E+00  0.1068E+00
     39.238  0.7063E-03  0.2371E-02  0.1077E+00  0.1073E+00
     39.419  0.9581E-03  0.1691E-02  0.1078E+00  0.1076E+00
     39.599  0.2875E-02  0.1797E-02  0.1083E+00  0.1079E+00
     39.780  0.2818E-02  0.2763E-02  0.1089E+00  0.1084E+00
     39.961  0.2303E-02  0.3482E-02  0.1093E+00  0.1090E+00
     40.141  0.2504E-02  0.2422E-02  0.1097E+00  0.1095E+00
     40.322  0.1251E-02  0.1696E-02  0.1100E+00  0.1098E+00
     40.503  0.4501E-02  0.6355E-03  0.1108E+00  0.1099E+00
     40.683  0.2561E-02  0.2809E-02  0.1112E+00  0.1104E+00
     40.864  0.2176E-02  0.5677E-02  0.1116E+00  0.1114E+00
     41.044  0.9215E-03  0.1813E-02  0.1118E+00  0.1117E+00
     41.225  0.3742E-03  0.3269E-03  0.1119E+00  0.1118E+00
     41.406  0.2661E-02  0.2325E-03  0.1123E+00  0.1118E+00
     41.586  0.1211E-02  0.2471E-02  0.1126E+00  0.1123E+00
     41.767  0.2760E-02  0.2396E-02  0.1131E+00  0.1127E+00
     41.948  0.3338E-02  0.4034E-02  0.1137E+00  0.1134E+00
     42.128  0.2676E-02  0.9616E-03  0.1141E+00  0.1136E+00
     42.309  0.2633E-04  0.1796E-02  0.1141E+00  0.1139E+00
     42.490  0.2087E-02  0.1939E-02  0.1145E+00  0.1143E+00
     42.670  0.2415E-02  0.7281E-03  0.1150E+00  0.1144E+00
     42.851  0.2035E-04  0.1169E-02  0.1150E+00  0.1146E+00
     43.032  0.2233E-05  0.1323E-02  0.1150E+00  0.1149E+00
     43.212  0.3061E-02  0.1076E-02  0.1155E+00  0.1151E+00
     43.393  0.2131E-02  0.2194E-02  0.1159E+00  0.1155E+00
     43.574  0.2419E-02  0.1090E-02  0.1163E+00  0.1157E+00
     43.754  0.2357E-02  0.3200E-02  0.1168E+00  0.1162E+00
     43.935  0.4088E-03  0.1922E-02  0.1168E+00  0.1166E+00
     44.115  0.1465E-10  0.1359E-02  0.1168E+00  0.1168E+00
     44.296  0.7041E-04  0.1403E-03  0.1168E+00  0.1169E+00
     44.477  0.3455E-02  0.1642E-02  0.1175E+00  0.1172E+00
     44.657  0.1854E-02  0.1495E-02  0.1178E+00  0.1174E+00
     44.838  0.4822E-03  0.1331E-02  0.1179E+00  0.1177E+00
     45.019  0.1843E-02  0.1270E-02  0.1182E+00  0.1179E+00
     45.199  0.1363E-03  0.1076E-02  0.1183E+00  0.1181E+00
     45.380  0.1617E-02  0.8360E-03  0.1185E+00  0.1182E+00
     45.561  0.2731E-03  0.1885E-02  0.1186E+00  0.1186E+00
     45.741  0.2838E-04  0.5999E-04  0.1186E+00  0.1186E+00
     45.922  0.1268E-02  0.1069E-09  0.1188E+00  0.1186E+00
     46.103  0.1286E-05  0.5838E-03  0.1188E+00  0.1187E+00
     46.283  0.6391E-03  0.7137E-03  0.1189E+00  0.1188E+00
     46.464  0.3027E-02  0.4048E-09  0.1195E+00  0.1188E+00
     46.645  0.2821E-02  0.0000E+00  0.1200E+00  0.1188E+00
     46.825  0.6349E-06  0.5957E-08  0.1200E+00  0.1188E+00
     47.006  0.0000E+00  0.9321E-03  0.1200E+00  0.1190E+00
     47.186  0.0000E+00  0.1428E-02  0.1200E+00  0.1193E+00
     47.367  0.0000E+00  0.2347E-03  0.1200E+00  0.1193E+00
     47.548  0.0000E+00  0.1122E-11  0.1200E+00  0.1193E+00
     47.728  0.0000E+00  0.0000E+00  0.1200E+00  0.1193E+00
     47.909  0.0000E+00  0.2759E-09  0.1200E+00  0.1193E+00
     48.090  0.0000E+00  0.3722E-03  0.1200E+00  0.1194E+00
     48.270  0.0000E+00  0.2796E-03  0.1200E+00  0.1194E+00
     48.451  0.0000E+00  0.1280E-02  0.1200E+00  0.1196E+00
     48.632  0.0000E+00  0.1439E-04  0.1200E+00  0.1196E+00
     48.812  0.0000E+00  0.0000E+00  0.1200E+00  0.1196E+00
     48.993  0.0000E+00  0.0000E+00  0.1200E+00  0.1196E+00
     49.174  0.0000E+00  0.0000E+00  0.1200E+00  0.1196E+00
     49.354  0.0000E+00  0.2182E-06  0.1200E+00  0.1196E+00
     49.535  0.0000E+00  0.6201E-03  0.1200E+00  0.1198E+00
     49.716  0.0000E+00  0.2836E-04  0.1200E+00  0.1198E+00
     49.896  0.0000E+00  0.0000E+00  0.1200E+00  0.1198E+00
     50.077  0.0000E+00  0.4308E-10  0.1200E+00  0.1198E+00
     50.257  0.0000E+00  0.3022E-03  0.1200E+00  0.1198E+00
     50.438  0.0000E+00  0.9948E-03  0.1200E+00  0.1200E+00
     50.619  0.0000E+00  0.3726E-06  0.1200E+00  0.1200E+00
     50.799  0.0000E+00  0.0000E+00  0.1200E+00  0.1200E+00
     50.980  0.0000E+00  0.0000E+00  0.1200E+00  0.1200E+00
     51.161  0.0000E+00  0.0000E+00  0.1200E+00  0.1200E+00
     51.341  0.0000E+00  0.0000E+00  0.1200E+00  0.1200E+00
     51.522  0.0000E+00  0.0000E+00  0.1200E+00  0.1200E+00
     51.703  0.0000E+00  0.0000E+00  0.1200E+00  0.1200E+00
     51.883  0.0000E+00  0.0000E+00  0.1200E+00  0.1200E+00
     52.064  0.0000E+00  0.0000E+00  0.1200E+00  0.1200E+00
     52.245  0.0000E+00  0.0000E+00  0.1200E+00  0.1200E+00
     52.425  0.0000E+00  0.0000E+00  0.1200E+00  0.1200E+00
     52.606  0.0000E+00  0.0000E+00  0.1200E+00  0.1200E+00
     52.787  0.0000E+00  0.0000E+00  0.1200E+00  0.1200E+00
     52.78653678     -1.40758840  301      9.59952859      1.00000000
     -1.408  0.0000E+00  0.0000E+00  0.0000E+00  0.0000E+00  0.0000E+00  0.0000E+00  0.0000E+00  0.0000E+00  0.0000E+00  0.0000E+00  0.0000E+00  0.0000E+00  0.0000E+00  0.0000E+00  0.0000E+00  0.0000E+00  0.0000E+00  0.0000E+00
     -1.227  0.0000E+00  0.0000E+00  0.0000E+00  0.0000E+00  0.0000E+00  0.0000E+00  0.0000E+00  0.0000E+00  0.0000E+00  0.0000E+00  0.0000E+00  0.0000E+00  0.0000E+00  0.0000E+00  0.0000E+00  0.0000E+00  0.0000E+00  0.0000E+00
     -1.046  0.0000E+00  0.0000E+00  0.0000E+00  0.0000E+00  0.0000E+00  0.0000E+00  0.0000E+00  0.0000E+00  0.0000E+00  0.0000E+00  0.0000E+00  0.0000E+00  0.0000E+00  0.0000E+00  0.0000E+00  0.0000E+00  0.0000E+00  0.0000E+00
     -0.866  0.0000E+00  0.0000E+00  0.0000E+00  0.0000E+00  0.0000E+00  0.0000E+00  0.0000E+00  0.0000E+00  0.0000E+00  0.0000E+00  0.0000E+00  0.0000E+00  0.0000E+00  0.0000E+00  0.0000E+00  0.0000E+00  0.0000E+00  0.0000E+00
     -0.685  0.0000E+00  0.0000E+00  0.0000E+00  0.0000E+00  0.0000E+00  0.0000E+00  0.0000E+00  0.0000E+00  0.0000E+00  0.0000E+00  0.0000E+00  0.0000E+00  0.0000E+00  0.0000E+00  0.0000E+00  0.0000E+00  0.0000E+00  0.0000E+00
     -0.504  0.0000E+00  0.0000E+00  0.0000E+00  0.0000E+00  0.0000E+00  0.0000E+00  0.0000E+00  0.0000E+00  0.0000E+00  0.0000E+00  0.0000E+00  0.0000E+00  0.0000E+00  0.0000E+00  0.0000E+00  0.0000E+00  0.0000E+00  0.0000E+00
     -0.324  0.0000E+00  0.0000E+00  0.0000E+00  0.0000E+00  0.0000E+00  0.0000E+00  0.0000E+00  0.0000E+00  0.0000E+00  0.0000E+00  0.0000E+00  0.0000E+00  0.0000E+00  0.0000E+00  0.0000E+00  0.0000E+00  0.0000E+00  0.0000E+00
     -0.143  0.0000E+00  0.0000E+00  0.0000E+00  0.0000E+00  0.0000E+00  0.0000E+00  0.0000E+00  0.0000E+00  0.0000E+00  0.0000E+00  0.0000E+00  0.0000E+00  0.0000E+00  0.0000E+00  0.0000E+00  0.0000E+00  0.0000E+00  0.0000E+00
      0.038  0.0000E+00  0.0000E+00  0.0000E+00  0.0000E+00  0.0000E+00  0.0000E+00  0.0000E+00  0.0000E+00  0.0000E+00  0.0000E+00  0.0000E+00  0.0000E+00  0.0000E+00  0.0000E+00  0.0000E+00  0.0000E+00  0.0000E+00  0.0000E+00
      0.218  0.0000E+00  0.0000E+00  0.0000E+00  0.0000E+00  0.0000E+00  0.0000E+00  0.0000E+00  0.0000E+00  0.0000E+00  0.0000E+00  0.0000E+00  0.0000E+00  0.0000E+00  0.0000E+00  0.0000E+00  0.0000E+00  0.0000E+00  0.0000E+00
      0.399  0.0000E+00  0.0000E+00  0.0000E+00  0.0000E+00  0.0000E+00  0.0000E+00  0.0000E+00  0.0000E+00  0.0000E+00  0.0000E+00  0.0000E+00  0.0000E+00  0.0000E+00  0.0000E+00  0.0000E+00  0.0000E+00  0.0000E+00  0.0000E+00
      0.580  0.0000E+00  0.0000E+00  0.0000E+00  0.0000E+00  0.0000E+00  0.0000E+00  0.0000E+00  0.0000E+00  0.0000E+00  0.0000E+00  0.0000E+00  0.0000E+00  0.0000E+00  0.0000E+00  0.0000E+00  0.0000E+00  0.0000E+00  0.0000E+00
      0.760  0.8064E-18  0.0000E+00  0.3838E-20  0.0000E+00  0.3838E-20  0.0000E+00  0.3838E-20  0.0000E+00  0.6156E-22  0.0000E+00  0.6156E-22  0.0000E+00  0.9254E-35  0.0000E+00  0.6156E-22  0.0000E+00  0.9254E-35  0.0000E+00
      0.941  0.8338E-05  0.7676E-05  0.3968E-07  0.3679E-07  0.3968E-07  0.3679E-07  0.3968E-07  0.3679E-07  0.6366E-09  0.4224E-09  0.6366E-09  0.4224E-09  0.9569E-22  0.1297E-22  0.6366E-09  0.4224E-09  0.9569E-22  0.1297E-22
      1.121  0.1406E-01  0.1399E-01  0.6691E-04  0.6707E-04  0.6691E-04  0.6707E-04  0.6691E-04  0.6707E-04  0.1073E-05  0.7700E-06  0.1073E-05  0.7700E-06  0.1613E-18  0.2364E-19  0.1073E-05  0.7700E-06  0.1613E-18  0.2364E-19
      1.302  0.4598E-03  0.4818E-03  0.2200E-05  0.2318E-05  0.2200E-05  0.2318E-05  0.2200E-05  0.2318E-05  0.3553E-07  0.2672E-07  0.3553E-07  0.2672E-07  0.6653E-09  0.3238E-09  0.3553E-07  0.2672E-07  0.6653E-09  0.3238E-09
      1.483  0.3554E-01  0.3453E-01  0.6288E-03  0.6163E-03  0.6288E-03  0.6163E-03  0.6288E-03  0.6163E-03  0.1880E-04  0.1289E-04  0.1880E-04  0.1289E-04  0.2520E-04  0.1749E-04  0.1880E-04  0.1289E-04  0.2520E-04  0.1749E-04
      1.663  0.6368E-02  0.7247E-02  0.1127E-03  0.1294E-03  0.1127E-03  0.1294E-03  0.1127E-03  0.1294E-03  0.3368E-05  0.2706E-05  0.3368E-05  0.2706E-05  0.4514E-05  0.3671E-05  0.3368E-05  0.2706E-05  0.4514E-05  0.3671E-05
      1.844  0.2847E-01  0.2523E-01  0.8703E-03  0.7824E-03  0.8703E-03  0.7824E-03  0.8703E-03  0.7824E-03  0.8778E-04  0.5342E-04  0.8778E-04  0.5342E-04  0.1995E-04  0.1269E-04  0.8778E-04  0.5342E-04  0.1995E-04  0.1269E-04
      2.025  0.1177E-01  0.1490E-01  0.3600E-03  0.4621E-03  0.3600E-03  0.4621E-03  0.3600E-03  0.4621E-03  0.3631E-04  0.3155E-04  0.3631E-04  0.3155E-04  0.8254E-05  0.7493E-05  0.3631E-04  0.3155E-04  0.8254E-05  0.7493E-05
      2.205  0.3364E-01  0.2509E-01  0.1487E-02  0.1127E-02  0.1487E-02  0.1127E-02  0.1487E-02  0.1127E-02  0.1301E-03  0.6375E-04  0.1301E-03  0.6375E-04  0.2106E-03  0.1042E-03  0.1301E-03  0.6375E-04  0.2106E-03  0.1042E-03
      2.386  0.1761E-01  0.2614E-01  0.7813E-03  0.1176E-02  0.7813E-03  0.1176E-02  0.7813E-03  0.1176E-02  0.5843E-04  0.6011E-04  0.5843E-04  0.6011E-04  0.1207E-03  0.1156E-03  0.5843E-04  0.6011E-04  0.1207E-03  0.1156E-03
      2.567  0.5345E-01  0.3404E-01  0.3084E-02  0.2004E-02  0.3084E-02  0.2004E-02  0.3084E-02  0.2004E-02  0.5193E-03  0.2163E-03  0.5193E-03  0.2163E-03  0.3635E-03  0.1531E-03  0.5193E-03  0.2163E-03  0.3635E-03  0.1531E-03
      2.747  0.2000E-01  0.3953E-01  0.1154E-02  0.2327E-02  0.1154E-02  0.2327E-02  0.1154E-02  0.2327E-02  0.1946E-03  0.2511E-03  0.1946E-03  0.2511E-03  0.1360E-03  0.1778E-03  0.1946E-03  0.2511E-03  0.1360E-03  0.1778E-03
      2.928  0.3352E-01  0.2385E-01  0.2266E-02  0.1682E-02  0.2266E-02  0.1682E-02  0.2266E-02  0.1682E-02  0.9294E-03  0.3973E-03  0.9294E-03  0.3973E-03  0.1431E-03  0.6599E-04  0.9294E-03  0.3973E-03  0.1431E-03  0.6599E-04
      3.109  0.1640E-02  0.1132E-01  0.1175E-03  0.7982E-03  0.1175E-03  0.7982E-03  0.1175E-03  0.7982E-03  0.3978E-04  0.1885E-03  0.3978E-04  0.1885E-03  0.2116E-04  0.3132E-04  0.3978E-04  0.1885E-03  0.2116E-04  0.3132E-04
      3.289  0.6468E-01  0.5221E-01  0.5583E-02  0.4633E-02  0.5583E-02  0.4633E-02  0.5583E-02  0.4633E-02  0.1166E-02  0.5720E-03  0.1166E-02  0.5720E-03  0.2140E-02  0.1038E-02  0.1166E-02  0.5720E-03  0.2140E-02  0.1038E-02
      3.470  0.3180E-01  0.1455E-01  0.2909E-02  0.1291E-02  0.2909E-02  0.1291E-02  0.2909E-02  0.1291E-02  0.1940E-02  0.1766E-03  0.1940E-02  0.1766E-03  0.6160E-03  0.2674E-03  0.1940E-02  0.1766E-03  0.6160E-03  0.2674E-03
      3.651  0.6076E-01  0.9174E-01  0.6032E-02  0.9280E-02  0.6032E-02  0.9280E-02  0.6032E-02  0.9280E-02  0.1993E-02  0.2268E-02  0.1993E-02  0.2268E-02  0.2743E-02  0.1890E-02  0.1993E-02  0.2268E-02  0.2743E-02  0.1890E-02
      3.831  0.2902E-01  0.4664E-02  0.3084E-02  0.5030E-03  0.3084E-02  0.5030E-03  0.3084E-02  0.5030E-03  0.2248E-02  0.1168E-03  0.2248E-02  0.1168E-03  0.1235E-02  0.1269E-03  0.2248E-02  0.1168E-03  0.1235E-02  0.1269E-03
      4.012  0.1109E-01  0.2820E-01  0.1114E-02  0.3222E-02  0.1114E-02  0.3222E-02  0.1114E-02  0.3222E-02  0.1851E-02  0.1111E-02  0.1851E-02  0.1111E-02  0.1478E-03  0.7080E-03  0.1851E-02  0.1111E-02  0.1478E-03  0.7080E-03
      4.192  0.9740E-01  0.2606E-01  0.1237E-01  0.3270E-02  0.1237E-01  0.3270E-02  0.1237E-01  0.3270E-02  0.1079E-01  0.1791E-02  0.1079E-01  0.1791E-02  0.8982E-02  0.4201E-03  0.1079E-01  0.1791E-02  0.8982E-02  0.4201E-03
      4.373  0.3711E-01  0.4350E-01  0.4156E-02  0.5919E-02  0.4156E-02  0.5919E-02  0.4156E-02  0.5919E-02  0.9749E-02  0.2209E-02  0.9749E-02  0.2209E-02  0.3222E-02  0.1220E-02  0.9749E-02  0.2209E-02  0.3222E-02  0.1220E-02
      4.554  0.5233E-01  0.7461E-01  0.7428E-02  0.1032E-01  0.7428E-02  0.1032E-01  0.7428E-02  0.1032E-01  0.1000E-01  0.5412E-02  0.1000E-01  0.5412E-02  0.1471E-01  0.5051E-02  0.1000E-01  0.5412E-02  0.1471E-01  0.5051E-02
      4.734  0.8033E-01  0.2742E-01  0.9207E-02  0.4670E-02  0.9207E-02  0.4670E-02  0.9207E-02  0.4670E-02  0.4018E-01  0.9108E-03  0.4018E-01  0.9108E-03  0.7033E-01  0.4440E-02  0.4018E-01  0.9108E-03  0.7033E-01  0.4440E-02
      4.915  0.1300E+00  0.4462E-01  0.1897E-01  0.6502E-02  0.1897E-01  0.6502E-02  0.1897E-01  0.6502E-02  0.7403E-01  0.6308E-02  0.7403E-01  0.6308E-02  0.1270E+00  0.3756E-02  0.7403E-01  0.6308E-02  0.1270E+00  0.3756E-02
      5.096  0.5166E-01  0.4770E-01  0.8115E-02  0.8635E-02  0.8115E-02  0.8635E-02  0.8115E-02  0.8635E-02  0.4143E-01  0.5931E-02  0.4143E-01  0.5931E-02  0.8897E-01  0.3859E-02  0.4143E-01  0.5931E-02  0.8897E-01  0.3859E-02
      5.276  0.5472E-01  0.5861E-01  0.1029E-01  0.1024E-01  0.1029E-01  0.1024E-01  0.1029E-01  0.1024E-01  0.9823E-01  0.1341E-01  0.9823E-01  0.1341E-01  0.1272E+00  0.4807E-02  0.9823E-01  0.1341E-01  0.1272E+00  0.4807E-02
      5.457  0.6441E-01  0.7472E-01  0.1747E-01  0.1332E-01  0.1747E-01  0.1332E-01  0.1747E-01  0.1332E-01  0.1639E+00  0.1748E-01  0.1639E+00  0.1748E-01  0.1571E+00  0.1814E-01  0.1639E+00  0.1748E-01  0.1571E+00  0.1814E-01
      5.638  0.2177E-01  0.3585E-01  0.1102E-01  0.5611E-02  0.1102E-01  0.5611E-02  0.1102E-01  0.5611E-02  0.1616E+00  0.1583E-01  0.1616E+00  0.1583E-01  0.1341E+00  0.1267E-01  0.1616E+00  0.1583E-01  0.1341E+00  0.1267E-01
      5.818  0.2394E-01  0.7199E-01  0.1815E-01  0.1002E-01  0.1815E-01  0.1002E-01  0.1815E-01  0.1002E-01  0.2166E+00  0.4325E-01  0.2166E+00  0.4325E-01  0.9479E-01  0.3906E-01  0.2166E+00  0.4325E-01  0.9479E-01  0.3906E-01
      5.999  0.7363E-02  0.7617E-01  0.1719E-01  0.1600E-01  0.1719E-01  0.1600E-01  0.1719E-01  0.1600E-01  0.1722E+00  0.3629E-01  0.1722E+00  0.3629E-01  0.1182E+00  0.4878E-01  0.1722E+00  0.3629E-01  0.1182E+00  0.4878E-01
      6.180  0.3610E-02  0.7112E-01  0.1644E-01  0.1640E-01  0.1644E-01  0.1640E-01  0.1644E-01  0.1640E-01  0.1755E+00  0.3920E-01  0.1755E+00  0.3920E-01  0.1483E+00  0.1104E+00  0.1755E+00  0.3920E-01  0.1483E+00  0.1104E+00
      6.360  0.3973E-02  0.3594E-01  0.1275E-01  0.6620E-02  0.1275E-01  0.6620E-02  0.1275E-01  0.6620E-02  0.1634E+00  0.3581E-01  0.1634E+00  0.3581E-01  0.1105E+00  0.4753E-01  0.1634E+00  0.3581E-01  0.1105E+00  0.4753E-01
      6.541  0.8046E-02  0.4485E-01  0.1443E-01  0.1564E-01  0.1443E-01  0.1564E-01  0.1443E-01  0.1564E-01  0.2071E+00  0.5195E-01  0.2071E+00  0.5195E-01  0.1405E+00  0.1047E+00  0.2071E+00  0.5195E-01  0.1405E+00  0.1047E+00
      6.722  0.1114E-01  0.4175E-01  0.2359E-01  0.1473E-01  0.2359E-01  0.1473E-01  0.2359E-01  0.1473E-01  0.2860E+00  0.1266E+00  0.2860E+00  0.1266E+00  0.1492E+00  0.8723E-01  0.2860E+00  0.1266E+00  0.1492E+00  0.8723E-01
      6.902  0.2032E-01  0.2058E-01  0.2356E-01  0.1822E-01  0.2356E-01  0.1822E-01  0.2356E-01  0.1822E-01  0.2807E+00  0.1308E+00  0.2807E+00  0.1308E+00  0.2041E+00  0.1034E+00  0.2807E+00  0.1308E+00  0.2041E+00  0.1034E+00
      7.083  0.1828E-01  0.7051E-02  0.2291E-01  0.1963E-01  0.2291E-01  0.1963E-01  0.2291E-01  0.1963E-01  0.3281E+00  0.1956E+00  0.3281E+00  0.1956E+00  0.2665E+00  0.8750E-01  0.3281E+00  0.1956E+00  0.2665E+00  0.8750E-01
      7.263  0.1154E-01  0.5102E-02  0.1933E-01  0.1528E-01  0.1933E-01  0.1528E-01  0.1933E-01  0.1528E-01  0.3282E+00  0.1075E+00  0.3282E+00  0.1075E+00  0.2464E+00  0.6397E-01  0.3282E+00  0.1075E+00  0.2464E+00  0.6397E-01
      7.444  0.1240E-01  0.2957E-02  0.1059E-01  0.1930E-01  0.1059E-01  0.1930E-01  0.1059E-01  0.1930E-01  0.1862E+00  0.1786E+00  0.1862E+00  0.1786E+00  0.2318E+00  0.8904E-01  0.1862E+00  0.1786E+00  0.2318E+00  0.8904E-01
      7.625  0.6882E-02  0.9354E-03  0.1913E-01  0.2177E-01  0.1913E-01  0.2177E-01  0.1913E-01  0.2177E-01  0.1630E+00  0.1031E+00  0.1630E+00  0.1031E+00  0.3008E+00  0.9009E-01  0.1630E+00  0.1031E+00  0.3008E+00  0.9009E-01