PROCAR lm decomposed
# of k-points:   60         # of bands:   12         # of ions:    1

 k-point     1 :    0.06250000 0.06250000 0.06250000     weight = 0.00390625

band     1 # energy    1.05578092 # occ.  1.00000000
 
ion      s     py     pz     px    dxy    dyz    dz2    dxz  x2-y2    tot
    1  0.672  0.003  0.003  0.003  0.000  0.000  0.000  0.000  0.000  0.682
 
band     2 # energy    6.89529111 # occ.  1.00000000
 
ion      s     py     pz     px    dxy    dyz    dz2    dxz  x2-y2    tot
    1  0.000  0.000  0.000  0.000  0.321  0.321  0.000  0.321  0.000  0.966
 
band     3 # energy    6.96918372 # occ.  1.00000000
 
ion      s     py     pz     px    dxy    dyz    dz2    dxz  x2-y2    tot
    1  0.000  0.000  0.000  0.000  0.021  0.503  0.000  0.442  0.001  0.968
 
band     4 # energy    6.96918373 # occ.  1.00000000
 
ion      s     py     pz     px    dxy    dyz    dz2    dxz  x2-y2    tot
    1  0.000  0.000  0.000  0.000  0.623  0.141  0.001  0.202  0.000  0.968
 
band     5 # energy    7.88341256 # occ.  1.00000000
 
ion      s     py     pz     px    dxy    dyz    dz2    dxz  x2-y2    tot
    1  0.000  0.000  0.000  0.000  0.001  0.000  0.778  0.000  0.203  0.983
 
band     6 # energy    7.88341256 # occ.  1.00000000
 
ion      s     py     pz     px    dxy    dyz    dz2    dxz  x2-y2    tot
    1  0.000  0.000  0.000  0.000  0.000  0.000  0.203  0.001  0.778  0.983
 
band     7 # energy   31.77912070 # occ.  0.00000000
 
ion      s     py     pz     px    dxy    dyz    dz2    dxz  x2-y2    tot
    1  0.001  0.008  0.008  0.008  0.050  0.050  0.000  0.050  0.000  0.177
 
band     8 # energy   34.41326182 # occ.  0.00000000
 
ion      s     py     pz     px    dxy    dyz    dz2    dxz  x2-y2    tot
    1  0.019  0.088  0.088  0.088  0.035  0.035  0.000  0.035  0.000  0.390
 
band     9 # energy   35.81077634 # occ.  0.00000000
 
ion      s     py     pz     px    dxy    dyz    dz2    dxz  x2-y2    tot
    1  0.000  0.083  0.200  0.029  0.093  0.014  0.014  0.039  0.001  0.472
 
band    10 # energy   35.81077634 # occ.  0.00000000
 
ion      s     py     pz     px    dxy    dyz    dz2    dxz  x2-y2    tot
    1  0.000  0.125  0.008  0.179  0.004  0.083  0.001  0.058  0.014  0.472
 
band    11 # energy   39.54643530 # occ.  0.00000000
 
ion      s     py     pz     px    dxy    dyz    dz2    dxz  x2-y2    tot
    1  0.000  0.002  0.007  0.002  0.670  0.173  0.005  0.211  0.000  1.070
 
band    12 # energy   39.54643587 # occ.  0.00000000
 
ion      s     py     pz     px    dxy    dyz    dz2    dxz  x2-y2    tot
    1  0.000  0.005  0.000  0.005  0.032  0.529  0.000  0.492  0.005  1.070
 

 k-point     2 :    0.18750000 0.06250000 0.06250000     weight = 0.01171875

band     1 # energy    1.82476249 # occ.  1.00000000
 
ion      s     py     pz     px    dxy    dyz    dz2    dxz  x2-y2    tot
    1  0.620  0.027  0.027  0.003  0.001  0.005  0.000  0.001  0.001  0.684
 
band     2 # energy    6.70276064 # occ.  1.00000000
 
ion      s     py     pz     px    dxy    dyz    dz2    dxz  x2-y2    tot
    1  0.001  0.001  0.001  0.006  0.457  0.034  0.000  0.457  0.000  0.955
 
band     3 # energy    7.11293765 # occ.  1.00000000
 
ion      s     py     pz     px    dxy    dyz    dz2    dxz  x2-y2    tot
    1  0.000  0.002  0.002  0.000  0.016  0.837  0.023  0.016  0.069  0.967
 
band     4 # energy    7.11841407 # occ.  1.00000000
 
ion      s     py     pz     px    dxy    dyz    dz2    dxz  x2-y2    tot
    1  0.000  0.000  0.000  0.000  0.473  0.000  0.018  0.473  0.006  0.969
 
band     5 # energy    7.74378051 # occ.  1.00000000
 
ion      s     py     pz     px    dxy    dyz    dz2    dxz  x2-y2    tot
    1  0.000  0.000  0.000  0.000  0.012  0.000  0.715  0.012  0.238  0.977
 
band     6 # energy    7.96838301 # occ.  1.00000000
 
ion      s     py     pz     px    dxy    dyz    dz2    dxz  x2-y2    tot
    1  0.001  0.000  0.000  0.000  0.002  0.089  0.222  0.002  0.666  0.982
 
band     7 # energy   28.78562578 # occ.  0.00000000
 
ion      s     py     pz     px    dxy    dyz    dz2    dxz  x2-y2    tot
    1  0.027  0.048  0.048  0.120  0.160  0.079  0.001  0.160  0.002  0.645
 
band     8 # energy   31.38096893 # occ.  0.00000000
 
ion      s     py     pz     px    dxy    dyz    dz2    dxz  x2-y2    tot
    1  0.038  0.082  0.082  0.039  0.060  0.128  0.006  0.060  0.017  0.510
 
band     9 # energy   34.84276929 # occ.  0.00000000
 
ion      s     py     pz     px    dxy    dyz    dz2    dxz  x2-y2    tot
    1  0.002  0.006  0.006  0.217  0.007  0.060  0.001  0.007  0.002  0.306
 
band    10 # energy   36.80108637 # occ.  0.00000000
 
ion      s     py     pz     px    dxy    dyz    dz2    dxz  x2-y2    tot
    1  0.000  0.117  0.117  0.000  0.096  0.000  0.104  0.096  0.035  0.564
 
band    11 # energy   38.59193817 # occ.  0.00000000
 
ion      s     py     pz     px    dxy    dyz    dz2    dxz  x2-y2    tot
    1  0.000  0.058  0.058  0.012  0.000  0.241  0.013  0.000  0.038  0.419
 
band    12 # energy   39.70015903 # occ.  0.00000000
 
ion      s     py     pz     px    dxy    dyz    dz2    dxz  x2-y2    tot
    1  0.000  0.001  0.001  0.000  0.419  0.000  0.088  0.419  0.029  0.958
 

 k-point     3 :    0.31250000 0.06250000 0.06250000     weight = 0.01171875

band     1 # energy    3.45167473 # occ.  1.00000000
 
ion      s     py     pz     px    dxy    dyz    dz2    dxz  x2-y2    tot
    1  0.474  0.054  0.054  0.016  0.029  0.053  0.001  0.029  0.003  0.713
 
band     2 # energy    6.60827419 # occ.  1.00000000
 
ion      s     py     pz     px    dxy    dyz    dz2    dxz  x2-y2    tot
    1  0.021  0.020  0.020  0.028  0.383  0.056  0.001  0.383  0.002  0.913
 
band     3 # energy    7.05657223 # occ.  1.00000000
 
ion      s     py     pz     px    dxy    dyz    dz2    dxz  x2-y2    tot
    1  0.000  0.003  0.003  0.000  0.032  0.467  0.106  0.032  0.319  0.962
 
band     4 # energy    7.12302454 # occ.  1.00000000
 
ion      s     py     pz     px    dxy    dyz    dz2    dxz  x2-y2    tot
    1  0.000  0.000  0.000  0.000  0.262  0.000  0.332  0.262  0.111  0.966
 
band     5 # energy    7.95037107 # occ.  1.00000000
 
ion      s     py     pz     px    dxy    dyz    dz2    dxz  x2-y2    tot
    1  0.000  0.001  0.001  0.000  0.224  0.000  0.396  0.224  0.132  0.977
 
band     6 # energy    8.34787881 # occ.  1.00000000
 
ion      s     py     pz     px    dxy    dyz    dz2    dxz  x2-y2    tot
    1  0.009  0.005  0.005  0.000  0.017  0.381  0.136  0.017  0.408  0.978
 
band     7 # energy   22.77886940 # occ.  0.00000000
 
ion      s     py     pz     px    dxy    dyz    dz2    dxz  x2-y2    tot
    1  0.121  0.078  0.078  0.132  0.124  0.098  0.001  0.124  0.003  0.759
 
band     8 # energy   30.32791858 # occ.  0.00000000
 
ion      s     py     pz     px    dxy    dyz    dz2    dxz  x2-y2    tot
    1  0.028  0.035  0.035  0.126  0.095  0.064  0.015  0.095  0.045  0.538
 
band     9 # energy   33.80533164 # occ.  0.00000000
 
ion      s     py     pz     px    dxy    dyz    dz2    dxz  x2-y2    tot
    1  0.000  0.061  0.061  0.120  0.001  0.107  0.000  0.001  0.001  0.353
 
band    10 # energy   36.24309538 # occ.  0.00000000
 
ion      s     py     pz     px    dxy    dyz    dz2    dxz  x2-y2    tot
    1  0.000  0.173  0.173  0.000  0.210  0.000  0.047  0.210  0.016  0.830
 
band    11 # energy   37.47824818 # occ.  0.00000000
 
ion      s     py     pz     px    dxy    dyz    dz2    dxz  x2-y2    tot
    1  0.000  0.077  0.077  0.000  0.003  0.000  0.468  0.003  0.156  0.782
 
band    12 # energy   38.53937036 # occ.  0.00000000
 
ion      s     py     pz     px    dxy    dyz    dz2    dxz  x2-y2    tot
    1  0.059  0.055  0.055  0.011  0.010  0.023  0.063  0.010  0.188  0.474
 

 k-point     4 :    0.43750000 0.06250000 0.06250000     weight = 0.01171875

band     1 # energy    4.57548994 # occ.  1.00000000
 
ion      s     py     pz     px    dxy    dyz    dz2    dxz  x2-y2    tot
    1  0.216  0.019  0.019  0.002  0.187  0.207  0.000  0.187  0.001  0.840
 
band     2 # energy    6.84312039 # occ.  1.00000000
 
ion      s     py     pz     px    dxy    dyz    dz2    dxz  x2-y2    tot
    1  0.000  0.002  0.002  0.000  0.046  0.280  0.145  0.046  0.436  0.957
 
band     3 # energy    6.93152988 # occ.  1.00000000
 
ion      s     py     pz     px    dxy    dyz    dz2    dxz  x2-y2    tot
    1  0.000  0.000  0.000  0.000  0.181  0.000  0.450  0.181  0.150  0.962
 
band     4 # energy    7.62252529 # occ.  1.00000000
 
ion      s     py     pz     px    dxy    dyz    dz2    dxz  x2-y2    tot
    1  0.055  0.085  0.085  0.085  0.193  0.030  0.023  0.193  0.069  0.818
 
band     5 # energy    8.46061607 # occ.  1.00000000
 
ion      s     py     pz     px    dxy    dyz    dz2    dxz  x2-y2    tot
    1  0.000  0.000  0.000  0.000  0.308  0.000  0.276  0.308  0.092  0.985
 
band     6 # energy    9.11545485 # occ.  1.00000000
 
ion      s     py     pz     px    dxy    dyz    dz2    dxz  x2-y2    tot
    1  0.046  0.049  0.049  0.031  0.007  0.425  0.074  0.007  0.222  0.910
 
band     7 # energy   17.53017249 # occ.  0.00000000
 
ion      s     py     pz     px    dxy    dyz    dz2    dxz  x2-y2    tot
    1  0.282  0.046  0.046  0.094  0.125  0.099  0.001  0.125  0.002  0.820
 
band     8 # energy   29.92564605 # occ.  0.00000000
 
ion      s     py     pz     px    dxy    dyz    dz2    dxz  x2-y2    tot
    1  0.015  0.010  0.010  0.136  0.053  0.037  0.025  0.053  0.076  0.415
 
band     9 # energy   32.53042689 # occ.  0.00000000
 
ion      s     py     pz     px    dxy    dyz    dz2    dxz  x2-y2    tot
    1  0.013  0.099  0.099  0.166  0.009  0.018  0.001  0.009  0.003  0.417
 
band    10 # energy   34.13622947 # occ.  0.00000000
 
ion      s     py     pz     px    dxy    dyz    dz2    dxz  x2-y2    tot
    1  0.000  0.265  0.265  0.000  0.001  0.000  0.114  0.001  0.038  0.685
 
band    11 # energy   36.65234710 # occ.  0.00000000
 
ion      s     py     pz     px    dxy    dyz    dz2    dxz  x2-y2    tot
    1  0.000  0.025  0.025  0.000  0.189  0.000  0.403  0.189  0.134  0.967
 
band    12 # energy   38.21255975 # occ.  0.00000000
 
ion      s     py     pz     px    dxy    dyz    dz2    dxz  x2-y2    tot
    1  0.049  0.015  0.015  0.013  0.000  0.211  0.125  0.000  0.375  0.804
 

 k-point     5 :   -0.43750000 0.06250000 0.06250000     weight = 0.01171875

band     1 # energy    4.70236237 # occ.  1.00000000
 
ion      s     py     pz     px    dxy    dyz    dz2    dxz  x2-y2    tot
    1  0.152  0.000  0.000  0.006  0.233  0.252  0.000  0.233  0.000  0.876
 
band     2 # energy    6.75462017 # occ.  1.00000000
 
ion      s     py     pz     px    dxy    dyz    dz2    dxz  x2-y2    tot
    1  0.000  0.002  0.002  0.000  0.062  0.196  0.158  0.062  0.473  0.954
 
band     3 # energy    6.88277013 # occ.  1.00000000
 
ion      s     py     pz     px    dxy    dyz    dz2    dxz  x2-y2    tot
    1  0.000  0.000  0.000  0.000  0.179  0.000  0.451  0.179  0.150  0.961
 
band     4 # energy    8.13660256 # occ.  1.00000000
 
ion      s     py     pz     px    dxy    dyz    dz2    dxz  x2-y2    tot
    1  0.002  0.058  0.058  0.057  0.068  0.375  0.050  0.068  0.151  0.887
 
band     5 # energy    8.71753037 # occ.  1.00000000
 
ion      s     py     pz     px    dxy    dyz    dz2    dxz  x2-y2    tot
    1  0.000  0.000  0.000  0.000  0.311  0.000  0.276  0.311  0.092  0.991
 
band     6 # energy    9.96346744 # occ.  0.00000000
 
ion      s     py     pz     px    dxy    dyz    dz2    dxz  x2-y2    tot
    1  0.008  0.142  0.142  0.159  0.049  0.068  0.035  0.049  0.104  0.754
 
band     7 # energy   15.38633866 # occ.  0.00000000
 
ion      s     py     pz     px    dxy    dyz    dz2    dxz  x2-y2    tot
    1  0.429  0.011  0.011  0.000  0.137  0.151  0.000  0.137  0.000  0.875
 
band     8 # energy   30.13311281 # occ.  0.00000000
 
ion      s     py     pz     px    dxy    dyz    dz2    dxz  x2-y2    tot
    1  0.001  0.000  0.000  0.059  0.010  0.038  0.028  0.010  0.085  0.232
 
band     9 # energy   32.35965620 # occ.  0.00000000
 
ion      s     py     pz     px    dxy    dyz    dz2    dxz  x2-y2    tot
    1  0.000  0.253  0.253  0.000  0.032  0.000  0.100  0.032  0.033  0.703
 
band    10 # energy   32.54269011 # occ.  0.00000000
 
ion      s     py     pz     px    dxy    dyz    dz2    dxz  x2-y2    tot
    1  0.037  0.092  0.092  0.299  0.012  0.007  0.010  0.012  0.029  0.590
 
band    11 # energy   37.44408591 # occ.  0.00000000
 
ion      s     py     pz     px    dxy    dyz    dz2    dxz  x2-y2    tot
    1  0.000  0.050  0.050  0.000  0.136  0.000  0.407  0.136  0.136  0.916
 
band    12 # energy   37.51583262 # occ.  0.00000000
 
ion      s     py     pz     px    dxy    dyz    dz2    dxz  x2-y2    tot
    1  0.011  0.003  0.003  0.027  0.025  0.249  0.133  0.025  0.398  0.873
 

 k-point     6 :   -0.31250000 0.06250000 0.06250000     weight = 0.01171875

band     1 # energy    4.35988471 # occ.  1.00000000
 
ion      s     py     pz     px    dxy    dyz    dz2    dxz  x2-y2    tot
    1  0.292  0.015  0.015  0.048  0.141  0.139  0.002  0.141  0.005  0.797
 
band     2 # energy    6.87829470 # occ.  1.00000000
 
ion      s     py     pz     px    dxy    dyz    dz2    dxz  x2-y2    tot
    1  0.001  0.004  0.004  0.003  0.110  0.099  0.155  0.110  0.465  0.951
 
band     3 # energy    7.01496118 # occ.  1.00000000
 
ion      s     py     pz     px    dxy    dyz    dz2    dxz  x2-y2    tot
    1  0.000  0.001  0.001  0.000  0.221  0.000  0.390  0.221  0.130  0.963
 
band     4 # energy    7.11870206 # occ.  1.00000000
 
ion      s     py     pz     px    dxy    dyz    dz2    dxz  x2-y2    tot
    1  0.063  0.063  0.063  0.065  0.013  0.555  0.002  0.013  0.006  0.844
 
band     5 # energy    8.52732262 # occ.  1.00000000
 
ion      s     py     pz     px    dxy    dyz    dz2    dxz  x2-y2    tot
    1  0.000  0.000  0.000  0.000  0.266  0.000  0.340  0.266  0.113  0.987
 
band     6 # energy    8.60250299 # occ.  1.00000000
 
ion      s     py     pz     px    dxy    dyz    dz2    dxz  x2-y2    tot
    1  0.032  0.015  0.015  0.032  0.193  0.134  0.083  0.193  0.249  0.944
 
band     7 # energy   19.12362844 # occ.  0.00000000
 
ion      s     py     pz     px    dxy    dyz    dz2    dxz  x2-y2    tot
    1  0.218  0.096  0.096  0.050  0.102  0.130  0.001  0.102  0.002  0.797
 
band     8 # energy   30.84862613 # occ.  0.00000000
 
ion      s     py     pz     px    dxy    dyz    dz2    dxz  x2-y2    tot
    1  0.007  0.006  0.006  0.003  0.000  0.098  0.022  0.000  0.066  0.208
 
band     9 # energy   31.84171548 # occ.  0.00000000
 
ion      s     py     pz     px    dxy    dyz    dz2    dxz  x2-y2    tot
    1  0.000  0.228  0.228  0.000  0.108  0.000  0.067  0.108  0.022  0.761
 
band    10 # energy   34.13800902 # occ.  0.00000000
 
ion      s     py     pz     px    dxy    dyz    dz2    dxz  x2-y2    tot
    1  0.046  0.046  0.046  0.393  0.000  0.076  0.024  0.000  0.071  0.703
 
band    11 # energy   37.37768891 # occ.  0.00000000
 
ion      s     py     pz     px    dxy    dyz    dz2    dxz  x2-y2    tot
    1  0.000  0.003  0.003  0.014  0.064  0.157  0.125  0.064  0.375  0.803
 
band    12 # energy   39.13968653 # occ.  0.00000000
 
ion      s     py     pz     px    dxy    dyz    dz2    dxz  x2-y2    tot
    1  0.000  0.062  0.062  0.000  0.045  0.000  0.424  0.045  0.141  0.779
 

 k-point     7 :   -0.18750000 0.06250000 0.06250000     weight = 0.01171875

band     1 # energy    2.86487155 # occ.  1.00000000
 
ion      s     py     pz     px    dxy    dyz    dz2    dxz  x2-y2    tot
    1  0.537  0.022  0.022  0.065  0.018  0.010  0.001  0.018  0.003  0.695
 
band     2 # energy    6.56106678 # occ.  1.00000000
 
ion      s     py     pz     px    dxy    dyz    dz2    dxz  x2-y2    tot
    1  0.008  0.012  0.012  0.008  0.135  0.624  0.000  0.135  0.001  0.935
 
band     3 # energy    7.11557736 # occ.  1.00000000
 
ion      s     py     pz     px    dxy    dyz    dz2    dxz  x2-y2    tot
    1  0.000  0.001  0.001  0.001  0.192  0.207  0.093  0.192  0.279  0.965
 
band     4 # energy    7.17079881 # occ.  1.00000000
 
ion      s     py     pz     px    dxy    dyz    dz2    dxz  x2-y2    tot
    1  0.000  0.001  0.001  0.000  0.350  0.000  0.199  0.350  0.066  0.967
 
band     5 # energy    7.88484472 # occ.  1.00000000
 
ion      s     py     pz     px    dxy    dyz    dz2    dxz  x2-y2    tot
    1  0.006  0.001  0.001  0.005  0.130  0.108  0.148  0.130  0.445  0.973
 
band     6 # energy    8.11814580 # occ.  1.00000000
 
ion      s     py     pz     px    dxy    dyz    dz2    dxz  x2-y2    tot
    1  0.000  0.001  0.001  0.000  0.134  0.000  0.535  0.134  0.178  0.982
 
band     7 # energy   24.74888792 # occ.  0.00000000
 
ion      s     py     pz     px    dxy    dyz    dz2    dxz  x2-y2    tot
    1  0.085  0.111  0.111  0.062  0.111  0.141  0.001  0.111  0.002  0.735
 
band     8 # energy   31.84943283 # occ.  0.00000000
 
ion      s     py     pz     px    dxy    dyz    dz2    dxz  x2-y2    tot
    1  0.027  0.001  0.001  0.016  0.000  0.172  0.013  0.000  0.039  0.271
 
band     9 # energy   32.38660948 # occ.  0.00000000
 
ion      s     py     pz     px    dxy    dyz    dz2    dxz  x2-y2    tot
    1  0.000  0.197  0.197  0.000  0.170  0.000  0.034  0.170  0.011  0.781
 
band    10 # energy   36.78460471 # occ.  0.00000000
 
ion      s     py     pz     px    dxy    dyz    dz2    dxz  x2-y2    tot
    1  0.027  0.003  0.003  0.333  0.030  0.158  0.031  0.030  0.093  0.709
 
band    11 # energy   37.21808055 # occ.  0.00000000
 
ion      s     py     pz     px    dxy    dyz    dz2    dxz  x2-y2    tot
    1  0.002  0.046  0.046  0.024  0.032  0.044  0.070  0.032  0.210  0.507
 
band    12 # energy   41.40715945 # occ.  0.00000000
 
ion      s     py     pz     px    dxy    dyz    dz2    dxz  x2-y2    tot
    1  0.001  0.149  0.017  0.026  0.030  0.024  0.061  0.003  0.259  0.570
 

 k-point     8 :   -0.06250000 0.06250000 0.06250000     weight = 0.01171875

band     1 # energy    1.44641354 # occ.  1.00000000
 
ion      s     py     pz     px    dxy    dyz    dz2    dxz  x2-y2    tot
    1  0.646  0.003  0.003  0.028  0.000  0.000  0.000  0.000  0.001  0.682
 
band     2 # energy    6.76552807 # occ.  1.00000000
 
ion      s     py     pz     px    dxy    dyz    dz2    dxz  x2-y2    tot
    1  0.000  0.001  0.001  0.000  0.058  0.844  0.000  0.058  0.000  0.961
 
band     3 # energy    7.06969250 # occ.  1.00000000
 
ion      s     py     pz     px    dxy    dyz    dz2    dxz  x2-y2    tot
    1  0.000  0.001  0.001  0.001  0.420  0.117  0.002  0.420  0.007  0.968
 
band     4 # energy    7.07350462 # occ.  1.00000000
 
ion      s     py     pz     px    dxy    dyz    dz2    dxz  x2-y2    tot
    1  0.000  0.001  0.001  0.000  0.477  0.000  0.009  0.477  0.003  0.968
 
band     5 # energy    7.76109062 # occ.  1.00000000
 
ion      s     py     pz     px    dxy    dyz    dz2    dxz  x2-y2    tot
    1  0.001  0.000  0.000  0.000  0.004  0.001  0.242  0.004  0.726  0.978
 
band     6 # energy    7.94458707 # occ.  1.00000000
 
ion      s     py     pz     px    dxy    dyz    dz2    dxz  x2-y2    tot
    1  0.000  0.000  0.000  0.000  0.006  0.000  0.728  0.006  0.243  0.983
 
band     7 # energy   30.62722244 # occ.  0.00000000
 
ion      s     py     pz     px    dxy    dyz    dz2    dxz  x2-y2    tot
    1  0.008  0.053  0.053  0.017  0.076  0.205  0.000  0.076  0.001  0.488
 
band     8 # energy   32.97471093 # occ.  0.00000000
 
ion      s     py     pz     px    dxy    dyz    dz2    dxz  x2-y2    tot
    1  0.032  0.044  0.044  0.073  0.037  0.047  0.005  0.037  0.014  0.331
 
band     9 # energy   33.77711947 # occ.  0.00000000
 
ion      s     py     pz     px    dxy    dyz    dz2    dxz  x2-y2    tot
    1  0.000  0.172  0.172  0.000  0.174  0.000  0.006  0.174  0.002  0.699
 
band    10 # energy   35.72957968 # occ.  0.00000000
 
ion      s     py     pz     px    dxy    dyz    dz2    dxz  x2-y2    tot
    1  0.010  0.079  0.079  0.066  0.025  0.002  0.021  0.025  0.064  0.373
 
band    11 # energy   39.50289881 # occ.  0.00000000
 
ion      s     py     pz     px    dxy    dyz    dz2    dxz  x2-y2    tot
    1  0.000  0.001  0.001  0.069  0.209  0.399  0.002  0.209  0.005  0.894
 
band    12 # energy   41.38927986 # occ.  0.00000000
 
ion      s     py     pz     px    dxy    dyz    dz2    dxz  x2-y2    tot
    1  0.000  0.002  0.002  0.005  0.313  0.019  0.023  0.280  0.006  0.650
 

 k-point     9 :    0.18750000 0.18750000 0.06250000     weight = 0.01171875

band     1 # energy    2.19307918 # occ.  1.00000000
 
ion      s     py     pz     px    dxy    dyz    dz2    dxz  x2-y2    tot
    1  0.592  0.003  0.074  0.003  0.000  0.001  0.010  0.001  0.000  0.685
 
band     2 # energy    6.51398926 # occ.  1.00000000
 
ion      s     py     pz     px    dxy    dyz    dz2    dxz  x2-y2    tot
    1  0.000  0.001  0.000  0.001  0.913  0.019  0.000  0.019  0.000  0.953
 
band     3 # energy    7.24692559 # occ.  1.00000000
 
ion      s     py     pz     px    dxy    dyz    dz2    dxz  x2-y2    tot
    1  0.000  0.002  0.000  0.002  0.034  0.388  0.152  0.388  0.000  0.967
 
band     4 # energy    7.27674292 # occ.  1.00000000
 
ion      s     py     pz     px    dxy    dyz    dz2    dxz  x2-y2    tot
    1  0.000  0.003  0.000  0.003  0.000  0.463  0.000  0.463  0.037  0.969
 
band     5 # energy    7.59854815 # occ.  1.00000000
 
ion      s     py     pz     px    dxy    dyz    dz2    dxz  x2-y2    tot
    1  0.007  0.000  0.003  0.000  0.006  0.073  0.807  0.073  0.000  0.969
 
band     6 # energy    8.05878046 # occ.  1.00000000
 
ion      s     py     pz     px    dxy    dyz    dz2    dxz  x2-y2    tot
    1  0.000  0.000  0.000  0.000  0.000  0.019  0.000  0.019  0.947  0.984
 
band     7 # energy   29.07785573 # occ.  0.00000000
 
ion      s     py     pz     px    dxy    dyz    dz2    dxz  x2-y2    tot
    1  0.020  0.105  0.017  0.105  0.216  0.095  0.009  0.095  0.000  0.661
 
band     8 # energy   31.52694305 # occ.  0.00000000
 
ion      s     py     pz     px    dxy    dyz    dz2    dxz  x2-y2    tot
    1  0.000  0.202  0.000  0.202  0.000  0.170  0.000  0.170  0.006  0.750
 
band     9 # energy   31.61985919 # occ.  0.00000000
 
ion      s     py     pz     px    dxy    dyz    dz2    dxz  x2-y2    tot
    1  0.031  0.018  0.022  0.018  0.219  0.016  0.071  0.016  0.000  0.412
 
band    10 # energy   33.87786064 # occ.  0.00000000
 
ion      s     py     pz     px    dxy    dyz    dz2    dxz  x2-y2    tot
    1  0.004  0.068  0.000  0.068  0.042  0.046  0.193  0.046  0.000  0.467
 
band    11 # energy   38.78314259 # occ.  0.00000000
 
ion      s     py     pz     px    dxy    dyz    dz2    dxz  x2-y2    tot
    1  0.159  0.018  0.572  0.018  0.003  0.000  0.134  0.000  0.000  0.903
 
band    12 # energy   41.86402250 # occ.  0.00000000
 
ion      s     py     pz     px    dxy    dyz    dz2    dxz  x2-y2    tot
    1  0.020  0.000  0.002  0.000  0.359  0.136  0.061  0.136  0.000  0.714
 

 k-point    10 :    0.31250000 0.18750000 0.06250000     weight = 0.02343750

band     1 # energy    3.50474978 # occ.  1.00000000
 
ion      s     py     pz     px    dxy    dyz    dz2    dxz  x2-y2    tot
    1  0.473  0.021  0.121  0.002  0.002  0.028  0.049  0.004  0.000  0.701
 
band     2 # energy    6.23963297 # occ.  1.00000000
 
ion      s     py     pz     px    dxy    dyz    dz2    dxz  x2-y2    tot
    1  0.001  0.002  0.001  0.010  0.842  0.006  0.003  0.075  0.000  0.940
 
band     3 # energy    7.04169299 # occ.  1.00000000
 
ion      s     py     pz     px    dxy    dyz    dz2    dxz  x2-y2    tot
    1  0.006  0.003  0.002  0.000  0.017  0.335  0.542  0.015  0.036  0.956
 
band     4 # energy    7.50981234 # occ.  1.00000000
 
ion      s     py     pz     px    dxy    dyz    dz2    dxz  x2-y2    tot
    1  0.002  0.002  0.002  0.004  0.041  0.125  0.052  0.543  0.199  0.969
 
band     5 # energy    7.85528654 # occ.  1.00000000
 
ion      s     py     pz     px    dxy    dyz    dz2    dxz  x2-y2    tot
    1  0.014  0.003  0.011  0.003  0.037  0.110  0.242  0.316  0.228  0.965
 
band     6 # energy    8.41883317 # occ.  1.00000000
 
ion      s     py     pz     px    dxy    dyz    dz2    dxz  x2-y2    tot
    1  0.013  0.004  0.007  0.000  0.001  0.359  0.072  0.003  0.518  0.978
 
band     7 # energy   25.28704377 # occ.  0.00000000
 
ion      s     py     pz     px    dxy    dyz    dz2    dxz  x2-y2    tot
    1  0.057  0.102  0.022  0.189  0.169  0.071  0.016  0.111  0.003  0.740
 
band     8 # energy   27.84595855 # occ.  0.00000000
 
ion      s     py     pz     px    dxy    dyz    dz2    dxz  x2-y2    tot
    1  0.041  0.150  0.013  0.135  0.096  0.106  0.044  0.070  0.017  0.673
 
band     9 # energy   31.57882025 # occ.  0.00000000
 
ion      s     py     pz     px    dxy    dyz    dz2    dxz  x2-y2    tot
    1  0.011  0.054  0.101  0.023  0.025  0.021  0.319  0.014  0.004  0.573
 
band    10 # energy   33.48188878 # occ.  0.00000000
 
ion      s     py     pz     px    dxy    dyz    dz2    dxz  x2-y2    tot
    1  0.031  0.004  0.081  0.098  0.303  0.002  0.047  0.055  0.001  0.622
 
band    11 # energy   37.78047838 # occ.  0.00000000
 
ion      s     py     pz     px    dxy    dyz    dz2    dxz  x2-y2    tot
    1  0.153  0.185  0.310  0.027  0.019  0.047  0.001  0.006  0.000  0.748
 
band    12 # energy   41.68562097 # occ.  0.00000000
 
ion      s     py     pz     px    dxy    dyz    dz2    dxz  x2-y2    tot
    1  0.024  0.023  0.019  0.002  0.055  0.007  0.172  0.028  0.153  0.482
 

 k-point    11 :    0.43750000 0.18750000 0.06250000     weight = 0.02343750

band     1 # energy    4.84750289 # occ.  1.00000000
 
ion      s     py     pz     px    dxy    dyz    dz2    dxz  x2-y2    tot
    1  0.230  0.017  0.085  0.001  0.154  0.143  0.090  0.084  0.001  0.805
 
band     2 # energy    6.35255534 # occ.  1.00000000
 
ion      s     py     pz     px    dxy    dyz    dz2    dxz  x2-y2    tot
    1  0.012  0.034  0.020  0.034  0.346  0.026  0.344  0.062  0.011  0.891
 
band     3 # energy    6.76749382 # occ.  1.00000000
 
ion      s     py     pz     px    dxy    dyz    dz2    dxz  x2-y2    tot
    1  0.024  0.001  0.020  0.007  0.327  0.271  0.243  0.005  0.042  0.939
 
band     4 # energy    7.36010283 # occ.  1.00000000
 
ion      s     py     pz     px    dxy    dyz    dz2    dxz  x2-y2    tot
    1  0.002  0.003  0.005  0.001  0.039  0.073  0.051  0.289  0.500  0.963
 
band     5 # energy    8.50206909 # occ.  1.00000000
 
ion      s     py     pz     px    dxy    dyz    dz2    dxz  x2-y2    tot
    1  0.003  0.001  0.006  0.004  0.035  0.066  0.050  0.472  0.344  0.981
 
band     6 # energy    9.56878547 # occ.  0.80772588
 
ion      s     py     pz     px    dxy    dyz    dz2    dxz  x2-y2    tot
    1  0.088  0.031  0.081  0.016  0.015  0.387  0.178  0.036  0.076  0.906
 
band     7 # energy   19.63183236 # occ.  0.00000000
 
ion      s     py     pz     px    dxy    dyz    dz2    dxz  x2-y2    tot
    1  0.181  0.100  0.021  0.167  0.148  0.065  0.013  0.085  0.003  0.784
 
band     8 # energy   27.28519446 # occ.  0.00000000
 
ion      s     py     pz     px    dxy    dyz    dz2    dxz  x2-y2    tot
    1  0.019  0.110  0.000  0.175  0.090  0.062  0.099  0.040  0.055  0.651
 
band     9 # energy   29.14507335 # occ.  0.00000000
 
ion      s     py     pz     px    dxy    dyz    dz2    dxz  x2-y2    tot
    1  0.072  0.014  0.231  0.067  0.000  0.000  0.242  0.030  0.016  0.671
 
band    10 # energy   33.08213477 # occ.  0.00000000
 
ion      s     py     pz     px    dxy    dyz    dz2    dxz  x2-y2    tot
    1  0.061  0.144  0.101  0.025  0.221  0.018  0.001  0.013  0.006  0.591
 
band    11 # energy   39.63346783 # occ.  0.00000000
 
ion      s     py     pz     px    dxy    dyz    dz2    dxz  x2-y2    tot
    1  0.014  0.114  0.003  0.003  0.183  0.020  0.083  0.039  0.201  0.659
 
band    12 # energy   41.94777020 # occ.  0.00000000
 
ion      s     py     pz     px    dxy    dyz    dz2    dxz  x2-y2    tot
    1  0.111  0.100  0.100  0.059  0.007  0.001  0.229  0.007  0.007  0.620
 

 k-point    12 :   -0.43750000 0.18750000 0.06250000     weight = 0.02343750

band     1 # energy    5.14759327 # occ.  1.00000000
 
ion      s     py     pz     px    dxy    dyz    dz2    dxz  x2-y2    tot
    1  0.111  0.000  0.022  0.008  0.332  0.236  0.010  0.167  0.000  0.885
 
band     2 # energy    6.37369226 # occ.  1.00000000
 
ion      s     py     pz     px    dxy    dyz    dz2    dxz  x2-y2    tot
    1  0.000  0.024  0.003  0.010  0.031  0.077  0.683  0.012  0.075  0.914
 
band     3 # energy    7.18010585 # occ.  1.00000000
 
ion      s     py     pz     px    dxy    dyz    dz2    dxz  x2-y2    tot
    1  0.001  0.012  0.016  0.032  0.122  0.275  0.098  0.077  0.301  0.935
 
band     4 # energy    7.23620245 # occ.  1.00000000
 
ion      s     py     pz     px    dxy    dyz    dz2    dxz  x2-y2    tot
    1  0.002  0.027  0.043  0.016  0.310  0.057  0.001  0.177  0.291  0.923
 
band     5 # energy    8.68572492 # occ.  1.00000000
 
ion      s     py     pz     px    dxy    dyz    dz2    dxz  x2-y2    tot
    1  0.000  0.000  0.000  0.000  0.037  0.173  0.029  0.469  0.280  0.989
 
band     6 # energy   11.71406365 # occ.  0.00000000
 
ion      s     py     pz     px    dxy    dyz    dz2    dxz  x2-y2    tot
    1  0.014  0.124  0.177  0.123  0.052  0.106  0.149  0.016  0.019  0.778
 
band     7 # energy   15.59252997 # occ.  0.00000000
 
ion      s     py     pz     px    dxy    dyz    dz2    dxz  x2-y2    tot
    1  0.398  0.015  0.008  0.053  0.157  0.111  0.001  0.110  0.001  0.854
 
band     8 # energy   26.73270365 # occ.  0.00000000
 
ion      s     py     pz     px    dxy    dyz    dz2    dxz  x2-y2    tot