Co-fcc                                  
           1
     0.000000    1.789353    1.789353
     1.789353    0.000000    1.789353
     1.789353    1.789353    0.000000
   Co
     1
Direct configuration=     1
   0.00000000  0.00000000  0.00000000
