Pt-hcc                                  
   1.00000000000000     
     2.918150    0.000000    0.000000
    -1.459075    2.527192    0.000000
     0.000000    0.000000    5.055628
   Pt
     2
Direct
  0.000000  0.000000  0.000000
  0.333333  0.666667  0.500000
 
   40   40   72
  326.64      326.18      323.94      317.60      304.42      282.42      251.38      213.28      171.84      131.55    
  96.287      68.406      48.344      34.931      26.028      19.951      15.942      13.393      11.860      11.041    
  10.788      11.041      11.860      13.393      15.943      19.949      26.032      34.928      48.344      68.407    
  96.287      131.55      171.84      213.28      251.38      282.42      304.42      317.60      323.94      326.19    
  326.19      326.18      324.82      320.48      310.58      292.72      265.82      230.79      190.62      149.51    
  111.72      80.372      56.801      40.533      29.809      22.531      17.619      14.443      12.464      11.327    
  10.806      10.807      11.326      12.465      14.442      17.620      22.529      29.808      40.537      56.799    
  80.373      111.72      149.51      190.62      230.79      265.81      292.73      310.58      320.48      324.82    
  323.94      324.83      323.94      320.48      312.47      297.57      274.23      242.55      204.63      164.14    
  125.28      91.625      65.228      46.330      33.690      25.216      19.409      15.574      13.127      11.651    
  10.860      10.615      10.860      11.651      13.127      15.575      19.407      25.220      33.686      46.332    
  65.227      91.625      125.28      164.14      204.63      242.55      274.23      297.57      312.47      320.48    
  317.60      320.50      320.50      317.60      310.58      297.57      276.97      248.41      213.23      174.41    
  135.82      101.13      72.864      51.882      37.478      27.857      21.225      16.743      13.831      12.005    
  10.948      10.462      10.463      10.947      12.006      13.829      16.745      21.222      27.859      37.478    
  51.882      72.866      101.13      135.82      174.41      213.23      248.41      276.97      297.57      310.58    
  304.42      310.61      312.50      310.61      304.42      292.73      274.23      248.41      216.11      179.69    
  142.48      108.00      78.960      56.669      40.908      30.285      22.951      17.892      14.539      12.379    
  11.062      10.350      10.127      10.350      11.061      12.380      14.539      17.893      22.951      30.283    
  40.910      56.667      78.961      108.00      142.48      179.69      216.12      248.41      274.23      292.73    
  282.42      292.75      297.62      297.62      292.75      282.42      265.81      242.55      213.23      179.69    
  144.76      111.60      82.889      60.188      43.664      32.322      24.464      18.948      15.213      12.753    
  11.193      10.274      9.8494      9.8492      10.275      11.193      12.753      15.213      18.947      24.466    
  32.320      43.666      60.187      82.890      111.60      144.76      179.69      213.23      242.55      265.81    
  251.38      265.84      274.27      277.03      274.27      265.84      251.38      230.79      204.63      174.41    
  142.48      111.60      84.247      62.052      45.456      33.800      25.647      19.829      15.806      13.100    
  11.333      10.230      9.6275      9.4343      9.6275      10.229      11.333      13.100      15.807      19.827    
  25.648      33.799      45.456      62.052      84.246      111.60      142.48      174.41      204.63      230.79    
  213.28      230.80      242.57      248.44      248.44      242.57      230.80      213.28      190.62      164.14    
  135.82      108.00      82.890      62.052      46.077      34.579      26.400      20.463      16.271      13.395    
  11.464      10.210      9.4551      9.1001      9.0998      9.4554      10.210      11.465      13.394      16.272    
  20.462      26.400      34.579      46.077      62.052      82.890      108.00      135.82      164.14      190.62    
  171.84      190.61      204.62      213.23      216.12      213.23      204.62      190.61      171.84      149.51    
  125.28      101.13      78.960      60.187      45.457      34.579      26.659      20.795      16.568      13.608    
  11.574      10.206      9.3296      8.8387      8.6808      8.8387      9.3297      10.206      11.574      13.608    
  16.569      20.795      26.659      34.579      45.456      60.187      78.961      101.13      125.28      149.51    
  131.55      149.48      164.10      174.36      179.64      179.64      174.36      164.10      149.48      131.55    
  111.72      91.626      72.863      56.669      43.666      33.799      26.401      20.794      16.671      13.721    
  11.646      10.209      9.2447      8.6472      8.3605      8.3605      8.6471      9.2447      10.209      11.646    
  13.721      16.671      20.795      26.400      33.799      43.666      56.667      72.866      91.625      111.72    
  96.287      111.68      125.21      135.73      142.38      144.66      142.38      135.73      125.21      111.68    
  96.287      80.372      65.226      51.884      40.908      32.321      25.648      20.462      16.569      13.720    
  11.671      10.213      9.1963      8.5213      8.1346      8.0076      8.1346      8.5213      9.1965      10.213    
  11.671      13.721      16.569      20.462      25.648      32.320      40.910      51.882      65.227      80.373    
  68.407      80.323      91.534      101.01      107.86      111.45      111.45      107.86      101.01      91.535    
  80.323      68.406      56.800      46.333      37.475      30.286      24.464      19.828      16.271      13.608    
  11.646      10.213      9.1804      8.4593      7.9996      7.7747      7.7746      7.9997      8.4590      9.1806    
  10.213      11.646      13.608      16.272      19.827      24.466      30.283      37.478      46.332      56.799    
  48.344      56.751      65.131      72.728      78.792      82.703      84.054      82.703      78.791      72.726    
  65.130      56.752      48.347      40.534      33.687      27.861      22.949      18.949      15.805      13.394    
  11.574      10.209      9.1961      8.4593      7.9549      7.6583      7.5608      7.6582      7.9552      8.4590    
  9.1965      10.209      11.574      13.394      15.807      18.947      22.951      27.859      33.686      40.537    
  34.928      40.493      46.241      51.748      56.496      59.990      61.842      61.842      59.991      56.498    
  51.750      46.242      40.490      34.927      29.812      25.217      21.222      17.895      15.212      13.101    
  11.464      10.206      9.2445      8.5217      7.9994      7.6586      7.4893      7.4895      7.6582      7.9997    
  8.5213      9.2447      10.206      11.465      13.100      15.213      17.893      21.222      25.220      29.808    
  26.032      29.773      33.611      37.362      40.756      43.482      45.252      45.867      45.252      43.481    
  40.753      37.360      33.612      29.777      26.029      22.528      19.410      16.744      14.538      12.753    
  11.332      10.210      9.3295      8.6471      8.1345      7.7746      7.5607      7.4893      7.5608      7.7746    
  8.1346      8.6471      9.3297      10.210      11.333      12.753      14.539      16.745      19.407      22.529    
  19.949      22.503      25.161      27.766      30.154      32.161      33.619      34.388      34.388      33.619    
  32.162      30.157      27.768      25.158      22.501      19.952      17.621      15.573      13.830      12.380    
  11.193      10.230      9.4552      8.8389      8.3604      8.0079      7.7746      7.6586      7.6583      7.7747    
  8.0076      8.3605      8.8387      9.4554      10.229      11.193      12.380      13.829      15.575      17.620    
  15.943      17.601      19.364      21.152      22.852      24.342      25.505      26.244      26.498      26.244    
  25.504      24.340      22.849      21.152      19.367      17.602      15.942      14.442      13.129      12.006    
  11.061      10.275      9.6270      9.0999      8.6807      8.3604      8.1345      7.9994      7.9549      7.9996    
  8.1346      8.3605      8.6808      9.0998      9.6275      10.275      11.061      12.006      13.127      14.442    
  13.393      14.428      15.545      16.695      17.822      18.855      19.717      20.338      20.662      20.662    
  20.338      19.718      18.857      17.823      16.694      15.543      14.428      13.394      12.465      11.650    
  10.947      10.351      9.8492      9.4349      9.0999      8.8389      8.6471      8.5217      8.4593      8.4593    
  8.5213      8.6472      8.8387      9.1001      9.4343      9.8492      10.350      10.947      11.651      12.465    
  11.860      12.456      13.106      13.795      14.490      15.149      15.729      16.183      16.473      16.573    
  16.473      16.183      15.727      15.148      14.489      13.796      13.108      12.456      11.859      11.326    
  10.861      10.463      10.127      9.8492      9.6270      9.4552      9.3295      9.2445      9.1961      9.1804    
  9.1963      9.2447      9.3296      9.4551      9.6275      9.8494      10.127      10.463      10.860      11.326    
  11.041      11.319      11.637      11.984      12.347      12.711      13.049      13.335      13.543      13.652    
  13.652      13.543      13.336      13.050      12.712      12.348      11.983      11.636      11.320      11.042    
  10.807      10.614      10.463      10.351      10.275      10.230      10.210      10.206      10.209      10.213    
  10.213      10.209      10.206      10.210      10.230      10.274      10.350      10.462      10.615      10.807    
  10.788      10.802      10.850      10.931      11.040      11.167      11.303      11.430      11.536      11.606    
  11.630      11.606      11.535      11.430      11.302      11.167      11.040      10.932      10.851      10.802    
  10.787      10.807      10.861      10.947      11.061      11.193      11.332      11.464      11.574      11.646    
  11.671      11.646      11.574      11.464      11.333      11.193      11.062      10.948      10.860      10.806    
  11.041      10.801      10.606      10.451      10.335      10.258      10.212      10.192      10.188      10.191    
  10.195      10.195      10.192      10.188      10.192      10.213      10.259      10.336      10.450      10.605    
  10.802      11.042      11.326      11.650      12.006      12.380      12.753      13.101      13.394      13.608    
  13.720      13.721      13.608      13.395      13.100      12.753      12.379      12.005      11.651      11.327    
  11.860      11.321      10.850      10.449      10.115      9.8379      9.6185      9.4490      9.3260      9.2435    
  9.1963      9.1811      9.1958      9.2431      9.3255      9.4486      9.6176      9.8379      10.114      10.450    
  10.851      11.320      11.859      12.465      13.129      13.830      14.538      15.212      15.805      16.271    
  16.569      16.671      16.568      16.271      15.806      15.213      14.539      13.831      13.127      12.464    
  13.393      12.455      11.637      10.932      10.335      9.8380      9.4273      9.0983      8.8427      8.6561    
  8.5346      8.4744      8.4749      8.5347      8.6566      8.8431      9.0986      9.4281      9.8379      10.336    
  10.932      11.636      12.456      13.394      14.442      15.573      16.744      17.895      18.949      19.828    
  20.462      20.794      20.795      20.463      19.829      18.948      17.892      16.743      15.574      14.443    
  15.942      14.430      13.107      11.982      11.041      10.258      9.6184      9.0989      8.6879      8.3755    
  8.1555      8.0251      7.9812      8.0249      8.1554      8.3752      8.6876      9.0986      9.6176      10.259    
  11.040      11.983      13.108      14.428      15.942      17.621      19.410      21.222      22.949      24.464    
  25.648      26.401      26.659      26.400      25.647      24.464      22.951      21.225      19.409      17.619    
  19.951      17.600      15.544      13.797      12.347      11.167      10.212      9.4484      8.8428      8.3749    
  8.0315      7.8048      7.6927      7.6924      7.8051      8.0315      8.3752      8.8431      9.4486      10.213    
  11.167      12.348      13.796      15.543      17.602      19.952      22.528      25.217      27.861      30.286    
  32.321      33.799      34.579      34.579      33.800      32.322      30.285      27.857      25.216      22.531    
  26.028      22.504      19.365      16.693      14.490      12.711      11.302      10.192      9.3257      8.6568    
  8.1554      7.8054      7.5967      7.5280      7.5969      7.8051      8.1554      8.6566      9.3255      10.192    
  11.302      12.712      14.489      16.694      19.367      22.501      26.029      29.812      33.687      37.475    
  40.908      43.666      45.457      46.077      45.456      43.664      40.908      37.478      33.690      29.809    
  34.931      29.774      25.158      21.155      17.821      15.149      13.049      11.430      10.188      9.2428    
  8.5347      8.0245      7.6927      7.5279      7.5280      7.6924      8.0249      8.5347      9.2431      10.188    
  11.430      13.050      15.148      17.823      21.152      25.158      29.777      34.927      40.534      46.333    
  51.884      56.669      60.187      62.052      62.052      60.188      56.669      51.882      46.330      40.533    
  48.344      40.490      33.615      27.764      22.852      18.856      15.728      13.336      11.535      10.192    
  9.1957      8.4753      7.9809      7.6927      7.5967      7.6927      7.9812      8.4749      9.1958      10.192    
  11.535      13.336      15.727      18.857      22.849      27.768      33.612      40.490      48.347      56.800    
  65.226      72.863      78.960      82.890      84.247      82.889      78.960      72.864      65.228      56.801    
  68.406      56.753      46.239      37.362      30.155      24.340      19.718      16.182      13.544      11.605    
  10.196      9.1801      8.4753      8.0245      7.8054      7.8048      8.0251      8.4744      9.1811      10.195    
  11.606      13.543      16.183      19.718      24.340      30.157      37.360      46.242      56.752      68.406    
  80.372      91.626      101.13      108.00      111.60      111.60      108.00      101.13      91.625      80.372    
  96.287      80.322      65.132      51.748      40.754      32.163      25.503      20.339      16.473      13.653    
  11.630      10.196      9.1957      8.5347      8.1554      8.0315      8.1555      8.5346      9.1963      10.195    
  11.630      13.652      16.473      20.338      25.504      32.162      40.753      51.750      65.130      80.323    
  96.287      111.72      125.28      135.82      142.48      144.76      142.48      135.82      125.28      111.72    
  131.55      111.68      91.533      72.727      56.498      43.480      33.620      26.243      20.663      16.572    
  13.653      11.605      10.192      9.2428      8.6568      8.3749      8.3755      8.6561      9.2435      10.191    
  11.606      13.652      16.573      20.662      26.244      33.619      43.481      56.498      72.726      91.535    
  111.68      131.55      149.51      164.14      174.41      179.69      179.69      174.41      164.14      149.51    
  171.84      149.48      125.21      101.01      78.791      59.992      45.252      34.388      26.497      20.663    
  16.473      13.544      11.535      10.188      9.3257      8.8428      8.6879      8.8427      9.3260      10.188    
  11.536      13.543      16.473      20.662      26.498      34.388      45.252      59.991      78.791      101.01    
  125.21      149.48      171.84      190.62      204.63      213.23      216.11      213.23      204.63      190.62    
  213.28      190.61      164.10      135.73      107.86      82.702      61.843      45.866      34.388      26.243    
  20.339      16.182      13.336      11.430      10.192      9.4484      9.0989      9.0983      9.4490      10.192    
  11.430      13.335      16.183      20.338      26.244      34.388      45.867      61.842      82.703      107.86    
  135.73      164.10      190.61      213.28      230.79      242.55      248.41      248.41      242.55      230.79    
  251.38      230.80      204.62      174.36      142.38      111.45      84.053      61.843      45.252      33.620    
  25.503      19.718      15.728      13.049      11.302      10.212      9.6184      9.4273      9.6185      10.212    
  11.303      13.049      15.729      19.717      25.505      33.619      45.252      61.842      84.054      111.45    
  142.38      174.36      204.62      230.80      251.38      265.81      274.23      276.97      274.23      265.82    
  282.42      265.84      242.57      213.22      179.64      144.65      111.45      82.702      59.992      43.480    
  32.163      24.340      18.856      15.149      12.711      11.167      10.258      9.8380      9.8379      10.258    
  11.167      12.711      15.149      18.855      24.342      32.161      43.482      59.990      82.703      111.45    
  144.66      179.64      213.23      242.57      265.84      282.42      292.73      297.57      297.57      292.72    
  304.42      292.75      274.27      248.44      216.12      179.64      142.38      107.86      78.791      56.498    
  40.754      30.155      22.852      17.821      14.490      12.347      11.041      10.335      10.115      10.335    
  11.040      12.347      14.490      17.822      22.852      30.154      40.756      56.496      78.792      107.86    
  142.38      179.64      216.12      248.44      274.27      292.75      304.42      310.58      312.47      310.58    
  317.60      310.61      297.62      277.03      248.44      213.22      174.36      135.73      101.01      72.727    
  51.748      37.362      27.764      21.155      16.693      13.797      11.982      10.932      10.449      10.451    
  10.931      11.984      13.795      16.695      21.152      27.766      37.362      51.748      72.728      101.01    
  135.73      174.36      213.23      248.44      277.03      297.62      310.61      317.60      320.48      320.48    
  323.94      320.50      312.50      297.62      274.27      242.57      204.62      164.10      125.21      91.533    
  65.132      46.239      33.615      25.158      19.365      15.544      13.107      11.637      10.850      10.606    
  10.850      11.637      13.106      15.545      19.364      25.161      33.611      46.241      65.131      91.534    
  125.21      164.10      204.62      242.57      274.27      297.62      312.50      320.50      323.94      324.82    
  326.18      324.83      320.50      310.61      292.75      265.84      230.80      190.61      149.48      111.68    
  80.322      56.753      40.490      29.774      22.504      17.600      14.430      12.455      11.321      10.801    
  10.802      11.319      12.456      14.428      17.601      22.503      29.773      40.493      56.751      80.323    
  111.68      149.48      190.61      230.80      265.84      292.75      310.61      320.50      324.83      326.18    
  326.41      325.85      323.31      316.56      302.93      280.54      249.27      211.13      169.86      129.88    
  95.007      67.508      47.761      34.565      25.783      19.782      15.824      13.304      11.788      10.977    
  10.726      10.977      11.788      13.304      15.825      19.780      25.787      34.561      47.761      67.509    
  95.007      129.88      169.86      211.13      249.27      280.54      302.93      316.56      323.31      325.85    
  325.85      325.85      324.29      319.59      309.26      290.99      263.78      228.63      188.54      147.68    
  110.26      79.299      56.080      40.077      29.515      22.328      17.478      14.341      12.385      11.259    
  10.744      10.745      11.258      12.386      14.340      17.480      22.327      29.514      40.080      56.077    
  79.301      110.25      147.68      188.54      228.63      263.78      290.99      309.26      319.59      324.29    
  323.31      324.30      323.31      319.59      311.21      295.92      272.26      240.40      202.50      162.20    
  123.67      90.400      64.374      45.777      33.340      24.980      19.244      15.458      13.039      11.579    
  10.796      10.554      10.796      11.579      13.039      15.459      19.243      24.983      33.336      45.779    
  64.373      90.400      123.67      162.20      202.50      240.40      272.26      295.92      311.21      319.59    
  316.56      319.61      319.61      316.56      309.26      295.92      275.03      246.28      211.07      172.41    
  134.11      99.787      71.895      51.237      37.068      27.585      21.037      16.612      13.734      11.928    
  10.882      10.401      10.402      10.881      11.930      13.732      16.614      21.034      27.588      37.068    
  51.237      71.896      99.786      134.11      172.41      211.07      246.28      275.03      295.92      309.26    
  302.93      309.29      311.25      309.29      302.93      290.99      272.26      246.28      213.96      177.65    
  140.71      106.57      77.902      55.945      40.442      29.981      22.740      17.746      14.433      12.298    
  10.994      10.289      10.068      10.289      10.993      12.298      14.432      17.747      22.740      29.979    
  40.443      55.944      77.903      106.57      140.71      177.65      213.96      246.28      272.26      290.99    
  280.54      291.02      295.97      295.97      291.02      280.54      263.78      240.40      211.07      177.66    
  142.96      110.13      81.776      59.408      43.151      31.989      24.234      18.787      15.098      12.667    
  11.124      10.214      9.7922      9.7922      10.214      11.124      12.667      15.098      18.786      24.235    
  31.987      43.153      59.407      81.777      110.13      142.97      177.65      211.07      240.40      263.78    
  249.27      263.80      272.31      275.09      272.31      263.80      249.27      228.63      202.50      172.41    
  140.71      110.13      83.116      61.243      44.913      33.444      25.401      19.656      15.683      13.009    
  11.261      10.168      9.5719      9.3801      9.5719      10.168      11.261      13.009      15.684      19.654    
  25.402      33.443      44.913      61.242      83.115      110.13      140.71      172.41      202.50      228.63    
  211.13      228.64      240.43      246.32      246.32      240.43      228.64      211.13      188.54      162.20    
  134.11      106.57      81.777      61.242      45.523      34.211      26.144      20.282      16.142      13.300    
  11.391      10.149      9.4007      9.0484      9.0482      9.4009      10.149      11.391      13.299      16.143    
  20.281      26.145      34.211      45.523      61.243      81.777      106.57      134.11      162.20      188.54    
  169.86      188.53      202.50      211.09      213.97      211.09      202.50      188.53      169.86      147.68    
  123.67      99.787      77.902      59.407      44.913      34.211      26.400      20.609      16.436      13.510    
  11.499      10.144      9.2761      8.7890      8.6324      8.7889      9.2762      10.144      11.499      13.510    
  16.436      20.609      26.400      34.211      44.913      59.407      77.903      99.786      123.67      147.68    
  129.88      147.66      162.17      172.37      177.62      177.62      172.37      162.17      147.66      129.88    
  110.25      90.401      71.894      55.945      43.152      33.443      26.145      20.609      16.537      13.621    
  11.570      10.148      9.1918      8.5990      8.3145      8.3145      8.5990      9.1917      10.148      11.570    
  13.621      16.537      20.609      26.144      33.443      43.153      55.944      71.896      90.400      110.25    
  95.006      110.22      123.61      134.03      140.63      142.88      140.63      134.03      123.61      110.22    
  95.007      79.300      64.372      51.239      40.441      31.988      25.401      20.281      16.436      13.621    
  11.595      10.151      9.1438      8.4742      8.0904      7.9642      8.0904      8.4742      9.1439      10.151    
  11.595      13.621      16.436      20.281      25.402      31.987      40.443      51.237      64.373      79.300    
  67.509      79.255      90.318      99.676      106.45      110.00      110.00      106.45      99.678      90.320    
  79.255      67.508      56.079      45.780      37.065      29.982      24.233      19.655      16.143      13.510    
  11.570      10.152      9.1279      8.4129      7.9563      7.7333      7.7329      7.9566      8.4124      9.1283    
  10.151      11.570      13.510      16.143      19.654      24.235      29.979      37.068      45.779      56.078    
  47.761      56.034      64.286      71.772      77.752      81.610      82.943      81.610      77.751      71.770    
  64.285      56.035      47.764      40.077      33.337      27.589      22.738      18.788      15.683      13.300    
  11.499      10.148      9.1436      8.4127      7.9121      7.6175      7.5208      7.6175      7.9123      8.4125    
  9.1441      10.147      11.499      13.299      15.684      18.786      22.740      27.588      33.336      40.080    
  34.562      40.041      45.696      51.114      55.788      59.229      61.052      61.052      59.229      55.790    
  51.117      45.697      40.038      34.561      29.518      24.979      21.034      17.748      15.097      13.010    
  11.391      10.145      9.1916      8.4745      7.9563      7.6179      7.4498      7.4500      7.6176      7.9564    
  8.4741      9.1918      10.144      11.391      13.009      15.098      17.747      21.033      24.983      29.514    
  25.787      29.482      33.267      36.963      40.303      42.985      44.728      45.332      44.727      42.984    
  40.301      36.960      33.268      29.486      25.784      22.325      19.246      16.613      14.432      12.667    
  11.261      10.149      9.2760      8.5990      8.0902      7.7330      7.5207      7.4498      7.5208      7.7330    
  8.0905      8.5989      9.2761      10.148      11.261      12.667      14.433      16.614      19.243      22.326    
  19.781      22.302      24.930      27.504      29.862      31.842      33.279      34.037      34.037      33.280    
  31.843      29.865      27.506      24.926      22.301      19.783      17.480      15.457      13.733      12.299    
  11.123      10.169      9.4007      8.7893      8.3144      7.9646      7.7330      7.6179      7.6176      7.7331    
  7.9642      8.3145      8.7890      9.4009      10.168      11.123      12.298      13.732      15.459      17.480    
  15.825      17.464      19.205      20.971      22.652      24.123      25.273      26.004      26.255      26.004    
  25.272      24.122      22.649      20.972      19.208      17.463      15.823      14.340      13.041      11.929    
  10.993      10.214      9.5713      9.0483      8.6323      8.3144      8.0902      7.9562      7.9120      7.9564    
  8.0905      8.3144      8.6324      9.0481      9.5718      10.214      10.994      11.930      13.039      14.339    
  13.304      14.328      15.433      16.570      17.684      18.706      19.557      20.170      20.492      20.492    
  20.171      19.558      18.707      17.685      16.569      15.431      14.329      13.305      12.385      11.578    
  10.882      10.290      9.7921      9.3808      9.0483      8.7893      8.5990      8.4746      8.4127      8.4127    
  8.4741      8.5991      8.7890      9.0484      9.3802      9.7918      10.289      10.881      11.579      12.386    
  11.788      12.379      13.023      13.704      14.392      15.044      15.618      16.067      16.354      16.453    
  16.354      16.066      15.616      15.043      14.391      13.705      13.024      12.378      11.786      11.258    
  10.797      10.401      10.068      9.7921      9.5713      9.4006      9.2760      9.1916      9.1436      9.1280    
  9.1439      9.1917      9.2761      9.4007      9.5718      9.7925      10.068      10.402      10.796      11.258    
  10.977      11.253      11.569      11.913      12.273      12.634      12.968      13.252      13.458      13.566    
  13.567      13.458      13.253      12.970      12.634      12.274      11.912      11.568      11.254      10.978    
  10.744      10.552      10.401      10.290      10.214      10.169      10.149      10.145      10.148      10.151    
  10.151      10.148      10.144      10.149      10.169      10.213      10.289      10.401      10.553      10.745    
  10.726      10.742      10.789      10.870      10.980      11.106      11.241      11.367      11.473      11.542    
  11.567      11.542      11.472      11.367      11.240      11.106      10.979      10.871      10.790      10.741    
  10.725      10.744      10.797      10.882      10.993      11.123      11.261      11.391      11.499      11.570    
  11.595      11.570      11.499      11.391      11.261      11.124      10.994      10.882      10.796      10.743    
  10.977      10.740      10.547      10.395      10.281      10.206      10.161      10.141      10.137      10.141    