Pt-hcc                                  
   1.00000000000000     
     2.918150    0.000000    0.000000
    -1.459075    2.527192    0.000000
     0.000000    0.000000    5.055628
   Pt
     2
Direct
  0.000000  0.000000  0.000000
  0.333333  0.666667  0.500000
 
   40   40   72
 0.32663817057E+03 0.32618481283E+03 0.32393695530E+03 0.31760071231E+03 0.30442362191E+03
 0.28242162777E+03 0.25138006386E+03 0.21327515506E+03 0.17184442959E+03 0.13155202593E+03
 0.96287250005E+02 0.68406362157E+02 0.48344422635E+02 0.34930750086E+02 0.26027685398E+02
 0.19951217974E+02 0.15942374181E+02 0.13393400433E+02 0.11859600403E+02 0.11041432592E+02
 0.10787899356E+02 0.11041280487E+02 0.11859935299E+02 0.13392800635E+02 0.15943426545E+02
 0.19949258289E+02 0.26031690539E+02 0.34927787415E+02 0.48344125456E+02 0.68407156173E+02
 0.96286801333E+02 0.13155219891E+03 0.17184442554E+03 0.21327519089E+03 0.25138015733E+03
 0.28242133310E+03 0.30442381881E+03 0.31760032605E+03 0.32393696513E+03 0.32618524471E+03
 0.32618524471E+03 0.32618463550E+03 0.32482392524E+03 0.32047997209E+03 0.31058301629E+03
 0.29272460856E+03 0.26581500560E+03 0.23079083565E+03 0.19061954106E+03 0.14951072786E+03
 0.11171999071E+03 0.80371510582E+02 0.56800939465E+02 0.40533361172E+02 0.29809006089E+02
 0.22531027621E+02 0.17618584932E+02 0.14443181651E+02 0.12463859292E+02 0.11327046073E+02
 0.10806281421E+02 0.10807498086E+02 0.11325789881E+02 0.12465226053E+02 0.14441654784E+02
 0.17620289928E+02 0.22529301390E+02 0.29807940682E+02 0.40536609533E+02 0.56798942732E+02
 0.80372824505E+02 0.11171894089E+03 0.14951166226E+03 0.19061847743E+03 0.23079179324E+03
 0.26581411199E+03 0.29272533331E+03 0.31058281027E+03 0.32048028032E+03 0.32482376211E+03
 0.32393696513E+03 0.32483012459E+03 0.32393763659E+03 0.32048015900E+03 0.31246874109E+03
 0.29757059282E+03 0.27422682424E+03 0.24254668997E+03 0.20463247057E+03 0.16414078028E+03
 0.12528335218E+03 0.91624637527E+02 0.65228483575E+02 0.46330066163E+02 0.33689989428E+02
 0.25216341446E+02 0.19408650571E+02 0.15574291176E+02 0.13127371521E+02 0.11651022392E+02
 0.10860114866E+02 0.10615182916E+02 0.10860014553E+02 0.11651273681E+02 0.13126933893E+02
 0.15575117120E+02 0.19407071742E+02 0.25220083207E+02 0.33686075027E+02 0.46332018845E+02
 0.65227129845E+02 0.91625398112E+02 0.12528295576E+03 0.16414109950E+03 0.20463237189E+03
 0.24254675020E+03 0.27422741114E+03 0.29757018631E+03 0.31246946418E+03 0.32048028032E+03
 0.31760032605E+03 0.32049765205E+03 0.32049660930E+03 0.31759998335E+03 0.31058251680E+03
 0.29757086389E+03 0.27697381205E+03 0.24840682656E+03 0.21322644323E+03 0.17441047665E+03
 0.13582148418E+03 0.10113218563E+03 0.72864481617E+02 0.51882406546E+02 0.37478087767E+02
 0.27857171799E+02 0.21225092577E+02 0.16743090270E+02 0.13830745604E+02 0.12004859006E+02
 0.10948190078E+02 0.10461816143E+02 0.10463206995E+02 0.10946750379E+02 0.12006470844E+02
 0.13828847888E+02 0.16745393212E+02 0.21221832777E+02 0.27859340845E+02 0.37477843057E+02
 0.51882107707E+02 0.72865514643E+02 0.10113136223E+03 0.13582192141E+03 0.17441002080E+03
 0.21322663266E+03 0.24840611937E+03 0.27697440241E+03 0.29757018631E+03 0.31058281027E+03
 0.30442381881E+03 0.31060775232E+03 0.31250431903E+03 0.31060829942E+03 0.30442398820E+03
 0.29272541396E+03 0.27422616127E+03 0.24840703310E+03 0.21611438097E+03 0.17968829635E+03
 0.14248236185E+03 0.10800203587E+03 0.78959851960E+02 0.56669060507E+02 0.40908240149E+02
 0.30284925208E+02 0.22951295382E+02 0.17892448024E+02 0.14539234961E+02 0.12378954899E+02
 0.11061626812E+02 0.10349743523E+02 0.10127079882E+02 0.10349917615E+02 0.11061296912E+02
 0.12379513176E+02 0.14538523892E+02 0.17893444454E+02 0.22951494377E+02 0.30283404708E+02
 0.40909955408E+02 0.56667351481E+02 0.78960742814E+02 0.10800139117E+03 0.14248293219E+03
 0.17968777751E+03 0.21611543861E+03 0.24840611937E+03 0.27422741114E+03 0.29272533331E+03
 0.28242133310E+03 0.29275321253E+03 0.29761687242E+03 0.29761730840E+03 0.29275269448E+03
 0.28242127560E+03 0.26581441090E+03 0.24254789520E+03 0.21322595314E+03 0.17968881915E+03
 0.14475843691E+03 0.11160083330E+03 0.82888982218E+02 0.60187923180E+02 0.43664437654E+02
 0.32322120321E+02 0.24464107797E+02 0.18947678778E+02 0.15212758288E+02 0.12752755740E+02
 0.11193406676E+02 0.10274311040E+02 0.98494485286E+01 0.98491998861E+01 0.10274563503E+02
 0.11193170314E+02 0.12752895982E+02 0.15212640030E+02 0.18946691528E+02 0.24465909781E+02
 0.32320367113E+02 0.43665880375E+02 0.60187184826E+02 0.82889764060E+02 0.11160032254E+03
 0.14475873160E+03 0.17968777751E+03 0.21322663266E+03 0.24254675020E+03 0.26581411199E+03
 0.25138015733E+03 0.26583576277E+03 0.27426981955E+03 0.27702580428E+03 0.27426945247E+03
 0.26583606658E+03 0.25138034912E+03 0.23079154755E+03 0.20463147033E+03 0.17441069926E+03
 0.14248227699E+03 0.11160011883E+03 0.84246906685E+02 0.62051994046E+02 0.45456005229E+02
 0.33799953238E+02 0.25646523554E+02 0.19828661953E+02 0.15805699070E+02 0.13100252902E+02
 0.11332861947E+02 0.10229537599E+02 0.96274870185E+01 0.94342694874E+01 0.96275368272E+01
 0.10229441401E+02 0.11333091900E+02 0.13099973191E+02 0.15806764058E+02 0.19827186692E+02
 0.25647714563E+02 0.33799262973E+02 0.45456111119E+02 0.62052037033E+02 0.84246464271E+02
 0.11160032254E+03 0.14248293219E+03 0.17441002080E+03 0.20463237189E+03 0.23079179324E+03
 0.21327519089E+03 0.23079893421E+03 0.24256990984E+03 0.24844143963E+03 0.24844178910E+03
 0.24257068178E+03 0.23079916616E+03 0.21327503328E+03 0.19061909071E+03 0.16414209413E+03
 0.13582103959E+03 0.10800217781E+03 0.82889544108E+02 0.62051627711E+02 0.46077320207E+02
 0.34579143927E+02 0.26400083608E+02 0.20463069155E+02 0.16270655312E+02 0.13394572953E+02
 0.11464358439E+02 0.10210033641E+02 0.94551449342E+01 0.91000656621E+01 0.90997826050E+01
 0.94554277024E+01 0.10209664651E+02 0.11464719106E+02 0.13393690136E+02 0.16271690508E+02
 0.20462371833E+02 0.26400275444E+02 0.34579347064E+02 0.46077023498E+02 0.62052037033E+02
 0.82889764060E+02 0.10800139117E+03 0.13582192141E+03 0.16414109950E+03 0.19061847743E+03
 0.17184442554E+03 0.19060771377E+03 0.20462412427E+03 0.21322580608E+03 0.21611759273E+03
 0.21322512732E+03 0.20462317181E+03 0.19060777021E+03 0.17184471562E+03 0.14951103568E+03
 0.12528193569E+03 0.10113233312E+03 0.78960107787E+02 0.60187053076E+02 0.45456642133E+02
 0.34578775444E+02 0.26659387626E+02 0.20794787943E+02 0.16568358445E+02 0.13608053760E+02
 0.11573676878E+02 0.10205881392E+02 0.93295777208E+01 0.88387494334E+01 0.86808101509E+01
 0.88387175601E+01 0.93296628635E+01 0.10205803792E+02 0.11574147141E+02 0.13607578426E+02
 0.16568576905E+02 0.20795007723E+02 0.26658876864E+02 0.34579347064E+02 0.45456111119E+02
 0.60187184826E+02 0.78960742814E+02 0.10113136223E+03 0.12528295576E+03 0.14951166226E+03
 0.13155219891E+03 0.14948248119E+03 0.16409756051E+03 0.17436253140E+03 0.17964079568E+03
 0.17964136840E+03 0.17436359345E+03 0.16409869464E+03 0.14948238214E+03 0.13155180397E+03
 0.11171937546E+03 0.91626454513E+02 0.72863438448E+02 0.56668738097E+02 0.43665594660E+02
 0.33798952160E+02 0.26400893657E+02 0.20794454721E+02 0.16670967169E+02 0.13720513711E+02
 0.11645881867E+02 0.10209409259E+02 0.92446668142E+01 0.86472024835E+01 0.83605199280E+01
 0.83605276139E+01 0.86471462822E+01 0.92446580918E+01 0.10209132579E+02 0.11646126355E+02
 0.13720520222E+02 0.16670606038E+02 0.20795007723E+02 0.26400275444E+02 0.33799262973E+02
 0.43665880375E+02 0.56667351481E+02 0.72865514643E+02 0.91625398112E+02 0.11171894089E+03
 0.96286801333E+02 0.11167671824E+03 0.12520949991E+03 0.13573055311E+03 0.14238248950E+03
 0.14465619517E+03 0.14238158709E+03 0.13572920674E+03 0.12520817830E+03 0.11167678006E+03
 0.96287382247E+02 0.80372033889E+02 0.65226361392E+02 0.51884278096E+02 0.40907840324E+02
 0.32321352741E+02 0.25647513092E+02 0.20462104722E+02 0.16568947671E+02 0.13720205185E+02
 0.11671398616E+02 0.10212979441E+02 0.91962732210E+01 0.85213102851E+01 0.81346350982E+01
 0.80076200193E+01 0.81346489772E+01 0.85213144883E+01 0.91964739569E+01 0.10212848035E+02
 0.11671415473E+02 0.13720520222E+02 0.16568576905E+02 0.20462371833E+02 0.25647714563E+02
 0.32320367113E+02 0.40909955408E+02 0.51882107707E+02 0.65227129845E+02 0.80372824505E+02
 0.68407156173E+02 0.80323004455E+02 0.91533708909E+02 0.10100723553E+03 0.10785733371E+03
 0.11144647814E+03 0.11144681321E+03 0.10785824287E+03 0.10100890175E+03 0.91534838813E+02
 0.80322636564E+02 0.68405783586E+02 0.56799935042E+02 0.46332750975E+02 0.37475438780E+02
 0.30286230459E+02 0.24464292981E+02 0.19828158561E+02 0.16271438426E+02 0.13607614624E+02
 0.11646132977E+02 0.10213056485E+02 0.91803503973E+01 0.84593287359E+01 0.79995667903E+01
 0.77747271344E+01 0.77745746401E+01 0.79996815523E+01 0.84590054536E+01 0.91805887514E+01
 0.10212848035E+02 0.11646126355E+02 0.13607578426E+02 0.16271690508E+02 0.19827186692E+02
 0.24465909781E+02 0.30283404708E+02 0.37477843057E+02 0.46332018845E+02 0.56798942732E+02
 0.48344125456E+02 0.56750994117E+02 0.65130589648E+02 0.72728094710E+02 0.78792360252E+02
 0.82703284396E+02 0.84053532046E+02 0.82702835279E+02 0.78791057941E+02 0.72725833549E+02
 0.65129517561E+02 0.56751829286E+02 0.48346815962E+02 0.40533502360E+02 0.33687141160E+02
 0.27861079595E+02 0.22948752954E+02 0.18948664616E+02 0.15805312382E+02 0.13394364713E+02
 0.11573758712E+02 0.10209340284E+02 0.91961345354E+01 0.84592577769E+01 0.79548860443E+01
 0.76582800994E+01 0.75608357523E+01 0.76582184341E+01 0.79551572074E+01 0.84590054536E+01
 0.91964739569E+01 0.10209132579E+02 0.11574147141E+02 0.13393690136E+02 0.15806764058E+02
 0.18946691528E+02 0.22951494377E+02 0.27859340845E+02 0.33686075027E+02 0.40536609533E+02
 0.34927787415E+02 0.40493170751E+02 0.46241304807E+02 0.51747776390E+02 0.56496434467E+02
 0.59990245404E+02 0.61841716884E+02 0.61841763739E+02 0.59990746358E+02 0.56498184948E+02
 0.51750272003E+02 0.46242246017E+02 0.40490158015E+02 0.34926725861E+02 0.29812307429E+02
 0.25216696420E+02 0.21222415934E+02 0.17894738581E+02 0.15211571640E+02 0.13100979191E+02
 0.11464265287E+02 0.10206089260E+02 0.92445123947E+01 0.85216692067E+01 0.79994285683E+01
 0.76585769631E+01 0.74892957756E+01 0.74895454255E+01 0.76582184341E+01 0.79996815523E+01
 0.85213144883E+01 0.92446580918E+01 0.10205803792E+02 0.11464719106E+02 0.13099973191E+02
 0.15212640030E+02 0.17893444454E+02 0.21221832777E+02 0.25220083207E+02 0.29807940682E+02
 0.26031690539E+02 0.29772783473E+02 0.33610654006E+02 0.37362426837E+02 0.40755876461E+02
 0.43481813697E+02 0.45252395963E+02 0.45866970041E+02 0.45252258589E+02 0.43481040412E+02
 0.40753479822E+02 0.37359777071E+02 0.33611626951E+02 0.29777071241E+02 0.26029406109E+02
 0.22527564748E+02 0.19409977490E+02 0.16744298608E+02 0.14537777277E+02 0.12753379009E+02
 0.11332335263E+02 0.10209912273E+02 0.93295402824E+01 0.86471454634E+01 0.81344506752E+01
 0.77745830698E+01 0.75607040453E+01 0.74892957756E+01 0.75608357523E+01 0.77745746401E+01
 0.81346489772E+01 0.86471462822E+01 0.93296628635E+01 0.10209664651E+02 0.11333091900E+02
 0.12752895982E+02 0.14538523892E+02 0.16745393212E+02 0.19407071742E+02 0.22529301390E+02
 0.19949258289E+02 0.22502527244E+02 0.25161419592E+02 0.27766020468E+02 0.30153650006E+02
 0.32160701642E+02 0.33618687758E+02 0.34387545787E+02 0.34387603181E+02 0.33618883412E+02
 0.32162197625E+02 0.30156552675E+02 0.27768064483E+02 0.25157981783E+02 0.22500939376E+02
 0.19951784593E+02 0.17620585201E+02 0.15572993179E+02 0.13829687023E+02 0.12380092572E+02
 0.11192811676E+02 0.10230165441E+02 0.94551733457E+01 0.88389331720E+01 0.83604408337E+01
 0.80079330995E+01 0.77745830698E+01 0.76585769631E+01 0.76582800994E+01 0.77747271344E+01
 0.80076200193E+01 0.83605276139E+01 0.88387175601E+01 0.94554277024E+01 0.10229441401E+02
 0.11193170314E+02 0.12379513176E+02 0.13828847888E+02 0.15575117120E+02 0.17620289928E+02
 0.15943426545E+02 0.17601384384E+02 0.19363916856E+02 0.21151635393E+02 0.22852328789E+02
 0.24341825529E+02 0.25504554329E+02 0.26244111448E+02 0.26497990544E+02 0.26244205803E+02
 0.25503747518E+02 0.24339977545E+02 0.22849374757E+02 0.21152044053E+02 0.19366798109E+02
 0.17601523295E+02 0.15941530971E+02 0.14441597364E+02 0.13128587299E+02 0.12005545132E+02
 0.11060768135E+02 0.10274633715E+02 0.96269744028E+01 0.90999129646E+01 0.86807286154E+01
 0.83604408337E+01 0.81344506752E+01 0.79994285683E+01 0.79548860443E+01 0.79995667903E+01
 0.81346350982E+01 0.83605199280E+01 0.86808101509E+01 0.90997826050E+01 0.96275368272E+01
 0.10274563503E+02 0.11061296912E+02 0.12006470844E+02 0.13126933893E+02 0.14441654784E+02
 0.13392800635E+02 0.14428322991E+02 0.15544771489E+02 0.16695124266E+02 0.17821759052E+02
 0.18854933516E+02 0.19716780342E+02 0.20337506702E+02 0.20662407548E+02 0.20662282014E+02
 0.20337839650E+02 0.19718094544E+02 0.18857148303E+02 0.17823164857E+02 0.16694160372E+02
 0.15542691882E+02 0.14428382883E+02 0.13394259814E+02 0.12464888164E+02 0.11649843016E+02
 0.10947493832E+02 0.10350530489E+02 0.98492475436E+01 0.94349075087E+01 0.90999129646E+01
 0.88389331720E+01 0.86471454634E+01 0.85216692067E+01 0.84592577769E+01 0.84593287359E+01
 0.85213102851E+01 0.86472024835E+01 0.88387494334E+01 0.91000656621E+01 0.94342694874E+01
 0.98491998861E+01 0.10349917615E+02 0.10946750379E+02 0.11651273681E+02 0.12465226053E+02
 0.11859935299E+02 0.12456234360E+02 0.13106373846E+02 0.13794810710E+02 0.14489670923E+02
 0.15149008258E+02 0.15729041365E+02 0.16183186608E+02 0.16473393533E+02 0.16573346184E+02
 0.16473245106E+02 0.16182569416E+02 0.15727190616E+02 0.15147816431E+02 0.14488756502E+02
 0.13795553046E+02 0.13107961697E+02 0.12455834570E+02 0.11858665986E+02 0.11326206970E+02
 0.10861350416E+02 0.10462524341E+02 0.10126511884E+02 0.98492475436E+01 0.96269744028E+01
 0.94551733457E+01 0.93295402824E+01 0.92445123947E+01 0.91961345354E+01 0.91803503973E+01
 0.91962732210E+01 0.92446668142E+01 0.93295777208E+01 0.94551449342E+01 0.96274870185E+01
 0.98494485286E+01 0.10127079882E+02 0.10463206995E+02 0.10860014553E+02 0.11325789881E+02
 0.11041280487E+02 0.11319265124E+02 0.11637085815E+02 0.11983542576E+02 0.12347131701E+02
 0.12710991321E+02 0.13048744755E+02 0.13334928420E+02 0.13542791754E+02 0.13652214703E+02
 0.13652428029E+02 0.13543153556E+02 0.13336078841E+02 0.13049962118E+02 0.12711651361E+02
 0.12347828594E+02 0.11982744036E+02 0.11635692446E+02 0.11319749576E+02 0.11042457856E+02
 0.10807013658E+02 0.10614058128E+02 0.10462524341E+02 0.10350530489E+02 0.10274633715E+02
 0.10230165441E+02 0.10209912273E+02 0.10206089260E+02 0.10209340284E+02 0.10213056485E+02
 0.10212979441E+02 0.10209409259E+02 0.10205881392E+02 0.10210033641E+02 0.10229537599E+02
 0.10274311040E+02 0.10349743523E+02 0.10461816143E+02 0.10615182916E+02 0.10807498086E+02
 0.10787899356E+02 0.10802296331E+02 0.10849561373E+02 0.10931054152E+02 0.11040454059E+02
 0.11167296474E+02 0.11302589646E+02 0.11430217924E+02 0.11536089128E+02 0.11606169129E+02
 0.11630481259E+02 0.11605887654E+02 0.11535229114E+02 0.11429549314E+02 0.11301550365E+02
 0.11166863738E+02 0.11039776307E+02 0.10931774199E+02 0.10850847932E+02 0.10801786953E+02
 0.10786959064E+02 0.10807013658E+02 0.10861350416E+02 0.10947493832E+02 0.11060768135E+02
 0.11192811676E+02 0.11332335263E+02 0.11464265287E+02 0.11573758712E+02 0.11646132977E+02
 0.11671398616E+02 0.11645881867E+02 0.11573676878E+02 0.11464358439E+02 0.11332861947E+02
 0.11193406676E+02 0.11061626812E+02 0.10948190078E+02 0.10860114866E+02 0.10806281421E+02
 0.11041432592E+02 0.10801032741E+02 0.10605829555E+02 0.10450782219E+02 0.10335207147E+02
 0.10258363675E+02 0.10212139225E+02 0.10191809486E+02 0.10187520771E+02 0.10190864338E+02
 0.10194821734E+02 0.10194834024E+02 0.10191632550E+02 0.10188007661E+02 0.10192358219E+02
 0.10213035706E+02 0.10258578208E+02 0.10335904439E+02 0.10450165715E+02 0.10604725640E+02
 0.10801786953E+02 0.11042457856E+02 0.11326206970E+02 0.11649843016E+02 0.12005545132E+02
 0.12380092572E+02 0.12753379009E+02 0.13100979191E+02 0.13394364713E+02 0.13607614624E+02
 0.13720205185E+02 0.13720513711E+02 0.13608053760E+02 0.13394572953E+02 0.13100252902E+02
 0.12752755740E+02 0.12378954899E+02 0.12004859006E+02 0.11651022392E+02 0.11327046073E+02
 0.11859600403E+02 0.11320585949E+02 0.10849674311E+02 0.10449457080E+02 0.10114638411E+02
 0.98378858848E+01 0.96184653821E+01 0.94490034181E+01 0.93259731695E+01 0.92434948905E+01
 0.91962642792E+01 0.91810912324E+01 0.91957873133E+01 0.92430899023E+01 0.93255205919E+01
 0.94486026367E+01 0.96176437085E+01 0.98379115561E+01 0.10113931058E+02 0.10450165715E+02
 0.10850847932E+02 0.11319749576E+02 0.11858665986E+02 0.12464888164E+02 0.13128587299E+02
 0.13829687023E+02 0.14537777277E+02 0.15211571640E+02 0.15805312382E+02 0.16271438426E+02
 0.16568947671E+02 0.16670967169E+02 0.16568358445E+02 0.16270655312E+02 0.15805699070E+02
 0.15212758288E+02 0.14539234961E+02 0.13830745604E+02 0.13127371521E+02 0.12463859292E+02
 0.13393400433E+02 0.12454819325E+02 0.11636862079E+02 0.10932461681E+02 0.10335062292E+02
 0.98380318540E+01 0.94273272576E+01 0.90982838736E+01 0.88427454349E+01 0.86561440496E+01
 0.85345596531E+01 0.84743754817E+01 0.84749039981E+01 0.85346761882E+01 0.86565522656E+01
 0.88430873579E+01 0.90986414954E+01 0.94280969795E+01 0.98379115561E+01 0.10335904439E+02
 0.10931774199E+02 0.11635692446E+02 0.12455834570E+02 0.13394259814E+02 0.14441597364E+02
 0.15572993179E+02 0.16744298608E+02 0.17894738581E+02 0.18948664616E+02 0.19828158561E+02
 0.20462104722E+02 0.20794454721E+02 0.20794787943E+02 0.20463069155E+02 0.19828661953E+02
 0.18947678778E+02 0.17892448024E+02 0.16743090270E+02 0.15574291176E+02 0.14443181651E+02
 0.15942374181E+02 0.14429913004E+02 0.13106806997E+02 0.11982010185E+02 0.11040780695E+02
 0.10258235879E+02 0.96183947791E+01 0.90988562970E+01 0.86879041361E+01 0.83755129904E+01
 0.81555416199E+01 0.80251091838E+01 0.79812162555E+01 0.80248596155E+01 0.81553702501E+01
 0.83752007170E+01 0.86875606799E+01 0.90986414954E+01 0.96176437085E+01 0.10258578208E+02
 0.11039776307E+02 0.11982744036E+02 0.13107961697E+02 0.14428382883E+02 0.15941530971E+02
 0.17620585201E+02 0.19409977490E+02 0.21222415934E+02 0.22948752954E+02 0.24464292981E+02
 0.25647513092E+02 0.26400893657E+02 0.26659387626E+02 0.26400083608E+02 0.25646523554E+02
 0.24464107797E+02 0.22951295382E+02 0.21225092577E+02 0.19408650571E+02 0.17618584932E+02
 0.19951217974E+02 0.17599554801E+02 0.15543986066E+02 0.13796616915E+02 0.12346647028E+02
 0.11167408078E+02 0.10212295625E+02 0.94483954801E+01 0.88428321170E+01 0.83748760431E+01
 0.80314991615E+01 0.78047778375E+01 0.76927091599E+01 0.76923776170E+01 0.78051212844E+01
 0.80315034642E+01 0.83752007170E+01 0.88430873579E+01 0.94486026367E+01 0.10213035706E+02
 0.11166863738E+02 0.12347828594E+02 0.13795553046E+02 0.15542691882E+02 0.17601523295E+02
 0.19951784593E+02 0.22527564748E+02 0.25216696420E+02 0.27861079595E+02 0.30286230459E+02
 0.32321352741E+02 0.33798952160E+02 0.34578775444E+02 0.34579143927E+02 0.33799953238E+02
 0.32322120321E+02 0.30284925208E+02 0.27857171799E+02 0.25216341446E+02 0.22531027621E+02
 0.26027685398E+02 0.22504402234E+02 0.19365445632E+02 0.16692874185E+02 0.14490306402E+02
 0.12710983152E+02 0.11302288969E+02 0.10192496930E+02 0.93257396374E+01 0.86568107094E+01
 0.81554062175E+01 0.78054169261E+01 0.75967035331E+01 0.75280101008E+01 0.75969156424E+01
 0.78051212844E+01 0.81553702501E+01 0.86565522656E+01 0.93255205919E+01 0.10192358219E+02
 0.11301550365E+02 0.12711651361E+02 0.14488756502E+02 0.16694160372E+02 0.19366798109E+02
 0.22500939376E+02 0.26029406109E+02 0.29812307429E+02 0.33687141160E+02 0.37475438780E+02
 0.40907840324E+02 0.43665594660E+02 0.45456642133E+02 0.46077320207E+02 0.45456005229E+02
 0.43664437654E+02 0.40908240149E+02 0.37478087767E+02 0.33689989428E+02 0.29809006089E+02
 0.34930750086E+02 0.29773730956E+02 0.25157594169E+02 0.21154801310E+02 0.17820820120E+02
 0.15148981241E+02 0.13049118408E+02 0.11429515860E+02 0.10187785808E+02 0.92428293423E+01
 0.85347278631E+01 0.80244859695E+01 0.76927326262E+01 0.75278707485E+01 0.75280101008E+01
 0.76923776170E+01 0.80248596155E+01 0.85346761882E+01 0.92430899023E+01 0.10188007661E+02
 0.11429549314E+02 0.13049962118E+02 0.15147816431E+02 0.17823164857E+02 0.21152044053E+02
 0.25157981783E+02 0.29777071241E+02 0.34926725861E+02 0.40533502360E+02 0.46332750975E+02
 0.51884278096E+02 0.56668738097E+02 0.60187053076E+02 0.62051627711E+02 0.62051994046E+02
 0.60187923180E+02 0.56669060507E+02 0.51882406546E+02 0.46330066163E+02 0.40533361172E+02
 0.48344422635E+02 0.40489979171E+02 0.33614646193E+02 0.27764013574E+02 0.22851976571E+02
 0.18856046911E+02 0.15727831783E+02 0.13336241994E+02 0.11535318387E+02 0.10191908991E+02
 0.91956753900E+01 0.84752718862E+01 0.79809044927E+01 0.76927326262E+01 0.75967035331E+01
 0.76927091599E+01 0.79812162555E+01 0.84749039981E+01 0.91957873133E+01 0.10191632550E+02
 0.11535229114E+02 0.13336078841E+02 0.15727190616E+02 0.18857148303E+02 0.22849374757E+02
 0.27768064483E+02 0.33611626951E+02 0.40490158015E+02 0.48346815962E+02 0.56799935042E+02
 0.65226361392E+02 0.72863438448E+02 0.78960107787E+02 0.82889544108E+02 0.84246906685E+02
 0.82888982218E+02 0.78959851960E+02 0.72864481617E+02 0.65228483575E+02 0.56800939465E+02
 0.68406362157E+02 0.56753016973E+02 0.46239400943E+02 0.37362457553E+02 0.30155239392E+02
 0.24339858472E+02 0.19718484218E+02 0.16181614500E+02 0.13543791601E+02 0.11605013988E+02
 0.10195569093E+02 0.91801047067E+01 0.84752718862E+01 0.80244859695E+01 0.78054169261E+01
 0.78047778375E+01 0.80251091838E+01 0.84743754817E+01 0.91810912324E+01 0.10194834024E+02
 0.11605887654E+02 0.13543153556E+02 0.16182569416E+02 0.19718094544E+02 0.24339977545E+02
 0.30156552675E+02 0.37359777071E+02 0.46242246017E+02 0.56751829286E+02 0.68405783586E+02
 0.80372033889E+02 0.91626454513E+02 0.10113233312E+03 0.10800217781E+03 0.11160011883E+03
 0.11160083330E+03 0.10800203587E+03 0.10113218563E+03 0.91624637527E+02 0.80371510582E+02
 0.96287250005E+02 0.80321883095E+02 0.65131732811E+02 0.51748382885E+02 0.40754082649E+02
 0.32162728427E+02 0.25502987960E+02 0.20338829051E+02 0.16472659452E+02 0.13653151653E+02
 0.11629933014E+02 0.10195569093E+02 0.91956753900E+01 0.85347278631E+01 0.81554062175E+01
 0.80314991615E+01 0.81555416199E+01 0.85345596531E+01 0.91962642792E+01 0.10194821734E+02
 0.11630481259E+02 0.13652428029E+02 0.16473245106E+02 0.20337839650E+02 0.25503747518E+02
 0.32162197625E+02 0.40753479822E+02 0.51750272003E+02 0.65129517561E+02 0.80322636564E+02
 0.96287382247E+02 0.11171937546E+03 0.12528193569E+03 0.13582103959E+03 0.14248227699E+03
 0.14475843691E+03 0.14248236185E+03 0.13582148418E+03 0.12528335218E+03 0.11171999071E+03
 0.13155202593E+03 0.11167747212E+03 0.91533155879E+02 0.72726938371E+02 0.56498396991E+02
 0.43479873153E+02 0.33619967597E+02 0.26243010938E+02 0.20663070632E+02 0.16572420232E+02
 0.13653151653E+02 0.11605013988E+02 0.10191908991E+02 0.92428293423E+01 0.86568107094E+01
 0.83748760431E+01 0.83755129904E+01 0.86561440496E+01 0.92434948905E+01 0.10190864338E+02
 0.11606169129E+02 0.13652214703E+02 0.16573346184E+02 0.20662282014E+02 0.26244205803E+02
 0.33618883412E+02 0.43481040412E+02 0.56498184948E+02 0.72725833549E+02 0.91534838813E+02
 0.11167678006E+03 0.13155180397E+03 0.14951103568E+03 0.16414209413E+03 0.17441069926E+03
 0.17968881915E+03 0.17968829635E+03 0.17441047665E+03 0.16414078028E+03 0.14951072786E+03
 0.17184442959E+03 0.14948191357E+03 0.12520967597E+03 0.10100847287E+03 0.78790850075E+02
 0.59991720936E+02 0.45251539061E+02 0.34388372538E+02 0.26497487088E+02 0.20663070632E+02
 0.16472659452E+02 0.13543791601E+02 0.11535318387E+02 0.10187785808E+02 0.93257396374E+01
 0.88428321170E+01 0.86879041361E+01 0.88427454349E+01 0.93259731695E+01 0.10187520771E+02
 0.11536089128E+02 0.13542791754E+02 0.16473393533E+02 0.20662407548E+02 0.26497990544E+02
 0.34387603181E+02 0.45252258589E+02 0.59990746358E+02 0.78791057941E+02 0.10100890175E+03
 0.12520817830E+03 0.14948238214E+03 0.17184471562E+03 0.19061909071E+03 0.20463147033E+03
 0.21322595314E+03 0.21611438097E+03 0.21322644323E+03 0.20463247057E+03 0.19061954106E+03
 0.21327515506E+03 0.19060806590E+03 0.16409769309E+03 0.13572926127E+03 0.10785872407E+03
 0.82701767670E+02 0.61842724996E+02 0.45865910327E+02 0.34388372538E+02 0.26243010938E+02
 0.20338829051E+02 0.16181614500E+02 0.13336241994E+02 0.11429515860E+02 0.10192496930E+02
 0.94483954801E+01 0.90988562970E+01 0.90982838736E+01 0.94490034181E+01 0.10191809486E+02
 0.11430217924E+02 0.13334928420E+02 0.16183186608E+02 0.20337506702E+02 0.26244111448E+02
 0.34387545787E+02 0.45866970041E+02 0.61841763739E+02 0.82702835279E+02 0.10785824287E+03
 0.13572920674E+03 0.16409869464E+03 0.19060777021E+03 0.21327503328E+03 0.23079154755E+03
 0.24254789520E+03 0.24840703310E+03 0.24840682656E+03 0.24254668997E+03 0.23079083565E+03
 0.25138006386E+03 0.23079881780E+03 0.20462383361E+03 0.17436360205E+03 0.14238123972E+03
 0.11144784865E+03 0.84052686067E+02 0.61842724996E+02 0.45251539061E+02 0.33619967597E+02
 0.25502987960E+02 0.19718484218E+02 0.15727831783E+02 0.13049118408E+02 0.11302288969E+02
 0.10212295625E+02 0.96183947791E+01 0.94273272576E+01 0.96184653821E+01 0.10212139225E+02
 0.11302589646E+02 0.13048744755E+02 0.15729041365E+02 0.19716780342E+02 0.25504554329E+02
 0.33618687758E+02 0.45252395963E+02 0.61841716884E+02 0.84053532046E+02 0.11144681321E+03
 0.14238158709E+03 0.17436359345E+03 0.20462317181E+03 0.23079916616E+03 0.25138034912E+03
 0.26581441090E+03 0.27422616127E+03 0.27697381205E+03 0.27422682424E+03 0.26581500560E+03
 0.28242162777E+03 0.26583572025E+03 0.24257033964E+03 0.21322455157E+03 0.17964214674E+03
 0.14465461723E+03 0.11144784865E+03 0.82701767670E+02 0.59991720936E+02 0.43479873153E+02
 0.32162728427E+02 0.24339858472E+02 0.18856046911E+02 0.15148981241E+02 0.12710983152E+02
 0.11167408078E+02 0.10258235879E+02 0.98380318540E+01 0.98378858848E+01 0.10258363675E+02
 0.11167296474E+02 0.12710991321E+02 0.15149008258E+02 0.18854933516E+02 0.24341825529E+02
 0.32160701642E+02 0.43481813697E+02 0.59990245404E+02 0.82703284396E+02 0.11144647814E+03
 0.14465619517E+03 0.17964136840E+03 0.21322512732E+03 0.24257068178E+03 0.26583606658E+03
 0.28242127560E+03 0.29272541396E+03 0.29757086389E+03 0.29757059282E+03 0.29272460856E+03
 0.30442362191E+03 0.29275293400E+03 0.27426987029E+03 0.24844228125E+03 0.21611673406E+03
 0.17964214674E+03 0.14238123972E+03 0.10785872407E+03 0.78790850075E+02 0.56498396991E+02
 0.40754082649E+02 0.30155239392E+02 0.22851976571E+02 0.17820820120E+02 0.14490306402E+02
 0.12346647028E+02 0.11040780695E+02 0.10335062292E+02 0.10114638411E+02 0.10335207147E+02
 0.11040454059E+02 0.12347131701E+02 0.14489670923E+02 0.17821759052E+02 0.22852328789E+02
 0.30153650006E+02 0.40755876461E+02 0.56496434467E+02 0.78792360252E+02 0.10785733371E+03
 0.14238248950E+03 0.17964079568E+03 0.21611759273E+03 0.24844178910E+03 0.27426945247E+03
 0.29275269448E+03 0.30442398820E+03 0.31058251680E+03 0.31246874109E+03 0.31058301629E+03
 0.31760071231E+03 0.31060819973E+03 0.29761723368E+03 0.27702510118E+03 0.24844228125E+03
 0.21322455157E+03 0.17436360205E+03 0.13572926127E+03 0.10100847287E+03 0.72726938371E+02
 0.51748382885E+02 0.37362457553E+02 0.27764013574E+02 0.21154801310E+02 0.16692874185E+02
 0.13796616915E+02 0.11982010185E+02 0.10932461681E+02 0.10449457080E+02 0.10450782219E+02
 0.10931054152E+02 0.11983542576E+02 0.13794810710E+02 0.16695124266E+02 0.21151635393E+02
 0.27766020468E+02 0.37362426837E+02 0.51747776390E+02 0.72728094710E+02 0.10100723553E+03
 0.13573055311E+03 0.17436253140E+03 0.21322580608E+03 0.24844143963E+03 0.27702580428E+03
 0.29761730840E+03 0.31060829942E+03 0.31759998335E+03 0.32048015900E+03 0.32047997209E+03
 0.32393695530E+03 0.32049669846E+03 0.31250493862E+03 0.29761723368E+03 0.27426987029E+03
 0.24257033964E+03 0.20462383361E+03 0.16409769309E+03 0.12520967597E+03 0.91533155879E+02
 0.65131732811E+02 0.46239400943E+02 0.33614646193E+02 0.25157594169E+02 0.19365445632E+02
 0.15543986066E+02 0.13106806997E+02 0.11636862079E+02 0.10849674311E+02 0.10605829555E+02
 0.10849561373E+02 0.11637085815E+02 0.13106373846E+02 0.15544771489E+02 0.19363916856E+02
 0.25161419592E+02 0.33610654006E+02 0.46241304807E+02 0.65130589648E+02 0.91533708909E+02
 0.12520949991E+03 0.16409756051E+03 0.20462412427E+03 0.24256990984E+03 0.27426981955E+03
 0.29761687242E+03 0.31250431903E+03 0.32049660930E+03 0.32393763659E+03 0.32482392524E+03
 0.32618481283E+03 0.32483128059E+03 0.32049669846E+03 0.31060819973E+03 0.29275293400E+03
 0.26583572025E+03 0.23079881780E+03 0.19060806590E+03 0.14948191357E+03 0.11167747212E+03
 0.80321883095E+02 0.56753016973E+02 0.40489979171E+02 0.29773730956E+02 0.22504402234E+02
 0.17599554801E+02 0.14429913004E+02 0.12454819325E+02 0.11320585949E+02 0.10801032741E+02
 0.10802296331E+02 0.11319265124E+02 0.12456234360E+02 0.14428322991E+02 0.17601384384E+02
 0.22502527244E+02 0.29772783473E+02 0.40493170751E+02 0.56750994117E+02 0.80323004455E+02
 0.11167671824E+03 0.14948248119E+03 0.19060771377E+03 0.23079893421E+03 0.26583576277E+03
 0.29275321253E+03 0.31060775232E+03 0.32049765205E+03 0.32483012459E+03 0.32618463550E+03
 0.32640615594E+03 0.32584856917E+03 0.32330962687E+03 0.31655651068E+03 0.30292885249E+03
 0.28054124372E+03 0.24926669084E+03 0.21112815448E+03 0.16986216432E+03 0.12988387630E+03
 0.95007014874E+02 0.67508070340E+02 0.47761365431E+02 0.34564852762E+02 0.25783037991E+02
 0.19782279111E+02 0.15823872891E+02 0.13304333473E+02 0.11787599169E+02 0.10977228670E+02
 0.10726435148E+02 0.10977095971E+02 0.11787890376E+02 0.13303802119E+02 0.15824817063E+02
 0.19780467797E+02 0.25787090125E+02 0.34561415863E+02 0.47761498231E+02 0.67508806230E+02