   2   2   1   0
  0.1864194E+02  0.2918150E-09  0.2918150E-09  0.5055628E-09  0.5000000E-15
  1.000000000000000E-004
  CAR 
 Pt-hcc                                  
     31.09390861    -47.45400908  301      8.27330174      1.00000000
    -47.454  0.0000E+00  0.0000E+00
    -47.192  0.0000E+00  0.0000E+00
    -46.930  0.0000E+00  0.0000E+00
    -46.669  0.0000E+00  0.0000E+00
    -46.407  0.0000E+00  0.0000E+00
    -46.145  0.0000E+00  0.0000E+00
    -45.883  0.0000E+00  0.0000E+00
    -45.621  0.0000E+00  0.0000E+00
    -45.359  0.0000E+00  0.0000E+00
    -45.098  0.0000E+00  0.0000E+00
    -44.836  0.0000E+00  0.0000E+00
    -44.574  0.0000E+00  0.0000E+00
    -44.312  0.0000E+00  0.0000E+00
    -44.050  0.6156E-08  0.1612E-08
    -43.788  0.1201E+00  0.3146E-01
    -43.527  0.3302E+00  0.1179E+00
    -43.265  0.8007E-02  0.1200E+00
    -43.003  0.0000E+00  0.1200E+00
    -42.741  0.0000E+00  0.1200E+00
    -42.479  0.0000E+00  0.1200E+00
    -42.217  0.0000E+00  0.1200E+00
    -41.956  0.0000E+00  0.1200E+00
    -41.694  0.0000E+00  0.1200E+00
    -41.432  0.0000E+00  0.1200E+00
    -41.170  0.0000E+00  0.1200E+00
    -40.908  0.0000E+00  0.1200E+00
    -40.647  0.0000E+00  0.1200E+00
    -40.385  0.0000E+00  0.1200E+00
    -40.123  0.0000E+00  0.1200E+00
    -39.861  0.0000E+00  0.1200E+00
    -39.599  0.0000E+00  0.1200E+00
    -39.337  0.0000E+00  0.1200E+00
    -39.076  0.0000E+00  0.1200E+00
    -38.814  0.0000E+00  0.1200E+00
    -38.552  0.0000E+00  0.1200E+00
    -38.290  0.0000E+00  0.1200E+00
    -38.028  0.0000E+00  0.1200E+00
    -37.766  0.0000E+00  0.1200E+00
    -37.505  0.0000E+00  0.1200E+00
    -37.243  0.0000E+00  0.1200E+00
    -36.981  0.0000E+00  0.1200E+00
    -36.719  0.0000E+00  0.1200E+00
    -36.457  0.0000E+00  0.1200E+00
    -36.195  0.0000E+00  0.1200E+00
    -35.934  0.0000E+00  0.1200E+00
    -35.672  0.0000E+00  0.1200E+00
    -35.410  0.0000E+00  0.1200E+00
    -35.148  0.0000E+00  0.1200E+00
    -34.886  0.0000E+00  0.1200E+00
    -34.625  0.0000E+00  0.1200E+00
    -34.363  0.0000E+00  0.1200E+00
    -34.101  0.0000E+00  0.1200E+00
    -33.839  0.0000E+00  0.1200E+00
    -33.577  0.0000E+00  0.1200E+00
    -33.315  0.0000E+00  0.1200E+00
    -33.054  0.0000E+00  0.1200E+00
    -32.792  0.0000E+00  0.1200E+00
    -32.530  0.0000E+00  0.1200E+00
    -32.268  0.0000E+00  0.1200E+00
    -32.006  0.0000E+00  0.1200E+00
    -31.744  0.0000E+00  0.1200E+00
    -31.483  0.0000E+00  0.1200E+00
    -31.221  0.0000E+00  0.1200E+00
    -30.959  0.0000E+00  0.1200E+00
    -30.697  0.0000E+00  0.1200E+00
    -30.435  0.0000E+00  0.1200E+00
    -30.173  0.0000E+00  0.1200E+00
    -29.912  0.0000E+00  0.1200E+00
    -29.650  0.0000E+00  0.1200E+00
    -29.388  0.0000E+00  0.1200E+00
    -29.126  0.0000E+00  0.1200E+00
    -28.864  0.0000E+00  0.1200E+00
    -28.603  0.0000E+00  0.1200E+00
    -28.341  0.0000E+00  0.1200E+00
    -28.079  0.0000E+00  0.1200E+00
    -27.817  0.0000E+00  0.1200E+00
    -27.555  0.0000E+00  0.1200E+00
    -27.293  0.0000E+00  0.1200E+00
    -27.032  0.0000E+00  0.1200E+00
    -26.770  0.0000E+00  0.1200E+00
    -26.508  0.0000E+00  0.1200E+00
    -26.246  0.0000E+00  0.1200E+00
    -25.984  0.0000E+00  0.1200E+00
    -25.722  0.0000E+00  0.1200E+00
    -25.461  0.0000E+00  0.1200E+00
    -25.199  0.0000E+00  0.1200E+00
    -24.937  0.0000E+00  0.1200E+00
    -24.675  0.0000E+00  0.1200E+00
    -24.413  0.0000E+00  0.1200E+00
    -24.151  0.0000E+00  0.1200E+00
    -23.890  0.0000E+00  0.1200E+00
    -23.628  0.0000E+00  0.1200E+00
    -23.366  0.0000E+00  0.1200E+00
    -23.104  0.0000E+00  0.1200E+00
    -22.842  0.0000E+00  0.1200E+00
    -22.581  0.0000E+00  0.1200E+00
    -22.319  0.0000E+00  0.1200E+00
    -22.057  0.0000E+00  0.1200E+00
    -21.795  0.0000E+00  0.1200E+00
    -21.533  0.0000E+00  0.1200E+00
    -21.271  0.0000E+00  0.1200E+00
    -21.010  0.0000E+00  0.1200E+00
    -20.748  0.0000E+00  0.1200E+00
    -20.486  0.0000E+00  0.1200E+00
    -20.224  0.0000E+00  0.1200E+00
    -19.962  0.0000E+00  0.1200E+00
    -19.700  0.0000E+00  0.1200E+00
    -19.439  0.0000E+00  0.1200E+00
    -19.177  0.0000E+00  0.1200E+00
    -18.915  0.0000E+00  0.1200E+00
    -18.653  0.0000E+00  0.1200E+00
    -18.391  0.0000E+00  0.1200E+00
    -18.129  0.0000E+00  0.1200E+00
    -17.868  0.0000E+00  0.1200E+00
    -17.606  0.0000E+00  0.1200E+00
    -17.344  0.0000E+00  0.1200E+00
    -17.082  0.0000E+00  0.1200E+00
    -16.820  0.0000E+00  0.1200E+00
    -16.558  0.0000E+00  0.1200E+00
    -16.297  0.0000E+00  0.1200E+00
    -16.035  0.0000E+00  0.1200E+00
    -15.773  0.0000E+00  0.1200E+00
    -15.511  0.0000E+00  0.1200E+00
    -15.249  0.0000E+00  0.1200E+00
    -14.988  0.0000E+00  0.1200E+00
    -14.726  0.0000E+00  0.1200E+00
    -14.464  0.0000E+00  0.1200E+00
    -14.202  0.0000E+00  0.1200E+00
    -13.940  0.0000E+00  0.1200E+00
    -13.678  0.0000E+00  0.1200E+00
    -13.417  0.0000E+00  0.1200E+00
    -13.155  0.0000E+00  0.1200E+00
    -12.893  0.0000E+00  0.1200E+00
    -12.631  0.0000E+00  0.1200E+00
    -12.369  0.0000E+00  0.1200E+00
    -12.107  0.0000E+00  0.1200E+00
    -11.846  0.0000E+00  0.1200E+00
    -11.584  0.0000E+00  0.1200E+00
    -11.322  0.0000E+00  0.1200E+00
    -11.060  0.0000E+00  0.1200E+00
    -10.798  0.0000E+00  0.1200E+00
    -10.536  0.0000E+00  0.1200E+00
    -10.275  0.0000E+00  0.1200E+00
    -10.013  0.0000E+00  0.1200E+00
     -9.751  0.0000E+00  0.1200E+00
     -9.489  0.0000E+00  0.1200E+00
     -9.227  0.0000E+00  0.1200E+00
     -8.966  0.0000E+00  0.1200E+00
     -8.704  0.0000E+00  0.1200E+00
     -8.442  0.0000E+00  0.1200E+00
     -8.180  0.0000E+00  0.1200E+00
     -7.918  0.0000E+00  0.1200E+00
     -7.656  0.0000E+00  0.1200E+00
     -7.395  0.0000E+00  0.1200E+00
     -7.133  0.0000E+00  0.1200E+00
     -6.871  0.0000E+00  0.1200E+00
     -6.609  0.0000E+00  0.1200E+00
     -6.347  0.0000E+00  0.1200E+00
     -6.085  0.0000E+00  0.1200E+00
     -5.824  0.0000E+00  0.1200E+00
     -5.562  0.0000E+00  0.1200E+00
     -5.300  0.0000E+00  0.1200E+00
     -5.038  0.0000E+00  0.1200E+00
     -4.776  0.0000E+00  0.1200E+00
     -4.514  0.0000E+00  0.1200E+00
     -4.253  0.0000E+00  0.1200E+00
     -3.991  0.0000E+00  0.1200E+00
     -3.729  0.0000E+00  0.1200E+00
     -3.467  0.0000E+00  0.1200E+00
     -3.205  0.0000E+00  0.1200E+00
     -2.944  0.0000E+00  0.1200E+00
     -2.682  0.0000E+00  0.1200E+00
     -2.420  0.0000E+00  0.1200E+00
     -2.158  0.0000E+00  0.1200E+00
     -1.896  0.0000E+00  0.1200E+00
     -1.634  0.0000E+00  0.1200E+00
     -1.373  0.0000E+00  0.1200E+00
     -1.111  0.0000E+00  0.1200E+00
     -0.849  0.0000E+00  0.1200E+00
     -0.587  0.0000E+00  0.1200E+00
     -0.325  0.0000E+00  0.1200E+00
     -0.063  0.5300E-19  0.1200E+00
      0.198  0.2585E-04  0.1200E+00
      0.460  0.2758E-03  0.1201E+00
      0.722  0.1871E-02  0.1206E+00
      0.984  0.7978E-03  0.1208E+00
      1.246  0.1981E-02  0.1213E+00
      1.508  0.2978E-02  0.1221E+00
      1.769  0.1885E-02  0.1226E+00
      2.031  0.1917E-02  0.1231E+00
      2.293  0.5755E-02  0.1246E+00
      2.555  0.4764E-02  0.1258E+00
      2.817  0.4945E-02  0.1271E+00
      3.078  0.7358E-02  0.1290E+00
      3.340  0.2493E-01  0.1356E+00
      3.602  0.2452E-01  0.1420E+00
      3.864  0.2663E-01  0.1490E+00
      4.126  0.2124E-01  0.1545E+00
      4.388  0.3073E-01  0.1626E+00
      4.649  0.4470E-01  0.1743E+00
      4.911  0.3465E-01  0.1833E+00
      5.173  0.3989E-01  0.1938E+00
      5.435  0.3514E-01  0.2030E+00
      5.697  0.4500E-01  0.2148E+00
      5.959  0.4761E-01  0.2272E+00
      6.220  0.3894E-01  0.2374E+00
      6.482  0.5377E-01  0.2515E+00
      6.744  0.3823E-01  0.2615E+00
      7.006  0.2685E-01  0.2686E+00
      7.268  0.3322E-01  0.2773E+00
      7.530  0.3738E-01  0.2870E+00
      7.791  0.3316E-01  0.2957E+00
      8.053  0.4007E-01  0.3062E+00
      8.315  0.6167E-01  0.3224E+00
      8.577  0.3158E-01  0.3306E+00
      8.839  0.1244E-01  0.3339E+00
      9.100  0.7110E-02  0.3358E+00
      9.362  0.3413E-02  0.3366E+00
      9.624  0.1538E-02  0.3371E+00
      9.886  0.4392E-02  0.3382E+00
     10.148  0.1814E-01  0.3430E+00
     10.410  0.5319E-02  0.3443E+00
     10.671  0.3374E-02  0.3452E+00
     10.933  0.3989E-02  0.3463E+00
     11.195  0.6577E-02  0.3480E+00
     11.457  0.5332E-02  0.3494E+00
     11.719  0.5642E-02  0.3509E+00
     11.981  0.5905E-02  0.3524E+00
     12.242  0.1099E-01  0.3553E+00
     12.504  0.4740E-02  0.3565E+00
     12.766  0.6433E-02  0.3582E+00
     13.028  0.3513E-02  0.3591E+00
     13.290  0.3045E-02  0.3599E+00
     13.552  0.3474E-02  0.3608E+00
     13.813  0.1125E-01  0.3638E+00
     14.075  0.6566E-02  0.3655E+00
     14.337  0.1222E-01  0.3687E+00
     14.599  0.4893E-02  0.3700E+00
     14.861  0.6785E-02  0.3718E+00
     15.122  0.1193E-01  0.3749E+00
     15.384  0.5158E-02  0.3762E+00
     15.646  0.6325E-02  0.3779E+00
     15.908  0.5154E-02  0.3792E+00
     16.170  0.4563E-02  0.3804E+00
     16.432  0.1604E-01  0.3846E+00
     16.693  0.7395E-02  0.3866E+00
     16.955  0.3398E-02  0.3875E+00
     17.217  0.7303E-02  0.3894E+00
     17.479  0.8631E-02  0.3916E+00
     17.741  0.9253E-02  0.3941E+00
     18.003  0.5660E-02  0.3955E+00
     18.264  0.4662E-02  0.3968E+00
     18.526  0.1008E-01  0.3994E+00
     18.788  0.5134E-02  0.4007E+00
     19.050  0.5861E-02  0.4023E+00
     19.312  0.9394E-02  0.4047E+00
     19.574  0.1024E-01  0.4074E+00
     19.835  0.1356E-01  0.4110E+00
     20.097  0.6805E-02  0.4128E+00
     20.359  0.6393E-02  0.4144E+00
     20.621  0.8388E-02  0.4166E+00
     20.883  0.2077E-02  0.4172E+00
     21.145  0.1529E-01  0.4212E+00
     21.406  0.1836E-01  0.4260E+00
     21.668  0.1756E-01  0.4306E+00
     21.930  0.8281E-02  0.4327E+00
     22.192  0.1553E-01  0.4368E+00
     22.454  0.9462E-02  0.4393E+00
     22.715  0.1367E-01  0.4429E+00
     22.977  0.1996E-01  0.4481E+00
     23.239  0.1101E-01  0.4510E+00
     23.501  0.1559E-01  0.4551E+00
     23.763  0.8077E-02  0.4572E+00
     24.025  0.1568E-01  0.4613E+00
     24.286  0.1035E-01  0.4640E+00
     24.548  0.1227E-01  0.4672E+00
     24.810  0.1292E-01  0.4706E+00
     25.072  0.3777E-02  0.4716E+00
     25.334  0.4725E-02  0.4728E+00
     25.596  0.8152E-02  0.4749E+00
     25.857  0.4138E-02  0.4760E+00
     26.119  0.5159E-02  0.4774E+00
     26.381  0.5670E-02  0.4789E+00
     26.643  0.2401E-02  0.4795E+00
     26.905  0.4410E-03  0.4796E+00
     27.167  0.6830E-03  0.4798E+00
     27.428  0.4658E-03  0.4799E+00
     27.690  0.3790E-03  0.4800E+00
     27.952  0.0000E+00  0.4800E+00
     28.214  0.0000E+00  0.4800E+00
     28.476  0.0000E+00  0.4800E+00
     28.737  0.0000E+00  0.4800E+00
     28.999  0.0000E+00  0.4800E+00
     29.261  0.0000E+00  0.4800E+00
     29.523  0.0000E+00  0.4800E+00
     29.785  0.0000E+00  0.4800E+00
     30.047  0.0000E+00  0.4800E+00
     30.308  0.0000E+00  0.4800E+00
     30.570  0.0000E+00  0.4800E+00
     30.832  0.0000E+00  0.4800E+00
     31.094  0.0000E+00  0.4800E+00
     31.09390861    -47.45400908  301      8.27330174      1.00000000
    -47.454  0.0000E+00  0.0000E+00  0.0000E+00  0.0000E+00  0.0000E+00  0.0000E+00  0.0000E+00  0.0000E+00  0.0000E+00
    -47.192  0.0000E+00  0.0000E+00  0.0000E+00  0.0000E+00  0.0000E+00  0.0000E+00  0.0000E+00  0.0000E+00  0.0000E+00
    -46.930  0.0000E+00  0.0000E+00  0.0000E+00  0.0000E+00  0.0000E+00  0.0000E+00  0.0000E+00  0.0000E+00  0.0000E+00
    -46.669  0.0000E+00  0.0000E+00  0.0000E+00  0.0000E+00  0.0000E+00  0.0000E+00  0.0000E+00  0.0000E+00  0.0000E+00
    -46.407  0.0000E+00  0.0000E+00  0.0000E+00  0.0000E+00  0.0000E+00  0.0000E+00  0.0000E+00  0.0000E+00  0.0000E+00
    -46.145  0.0000E+00  0.0000E+00  0.0000E+00  0.0000E+00  0.0000E+00  0.0000E+00  0.0000E+00  0.0000E+00  0.0000E+00
    -45.883  0.0000E+00  0.0000E+00  0.0000E+00  0.0000E+00  0.0000E+00  0.0000E+00  0.0000E+00  0.0000E+00  0.0000E+00
    -45.621  0.0000E+00  0.0000E+00  0.0000E+00  0.0000E+00  0.0000E+00  0.0000E+00  0.0000E+00  0.0000E+00  0.0000E+00
    -45.359  0.0000E+00  0.0000E+00  0.0000E+00  0.0000E+00  0.0000E+00  0.0000E+00  0.0000E+00  0.0000E+00  0.0000E+00
    -45.098  0.0000E+00  0.0000E+00  0.0000E+00  0.0000E+00  0.0000E+00  0.0000E+00  0.0000E+00  0.0000E+00  0.0000E+00
    -44.836  0.0000E+00  0.0000E+00  0.0000E+00  0.0000E+00  0.0000E+00  0.0000E+00  0.0000E+00  0.0000E+00  0.0000E+00
    -44.574  0.0000E+00  0.0000E+00  0.0000E+00  0.0000E+00  0.0000E+00  0.0000E+00  0.0000E+00  0.0000E+00  0.0000E+00
    -44.312  0.0000E+00  0.0000E+00  0.0000E+00  0.0000E+00  0.0000E+00  0.0000E+00  0.0000E+00  0.0000E+00  0.0000E+00
    -44.050  0.6805E-12  0.1500E-06  0.3600E-08  0.1500E-06  0.2707E-12  0.4058E-13  0.5447E-12  0.4058E-13  0.2707E-12
    -43.788  0.4249E-04  0.2932E+01  0.7438E-01  0.2932E+01  0.1807E-04  0.1314E-05  0.2203E-04  0.1314E-05  0.1807E-04
    -43.527  0.4692E-04  0.4636E+01  0.7102E+01  0.4636E+01  0.3383E-04  0.1604E-04  0.2508E-04  0.1604E-04  0.3383E-04
    -43.265  0.4102E-06  0.1887E-02  0.3936E+00  0.1887E-02  0.3527E-07  0.4092E-06  0.3511E-06  0.4092E-06  0.3527E-07
    -43.003  0.0000E+00  0.0000E+00  0.0000E+00  0.0000E+00  0.0000E+00  0.0000E+00  0.0000E+00  0.0000E+00  0.0000E+00
    -42.741  0.0000E+00  0.0000E+00  0.0000E+00  0.0000E+00  0.0000E+00  0.0000E+00  0.0000E+00  0.0000E+00  0.0000E+00
    -42.479  0.0000E+00  0.0000E+00  0.0000E+00  0.0000E+00  0.0000E+00  0.0000E+00  0.0000E+00  0.0000E+00  0.0000E+00
    -42.217  0.0000E+00  0.0000E+00  0.0000E+00  0.0000E+00  0.0000E+00  0.0000E+00  0.0000E+00  0.0000E+00  0.0000E+00
    -41.956  0.0000E+00  0.0000E+00  0.0000E+00  0.0000E+00  0.0000E+00  0.0000E+00  0.0000E+00  0.0000E+00  0.0000E+00
    -41.694  0.0000E+00  0.0000E+00  0.0000E+00  0.0000E+00  0.0000E+00  0.0000E+00  0.0000E+00  0.0000E+00  0.0000E+00
    -41.432  0.0000E+00  0.0000E+00  0.0000E+00  0.0000E+00  0.0000E+00  0.0000E+00  0.0000E+00  0.0000E+00  0.0000E+00
    -41.170  0.0000E+00  0.0000E+00  0.0000E+00  0.0000E+00  0.0000E+00  0.0000E+00  0.0000E+00  0.0000E+00  0.0000E+00
    -40.908  0.0000E+00  0.0000E+00  0.0000E+00  0.0000E+00  0.0000E+00  0.0000E+00  0.0000E+00  0.0000E+00  0.0000E+00
    -40.647  0.0000E+00  0.0000E+00  0.0000E+00  0.0000E+00  0.0000E+00  0.0000E+00  0.0000E+00  0.0000E+00  0.0000E+00
    -40.385  0.0000E+00  0.0000E+00  0.0000E+00  0.0000E+00  0.0000E+00  0.0000E+00  0.0000E+00  0.0000E+00  0.0000E+00
    -40.123  0.0000E+00  0.0000E+00  0.0000E+00  0.0000E+00  0.0000E+00  0.0000E+00  0.0000E+00  0.0000E+00  0.0000E+00
    -39.861  0.0000E+00  0.0000E+00  0.0000E+00  0.0000E+00  0.0000E+00  0.0000E+00  0.0000E+00  0.0000E+00  0.0000E+00
    -39.599  0.0000E+00  0.0000E+00  0.0000E+00  0.0000E+00  0.0000E+00  0.0000E+00  0.0000E+00  0.0000E+00  0.0000E+00
    -39.337  0.0000E+00  0.0000E+00  0.0000E+00  0.0000E+00  0.0000E+00  0.0000E+00  0.0000E+00  0.0000E+00  0.0000E+00
    -39.076  0.0000E+00  0.0000E+00  0.0000E+00  0.0000E+00  0.0000E+00  0.0000E+00  0.0000E+00  0.0000E+00  0.0000E+00
    -38.814  0.0000E+00  0.0000E+00  0.0000E+00  0.0000E+00  0.0000E+00  0.0000E+00  0.0000E+00  0.0000E+00  0.0000E+00
    -38.552  0.0000E+00  0.0000E+00  0.0000E+00  0.0000E+00  0.0000E+00  0.0000E+00  0.0000E+00  0.0000E+00  0.0000E+00
    -38.290  0.0000E+00  0.0000E+00  0.0000E+00  0.0000E+00  0.0000E+00  0.0000E+00  0.0000E+00  0.0000E+00  0.0000E+00
    -38.028  0.0000E+00  0.0000E+00  0.0000E+00  0.0000E+00  0.0000E+00  0.0000E+00  0.0000E+00  0.0000E+00  0.0000E+00
    -37.766  0.0000E+00  0.0000E+00  0.0000E+00  0.0000E+00  0.0000E+00  0.0000E+00  0.0000E+00  0.0000E+00  0.0000E+00
    -37.505  0.0000E+00  0.0000E+00  0.0000E+00  0.0000E+00  0.0000E+00  0.0000E+00  0.0000E+00  0.0000E+00  0.0000E+00
    -37.243  0.0000E+00  0.0000E+00  0.0000E+00  0.0000E+00  0.0000E+00  0.0000E+00  0.0000E+00  0.0000E+00  0.0000E+00
    -36.981  0.0000E+00  0.0000E+00  0.0000E+00  0.0000E+00  0.0000E+00  0.0000E+00  0.0000E+00  0.0000E+00  0.0000E+00
    -36.719  0.0000E+00  0.0000E+00  0.0000E+00  0.0000E+00  0.0000E+00  0.0000E+00  0.0000E+00  0.0000E+00  0.0000E+00
    -36.457  0.0000E+00  0.0000E+00  0.0000E+00  0.0000E+00  0.0000E+00  0.0000E+00  0.0000E+00  0.0000E+00  0.0000E+00
    -36.195  0.0000E+00  0.0000E+00  0.0000E+00  0.0000E+00  0.0000E+00  0.0000E+00  0.0000E+00  0.0000E+00  0.0000E+00
    -35.934  0.0000E+00  0.0000E+00  0.0000E+00  0.0000E+00  0.0000E+00  0.0000E+00  0.0000E+00  0.0000E+00  0.0000E+00
    -35.672  0.0000E+00  0.0000E+00  0.0000E+00  0.0000E+00  0.0000E+00  0.0000E+00  0.0000E+00  0.0000E+00  0.0000E+00
    -35.410  0.0000E+00  0.0000E+00  0.0000E+00  0.0000E+00  0.0000E+00  0.0000E+00  0.0000E+00  0.0000E+00  0.0000E+00
    -35.148  0.0000E+00  0.0000E+00  0.0000E+00  0.0000E+00  0.0000E+00  0.0000E+00  0.0000E+00  0.0000E+00  0.0000E+00
    -34.886  0.0000E+00  0.0000E+00  0.0000E+00  0.0000E+00  0.0000E+00  0.0000E+00  0.0000E+00  0.0000E+00  0.0000E+00
    -34.625  0.0000E+00  0.0000E+00  0.0000E+00  0.0000E+00  0.0000E+00  0.0000E+00  0.0000E+00  0.0000E+00  0.0000E+00
    -34.363  0.0000E+00  0.0000E+00  0.0000E+00  0.0000E+00  0.0000E+00  0.0000E+00  0.0000E+00  0.0000E+00  0.0000E+00
    -34.101  0.0000E+00  0.0000E+00  0.0000E+00  0.0000E+00  0.0000E+00  0.0000E+00  0.0000E+00  0.0000E+00  0.0000E+00
    -33.839  0.0000E+00  0.0000E+00  0.0000E+00  0.0000E+00  0.0000E+00  0.0000E+00  0.0000E+00  0.0000E+00  0.0000E+00
    -33.577  0.0000E+00  0.0000E+00  0.0000E+00  0.0000E+00  0.0000E+00  0.0000E+00  0.0000E+00  0.0000E+00  0.0000E+00
    -33.315  0.0000E+00  0.0000E+00  0.0000E+00  0.0000E+00  0.0000E+00  0.0000E+00  0.0000E+00  0.0000E+00  0.0000E+00
    -33.054  0.0000E+00  0.0000E+00  0.0000E+00  0.0000E+00  0.0000E+00  0.0000E+00  0.0000E+00  0.0000E+00  0.0000E+00
    -32.792  0.0000E+00  0.0000E+00  0.0000E+00  0.0000E+00  0.0000E+00  0.0000E+00  0.0000E+00  0.0000E+00  0.0000E+00
    -32.530  0.0000E+00  0.0000E+00  0.0000E+00  0.0000E+00  0.0000E+00  0.0000E+00  0.0000E+00  0.0000E+00  0.0000E+00
    -32.268  0.0000E+00  0.0000E+00  0.0000E+00  0.0000E+00  0.0000E+00  0.0000E+00  0.0000E+00  0.0000E+00  0.0000E+00
    -32.006  0.0000E+00  0.0000E+00  0.0000E+00  0.0000E+00  0.0000E+00  0.0000E+00  0.0000E+00  0.0000E+00  0.0000E+00
    -31.744  0.0000E+00  0.0000E+00  0.0000E+00  0.0000E+00  0.0000E+00  0.0000E+00  0.0000E+00  0.0000E+00  0.0000E+00
    -31.483  0.0000E+00  0.0000E+00  0.0000E+00  0.0000E+00  0.0000E+00  0.0000E+00  0.0000E+00  0.0000E+00  0.0000E+00
    -31.221  0.0000E+00  0.0000E+00  0.0000E+00  0.0000E+00  0.0000E+00  0.0000E+00  0.0000E+00  0.0000E+00  0.0000E+00
    -30.959  0.0000E+00  0.0000E+00  0.0000E+00  0.0000E+00  0.0000E+00  0.0000E+00  0.0000E+00  0.0000E+00  0.0000E+00
    -30.697  0.0000E+00  0.0000E+00  0.0000E+00  0.0000E+00  0.0000E+00  0.0000E+00  0.0000E+00  0.0000E+00  0.0000E+00
    -30.435  0.0000E+00  0.0000E+00  0.0000E+00  0.0000E+00  0.0000E+00  0.0000E+00  0.0000E+00  0.0000E+00  0.0000E+00
    -30.173  0.0000E+00  0.0000E+00  0.0000E+00  0.0000E+00  0.0000E+00  0.0000E+00  0.0000E+00  0.0000E+00  0.0000E+00
    -29.912  0.0000E+00  0.0000E+00  0.0000E+00  0.0000E+00  0.0000E+00  0.0000E+00  0.0000E+00  0.0000E+00  0.0000E+00
    -29.650  0.0000E+00  0.0000E+00  0.0000E+00  0.0000E+00  0.0000E+00  0.0000E+00  0.0000E+00  0.0000E+00  0.0000E+00
    -29.388  0.0000E+00  0.0000E+00  0.0000E+00  0.0000E+00  0.0000E+00  0.0000E+00  0.0000E+00  0.0000E+00  0.0000E+00
    -29.126  0.0000E+00  0.0000E+00  0.0000E+00  0.0000E+00  0.0000E+00  0.0000E+00  0.0000E+00  0.0000E+00  0.0000E+00
    -28.864  0.0000E+00  0.0000E+00  0.0000E+00  0.0000E+00  0.0000E+00  0.0000E+00  0.0000E+00  0.0000E+00  0.0000E+00
    -28.603  0.0000E+00  0.0000E+00  0.0000E+00  0.0000E+00  0.0000E+00  0.0000E+00  0.0000E+00  0.0000E+00  0.0000E+00
    -28.341  0.0000E+00  0.0000E+00  0.0000E+00  0.0000E+00  0.0000E+00  0.0000E+00  0.0000E+00  0.0000E+00  0.0000E+00
    -28.079  0.0000E+00  0.0000E+00  0.0000E+00  0.0000E+00  0.0000E+00  0.0000E+00  0.0000E+00  0.0000E+00  0.0000E+00
    -27.817  0.0000E+00  0.0000E+00  0.0000E+00  0.0000E+00  0.0000E+00  0.0000E+00  0.0000E+00  0.0000E+00  0.0000E+00
    -27.555  0.0000E+00  0.0000E+00  0.0000E+00  0.0000E+00  0.0000E+00  0.0000E+00  0.0000E+00  0.0000E+00  0.0000E+00
    -27.293  0.0000E+00  0.0000E+00  0.0000E+00  0.0000E+00  0.0000E+00  0.0000E+00  0.0000E+00  0.0000E+00  0.0000E+00
    -27.032  0.0000E+00  0.0000E+00  0.0000E+00  0.0000E+00  0.0000E+00  0.0000E+00  0.0000E+00  0.0000E+00  0.0000E+00
    -26.770  0.0000E+00  0.0000E+00  0.0000E+00  0.0000E+00  0.0000E+00  0.0000E+00  0.0000E+00  0.0000E+00  0.0000E+00
    -26.508  0.0000E+00  0.0000E+00  0.0000E+00  0.0000E+00  0.0000E+00  0.0000E+00  0.0000E+00  0.0000E+00  0.0000E+00
    -26.246  0.0000E+00  0.0000E+00  0.0000E+00  0.0000E+00  0.0000E+00  0.0000E+00  0.0000E+00  0.0000E+00  0.0000E+00
    -25.984  0.0000E+00  0.0000E+00  0.0000E+00  0.0000E+00  0.0000E+00  0.0000E+00  0.0000E+00  0.0000E+00  0.0000E+00
    -25.722  0.0000E+00  0.0000E+00  0.0000E+00  0.0000E+00  0.0000E+00  0.0000E+00  0.0000E+00  0.0000E+00  0.0000E+00
    -25.461  0.0000E+00  0.0000E+00  0.0000E+00  0.0000E+00  0.0000E+00  0.0000E+00  0.0000E+00  0.0000E+00  0.0000E+00
    -25.199  0.0000E+00  0.0000E+00  0.0000E+00  0.0000E+00  0.0000E+00  0.0000E+00  0.0000E+00  0.0000E+00  0.0000E+00
    -24.937  0.0000E+00  0.0000E+00  0.0000E+00  0.0000E+00  0.0000E+00  0.0000E+00  0.0000E+00  0.0000E+00  0.0000E+00
    -24.675  0.0000E+00  0.0000E+00  0.0000E+00  0.0000E+00  0.0000E+00  0.0000E+00  0.0000E+00  0.0000E+00  0.0000E+00
    -24.413  0.0000E+00  0.0000E+00  0.0000E+00  0.0000E+00  0.0000E+00  0.0000E+00  0.0000E+00  0.0000E+00  0.0000E+00
    -24.151  0.0000E+00  0.0000E+00  0.0000E+00  0.0000E+00  0.0000E+00  0.0000E+00  0.0000E+00  0.0000E+00  0.0000E+00
    -23.890  0.0000E+00  0.0000E+00  0.0000E+00  0.0000E+00  0.0000E+00  0.0000E+00  0.0000E+00  0.0000E+00  0.0000E+00
    -23.628  0.0000E+00  0.0000E+00  0.0000E+00  0.0000E+00  0.0000E+00  0.0000E+00  0.0000E+00  0.0000E+00  0.0000E+00
    -23.366  0.0000E+00  0.0000E+00  0.0000E+00  0.0000E+00  0.0000E+00  0.0000E+00  0.0000E+00  0.0000E+00  0.0000E+00
    -23.104  0.0000E+00  0.0000E+00  0.0000E+00  0.0000E+00  0.0000E+00  0.0000E+00  0.0000E+00  0.0000E+00  0.0000E+00
    -22.842  0.0000E+00  0.0000E+00  0.0000E+00  0.0000E+00  0.0000E+00  0.0000E+00  0.0000E+00  0.0000E+00  0.0000E+00
    -22.581  0.0000E+00  0.0000E+00  0.0000E+00  0.0000E+00  0.0000E+00  0.0000E+00  0.0000E+00  0.0000E+00  0.0000E+00
    -22.319  0.0000E+00  0.0000E+00  0.0000E+00  0.0000E+00  0.0000E+00  0.0000E+00  0.0000E+00  0.0000E+00  0.0000E+00
    -22.057  0.0000E+00  0.0000E+00  0.0000E+00  0.0000E+00  0.0000E+00  0.0000E+00  0.0000E+00  0.0000E+00  0.0000E+00
    -21.795  0.0000E+00  0.0000E+00  0.0000E+00  0.0000E+00  0.0000E+00  0.0000E+00  0.0000E+00  0.0000E+00  0.0000E+00
    -21.533  0.0000E+00  0.0000E+00  0.0000E+00  0.0000E+00  0.0000E+00  0.0000E+00  0.0000E+00  0.0000E+00  0.0000E+00
    -21.271  0.0000E+00  0.0000E+00  0.0000E+00  0.0000E+00  0.0000E+00  0.0000E+00  0.0000E+00  0.0000E+00  0.0000E+00
    -21.010  0.0000E+00  0.0000E+00  0.0000E+00  0.0000E+00  0.0000E+00  0.0000E+00  0.0000E+00  0.0000E+00  0.0000E+00
    -20.748  0.0000E+00  0.0000E+00  0.0000E+00  0.0000E+00  0.0000E+00  0.0000E+00  0.0000E+00  0.0000E+00  0.0000E+00
    -20.486  0.0000E+00  0.0000E+00  0.0000E+00  0.0000E+00  0.0000E+00  0.0000E+00  0.0000E+00  0.0000E+00  0.0000E+00
    -20.224  0.0000E+00  0.0000E+00  0.0000E+00  0.0000E+00  0.0000E+00  0.0000E+00  0.0000E+00  0.0000E+00  0.0000E+00
    -19.962  0.0000E+00  0.0000E+00  0.0000E+00  0.0000E+00  0.0000E+00  0.0000E+00  0.0000E+00  0.0000E+00  0.0000E+00
    -19.700  0.0000E+00  0.0000E+00  0.0000E+00  0.0000E+00  0.0000E+00  0.0000E+00  0.0000E+00  0.0000E+00  0.0000E+00
    -19.439  0.0000E+00  0.0000E+00  0.0000E+00  0.0000E+00  0.0000E+00  0.0000E+00  0.0000E+00  0.0000E+00  0.0000E+00
    -19.177  0.0000E+00  0.0000E+00  0.0000E+00  0.0000E+00  0.0000E+00  0.0000E+00  0.0000E+00  0.0000E+00  0.0000E+00
    -18.915  0.0000E+00  0.0000E+00  0.0000E+00  0.0000E+00  0.0000E+00  0.0000E+00  0.0000E+00  0.0000E+00  0.0000E+00
    -18.653  0.0000E+00  0.0000E+00  0.0000E+00  0.0000E+00  0.0000E+00  0.0000E+00  0.0000E+00  0.0000E+00  0.0000E+00
    -18.391  0.0000E+00  0.0000E+00  0.0000E+00  0.0000E+00  0.0000E+00  0.0000E+00  0.0000E+00  0.0000E+00  0.0000E+00
    -18.129  0.0000E+00  0.0000E+00  0.0000E+00  0.0000E+00  0.0000E+00  0.0000E+00  0.0000E+00  0.0000E+00  0.0000E+00
    -17.868  0.0000E+00  0.0000E+00  0.0000E+00  0.0000E+00  0.0000E+00  0.0000E+00  0.0000E+00  0.0000E+00  0.0000E+00
    -17.606  0.0000E+00  0.0000E+00  0.0000E+00  0.0000E+00  0.0000E+00  0.0000E+00  0.0000E+00  0.0000E+00  0.0000E+00
    -17.344  0.0000E+00  0.0000E+00  0.0000E+00  0.0000E+00  0.0000E+00  0.0000E+00  0.0000E+00  0.0000E+00  0.0000E+00
    -17.082  0.0000E+00  0.0000E+00  0.0000E+00  0.0000E+00  0.0000E+00  0.0000E+00  0.0000E+00  0.0000E+00  0.0000E+00
    -16.820  0.0000E+00  0.0000E+00  0.0000E+00  0.0000E+00  0.0000E+00  0.0000E+00  0.0000E+00  0.0000E+00  0.0000E+00
    -16.558  0.0000E+00  0.0000E+00  0.0000E+00  0.0000E+00  0.0000E+00  0.0000E+00  0.0000E+00  0.0000E+00  0.0000E+00
    -16.297  0.0000E+00  0.0000E+00  0.0000E+00  0.0000E+00  0.0000E+00  0.0000E+00  0.0000E+00  0.0000E+00  0.0000E+00
    -16.035  0.0000E+00  0.0000E+00  0.0000E+00  0.0000E+00  0.0000E+00  0.0000E+00  0.0000E+00  0.0000E+00  0.0000E+00
    -15.773  0.0000E+00  0.0000E+00  0.0000E+00  0.0000E+00  0.0000E+00  0.0000E+00  0.0000E+00  0.0000E+00  0.0000E+00
    -15.511  0.0000E+00  0.0000E+00  0.0000E+00  0.0000E+00  0.0000E+00  0.0000E+00  0.0000E+00  0.0000E+00  0.0000E+00
    -15.249  0.0000E+00  0.0000E+00  0.0000E+00  0.0000E+00  0.0000E+00  0.0000E+00  0.0000E+00  0.0000E+00  0.0000E+00
    -14.988  0.0000E+00  0.0000E+00  0.0000E+00  0.0000E+00  0.0000E+00  0.0000E+00  0.0000E+00  0.0000E+00  0.0000E+00
    -14.726  0.0000E+00  0.0000E+00  0.0000E+00  0.0000E+00  0.0000E+00  0.0000E+00  0.0000E+00  0.0000E+00  0.0000E+00
    -14.464  0.0000E+00  0.0000E+00  0.0000E+00  0.0000E+00  0.0000E+00  0.0000E+00  0.0000E+00  0.0000E+00  0.0000E+00
    -14.202  0.0000E+00  0.0000E+00  0.0000E+00  0.0000E+00  0.0000E+00  0.0000E+00  0.0000E+00  0.0000E+00  0.0000E+00
    -13.940  0.0000E+00  0.0000E+00  0.0000E+00  0.0000E+00  0.0000E+00  0.0000E+00  0.0000E+00  0.0000E+00  0.0000E+00
    -13.678  0.0000E+00  0.0000E+00  0.0000E+00  0.0000E+00  0.0000E+00  0.0000E+00  0.0000E+00  0.0000E+00  0.0000E+00
    -13.417  0.0000E+00  0.0000E+00  0.0000E+00  0.0000E+00  0.0000E+00  0.0000E+00  0.0000E+00  0.0000E+00  0.0000E+00
    -13.155  0.0000E+00  0.0000E+00  0.0000E+00  0.0000E+00  0.0000E+00  0.0000E+00  0.0000E+00  0.0000E+00  0.0000E+00
    -12.893  0.0000E+00  0.0000E+00  0.0000E+00  0.0000E+00  0.0000E+00  0.0000E+00  0.0000E+00  0.0000E+00  0.0000E+00
    -12.631  0.0000E+00  0.0000E+00  0.0000E+00  0.0000E+00  0.0000E+00  0.0000E+00  0.0000E+00  0.0000E+00  0.0000E+00
    -12.369  0.0000E+00  0.0000E+00  0.0000E+00  0.0000E+00  0.0000E+00  0.0000E+00  0.0000E+00  0.0000E+00  0.0000E+00
    -12.107  0.0000E+00  0.0000E+00  0.0000E+00  0.0000E+00  0.0000E+00  0.0000E+00  0.0000E+00  0.0000E+00  0.0000E+00
    -11.846  0.0000E+00  0.0000E+00  0.0000E+00  0.0000E+00  0.0000E+00  0.0000E+00  0.0000E+00  0.0000E+00  0.0000E+00
    -11.584  0.0000E+00  0.0000E+00  0.0000E+00  0.0000E+00  0.0000E+00  0.0000E+00  0.0000E+00  0.0000E+00  0.0000E+00
    -11.322  0.0000E+00  0.0000E+00  0.0000E+00  0.0000E+00  0.0000E+00  0.0000E+00  0.0000E+00  0.0000E+00  0.0000E+00
    -11.060  0.0000E+00  0.0000E+00  0.0000E+00  0.0000E+00  0.0000E+00  0.0000E+00  0.0000E+00  0.0000E+00  0.0000E+00
    -10.798  0.0000E+00  0.0000E+00  0.0000E+00  0.0000E+00  0.0000E+00  0.0000E+00  0.0000E+00  0.0000E+00  0.0000E+00
    -10.536  0.0000E+00  0.0000E+00  0.0000E+00  0.0000E+00  0.0000E+00  0.0000E+00  0.0000E+00  0.0000E+00  0.0000E+00
    -10.275  0.0000E+00  0.0000E+00  0.0000E+00  0.0000E+00  0.0000E+00  0.0000E+00  0.0000E+00  0.0000E+00  0.0000E+00
    -10.013  0.0000E+00  0.0000E+00  0.0000E+00  0.0000E+00  0.0000E+00  0.0000E+00  0.0000E+00  0.0000E+00  0.0000E+00
     -9.751  0.0000E+00  0.0000E+00  0.0000E+00  0.0000E+00  0.0000E+00  0.0000E+00  0.0000E+00  0.0000E+00  0.0000E+00
     -9.489  0.0000E+00  0.0000E+00  0.0000E+00  0.0000E+00  0.0000E+00  0.0000E+00  0.0000E+00  0.0000E+00  0.0000E+00
     -9.227  0.0000E+00  0.0000E+00  0.0000E+00  0.0000E+00  0.0000E+00  0.0000E+00  0.0000E+00  0.0000E+00  0.0000E+00
     -8.966  0.0000E+00  0.0000E+00  0.0000E+00  0.0000E+00  0.0000E+00  0.0000E+00  0.0000E+00  0.0000E+00  0.0000E+00
     -8.704  0.0000E+00  0.0000E+00  0.0000E+00  0.0000E+00  0.0000E+00  0.0000E+00  0.0000E+00  0.0000E+00  0.0000E+00
     -8.442  0.0000E+00  0.0000E+00  0.0000E+00  0.0000E+00  0.0000E+00  0.0000E+00  0.0000E+00  0.0000E+00  0.0000E+00
     -8.180  0.0000E+00  0.0000E+00  0.0000E+00  0.0000E+00  0.0000E+00  0.0000E+00  0.0000E+00  0.0000E+00  0.0000E+00
     -7.918  0.0000E+00  0.0000E+00  0.0000E+00  0.0000E+00  0.0000E+00  0.0000E+00  0.0000E+00  0.0000E+00  0.0000E+00
     -7.656  0.0000E+00  0.0000E+00  0.0000E+00  0.0000E+00  0.0000E+00  0.0000E+00  0.0000E+00  0.0000E+00  0.0000E+00
     -7.395  0.0000E+00  0.0000E+00  0.0000E+00  0.0000E+00  0.0000E+00  0.0000E+00  0.0000E+00  0.0000E+00  0.0000E+00
     -7.133  0.0000E+00  0.0000E+00  0.0000E+00  0.0000E+00  0.0000E+00  0.0000E+00  0.0000E+00  0.0000E+00  0.0000E+00
     -6.871  0.0000E+00  0.0000E+00  0.0000E+00  0.0000E+00  0.0000E+00  0.0000E+00  0.0000E+00  0.0000E+00  0.0000E+00
     -6.609  0.0000E+00  0.0000E+00  0.0000E+00  0.0000E+00  0.0000E+00  0.0000E+00  0.0000E+00  0.0000E+00  0.0000E+00