    2    2  100    1
  0.1864194E+02  0.2918150E-09  0.2918150E-09  0.5055628E-09  0.5000000E-15
  1.000000000000000E-004
  CAR 
 Pt-hcc                                  
     32     70     24
 
  0.0000000E+00  0.0000000E+00  0.0000000E+00  0.1250000E-02
      1        -43.709807   1.000000
      2        -43.684109   1.000000
      3        -43.684108   1.000000
      4        -43.661666   1.000000
      5        -43.661665   1.000000
      6        -43.539022   1.000000
      7          0.219993   1.000000
      8          2.694439   1.000000
      9          5.305101   1.000000
     10          5.678864   1.000000
     11          5.678865   1.000000
     12          5.951989   1.000000
     13          5.951990   1.000000
     14          6.927002   1.000000
     15          6.927002   1.000000
     16          8.123891   0.999988
     17          8.123891   0.999988
     18          8.291646   0.301932
     19         12.021667   0.000000
     20         23.476179   0.000000
     21         23.846915   0.000000
     22         25.362517   0.000000
     23         27.506551   0.000000
     24         27.506551   0.000000
 
  0.1000000E+00  0.6938894E-17  0.0000000E+00  0.7500000E-02
      1        -43.704102   1.000000
      2        -43.703169   1.000000
      3        -43.689709   1.000000
      4        -43.682114   1.000000
      5        -43.666243   1.000000
      6        -43.541080   1.000000
      7          0.528582   1.000000
      8          2.967781   1.000000
      9          5.253059   1.000000
     10          5.694425   1.000000
     11          5.845026   1.000000
     12          5.892980   1.000000
     13          6.154016   1.000000
     14          6.564235   1.000000
     15          6.802213   1.000000
     16          7.011328   1.000000
     17          8.165873   0.998811
     18          9.873475   0.000000
     19         12.007275   0.000000
     20         23.554923   0.000000
     21         24.296755   0.000000
     22         25.062799   0.000000
     23         26.126362   0.000000
     24         26.597690   0.000000
 
  0.2000000E+00  0.1387779E-16  0.0000000E+00  0.7500000E-02
      1        -43.753137   1.000000
      2        -43.732319   1.000000
      3        -43.704223   1.000000
      4        -43.687494   1.000000
      5        -43.677693   1.000000
      6        -43.546104   1.000000
      7          1.382947   1.000000
      8          3.585239   1.000000
      9          5.080987   1.000000
     10          5.478343   1.000000
     11          5.518720   1.000000
     12          6.172907   1.000000
     13          6.495344   1.000000
     14          6.521796   1.000000
     15          6.571968   1.000000
     16          6.719767   1.000000
     17          8.234325   0.864863
     18         11.732308   0.000000
     19         12.008586   0.000000
     20         20.992427   0.000000
     21         23.949283   0.000000
     22         24.858523   0.000000
     23         25.454457   0.000000
     24         25.763947   0.000000
 
  0.3000000E+00  0.5551115E-16  0.0000000E+00  0.7500000E-02
      1        -43.814371   1.000000
      2        -43.793981   1.000000
      3        -43.721801   1.000000
      4        -43.691202   1.000000
      5        -43.664343   1.000000
      6        -43.554827   1.000000
      7          2.477832   1.000000
      8          3.746431   1.000000
      9          4.684670   1.000000
     10          5.290767   1.000000
     11          5.553313   1.000000
     12          6.182601   1.000000
     13          6.228460   1.000000
     14          7.056590   1.000000
     15          7.346928   1.000000
     16          7.510439   1.000000
     17          8.271655   0.518575
     18         12.234683   0.000000
     19         13.676838   0.000000
     20         17.397898   0.000000
     21         21.879510   0.000000
     22         23.112007   0.000000
     23         23.146366   0.000000
     24         25.250484   0.000000
 
  0.4000000E+00  0.2775558E-16  0.0000000E+00  0.7500000E-02
      1        -43.864464   1.000000
      2        -43.842990   1.000000
      3        -43.735735   1.000000
      4        -43.702592   1.000000
      5        -43.640902   1.000000
      6        -43.566178   1.000000
      7          3.157222   1.000000
      8          3.505513   1.000000
      9          4.172338   1.000000
     10          5.695405   1.000000
     11          5.895109   1.000000
     12          6.017584   1.000000
     13          6.221511   1.000000
     14          8.143395   0.999881
     15          8.272740   0.506335
     16          8.280334   0.421168
     17          8.537739   0.000000
     18         13.182862   0.000000
     19         13.978917   0.000000
     20         15.486535   0.000000
     21         19.081290   0.000000
     22         20.291868   0.000000
     23         21.514270   0.000000
     24         24.141868   0.000000
 
  0.5000000E+00  0.5551115E-16  0.0000000E+00  0.3750000E-02
      1        -43.883240   1.000000
      2        -43.861982   1.000000
      3        -43.740940   1.000000
      4        -43.706564   1.000000
      5        -43.629458   1.000000
      6        -43.573343   1.000000
      7          3.324094   1.000000
      8          3.356208   1.000000
      9          3.999447   1.000000
     10          5.790442   1.000000
     11          5.941661   1.000000
     12          6.085784   1.000000
     13          6.432598   1.000000
     14          8.279933   0.425614
     15          8.470955   0.000000
     16          8.619425   0.000000
     17         10.295768   0.000000
     18         11.468841   0.000000
     19         14.819944   0.000000
     20         16.358977   0.000000
     21         16.420643   0.000000
     22         19.667587   0.000000
     23         20.655998   0.000000
     24         23.727907   0.000000
 
  0.1000000E+00  0.1000000E+00  0.0000000E+00  0.7500000E-02
      1        -43.734681   1.000000
      2        -43.720284   1.000000
      3        -43.696862   1.000000
      4        -43.692879   1.000000
      5        -43.676845   1.000000
      6        -43.544354   1.000000
      7          1.115887   1.000000
      8          3.448554   1.000000
      9          5.052053   1.000000
     10          5.623698   1.000000
     11          5.840972   1.000000
     12          5.868695   1.000000
     13          6.343373   1.000000
     14          6.380402   1.000000
     15          6.605527   1.000000
     16          6.876976   1.000000
     17          8.180586   0.995634
     18         11.232694   0.000000
     19         12.002162   0.000000
     20         22.746582   0.000000
     21         22.788816   0.000000
     22         25.086321   0.000000
     23         25.899720   0.000000
     24         26.228791   0.000000
 
  0.2000000E+00  0.1000000E+00  0.0000000E+00  0.1500000E-01
      1        -43.786309   1.000000
      2        -43.772472   1.000000
      3        -43.717177   1.000000
      4        -43.692789   1.000000
      5        -43.672867   1.000000
      6        -43.550919   1.000000
      7          2.145219   1.000000
      8          3.991946   1.000000
      9          4.915118   1.000000
     10          5.007921   1.000000
     11          5.414920   1.000000
     12          6.014733   1.000000
     13          6.335643   1.000000
     14          6.596905   1.000000
     15          7.151592   1.000000
     16          7.447255   1.000000
     17          8.180118   0.995801
     18         12.128692   0.000000
     19         13.036614   0.000000
     20         19.208176   0.000000
     21         21.140077   0.000000
     22         24.118252   0.000000
     23         25.328515   0.000000
     24         25.634360   0.000000
 
  0.3000000E+00  0.1000000E+00  0.0000000E+00  0.1500000E-01
      1        -43.839437   1.000000
      2        -43.821721   1.000000
      3        -43.737759   1.000000
      4        -43.708043   1.000000
      5        -43.648777   1.000000
      6        -43.561764   1.000000
      7          3.138991   1.000000
      8          3.838632   1.000000
      9          4.400640   1.000000
     10          5.303340   1.000000
     11          5.769582   1.000000
     12          5.790618   1.000000
     13          6.226334   1.000000
     14          7.173136   1.000000
     15          7.961771   1.000000
     16          8.170215   0.998226
     17          8.544653   0.000000
     18         12.774844   0.000000
     19         14.939195   0.000000
     20         15.667148   0.000000
     21         19.258795   0.000000
     22         21.701898   0.000000
     23         22.467777   0.000000
     24         24.356722   0.000000
 
  0.4000000E+00  0.1000000E+00  0.0000000E+00  0.1500000E-01
      1        -43.873029   1.000000
      2        -43.851898   1.000000
      3        -43.750406   1.000000
      4        -43.717694   1.000000
      5        -43.629525   1.000000
      6        -43.573531   1.000000
      7          3.504115   1.000000
      8          3.615391   1.000000
      9          4.087176   1.000000
     10          5.749611   1.000000
     11          5.918614   1.000000
     12          5.933984   1.000000
     13          6.181764   1.000000
     14          8.092607   1.000000
     15          8.157859   0.999453
     16          8.362503   0.005818
     17          9.988019   0.000000
     18         12.557815   0.000000
     19         14.394055   0.000000
     20         16.513263   0.000000
     21         17.028159   0.000000
     22         19.356392   0.000000
     23         21.046403   0.000000
     24         23.578383   0.000000
 
  0.2000000E+00  0.2000000E+00  0.0000000E+00  0.7500000E-02
      1        -43.816712   1.000000
      2        -43.816297   1.000000
      3        -43.740886   1.000000
      4        -43.719772   1.000000
      5        -43.651848   1.000000
      6        -43.560564   1.000000
      7          3.219994   1.000000
      8          4.497406   1.000000
      9          4.559764   1.000000
     10          4.569588   1.000000
     11          5.576808   1.000000
     12          5.646015   1.000000
     13          6.375887   1.000000
     14          6.611949   1.000000
     15          7.954239   1.000000
     16          8.050866   1.000000
     17          8.607026   0.000000
     18         12.702017   0.000000
     19         14.786902   0.000000
     20         17.098140   0.000000
     21         18.024974   0.000000
     22         23.299500   0.000000
     23         23.345632   0.000000
     24         24.180263   0.000000
 
  0.3000000E+00  0.2000000E+00  0.0000000E+00  0.1500000E-01
      1        -43.848923   1.000000
      2        -43.834431   1.000000
      3        -43.767782   1.000000
      4        -43.742683   1.000000
      5        -43.629595   1.000000
      6        -43.573369   1.000000
      7          3.969585   1.000000
      8          4.235517   1.000000
      9          4.262518   1.000000
     10          5.132885   1.000000
     11          5.535220   1.000000
     12          6.010482   1.000000
     13          6.013002   1.000000
     14          7.211249   1.000000
     15          7.951369   1.000000
     16          8.276012   0.469446
     17          9.964974   0.000000
     18         13.606264   0.000000
     19         14.702801   0.000000
     20         16.345046   0.000000
     21         16.657659   0.000000
     22         20.470232   0.000000
     23         22.007955   0.000000
     24         23.026678   0.000000
 
  0.4000000E+00  0.2000000E+00  0.0000000E+00  0.7500000E-02
      1        -43.861171   1.000000
      2        -43.839687   1.000000
      3        -43.780454   1.000000
      4        -43.751058   1.000000
      5        -43.617051   1.000000
      6        -43.582494   1.000000
      7          4.093063   1.000000
      8          4.117389   1.000000
      9          4.158844   1.000000
     10          5.600856   1.000000
     11          5.637136   1.000000
     12          5.727447   1.000000
     13          6.222471   1.000000
     14          7.784089   1.000000
     15          7.915162   1.000000
     16          8.128968   0.999978
     17         11.494345   0.000000
     18         11.773420   0.000000
     19         15.079352   0.000000
     20         16.390904   0.000000
     21         17.804211   0.000000
     22         18.447721   0.000000
     23         20.889355   0.000000
     24         22.482502   0.000000
 
  0.3000000E+00  0.3000000E+00  0.0000000E+00  0.7500000E-02
      1        -43.841995   1.000000
      2        -43.825849   1.000000
      3        -43.800782   1.000000
      4        -43.779783   1.000000
      5        -43.610039   1.000000
      6        -43.588455   1.000000
      7          4.235658   1.000000
      8          4.464018   1.000000
      9          4.684882   1.000000
     10          5.048620   1.000000
     11          5.500086   1.000000
     12          5.707706   1.000000
     13          6.290324   1.000000
     14          7.480099   1.000000
     15          7.793871   1.000000
     16          8.013288   1.000000
     17         11.393842   0.000000
     18         12.630029   0.000000
     19         14.102111   0.000000
     20         16.996255   0.000000
     21         18.562041   0.000000
     22         19.492776   0.000000
     23         20.163315   0.000000
     24         20.771576   0.000000
 
  0.0000000E+00  0.0000000E+00  0.1250000E+00  0.2500000E-02
      1        -43.703746   1.000000
      2        -43.683485   1.000000
      3        -43.683484   1.000000
      4        -43.663079   1.000000
      5        -43.663078   1.000000
      6        -43.546219   1.000000
      7          0.334451   1.000000
      8          2.666332   1.000000
      9          5.281463   1.000000
     10          5.663687   1.000000
     11          5.663688   1.000000
     12          5.922918   1.000000
     13          5.922919   1.000000
     14          6.999783   1.000000
     15          6.999783   1.000000
     16          7.650338   1.000000
     17          8.100962   0.999999
     18          8.100963   0.999999
     19         12.907365   0.000000
     20         22.996585   0.000000
     21         24.204952   0.000000
     22         25.119275   0.000000
     23         27.316717   0.000000
     24         27.316717   0.000000
 
  0.1000000E+00  0.6938894E-17  0.1250000E+00  0.1500000E-01
      1        -43.705729   1.000000
      2        -43.694671   1.000000
      3        -43.688802   1.000000
      4        -43.682988   1.000000
      5        -43.667328   1.000000
      6        -43.546944   1.000000
      7          0.641230   1.000000
      8          2.945529   1.000000
      9          5.256224   1.000000
     10          5.630494   1.000000
     11          5.774033   1.000000
     12          5.871146   1.000000
     13          6.122224   1.000000
     14          6.557379   1.000000
     15          6.889059   1.000000
     16          6.955489   1.000000
     17          8.135878   0.999949
     18          9.260870   0.000000
     19         13.030981   0.000000
     20         23.275627   0.000000
     21         24.366148   0.000000
     22         25.073477   0.000000
     23         26.090637   0.000000
     24         26.152656   0.000000
 
  0.2000000E+00  0.1387779E-16  0.1250000E+00  0.1500000E-01
      1        -43.753620   1.000000
      2        -43.733681   1.000000
      3        -43.703218   1.000000
      4        -43.680898   1.000000
      5        -43.678294   1.000000
      6        -43.550832   1.000000
      7          1.484943   1.000000
      8          3.583903   1.000000
      9          5.106140   1.000000
     10          5.286387   1.000000
     11          5.507609   1.000000
     12          6.105977   1.000000
     13          6.375850   1.000000
     14          6.634177   1.000000
     15          6.711616   1.000000
     16          6.764400   1.000000
     17          8.189305   0.991244
     18         10.473172   0.000000
     19         13.547652   0.000000
     20         21.098406   0.000000
     21         24.096735   0.000000
     22         24.503163   0.000000
     23         24.932809   0.000000
     24         25.957119   0.000000
 
  0.3000000E+00  0.5551115E-16  0.1250000E+00  0.1500000E-01
      1        -43.815011   1.000000
      2        -43.795403   1.000000
      3        -43.720458   1.000000
      4        -43.692326   1.000000
      5        -43.659139   1.000000
      6        -43.558012   1.000000
      7          2.534998   1.000000
      8          3.764608   1.000000
      9          4.658806   1.000000
     10          5.167477   1.000000
     11          5.578220   1.000000
     12          6.258791   1.000000
     13          6.275745   1.000000
     14          7.096927   1.000000
     15          7.363992   1.000000
     16          7.474832   1.000000
     17          8.219941   0.934385
     18         11.374294   0.000000
     19         14.610890   0.000000
     20         17.628294   0.000000
     21         22.077250   0.000000
     22         22.094165   0.000000
     23         23.828035   0.000000
     24         25.523055   0.000000
 
  0.4000000E+00  0.2775558E-16  0.1250000E+00  0.1500000E-01
      1        -43.864641   1.000000
      2        -43.844960   1.000000
      3        -43.734599   1.000000
      4        -43.703878   1.000000
      5        -43.637206   1.000000
      6        -43.568338   1.000000
      7          3.119001   1.000000
      8          3.516649   1.000000
      9          4.277317   1.000000
     10          5.215101   1.000000
     11          6.035917   1.000000
     12          6.082753   1.000000
     13          6.678435   1.000000
     14          8.090064   1.000000
     15          8.156600   0.999518
     16          8.344843   0.021512
     17          8.469008   0.000000
     18         12.468979   0.000000
     19         13.991951   0.000000
     20         16.219662   0.000000
     21         18.842458   0.000000
     22         20.513993   0.000000
     23         21.828063   0.000000
     24         24.335213   0.000000
 
  0.5000000E+00  0.5551115E-16  0.1250000E+00  0.7500000E-02
      1        -43.883544   1.000000
      2        -43.863233   1.000000
      3        -43.739635   1.000000
      4        -43.707912   1.000000
      5        -43.626138   1.000000
      6        -43.574790   1.000000
      7          3.223053   1.000000
      8          3.377583   1.000000
      9          4.155325   1.000000
     10          5.272025   1.000000
     11          6.010982   1.000000
     12          6.151676   1.000000
     13          7.054303   1.000000
     14          8.152301   0.999690
     15          8.486441   0.000000
     16          8.614800   0.000000
     17         10.148599   0.000000
     18         11.408038   0.000000
     19         14.626381   0.000000
     20         15.107387   0.000000
     21         17.905205   0.000000
     22         19.898649   0.000000
     23         20.833605   0.000000
     24         23.950119   0.000000
 
  0.1000000E+00  0.1000000E+00  0.1250000E+00  0.1500000E-01
      1        -43.735497   1.000000
      2        -43.720763   1.000000
      3        -43.696470   1.000000
      4        -43.685773   1.000000
      5        -43.677546   1.000000
      6        -43.549240   1.000000
      7          1.222873   1.000000
      8          3.440019   1.000000
      9          5.075805   1.000000
     10          5.441456   1.000000
     11          5.702173   1.000000
     12          5.913898   1.000000
     13          6.294351   1.000000
     14          6.466904   1.000000
     15          6.684470   1.000000
     16          6.920224   1.000000
     17          8.141985   0.999898
     18         10.193947   0.000000
     19         13.358589   0.000000
     20         22.785088   0.000000
     21         22.879945   0.000000
     22         24.738219   0.000000
     23         25.421764   0.000000
     24         26.451064   0.000000
 
  0.2000000E+00  0.1000000E+00  0.1250000E+00  0.3000000E-01
      1        -43.786762   1.000000
      2        -43.773414   1.000000
      3        -43.716410   1.000000
      4        -43.694081   1.000000
      5        -43.666897   1.000000
      6        -43.555098   1.000000
      7          2.229312   1.000000
      8          4.013681   1.000000
      9          4.850150   1.000000
     10          4.969796   1.000000
     11          5.405067   1.000000
     12          5.925881   1.000000
     13          6.463455   1.000000
     14          6.576861   1.000000
     15          7.236989   1.000000
     16          7.408357   1.000000
     17          8.142337   0.999894
     18         11.118726   0.000000
     19         14.234397   0.000000
     20         19.365640   0.000000
     21         21.251430   0.000000
     22         23.725845   0.000000
     23         24.778124   0.000000
     24         26.160376   0.000000
 
  0.3000000E+00  0.1000000E+00  0.1250000E+00  0.3000000E-01
      1        -43.839824   1.000000
      2        -43.823329   1.000000
      3        -43.737009   1.000000
      4        -43.709508   1.000000
      5        -43.644359   1.000000
      6        -43.564408   1.000000
      7          3.145010   1.000000
      8          3.864379   1.000000
      9          4.435091   1.000000
     10          5.095027   1.000000
     11          5.747108   1.000000
     12          6.051089   1.000000
     13          6.237952   1.000000
     14          7.185709   1.000000
     15          7.996239   1.000000
     16          8.038367   1.000000
     17          8.582940   0.000000
     18         12.119670   0.000000
     19         15.086782   0.000000
     20         16.406581   0.000000
     21         19.287230   0.000000
     22         21.187625   0.000000
     23         22.953122   0.000000
     24         24.323565   0.000000
 
  0.4000000E+00  0.1000000E+00  0.1250000E+00  0.3000000E-01
      1        -43.873227   1.000000
      2        -43.853522   1.000000
      3        -43.749247   1.000000
      4        -43.719132   1.000000
      5        -43.626129   1.000000
      6        -43.574667   1.000000
      7          3.407551   1.000000
      8          3.631107   1.000000
      9          4.263184   1.000000
     10          5.222399   1.000000
     11          5.818898   1.000000
     12          6.246176   1.000000
     13          6.617366   1.000000
     14          8.007479   1.000000
     15          8.096641   1.000000
     16          8.392838   0.000361
     17          9.965363   0.000000
     18         12.483015   0.000000
     19         13.941221   0.000000
     20         16.270053   0.000000
     21         17.635673   0.000000
     22         19.586121   0.000000
     23         21.321435   0.000000
     24         23.440092   0.000000
 
  0.2000000E+00  0.2000000E+00  0.1250000E+00  0.1500000E-01
      1        -43.817514   1.000000
      2        -43.816837   1.000000
      3        -43.740553   1.000000
      4        -43.720909   1.000000
      5        -43.646760   1.000000
      6        -43.562884   1.000000
      7          3.260832   1.000000
      8          4.412863   1.000000
      9          4.585852   1.000000
     10          4.637124   1.000000
     11          5.589181   1.000000
     12          5.624561   1.000000
     13          6.283078   1.000000
     14          6.733455   1.000000
     15          7.898363   1.000000
     16          8.035127   1.000000
     17          8.656998   0.000000
     18         12.061475   0.000000
     19         15.341520   0.000000
     20         17.465290   0.000000
     21         18.153767   0.000000
     22         22.550942   0.000000
     23         22.879226   0.000000
     24         24.783774   0.000000
 
  0.3000000E+00  0.2000000E+00  0.1250000E+00  0.3000000E-01
      1        -43.849087   1.000000
      2        -43.835789   1.000000
      3        -43.767485   1.000000
      4        -43.743971   1.000000
      5        -43.626036   1.000000
      6        -43.574350   1.000000
      7          3.885998   1.000000
      8          4.250389   1.000000
      9          4.389128   1.000000
     10          4.987400   1.000000
     11          5.632974   1.000000
     12          5.927939   1.000000
     13          6.128392   1.000000
     14          7.259357   1.000000
     15          7.806591   1.000000
     16          8.348305   0.016944
     17         10.001841   0.000000
     18         13.564977   0.000000
     19         14.167635   0.000000
     20         16.375176   0.000000
     21         17.426335   0.000000
     22         20.008601   0.000000
     23         22.036059   0.000000
     24         22.616470   0.000000
 
  0.4000000E+00  0.2000000E+00  0.1250000E+00  0.1500000E-01
      1        -43.860846   1.000000
      2        -43.841066   1.000000
      3        -43.779849   1.000000
      4        -43.752499   1.000000
      5        -43.614264   1.000000
      6        -43.582324   1.000000
      7          3.888803   1.000000
      8          4.153995   1.000000
      9          4.456958   1.000000
     10          5.164996   1.000000
     11          5.527121   1.000000
     12          6.092320   1.000000
     13          6.356513   1.000000
     14          7.764917   1.000000
     15          7.802810   1.000000
     16          8.183751   0.994344
     17         11.581685   0.000000
     18         11.813856   0.000000
     19         15.019652   0.000000
     20         16.059548   0.000000
     21         17.037951   0.000000
     22         19.598783   0.000000
     23         21.071288   0.000000
     24         21.718787   0.000000
 
  0.3000000E+00  0.3000000E+00  0.1250000E+00  0.1500000E-01
      1        -43.841354   1.000000
      2        -43.826847   1.000000
      3        -43.801234   1.000000
      4        -43.781323   1.000000
      5        -43.607522   1.000000
      6        -43.587978   1.000000
      7          4.255999   1.000000
      8          4.450632   1.000000
      9          4.721028   1.000000
     10          4.967159   1.000000
     11          5.591915   1.000000
     12          5.626035   1.000000
     13          6.298974   1.000000
     14          7.550972   1.000000
     15          7.641639   1.000000
     16          8.081485   1.000000
     17         11.477058   0.000000
     18         12.758547   0.000000
     19         14.295983   0.000000
     20         16.201837   0.000000
     21         18.565885   0.000000
     22         18.818803   0.000000
     23         20.385900   0.000000
     24         21.735710   0.000000
 
  0.0000000E+00  0.0000000E+00  0.2500000E+00  0.2500000E-02
      1        -43.685839   1.000000
      2        -43.681181   1.000000
      3        -43.681180   1.000000
      4        -43.665497   1.000000
      5        -43.665496   1.000000
      6        -43.565151   1.000000
      7          0.665657   1.000000
      8          2.547776   1.000000
      9          5.228169   1.000000
     10          5.639589   1.000000
     11          5.639590   1.000000
     12          5.848810   1.000000
     13          5.848810   1.000000
     14          6.576166   1.000000
     15          7.190033   1.000000
     16          7.190033   1.000000
     17          8.025754   1.000000
     18          8.025754   1.000000
     19         14.735574   0.000000
     20         22.277705   0.000000
     21         24.185365   0.000000
     22         24.591008   0.000000
     23         27.091555   0.000000
     24         27.091555   0.000000
 
  0.1000000E+00  0.6938894E-17  0.2500000E+00  0.1500000E-01
      1        -43.703976   1.000000
      2        -43.686392   1.000000
      3        -43.685943   1.000000
      4        -43.676783   1.000000
      5        -43.670025   1.000000
      6        -43.564465   1.000000
      7          0.967744   1.000000
      8          2.840255   1.000000
      9          5.249513   1.000000
     10          5.514250   1.000000
     11          5.589968   1.000000
     12          5.836543   1.000000
     13          6.043950   1.000000
     14          6.213016   1.000000
     15          7.103740   1.000000
     16          7.112059   1.000000
     17          8.040929   1.000000
     18          8.566023   0.000000
     19         14.911228   0.000000
     20         22.623888   0.000000
     21         24.248663   0.000000
     22         24.760115   0.000000
     23         25.695497   0.000000
     24         26.286783   0.000000
 
  0.2000000E+00  0.1387779E-16  0.2500000E+00  0.1500000E-01
      1        -43.753827   1.000000
      2        -43.737360   1.000000
      3        -43.700393   1.000000
      4        -43.681313   1.000000
      5        -43.663369   1.000000
      6        -43.564759   1.000000
      7          1.781196   1.000000
      8          3.528946   1.000000
      9          4.991754   1.000000
     10          5.186766   1.000000
     11          5.328743   1.000000
     12          5.952199   1.000000
     13          6.311804   1.000000
     14          6.576030   1.000000
     15          6.999617   1.000000
     16          7.032516   1.000000
     17          8.056969   1.000000
     18          9.397442   0.000000
     19         15.433698   0.000000
     20         21.411252   0.000000
     21         23.492095   0.000000
     22         24.143037   0.000000
     23         24.535487   0.000000
     24         25.938541   0.000000
 
  0.3000000E+00  0.5551115E-16  0.2500000E+00  0.1500000E-01
      1        -43.815149   1.000000
      2        -43.799563   1.000000
      3        -43.717110   1.000000
      4        -43.695406   1.000000
      5        -43.644817   1.000000
      6        -43.568064   1.000000
      7          2.702670   1.000000